<event>
 7    1  0.4971907E-013  0.5052886E+02  0.7816164E-02  0.1300439E+00
        -11   -1    0    0    0    0  0.00000000000E+00  0.00000000000E+00  0.45593999997E+02  0.45594000000E+02  0.51100000000E-03 0.  1.
         11   -1    0    0    0    0 -0.00000000000E+00 -0.00000000000E+00 -0.45593999997E+02  0.45594000000E+02  0.51100000000E-03 0. -1.
    9900012    2    1    2    0    0  0.25732800602E+02  0.21455631567E+02  0.23035720528E+02  0.50528861138E+02  0.30000003916E+02 0.  0.
         12    1    1    2    0    0 -0.25732800602E+02 -0.21455631567E+02 -0.23035720528E+02  0.40659138862E+02  0.00000000000E+00 0. -1.
         11    1    3    3    0    0  0.13456145965E+02  0.17912068557E+01  0.18156052896E+01  0.13695718640E+02  0.51100000000E-03 0. -1.
        -11    1    3    3    0    0 -0.52236307048E+00  0.82308659277E+01 -0.14762559376E+01  0.83785051741E+01  0.51100000000E-03 0.  1.
        -12    1    3    3    0    0  0.12799017707E+02  0.11433558784E+02  0.22696371176E+02  0.28454637324E+02  0.00000000000E+00 0.  1.
</event>
<event>
 7    1  0.4971907E-013  0.5052886E+02  0.7816164E-02  0.1300439E+00
        -11   -1    0    0    0    0  0.00000000000E+00  0.00000000000E+00  0.45593999997E+02  0.45594000000E+02  0.51100000000E-03 0. -1.
         11   -1    0    0    0    0 -0.00000000000E+00 -0.00000000000E+00 -0.45593999997E+02  0.45594000000E+02  0.51100000000E-03 0.  1.
    9900012    2    1    2    0    0 -0.39606436269E+02 -0.89740400996E+01  0.19905183348E+01  0.50528863845E+02  0.30000012143E+02 0.  0.
         12    1    1    2    0    0  0.39606436269E+02  0.89740400996E+01 -0.19905183348E+01  0.40659136155E+02  0.00000000000E+00 0. -1.
         11    1    3    3    0    0 -0.28900854160E+01 -0.12042320507E+01 -0.22920757462E+01  0.38802551502E+01  0.51100000000E-03 0.  1.
        -11    1    3    3    0    0 -0.32536198050E+02 -0.12094530929E+02  0.12122434862E+02  0.36767312782E+02  0.51100000000E-03 0. -1.
         12    1    3    3    0    0 -0.41801528025E+01  0.43247228797E+01 -0.78398407815E+01  0.98812959129E+01  0.00000000000E+00 0. -1.
</event>
<event>
 7    1  0.4971907E-013  0.5052886E+02  0.7816164E-02  0.1300439E+00
        -11   -1    0    0    0    0  0.00000000000E+00  0.00000000000E+00  0.45593999997E+02  0.45594000000E+02  0.51100000000E-03 0.  1.
         11   -1    0    0    0    0 -0.00000000000E+00 -0.00000000000E+00 -0.45593999997E+02  0.45594000000E+02  0.51100000000E-03 0. -1.
    9900012    2    1    2    0    0  0.11526701227E+02  0.34578672892E+02  0.18017101328E+02  0.50528863260E+02  0.30000010364E+02 0.  0.
         12    1    1    2    0    0 -0.11526701227E+02 -0.34578672892E+02 -0.18017101328E+02  0.40659136740E+02  0.00000000000E+00 0. -1.
         11    1    3    3    0    0 -0.22752708588E+01 -0.11425533842E+01  0.19087862557E+01  0.31820985132E+01  0.51100000000E-03 0. -1.
        -11    1    3    3    0    0  0.11941532312E+02  0.13941124911E+02 -0.26442941138E+01  0.18545820266E+02  0.51100000000E-03 0.  1.
        -12    1    3    3    0    0  0.18604397746E+01  0.21780101366E+02  0.18752609186E+02  0.28800944480E+02  0.00000000000E+00 0.  1.
</event>
<event>
 7    1  0.4971907E-013  0.5052886E+02  0.7816164E-02  0.1300439E+00
        -11   -1    0    0    0    0  0.00000000000E+00  0.00000000000E+00  0.45593999997E+02  0.45594000000E+02  0.51100000000E-03 0.  1.
         11   -1    0    0    0    0 -0.00000000000E+00 -0.00000000000E+00 -0.45593999997E+02  0.45594000000E+02  0.51100000000E-03 0. -1.
    9900012    2    1    2    0    0 -0.36587634041E+01 -0.40443203631E+02 -0.20314480121E+01  0.50528855265E+02  0.29999986062E+02 0.  0.
         12    1    1    2    0    0  0.36587634041E+01  0.40443203631E+02  0.20314480121E+01  0.40659144735E+02  0.00000000000E+00 0. -1.
         11    1    3    3    0    0  0.51929325612E+01 -0.35228482836E+01 -0.43955516783E+01  0.76614543941E+01  0.51100000000E-03 0. -1.
        -11    1    3    3    0    0  0.42130871899E+01 -0.23167455560E+02 -0.11497972470E+01  0.23575477403E+02  0.51100000000E-03 0.  1.
         12    1    3    3    0    0 -0.13064783155E+02 -0.13752899787E+02  0.35139009132E+01  0.19291923468E+02  0.00000000000E+00 0. -1.
</event>
<event>
 7    1  0.4971907E-013  0.5052886E+02  0.7816164E-02  0.1300439E+00
        -11   -1    0    0    0    0  0.00000000000E+00  0.00000000000E+00  0.45593999997E+02  0.45594000000E+02  0.51100000000E-03 0. -1.
         11   -1    0    0    0    0 -0.00000000000E+00 -0.00000000000E+00 -0.45593999997E+02  0.45594000000E+02  0.51100000000E-03 0.  1.
    9900012    2    1    2    0    0 -0.31818821196E+02 -0.84160157809E+01 -0.23872558821E+02  0.50528858733E+02  0.29999996604E+02 0.  0.
         12    1    1    2    0    0  0.31818821196E+02  0.84160157809E+01  0.23872558821E+02  0.40659141267E+02  0.00000000000E+00 0. -1.
         11    1    3    3    0    0  0.21927145469E+01 -0.55286616955E+01 -0.33942082291E+00  0.59572899866E+01  0.51100000000E-03 0. -1.
        -11    1    3    3    0    0 -0.13000174911E+02 -0.74109815745E+01 -0.39062527234E+01  0.15465639535E+02  0.51100000000E-03 0.  1.
        -12    1    3    3    0    0 -0.21011360832E+02  0.45236274891E+01 -0.19626885274E+02  0.29105929211E+02  0.00000000000E+00 0.  1.
</event>
<event>
 7    1  0.4971907E-013  0.5052886E+02  0.7816164E-02  0.1300439E+00
        -11   -1    0    0    0    0  0.00000000000E+00  0.00000000000E+00  0.45593999997E+02  0.45594000000E+02  0.51100000000E-03 0.  1.
         11   -1    0    0    0    0 -0.00000000000E+00 -0.00000000000E+00 -0.45593999997E+02  0.45594000000E+02  0.51100000000E-03 0. -1.
    9900012    2    1    2    0    0  0.23201668370E+02 -0.33389186047E+02 -0.10301424095E+00  0.50528858692E+02  0.29999996479E+02 0.  0.
         12    1    1    2    0    0 -0.23201668370E+02  0.33389186047E+02  0.10301424095E+00  0.40659141308E+02  0.00000000000E+00 0. -1.
         11    1    3    3    0    0  0.11984443635E+02 -0.25912347486E+02 -0.74677209537E+01  0.29510057573E+02  0.51100000000E-03 0. -1.
        -11    1    3    3    0    0  0.47127715533E+00  0.18222315368E+01 -0.29218969175E+01  0.34756455211E+01  0.51100000000E-03 0.  1.
        -12    1    3    3    0    0  0.10745947580E+02 -0.92990700975E+01  0.10286603630E+02  0.17543155597E+02  0.00000000000E+00 0.  1.
</event>
<event>
 7    1  0.4971907E-013  0.5052886E+02  0.7816164E-02  0.1300439E+00
        -11   -1    0    0    0    0  0.00000000000E+00  0.00000000000E+00  0.45593999997E+02  0.45594000000E+02  0.51100000000E-03 0. -1.
         11   -1    0    0    0    0 -0.00000000000E+00 -0.00000000000E+00 -0.45593999997E+02  0.45594000000E+02  0.51100000000E-03 0.  1.
    9900012    2    1    2    0    0 -0.18173224929E+02 -0.29837097412E+02 -0.20800171735E+02  0.50528860431E+02  0.30000001765E+02 0.  0.
         12    1    1    2    0    0  0.18173224929E+02  0.29837097412E+02  0.20800171735E+02  0.40659139569E+02  0.00000000000E+00 0. -1.
         11    1    3    3    0    0  0.31981060455E+01 -0.16166406680E+02 -0.97288082678E+01  0.19137144452E+02  0.51100000000E-03 0.  1.
        -11    1    3    3    0    0 -0.80016493048E+01 -0.13729685520E+02 -0.46354324414E+01  0.16553485743E+02  0.51100000000E-03 0. -1.
         12    1    3    3    0    0 -0.13369681670E+02  0.58994787545E-01 -0.64359310264E+01  0.14838230235E+02  0.00000000000E+00 0. -1.
</event>
<event>
 7    1  0.4971907E-013  0.5052885E+02  0.7816164E-02  0.1300439E+00
        -11   -1    0    0    0    0  0.00000000000E+00  0.00000000000E+00  0.45593999997E+02  0.45594000000E+02  0.51100000000E-03 0. -1.
         11   -1    0    0    0    0 -0.00000000000E+00 -0.00000000000E+00 -0.45593999997E+02  0.45594000000E+02  0.51100000000E-03 0.  1.
    9900012    2    1    2    0    0  0.35993603421E+02 -0.18904249969E+02  0.50612970372E+00  0.50528851935E+02  0.29999975941E+02 0.  0.
         12    1    1    2    0    0 -0.35993603421E+02  0.18904249969E+02 -0.50612970372E+00  0.40659148065E+02  0.00000000000E+00 0. -1.
         11    1    3    3    0    0 -0.40195444552E+01 -0.63406903884E+01 -0.16367090647E+01  0.76837431668E+01  0.51100000000E-03 0. -1.
        -11    1    3    3    0    0  0.15049579449E+02 -0.48494495761E+00  0.55928073659E+00  0.15067773838E+02  0.51100000000E-03 0.  1.
        -12    1    3    3    0    0  0.24963568427E+02 -0.12078614622E+02  0.15835580318E+01  0.27777334931E+02  0.00000000000E+00 0.  1.
</event>
<event>
 7    1  0.4971907E-013  0.5052886E+02  0.7816164E-02  0.1300439E+00
        -11   -1    0    0    0    0  0.00000000000E+00  0.00000000000E+00  0.45593999997E+02  0.45594000000E+02  0.51100000000E-03 0.  1.
         11   -1    0    0    0    0 -0.00000000000E+00 -0.00000000000E+00 -0.45593999997E+02  0.45594000000E+02  0.51100000000E-03 0. -1.
    9900012    2    1    2    0    0 -0.46251777576E+01  0.38779325229E+02  0.11310925386E+02  0.50528863664E+02  0.30000011592E+02 0.  0.
         12    1    1    2    0    0  0.46251777576E+01 -0.38779325229E+02 -0.11310925386E+02  0.40659136336E+02  0.00000000000E+00 0. -1.
         11    1    3    3    0    0 -0.14526688463E-01  0.13713126439E+02  0.11947817069E+02  0.18187918538E+02  0.51100000000E-03 0.  1.
        -11    1    3    3    0    0  0.28505620198E+01 -0.19197539503E+01 -0.25466819470E+01  0.42774698431E+01  0.51100000000E-03 0. -1.
        -12    1    3    3    0    0 -0.74612130889E+01  0.26985952741E+02  0.19097902639E+01  0.28063475283E+02  0.00000000000E+00 0.  1.
</event>
<event>
 7    1  0.4971907E-013  0.5052890E+02  0.7816164E-02  0.1300439E+00
        -11   -1    0    0    0    0  0.00000000000E+00  0.00000000000E+00  0.45593999997E+02  0.45594000000E+02  0.51100000000E-03 0.  1.
         11   -1    0    0    0    0 -0.00000000000E+00 -0.00000000000E+00 -0.45593999997E+02  0.45594000000E+02  0.51100000000E-03 0. -1.
    9900012    2    1    2    0    0  0.36738295528E+02 -0.77674153865E+01  0.15592544390E+02  0.50528898428E+02  0.30000117263E+02 0.  0.
         12    1    1    2    0    0 -0.36738295528E+02  0.77674153865E+01 -0.15592544390E+02  0.40659101572E+02  0.00000000000E+00 0. -1.
         11    1    3    3    0    0  0.22041755985E+01 -0.41795655012E+01  0.85934686931E+01  0.98068783151E+01  0.51100000000E-03 0. -1.
        -11    1    3    3    0    0  0.18535938996E+02 -0.30542914602E+01  0.13820564007E+02  0.23322043661E+02  0.51100000000E-03 0.  1.
         12    1    3    3    0    0  0.15998180933E+02 -0.53355842511E+00 -0.68214883106E+01  0.17399976452E+02  0.00000000000E+00 0. -1.
</event>
<event>
 7    1  0.4971907E-013  0.5052886E+02  0.7816164E-02  0.1300439E+00
        -11   -1    0    0    0    0  0.00000000000E+00  0.00000000000E+00  0.45593999997E+02  0.45594000000E+02  0.51100000000E-03 0. -1.
         11   -1    0    0    0    0 -0.00000000000E+00 -0.00000000000E+00 -0.45593999997E+02  0.45594000000E+02  0.51100000000E-03 0.  1.
    9900012    2    1    2    0    0  0.29038954492E+02  0.28315994483E+02 -0.28476624935E+01  0.50528860766E+02  0.30000002785E+02 0.  0.
         12    1    1    2    0    0 -0.29038954492E+02 -0.28315994483E+02  0.28476624935E+01  0.40659139234E+02  0.00000000000E+00 0. -1.
         11    1    3    3    0    0  0.19773293900E+02  0.13596888884E+02  0.56771651974E+01  0.24659455467E+02  0.51100000000E-03 0. -1.
        -11    1    3    3    0    0  0.80187697901E+01  0.18545405967E+02 -0.82865032992E+01  0.21838014759E+02  0.51100000000E-03 0.  1.
         12    1    3    3    0    0  0.12468908019E+01 -0.38263003676E+01 -0.23832439170E+00  0.40313905406E+01  0.00000000000E+00 0. -1.
</event>
<event>
 7    1  0.4971907E-013  0.5052886E+02  0.7816164E-02  0.1300439E+00
        -11   -1    0    0    0    0  0.00000000000E+00  0.00000000000E+00  0.45593999997E+02  0.45594000000E+02  0.51100000000E-03 0.  1.
         11   -1    0    0    0    0 -0.00000000000E+00 -0.00000000000E+00 -0.45593999997E+02  0.45594000000E+02  0.51100000000E-03 0. -1.
    9900012    2    1    2    0    0  0.12148761901E+02  0.18196449093E+02  0.34270431451E+02  0.50528860226E+02  0.30000001142E+02 0.  0.
         12    1    1    2    0    0 -0.12148761901E+02 -0.18196449093E+02 -0.34270431451E+02  0.40659139774E+02  0.00000000000E+00 0. -1.
         11    1    3    3    0    0  0.15659515822E+02  0.56458012803E+01  0.18203409615E+02  0.24666974475E+02  0.51100000000E-03 0. -1.
        -11    1    3    3    0    0  0.14954801055E+01  0.11474857623E+02  0.17090951054E+02  0.20639995795E+02  0.51100000000E-03 0.  1.
        -12    1    3    3    0    0 -0.50062340269E+01  0.10757901901E+01 -0.10239292181E+01  0.52218899556E+01  0.00000000000E+00 0.  1.
</event>
<event>
 7    1  0.4971907E-013  0.5052886E+02  0.7816164E-02  0.1300439E+00
        -11   -1    0    0    0    0  0.00000000000E+00  0.00000000000E+00  0.45593999997E+02  0.45594000000E+02  0.51100000000E-03 0. -1.
         11   -1    0    0    0    0 -0.00000000000E+00 -0.00000000000E+00 -0.45593999997E+02  0.45594000000E+02  0.51100000000E-03 0.  1.
    9900012    2    1    2    0    0  0.15728891861E+02  0.30894605397E+02  0.21243612349E+02  0.50528858993E+02  0.29999997394E+02 0.  0.
         12    1    1    2    0    0 -0.15728891861E+02 -0.30894605397E+02 -0.21243612349E+02  0.40659141007E+02  0.00000000000E+00 0. -1.
         11    1    3    3    0    0 -0.74738932785E-01 -0.25216478931E+01  0.72396370856E+01  0.76665924241E+01  0.51100000000E-03 0. -1.
        -11    1    3    3    0    0  0.99464602527E+01  0.90640133937E+01  0.11480580744E+02  0.17688757583E+02  0.51100000000E-03 0.  1.
        -12    1    3    3    0    0  0.58571705414E+01  0.24352239897E+02  0.25233945193E+01  0.25173508985E+02  0.00000000000E+00 0.  1.
</event>
<event>
 7    1  0.4971907E-013  0.5052888E+02  0.7816164E-02  0.1300439E+00
        -11   -1    0    0    0    0  0.00000000000E+00  0.00000000000E+00  0.45593999997E+02  0.45594000000E+02  0.51100000000E-03 0.  1.
         11   -1    0    0    0    0 -0.00000000000E+00 -0.00000000000E+00 -0.45593999997E+02  0.45594000000E+02  0.51100000000E-03 0. -1.
    9900012    2    1    2    0    0 -0.47341770132E+01  0.64765417816E+01  0.39859826284E+02  0.50528883226E+02  0.30000071053E+02 0.  0.
         12    1    1    2    0    0  0.47341770132E+01 -0.64765417816E+01 -0.39859826284E+02  0.40659116774E+02  0.00000000000E+00 0. -1.
         11    1    3    3    0    0 -0.37232922175E-01 -0.19748670801E+01  0.35760535996E+02  0.35815044622E+02  0.51100000000E-03 0. -1.
        -11    1    3    3    0    0  0.27362535510E+01  0.38609553303E+01  0.36312672658E+01  0.59649108774E+01  0.51100000000E-03 0.  1.
        -12    1    3    3    0    0 -0.74331976420E+01  0.45904535314E+01  0.46802302234E+00  0.87489277262E+01  0.00000000000E+00 0.  1.
</event>
<event>
 7    1  0.4971907E-013  0.5052887E+02  0.7816164E-02  0.1300439E+00
        -11   -1    0    0    0    0  0.00000000000E+00  0.00000000000E+00  0.45593999997E+02  0.45594000000E+02  0.51100000000E-03 0.  1.
         11   -1    0    0    0    0 -0.00000000000E+00 -0.00000000000E+00 -0.45593999997E+02  0.45594000000E+02  0.51100000000E-03 0. -1.
    9900012    2    1    2    0    0 -0.35884041586E+02 -0.18958460582E+02 -0.24651806783E+01  0.50528870841E+02  0.30000033408E+02 0.  0.
         12    1    1    2    0    0  0.35884041586E+02  0.18958460582E+02  0.24651806783E+01  0.40659129159E+02  0.00000000000E+00 0. -1.
         11    1    3    3    0    0 -0.15959672040E+02 -0.11674716756E+02  0.14886634962E+01  0.19829933490E+02  0.51100000000E-03 0. -1.
        -11    1    3    3    0    0 -0.10068923954E+02 -0.43052235217E+01  0.89840315818E+01  0.14164427376E+02  0.51100000000E-03 0.  1.
         12    1    3    3    0    0 -0.98554455924E+01 -0.29785203044E+01 -0.12937875756E+02  0.16534509975E+02  0.00000000000E+00 0. -1.
</event>
<event>
 7    1  0.4971907E-013  0.5052884E+02  0.7816164E-02  0.1300439E+00
        -11   -1    0    0    0    0  0.00000000000E+00  0.00000000000E+00  0.45593999997E+02  0.45594000000E+02  0.51100000000E-03 0. -1.
         11   -1    0    0    0    0 -0.00000000000E+00 -0.00000000000E+00 -0.45593999997E+02  0.45594000000E+02  0.51100000000E-03 0.  1.
    9900012    2    1    2    0    0  0.30857666358E+02  0.22491396049E+02  0.13968138807E+02  0.50528839027E+02  0.29999936705E+02 0.  0.
         12    1    1    2    0    0 -0.30857666358E+02 -0.22491396049E+02 -0.13968138807E+02  0.40659160973E+02  0.00000000000E+00 0. -1.
         11    1    3    3    0    0  0.63908814962E+01  0.12464186874E+02 -0.22977362911E+01  0.14194326791E+02  0.51100000000E-03 0.  1.
        -11    1    3    3    0    0  0.23148349002E+02  0.90245331676E+01  0.55062339689E+01  0.25448121212E+02  0.51100000000E-03 0. -1.
         12    1    3    3    0    0  0.13184358600E+01  0.10026760074E+01  0.10759641129E+02  0.10886391024E+02  0.00000000000E+00 0. -1.
</event>
<event>
 7    1  0.4971907E-013  0.5052885E+02  0.7816164E-02  0.1300439E+00
        -11   -1    0    0    0    0  0.00000000000E+00  0.00000000000E+00  0.45593999997E+02  0.45594000000E+02  0.51100000000E-03 0.  1.
         11   -1    0    0    0    0 -0.00000000000E+00 -0.00000000000E+00 -0.45593999997E+02  0.45594000000E+02  0.51100000000E-03 0. -1.
    9900012    2    1    2    0    0 -0.15724575261E+02  0.36110473929E+02  0.10096439789E+02  0.50528847391E+02  0.29999962128E+02 0.  0.
         12    1    1    2    0    0  0.15724575261E+02 -0.36110473929E+02 -0.10096439789E+02  0.40659152609E+02  0.00000000000E+00 0. -1.
         11    1    3    3    0    0 -0.18846378425E+02  0.24353882603E+02  0.20211207424E+01  0.30860695179E+02  0.51100000000E-03 0. -1.
        -11    1    3    3    0    0  0.14911215362E+01  0.10503984242E+02 -0.72189092225E+00  0.10633825988E+02  0.51100000000E-03 0.  1.
        -12    1    3    3    0    0  0.16306816282E+01  0.12526070839E+01  0.87972099687E+01  0.90343262235E+01  0.00000000000E+00 0.  1.
</event>
<event>
 7    1  0.4971907E-013  0.5052886E+02  0.7816164E-02  0.1300439E+00
        -11   -1    0    0    0    0  0.00000000000E+00  0.00000000000E+00  0.45593999997E+02  0.45594000000E+02  0.51100000000E-03 0.  1.
         11   -1    0    0    0    0 -0.00000000000E+00 -0.00000000000E+00 -0.45593999997E+02  0.45594000000E+02  0.51100000000E-03 0. -1.
    9900012    2    1    2    0    0 -0.27789386651E+02  0.19430008948E+02  0.22436369945E+02  0.50528856447E+02  0.29999989655E+02 0.  0.
         12    1    1    2    0    0  0.27789386651E+02 -0.19430008948E+02 -0.22436369945E+02  0.40659143553E+02  0.00000000000E+00 0. -1.
         11    1    3    3    0    0  0.24114883253E+01  0.83699710459E+01  0.63963880843E+01  0.10806732718E+02  0.51100000000E-03 0. -1.
        -11    1    3    3    0    0 -0.23742662338E+02  0.14316464387E+02  0.78905181557E+01  0.28825950886E+02  0.51100000000E-03 0.  1.
         12    1    3    3    0    0 -0.64582126382E+01 -0.32564264846E+01  0.81494637052E+01  0.10896172843E+02  0.00000000000E+00 0. -1.
</event>
<event>
 7    1  0.4971907E-013  0.5052887E+02  0.7816164E-02  0.1300439E+00
        -11   -1    0    0    0    0  0.00000000000E+00  0.00000000000E+00  0.45593999997E+02  0.45594000000E+02  0.51100000000E-03 0.  1.
         11   -1    0    0    0    0 -0.00000000000E+00 -0.00000000000E+00 -0.45593999997E+02  0.45594000000E+02  0.51100000000E-03 0. -1.
    9900012    2    1    2    0    0  0.13112686259E+02 -0.21488927743E+02  0.31928802888E+02  0.50528868057E+02  0.30000024945E+02 0.  0.
         12    1    1    2    0    0 -0.13112686259E+02  0.21488927743E+02 -0.31928802888E+02  0.40659131943E+02  0.00000000000E+00 0. -1.
         11    1    3    3    0    0 -0.15883272466E+01  0.16969842777E+01 -0.66756370707E-01  0.23252947674E+01  0.51100000000E-03 0. -1.
        -11    1    3    3    0    0  0.13737294984E+02 -0.19644229295E+02  0.35691900086E+02  0.42994426965E+02  0.51100000000E-03 0.  1.
         12    1    3    3    0    0  0.96371852154E+00 -0.35416827263E+01 -0.36963408265E+01  0.52091463243E+01  0.00000000000E+00 0. -1.
</event>
<event>
 7    1  0.4971907E-013  0.5052883E+02  0.7816164E-02  0.1300439E+00
        -11   -1    0    0    0    0  0.00000000000E+00  0.00000000000E+00  0.45593999997E+02  0.45594000000E+02  0.51100000000E-03 0.  1.
         11   -1    0    0    0    0 -0.00000000000E+00 -0.00000000000E+00 -0.45593999997E+02  0.45594000000E+02  0.51100000000E-03 0. -1.
    9900012    2    1    2    0    0 -0.35350442315E+02 -0.19596599836E+02  0.44145166673E+01  0.50528825705E+02  0.29999896212E+02 0.  0.
         12    1    1    2    0    0  0.35350442315E+02  0.19596599836E+02 -0.44145166673E+01  0.40659174295E+02  0.00000000000E+00 0. -1.
         11    1    3    3    0    0 -0.60485724906E+01 -0.23469635523E+01  0.42900459230E+01  0.77780435440E+01  0.51100000000E-03 0. -1.
        -11    1    3    3    0    0 -0.19740163542E+00 -0.13201234295E+02 -0.16883932762E+01  0.13310230142E+02  0.51100000000E-03 0.  1.
         12    1    3    3    0    0 -0.29104468189E+02 -0.40484019886E+01  0.18128640205E+01  0.29440552019E+02  0.00000000000E+00 0. -1.
</event>
<event>
 7    1  0.4971907E-013  0.5052885E+02  0.7816164E-02  0.1300439E+00
        -11   -1    0    0    0    0  0.00000000000E+00  0.00000000000E+00  0.45593999997E+02  0.45594000000E+02  0.51100000000E-03 0. -1.
         11   -1    0    0    0    0 -0.00000000000E+00 -0.00000000000E+00 -0.45593999997E+02  0.45594000000E+02  0.51100000000E-03 0.  1.
    9900012    2    1    2    0    0  0.41310846616E+01  0.19764182609E+02 -0.35291329108E+02  0.50528847465E+02  0.29999962353E+02 0.  0.
         12    1    1    2    0    0 -0.41310846616E+01 -0.19764182609E+02  0.35291329108E+02  0.40659152535E+02  0.00000000000E+00 0. -1.
         11    1    3    3    0    0 -0.45160706270E+01  0.16306605888E+02 -0.13484303159E+02  0.21636236305E+02  0.51100000000E-03 0. -1.
        -11    1    3    3    0    0  0.22480402481E+01  0.97248481423E+01 -0.10913484855E+02  0.14789540503E+02  0.51100000000E-03 0.  1.
         12    1    3    3    0    0  0.63991150404E+01 -0.62672714216E+01 -0.10893541094E+02  0.14103070657E+02  0.00000000000E+00 0. -1.
</event>
<event>
 7    1  0.4971907E-013  0.5052886E+02  0.7816164E-02  0.1300439E+00
        -11   -1    0    0    0    0  0.00000000000E+00  0.00000000000E+00  0.45593999997E+02  0.45594000000E+02  0.51100000000E-03 0.  1.
         11   -1    0    0    0    0 -0.00000000000E+00 -0.00000000000E+00 -0.45593999997E+02  0.45594000000E+02  0.51100000000E-03 0. -1.
    9900012    2    1    2    0    0 -0.21821256412E+02  0.69507832188E+01  0.33595908476E+02  0.50528859760E+02  0.29999999726E+02 0.  0.
         12    1    1    2    0    0  0.21821256412E+02 -0.69507832188E+01 -0.33595908476E+02  0.40659140240E+02  0.00000000000E+00 0. -1.
         11    1    3    3    0    0  0.50066107869E+01 -0.41840369440E+01  0.12857236532E+02  0.14418073666E+02  0.51100000000E-03 0. -1.
        -11    1    3    3    0    0 -0.12837874808E+02  0.39686181485E+01  0.12552756000E+02  0.18388383372E+02  0.51100000000E-03 0.  1.
        -12    1    3    3    0    0 -0.13989992391E+02  0.71662020142E+01  0.81859159442E+01  0.17722402722E+02  0.00000000000E+00 0.  1.
</event>
<event>
 7    1  0.4971907E-013  0.5052885E+02  0.7816164E-02  0.1300439E+00
        -11   -1    0    0    0    0  0.00000000000E+00  0.00000000000E+00  0.45593999997E+02  0.45594000000E+02  0.51100000000E-03 0.  1.
         11   -1    0    0    0    0 -0.00000000000E+00 -0.00000000000E+00 -0.45593999997E+02  0.45594000000E+02  0.51100000000E-03 0. -1.
    9900012    2    1    2    0    0 -0.34141978018E+02 -0.13800124185E+02  0.17235081212E+02  0.50528854474E+02  0.29999983660E+02 0.  0.
         12    1    1    2    0    0  0.34141978018E+02  0.13800124185E+02 -0.17235081212E+02  0.40659145526E+02  0.00000000000E+00 0. -1.
         11    1    3    3    0    0 -0.90949713408E+01 -0.32567664255E+01  0.12166648245E+02  0.15535519335E+02  0.51100000000E-03 0. -1.
        -11    1    3    3    0    0 -0.16769860403E+02  0.43006908304E+01  0.49155537069E+01  0.17996856061E+02  0.51100000000E-03 0.  1.
        -12    1    3    3    0    0 -0.82771462740E+01 -0.14844048590E+02  0.15287926021E+00  0.16996479078E+02  0.00000000000E+00 0.  1.
</event>
<event>
 7    1  0.4971907E-013  0.5052875E+02  0.7816164E-02  0.1300439E+00
        -11   -1    0    0    0    0  0.00000000000E+00  0.00000000000E+00  0.45593999997E+02  0.45594000000E+02  0.51100000000E-03 0.  1.
         11   -1    0    0    0    0 -0.00000000000E+00 -0.00000000000E+00 -0.45593999997E+02  0.45594000000E+02  0.51100000000E-03 0. -1.
    9900012    2    1    2    0    0 -0.30042863644E+02 -0.75010264292E+01  0.26350249580E+02  0.50528748822E+02  0.29999662518E+02 0.  0.
         12    1    1    2    0    0  0.30042863644E+02  0.75010264292E+01 -0.26350249580E+02  0.40659251178E+02  0.00000000000E+00 0. -1.
         11    1    3    3    0    0 -0.14746062642E+02 -0.11143740621E+01  0.71766183617E+00  0.14805513560E+02  0.51100000000E-03 0. -1.
        -11    1    3    3    0    0 -0.14324286053E+02  0.32103623555E+01  0.11672707673E+02  0.18754831433E+02  0.51100000000E-03 0.  1.
        -12    1    3    3    0    0 -0.97251494792E+00 -0.95970147226E+01  0.13959880071E+02  0.16968403829E+02  0.00000000000E+00 0.  1.
</event>
<event>
 7    1  0.4971907E-013  0.5052887E+02  0.7816164E-02  0.1300439E+00
        -11   -1    0    0    0    0  0.00000000000E+00  0.00000000000E+00  0.45593999997E+02  0.45594000000E+02  0.51100000000E-03 0.  1.
         11   -1    0    0    0    0 -0.00000000000E+00 -0.00000000000E+00 -0.45593999997E+02  0.45594000000E+02  0.51100000000E-03 0. -1.
    9900012    2    1    2    0    0 -0.15430848334E+02 -0.14383368486E+02  0.34758778149E+02  0.50528867843E+02  0.30000024296E+02 0.  0.
         12    1    1    2    0    0  0.15430848334E+02  0.14383368486E+02 -0.34758778149E+02  0.40659132157E+02  0.00000000000E+00 0. -1.
         11    1    3    3    0    0 -0.14370769590E+02 -0.75258010125E+01  0.19971478837E+02  0.25729684543E+02  0.51100000000E-03 0. -1.
        -11    1    3    3    0    0 -0.23763423736E+01 -0.10225668183E+02  0.17411246645E+02  0.20331325654E+02  0.51100000000E-03 0.  1.
         12    1    3    3    0    0  0.13162636294E+01  0.33681007100E+01 -0.26239473330E+01  0.44678576456E+01  0.00000000000E+00 0. -1.
</event>
<event>
 7    1  0.4971907E-013  0.5052886E+02  0.7816164E-02  0.1300439E+00
        -11   -1    0    0    0    0  0.00000000000E+00  0.00000000000E+00  0.45593999997E+02  0.45594000000E+02  0.51100000000E-03 0.  1.
         11   -1    0    0    0    0 -0.00000000000E+00 -0.00000000000E+00 -0.45593999997E+02  0.45594000000E+02  0.51100000000E-03 0. -1.
    9900012    2    1    2    0    0 -0.64340832989E+01 -0.69266743356E+01  0.39544774992E+02  0.50528862351E+02  0.30000007601E+02 0.  0.
         12    1    1    2    0    0  0.64340832989E+01  0.69266743356E+01 -0.39544774992E+02  0.40659137649E+02  0.00000000000E+00 0. -1.
         11    1    3    3    0    0  0.59881477689E+01  0.54738540507E+00  0.27699016882E+02  0.28344189545E+02  0.51100000000E-03 0. -1.
        -11    1    3    3    0    0 -0.20393597490E+01 -0.51565096847E+01  0.99326013382E+01  0.11375638440E+02  0.51100000000E-03 0.  1.
         12    1    3    3    0    0 -0.10382871319E+02 -0.23175500559E+01  0.19131567719E+01  0.10809034366E+02  0.00000000000E+00 0. -1.
</event>
<event>
 7    1  0.4971907E-013  0.5052886E+02  0.7816164E-02  0.1300439E+00
        -11   -1    0    0    0    0  0.00000000000E+00  0.00000000000E+00  0.45593999997E+02  0.45594000000E+02  0.51100000000E-03 0.  1.
         11   -1    0    0    0    0 -0.00000000000E+00 -0.00000000000E+00 -0.45593999997E+02  0.45594000000E+02  0.51100000000E-03 0. -1.
    9900012    2    1    2    0    0 -0.81711966961E+01 -0.31969725086E+02  0.23755711751E+02  0.50528860581E+02  0.30000002222E+02 0.  0.
         12    1    1    2    0    0  0.81711966961E+01  0.31969725086E+02 -0.23755711751E+02  0.40659139419E+02  0.00000000000E+00 0. -1.
         11    1    3    3    0    0 -0.32737396481E+01 -0.16967286122E+02  0.17092188982E+02  0.24305330569E+02  0.51100000000E-03 0. -1.
        -11    1    3    3    0    0  0.10187226506E+01 -0.18348418659E+02  0.62641376128E+01  0.19414986052E+02  0.51100000000E-03 0.  1.
         12    1    3    3    0    0 -0.59161796986E+01  0.33459796948E+01  0.39938515604E+00  0.68085439594E+01  0.00000000000E+00 0. -1.
</event>
<event>
 7    1  0.4971907E-013  0.5052886E+02  0.7816164E-02  0.1300439E+00
        -11   -1    0    0    0    0  0.00000000000E+00  0.00000000000E+00  0.45593999997E+02  0.45594000000E+02  0.51100000000E-03 0.  1.
         11   -1    0    0    0    0 -0.00000000000E+00 -0.00000000000E+00 -0.45593999997E+02  0.45594000000E+02  0.51100000000E-03 0. -1.
    9900012    2    1    2    0    0  0.34453692344E+02  0.13500404968E+02  0.16847777151E+02  0.50528862708E+02  0.30000008687E+02 0.  0.
         12    1    1    2    0    0 -0.34453692344E+02 -0.13500404968E+02 -0.16847777151E+02  0.40659137292E+02  0.00000000000E+00 0. -1.
         11    1    3    3    0    0  0.27214617299E+02  0.98986445053E+01  0.40599415453E+01  0.29242121732E+02  0.51100000000E-03 0. -1.
        -11    1    3    3    0    0  0.93998428057E+01  0.43168559050E+00  0.14337154569E+02  0.17149268166E+02  0.51100000000E-03 0.  1.
        -12    1    3    3    0    0 -0.21607677607E+01  0.31700748719E+01 -0.15493189633E+01  0.41374728107E+01  0.00000000000E+00 0.  1.
</event>
<event>
 7    1  0.4971907E-013  0.5052886E+02  0.7816164E-02  0.1300439E+00
        -11   -1    0    0    0    0  0.00000000000E+00  0.00000000000E+00  0.45593999997E+02  0.45594000000E+02  0.51100000000E-03 0.  1.
         11   -1    0    0    0    0 -0.00000000000E+00 -0.00000000000E+00 -0.45593999997E+02  0.45594000000E+02  0.51100000000E-03 0. -1.
    9900012    2    1    2    0    0  0.20717815023E+02 -0.10886123328E+02  0.33248005320E+02  0.50528863288E+02  0.30000010449E+02 0.  0.
         12    1    1    2    0    0 -0.20717815023E+02  0.10886123328E+02 -0.33248005320E+02  0.40659136712E+02  0.00000000000E+00 0. -1.
         11    1    3    3    0    0  0.18537186428E+02 -0.62077486775E+00  0.83491041774E+01  0.20340112658E+02  0.51100000000E-03 0. -1.
        -11    1    3    3    0    0 -0.34891971023E+01  0.39780893663E+00  0.12066569034E+02  0.12567212773E+02  0.51100000000E-03 0.  1.
        -12    1    3    3    0    0  0.56698256976E+01 -0.10663157397E+02  0.12832332108E+02  0.17621537857E+02  0.00000000000E+00 0.  1.
</event>
<event>
 7    1  0.4971907E-013  0.5052881E+02  0.7816164E-02  0.1300439E+00
        -11   -1    0    0    0    0  0.00000000000E+00  0.00000000000E+00  0.45593999997E+02  0.45594000000E+02  0.51100000000E-03 0. -1.
         11   -1    0    0    0    0 -0.00000000000E+00 -0.00000000000E+00 -0.45593999997E+02  0.45594000000E+02  0.51100000000E-03 0.  1.
    9900012    2    1    2    0    0 -0.10131063852E+02  0.31432790694E+02 -0.23717311933E+02  0.50528810745E+02  0.29999850739E+02 0.  0.
         12    1    1    2    0    0  0.10131063852E+02 -0.31432790694E+02  0.23717311933E+02  0.40659189255E+02  0.00000000000E+00 0. -1.
         11    1    3    3    0    0 -0.15005961124E+02  0.16640447540E+02 -0.28873310054E+01  0.22592477601E+02  0.51100000000E-03 0. -1.
        -11    1    3    3    0    0 -0.38252852148E-01  0.53378054259E+01 -0.14710703269E+02  0.15649230683E+02  0.51100000000E-03 0.  1.
        -12    1    3    3    0    0  0.49131501243E+01  0.94545377281E+01 -0.61192776589E+01  0.12287102460E+02  0.00000000000E+00 0.  1.
</event>
<event>
 7    1  0.4971907E-013  0.5052886E+02  0.7816164E-02  0.1300439E+00
        -11   -1    0    0    0    0  0.00000000000E+00  0.00000000000E+00  0.45593999997E+02  0.45594000000E+02  0.51100000000E-03 0. -1.
         11   -1    0    0    0    0 -0.00000000000E+00 -0.00000000000E+00 -0.45593999997E+02  0.45594000000E+02  0.51100000000E-03 0.  1.
    9900012    2    1    2    0    0 -0.14007795806E+02 -0.23272240795E+02 -0.30254753260E+02  0.50528860440E+02  0.30000001793E+02 0.  0.
         12    1    1    2    0    0  0.14007795806E+02  0.23272240795E+02  0.30254753260E+02  0.40659139560E+02  0.00000000000E+00 0. -1.
         11    1    3    3    0    0 -0.71778041564E+01 -0.88359542368E+01 -0.76313086204E+01  0.13705175347E+02  0.51100000000E-03 0. -1.
        -11    1    3    3    0    0  0.76948298153E+01 -0.12099639459E+02 -0.10870801841E+02  0.17994054958E+02  0.51100000000E-03 0.  1.
         12    1    3    3    0    0 -0.14524821464E+02 -0.23366470999E+01 -0.11752642799E+02  0.18829630134E+02  0.00000000000E+00 0. -1.
</event>
<event>
 7    1  0.4971907E-013  0.5052886E+02  0.7816164E-02  0.1300439E+00
        -11   -1    0    0    0    0  0.00000000000E+00  0.00000000000E+00  0.45593999997E+02  0.45594000000E+02  0.51100000000E-03 0. -1.
         11   -1    0    0    0    0 -0.00000000000E+00 -0.00000000000E+00 -0.45593999997E+02  0.45594000000E+02  0.51100000000E-03 0.  1.
    9900012    2    1    2    0    0  0.27557388494E+02 -0.29808451318E+02 -0.22830878453E+01  0.50528856862E+02  0.29999990919E+02 0.  0.
         12    1    1    2    0    0 -0.27557388494E+02  0.29808451318E+02  0.22830878453E+01  0.40659143138E+02  0.00000000000E+00 0. -1.
         11    1    3    3    0    0  0.97523746753E+01 -0.12699874422E+02  0.11558225497E+02  0.19748118874E+02  0.51100000000E-03 0. -1.
        -11    1    3    3    0    0 -0.18423166213E+01 -0.16781433609E+01 -0.93618583616E+00  0.26620931339E+01  0.51100000000E-03 0.  1.
        -12    1    3    3    0    0  0.19647330440E+02 -0.15430433535E+02 -0.12905127507E+02  0.28118644854E+02  0.00000000000E+00 0.  1.
</event>
<event>
 7    1  0.4971907E-013  0.5052886E+02  0.7816164E-02  0.1300439E+00
        -11   -1    0    0    0    0  0.00000000000E+00  0.00000000000E+00  0.45593999997E+02  0.45594000000E+02  0.51100000000E-03 0.  1.
         11   -1    0    0    0    0 -0.00000000000E+00 -0.00000000000E+00 -0.45593999997E+02  0.45594000000E+02  0.51100000000E-03 0. -1.
    9900012    2    1    2    0    0  0.42222310986E+01  0.29058614603E+02  0.28123569234E+02  0.50528862471E+02  0.30000007967E+02 0.  0.
         12    1    1    2    0    0 -0.42222310986E+01 -0.29058614603E+02 -0.28123569234E+02  0.40659137529E+02  0.00000000000E+00 0. -1.
         11    1    3    3    0    0  0.76832979311E+00 -0.38577532000E+01 -0.10659027208E+01  0.40753821041E+01  0.51100000000E-03 0. -1.
        -11    1    3    3    0    0 -0.51693480568E+01  0.94872731939E+01  0.58940434034E+01  0.12307325456E+02  0.51100000000E-03 0.  1.
        -12    1    3    3    0    0  0.86232493623E+01  0.23429094609E+02  0.23295428552E+02  0.34146154911E+02  0.00000000000E+00 0.  1.
</event>
<event>
 7    1  0.4971907E-013  0.5052886E+02  0.7816164E-02  0.1300439E+00
        -11   -1    0    0    0    0  0.00000000000E+00  0.00000000000E+00  0.45593999997E+02  0.45594000000E+02  0.51100000000E-03 0.  1.
         11   -1    0    0    0    0 -0.00000000000E+00 -0.00000000000E+00 -0.45593999997E+02  0.45594000000E+02  0.51100000000E-03 0. -1.
    9900012    2    1    2    0    0  0.25683711964E+02  0.11916143153E+02  0.29180784328E+02  0.50528859553E+02  0.29999999097E+02 0.  0.
         12    1    1    2    0    0 -0.25683711964E+02 -0.11916143153E+02 -0.29180784328E+02  0.40659140447E+02  0.00000000000E+00 0. -1.
         11    1    3    3    0    0  0.18205201660E+02  0.11803361750E+02  0.82388532574E+01  0.23208348053E+02  0.51100000000E-03 0. -1.
        -11    1    3    3    0    0  0.37582260401E+01  0.76089076239E+01  0.14333143808E+02  0.16657093080E+02  0.51100000000E-03 0.  1.
         12    1    3    3    0    0  0.37202842634E+01 -0.74961262207E+01  0.66087872632E+01  0.10663418420E+02  0.00000000000E+00 0. -1.
</event>
<event>
 7    1  0.4971907E-013  0.5052889E+02  0.7816164E-02  0.1300439E+00
        -11   -1    0    0    0    0  0.00000000000E+00  0.00000000000E+00  0.45593999997E+02  0.45594000000E+02  0.51100000000E-03 0. -1.
         11   -1    0    0    0    0 -0.00000000000E+00 -0.00000000000E+00 -0.45593999997E+02  0.45594000000E+02  0.51100000000E-03 0.  1.
    9900012    2    1    2    0    0 -0.23499440558E+02 -0.17284750158E+02 -0.28322724178E+02  0.50528892786E+02  0.30000100111E+02 0.  0.
         12    1    1    2    0    0  0.23499440558E+02  0.17284750158E+02  0.28322724178E+02  0.40659107214E+02  0.00000000000E+00 0. -1.
         11    1    3    3    0    0 -0.60977572999E+01 -0.83283525395E+01 -0.95792819058E+01  0.14082142671E+02  0.51100000000E-03 0.  1.
        -11    1    3    3    0    0 -0.78978635209E+01 -0.16876933887E+02 -0.89685614256E+01  0.20679512565E+02  0.51100000000E-03 0. -1.
         12    1    3    3    0    0 -0.95038197376E+01  0.79205362683E+01 -0.97748808466E+01  0.15767237550E+02  0.00000000000E+00 0. -1.
</event>
<event>
 7    1  0.4971907E-013  0.5052886E+02  0.7816164E-02  0.1300439E+00
        -11   -1    0    0    0    0  0.00000000000E+00  0.00000000000E+00  0.45593999997E+02  0.45594000000E+02  0.51100000000E-03 0.  1.
         11   -1    0    0    0    0 -0.00000000000E+00 -0.00000000000E+00 -0.45593999997E+02  0.45594000000E+02  0.51100000000E-03 0. -1.
    9900012    2    1    2    0    0  0.18960110001E+02 -0.62513196183E+01  0.35420345619E+02  0.50528860167E+02  0.30000000962E+02 0.  0.
         12    1    1    2    0    0 -0.18960110001E+02  0.62513196183E+01 -0.35420345619E+02  0.40659139833E+02  0.00000000000E+00 0. -1.
         11    1    3    3    0    0  0.71578764372E+01  0.28738132476E+01  0.39400639673E+01  0.86612990943E+01  0.51100000000E-03 0. -1.
        -11    1    3    3    0    0  0.85788662801E+01  0.69952886478E+01  0.11000794589E+02  0.15606040234E+02  0.51100000000E-03 0.  1.
        -12    1    3    3    0    0  0.32233672840E+01 -0.16120421514E+02  0.20479487062E+02  0.26261520839E+02  0.00000000000E+00 0.  1.
</event>
<event>
 7    1  0.4971907E-013  0.5052887E+02  0.7816164E-02  0.1300439E+00
        -11   -1    0    0    0    0  0.00000000000E+00  0.00000000000E+00  0.45593999997E+02  0.45594000000E+02  0.51100000000E-03 0.  1.
         11   -1    0    0    0    0 -0.00000000000E+00 -0.00000000000E+00 -0.45593999997E+02  0.45594000000E+02  0.51100000000E-03 0. -1.
    9900012    2    1    2    0    0  0.36245706929E+01 -0.39314197091E+02  0.97170734964E+01  0.50528866672E+02  0.30000020736E+02 0.  0.
         12    1    1    2    0    0 -0.36245706929E+01  0.39314197091E+02 -0.97170734964E+01  0.40659133328E+02  0.00000000000E+00 0. -1.
         11    1    3    3    0    0 -0.28306140213E+01 -0.27743538570E+02  0.14368854146E+02  0.31371647675E+02  0.51100000000E-03 0. -1.
        -11    1    3    3    0    0  0.52087060394E+01 -0.11129760903E+02  0.19344187166E+01  0.12439621072E+02  0.51100000000E-03 0.  1.
        -12    1    3    3    0    0  0.12464786748E+01 -0.44089761832E+00 -0.65861993664E+01  0.67175979256E+01  0.00000000000E+00 0.  1.
</event>
<event>
 7    1  0.4971907E-013  0.5052886E+02  0.7816164E-02  0.1300439E+00
        -11   -1    0    0    0    0  0.00000000000E+00  0.00000000000E+00  0.45593999997E+02  0.45594000000E+02  0.51100000000E-03 0.  1.
         11   -1    0    0    0    0 -0.00000000000E+00 -0.00000000000E+00 -0.45593999997E+02  0.45594000000E+02  0.51100000000E-03 0. -1.
    9900012    2    1    2    0    0  0.18555914224E+02  0.15506274372E+02  0.32686373292E+02  0.50528862078E+02  0.30000006772E+02 0.  0.
         12    1    1    2    0    0 -0.18555914224E+02 -0.15506274372E+02 -0.32686373292E+02  0.40659137922E+02  0.00000000000E+00 0. -1.
         11    1    3    3    0    0  0.13814233791E+02  0.71389471421E+01  0.12420706549E+01  0.15599370542E+02  0.51100000000E-03 0. -1.
        -11    1    3    3    0    0  0.50937473191E+01 -0.14153139794E+01  0.89020388463E+01  0.10353534242E+02  0.51100000000E-03 0.  1.
         12    1    3    3    0    0 -0.35206688558E+00  0.97826412090E+01  0.22542263791E+02  0.24575957294E+02  0.00000000000E+00 0. -1.
</event>
<event>
 7    1  0.4971907E-013  0.5052884E+02  0.7816164E-02  0.1300439E+00
        -11   -1    0    0    0    0  0.00000000000E+00  0.00000000000E+00  0.45593999997E+02  0.45594000000E+02  0.51100000000E-03 0. -1.
         11   -1    0    0    0    0 -0.00000000000E+00 -0.00000000000E+00 -0.45593999997E+02  0.45594000000E+02  0.51100000000E-03 0.  1.
    9900012    2    1    2    0    0 -0.73802126082E+01 -0.14870748381E+02 -0.37115498353E+02  0.50528844653E+02  0.29999953807E+02 0.  0.
         12    1    1    2    0    0  0.73802126082E+01  0.14870748381E+02  0.37115498353E+02  0.40659155347E+02  0.00000000000E+00 0. -1.
         11    1    3    3    0    0 -0.55891722455E+01  0.17829006113E+01 -0.69720919704E+01  0.91119508166E+01  0.51100000000E-03 0.  1.
        -11    1    3    3    0    0 -0.84438932909E+00 -0.22357910022E+02 -0.26010797074E+02  0.34309629823E+02  0.51100000000E-03 0. -1.
         12    1    3    3    0    0 -0.94665103362E+00  0.57042610291E+01 -0.41326093081E+01  0.71072640138E+01  0.00000000000E+00 0. -1.
</event>
<event>
 7    1  0.4971907E-013  0.5052886E+02  0.7816164E-02  0.1300439E+00
        -11   -1    0    0    0    0  0.00000000000E+00  0.00000000000E+00  0.45593999997E+02  0.45594000000E+02  0.51100000000E-03 0.  1.
         11   -1    0    0    0    0 -0.00000000000E+00 -0.00000000000E+00 -0.45593999997E+02  0.45594000000E+02  0.51100000000E-03 0. -1.
    9900012    2    1    2    0    0  0.39879538636E+02 -0.77013628596E+01 -0.18646757270E+01  0.50528860716E+02  0.30000002634E+02 0.  0.
         12    1    1    2    0    0 -0.39879538636E+02  0.77013628596E+01  0.18646757270E+01  0.40659139284E+02  0.00000000000E+00 0. -1.
         11    1    3    3    0    0  0.18667875253E+02  0.15686159336E+01  0.50948697111E+01  0.19414113939E+02  0.51100000000E-03 0. -1.
        -11    1    3    3    0    0  0.35057864096E+01 -0.62388172890E+01  0.56913785034E+01  0.91435862245E+01  0.51100000000E-03 0.  1.
         12    1    3    3    0    0  0.17705876974E+02 -0.30311615042E+01 -0.12650923942E+02  0.21971160553E+02  0.00000000000E+00 0. -1.
</event>
<event>
 7    1  0.4971907E-013  0.5052888E+02  0.7816164E-02  0.1300439E+00
        -11   -1    0    0    0    0  0.00000000000E+00  0.00000000000E+00  0.45593999997E+02  0.45594000000E+02  0.51100000000E-03 0. -1.
         11   -1    0    0    0    0 -0.00000000000E+00 -0.00000000000E+00 -0.45593999997E+02  0.45594000000E+02  0.51100000000E-03 0.  1.
    9900012    2    1    2    0    0 -0.16090454808E+02 -0.34891574119E+02 -0.13298108706E+02  0.50528875863E+02  0.30000048674E+02 0.  0.
         12    1    1    2    0    0  0.16090454808E+02  0.34891574119E+02  0.13298108706E+02  0.40659124137E+02  0.00000000000E+00 0. -1.
         11    1    3    3    0    0 -0.10388054667E+02 -0.24032862778E+01 -0.29571891201E+01  0.11064918999E+02  0.51100000000E-03 0.  1.
        -11    1    3    3    0    0 -0.36763360356E+01 -0.10160033255E+02  0.53911447110E+01  0.12075022316E+02  0.51100000000E-03 0. -1.
        -12    1    3    3    0    0 -0.20260641049E+01 -0.22328254586E+02 -0.15732064297E+02  0.27388934548E+02  0.00000000000E+00 0.  1.
</event>
<event>
 7    1  0.4971907E-013  0.5052894E+02  0.7816164E-02  0.1300439E+00
        -11   -1    0    0    0    0  0.00000000000E+00  0.00000000000E+00  0.45593999997E+02  0.45594000000E+02  0.51100000000E-03 0.  1.
         11   -1    0    0    0    0 -0.00000000000E+00 -0.00000000000E+00 -0.45593999997E+02  0.45594000000E+02  0.51100000000E-03 0. -1.
    9900012    2    1    2    0    0  0.25139165382E+02 -0.20186646645E+02  0.24772580382E+02  0.50528941014E+02  0.30000246704E+02 0.  0.
         12    1    1    2    0    0 -0.25139165382E+02  0.20186646645E+02 -0.24772580382E+02  0.40659058986E+02  0.00000000000E+00 0. -1.
         11    1    3    3    0    0  0.15714957452E+02 -0.87452199622E+01  0.21942664566E+02  0.28371099528E+02  0.51100000000E-03 0. -1.
        -11    1    3    3    0    0  0.12674846720E+02 -0.35287938396E+01  0.29942721273E-01  0.13156938176E+02  0.51100000000E-03 0.  1.
         12    1    3    3    0    0 -0.32506387900E+01 -0.79126328437E+01  0.27999730944E+01  0.90009033097E+01  0.00000000000E+00 0. -1.
</event>
<event>
 7    1  0.4971907E-013  0.5052881E+02  0.7816164E-02  0.1300439E+00
        -11   -1    0    0    0    0  0.00000000000E+00  0.00000000000E+00  0.45593999997E+02  0.45594000000E+02  0.51100000000E-03 0. -1.
         11   -1    0    0    0    0 -0.00000000000E+00 -0.00000000000E+00 -0.45593999997E+02  0.45594000000E+02  0.51100000000E-03 0.  1.
    9900012    2    1    2    0    0  0.10025442356E+02  0.33023053522E+02 -0.21497406890E+02  0.50528805943E+02  0.29999836143E+02 0.  0.
         12    1    1    2    0    0 -0.10025442356E+02 -0.33023053522E+02  0.21497406890E+02  0.40659194057E+02  0.00000000000E+00 0. -1.
         11    1    3    3    0    0  0.90866587226E+01  0.17222196579E+02 -0.26189211137E+00  0.19474085588E+02  0.51100000000E-03 0.  1.
        -11    1    3    3    0    0  0.23828838131E+00 -0.31347205032E+01 -0.92353011193E+00  0.32766083248E+01  0.51100000000E-03 0. -1.
        -12    1    3    3    0    0  0.70049525232E+00  0.18935577446E+02 -0.20311984667E+02  0.27778112030E+02  0.00000000000E+00 0.  1.
</event>
<event>
 7    1  0.4971907E-013  0.5052886E+02  0.7816164E-02  0.1300439E+00
        -11   -1    0    0    0    0  0.00000000000E+00  0.00000000000E+00  0.45593999997E+02  0.45594000000E+02  0.51100000000E-03 0.  1.
         11   -1    0    0    0    0 -0.00000000000E+00 -0.00000000000E+00 -0.45593999997E+02  0.45594000000E+02  0.51100000000E-03 0. -1.
    9900012    2    1    2    0    0 -0.38568498704E+02  0.11727811711E+02  0.53004804757E+01  0.50528858923E+02  0.29999997183E+02 0.  0.
         12    1    1    2    0    0  0.38568498704E+02 -0.11727811711E+02 -0.53004804757E+01  0.40659141077E+02  0.00000000000E+00 0. -1.
         11    1    3    3    0    0 -0.44239457283E+01  0.50582116544E+01  0.44786734397E+01  0.80756001008E+01  0.51100000000E-03 0.  1.
        -11    1    3    3    0    0 -0.13049470170E+02  0.94108571380E+01  0.10364630800E+02  0.19138403164E+02  0.51100000000E-03 0. -1.
         12    1    3    3    0    0 -0.21095082806E+02 -0.27412570816E+01 -0.95428237637E+01  0.23314855659E+02  0.00000000000E+00 0. -1.
</event>
<event>
 7    1  0.4971907E-013  0.5052886E+02  0.7816164E-02  0.1300439E+00
        -11   -1    0    0    0    0  0.00000000000E+00  0.00000000000E+00  0.45593999997E+02  0.45594000000E+02  0.51100000000E-03 0. -1.
         11   -1    0    0    0    0 -0.00000000000E+00 -0.00000000000E+00 -0.45593999997E+02  0.45594000000E+02  0.51100000000E-03 0.  1.
    9900012    2    1    2    0    0 -0.29990768985E+01 -0.15922464730E+02 -0.37291367753E+02  0.50528862599E+02  0.30000008355E+02 0.  0.
         12    1    1    2    0    0  0.29990768985E+01  0.15922464730E+02  0.37291367753E+02  0.40659137401E+02  0.00000000000E+00 0. -1.
         11    1    3    3    0    0  0.76813553370E+01 -0.62848003309E+01 -0.27983500446E+02  0.29691383135E+02  0.51100000000E-03 0.  1.
        -11    1    3    3    0    0 -0.46453295187E+01  0.12527591269E+01  0.70148485677E+00  0.48621572406E+01  0.51100000000E-03 0. -1.
        -12    1    3    3    0    0 -0.60351027169E+01 -0.10890423526E+02 -0.10009352164E+02  0.15975322223E+02  0.00000000000E+00 0.  1.
</event>
<event>
 7    1  0.4971907E-013  0.5052886E+02  0.7816164E-02  0.1300439E+00
        -11   -1    0    0    0    0  0.00000000000E+00  0.00000000000E+00  0.45593999997E+02  0.45594000000E+02  0.51100000000E-03 0.  1.
         11   -1    0    0    0    0 -0.00000000000E+00 -0.00000000000E+00 -0.45593999997E+02  0.45594000000E+02  0.51100000000E-03 0. -1.
    9900012    2    1    2    0    0  0.25843157081E+02  0.88505180454E+01  0.30115860403E+02  0.50528862215E+02  0.30000007190E+02 0.  0.
         12    1    1    2    0    0 -0.25843157081E+02 -0.88505180454E+01 -0.30115860403E+02  0.40659137785E+02  0.00000000000E+00 0. -1.
         11    1    3    3    0    0  0.18491058244E+02  0.53524264827E+01  0.16504777668E+02  0.25356959407E+02  0.51100000000E-03 0. -1.
        -11    1    3    3    0    0  0.45760737008E+01  0.11608292000E+02  0.67126382661E+01  0.14168712236E+02  0.51100000000E-03 0.  1.
         12    1    3    3    0    0  0.27760251360E+01 -0.81102004370E+01  0.68984444692E+01  0.11003190573E+02  0.00000000000E+00 0. -1.
</event>
<event>
 7    1  0.4971907E-013  0.5052883E+02  0.7816164E-02  0.1300439E+00
        -11   -1    0    0    0    0  0.00000000000E+00  0.00000000000E+00  0.45593999997E+02  0.45594000000E+02  0.51100000000E-03 0. -1.
         11   -1    0    0    0    0 -0.00000000000E+00 -0.00000000000E+00 -0.45593999997E+02  0.45594000000E+02  0.51100000000E-03 0.  1.
    9900012    2    1    2    0    0  0.55215159127E+01  0.62378377015E+01 -0.39796614703E+02  0.50528827615E+02  0.29999902019E+02 0.  0.
         12    1    1    2    0    0 -0.55215159127E+01 -0.62378377015E+01  0.39796614703E+02  0.40659172385E+02  0.00000000000E+00 0. -1.
         11    1    3    3    0    0 -0.13012733796E+01 -0.62648153478E+01 -0.40299184450E+01  0.75618428101E+01  0.51100000000E-03 0. -1.
        -11    1    3    3    0    0  0.13031013592E+01 -0.23442198531E+01 -0.21446813879E+02  0.21613867440E+02  0.51100000000E-03 0.  1.
         12    1    3    3    0    0  0.55196879331E+01  0.14846872902E+02 -0.14319882379E+02  0.21353117365E+02  0.00000000000E+00 0. -1.
</event>
<event>
 7    1  0.4971907E-013  0.5052890E+02  0.7816164E-02  0.1300439E+00
        -11   -1    0    0    0    0  0.00000000000E+00  0.00000000000E+00  0.45593999997E+02  0.45594000000E+02  0.51100000000E-03 0.  1.
         11   -1    0    0    0    0 -0.00000000000E+00 -0.00000000000E+00 -0.45593999997E+02  0.45594000000E+02  0.51100000000E-03 0. -1.
    9900012    2    1    2    0    0 -0.28314993322E+02  0.22451099845E+02  0.18637919571E+02  0.50528895521E+02  0.30000108427E+02 0.  0.
         12    1    1    2    0    0  0.28314993322E+02 -0.22451099845E+02 -0.18637919571E+02  0.40659104479E+02  0.00000000000E+00 0. -1.
         11    1    3    3    0    0 -0.21615005632E+01 -0.31939086057E+01  0.45828555357E+01  0.59896328759E+01  0.51100000000E-03 0. -1.
        -11    1    3    3    0    0 -0.36850729864E+01 -0.14736363384E+01  0.78268300915E+01  0.87755704382E+01  0.51100000000E-03 0.  1.
         12    1    3    3    0    0 -0.22468419772E+02  0.27118644789E+02  0.62282339440E+01  0.35763692207E+02  0.00000000000E+00 0. -1.
</event>
<event>
 7    1  0.4971907E-013  0.5052886E+02  0.7816164E-02  0.1300439E+00
        -11   -1    0    0    0    0  0.00000000000E+00  0.00000000000E+00  0.45593999997E+02  0.45594000000E+02  0.51100000000E-03 0. -1.
         11   -1    0    0    0    0 -0.00000000000E+00 -0.00000000000E+00 -0.45593999997E+02  0.45594000000E+02  0.51100000000E-03 0.  1.
    9900012    2    1    2    0    0 -0.33454625473E+02  0.22906419074E+02 -0.30412991852E+01  0.50528862023E+02  0.30000006604E+02 0.  0.
         12    1    1    2    0    0  0.33454625473E+02 -0.22906419074E+02  0.30412991852E+01  0.40659137977E+02  0.00000000000E+00 0. -1.
         11    1    3    3    0    0 -0.12848505439E+02  0.74045352847E+01  0.72166044010E+01  0.16492137949E+02  0.51100000000E-03 0. -1.
        -11    1    3    3    0    0 -0.21892143978E+02  0.18759944823E+02 -0.10034507616E+02  0.30526919941E+02  0.51100000000E-03 0.  1.
         12    1    3    3    0    0  0.12860239438E+01 -0.32580610345E+01 -0.22339597042E+00  0.35098041325E+01  0.00000000000E+00 0. -1.
</event>
<event>
 7    1  0.4971907E-013  0.5052887E+02  0.7816164E-02  0.1300439E+00
        -11   -1    0    0    0    0  0.00000000000E+00  0.00000000000E+00  0.45593999997E+02  0.45594000000E+02  0.51100000000E-03 0. -1.
         11   -1    0    0    0    0 -0.00000000000E+00 -0.00000000000E+00 -0.45593999997E+02  0.45594000000E+02  0.51100000000E-03 0.  1.
    9900012    2    1    2    0    0  0.21829223109E+02 -0.23266744841E+02  0.25205330524E+02  0.50528867153E+02  0.30000022200E+02 0.  0.
         12    1    1    2    0    0 -0.21829223109E+02  0.23266744841E+02 -0.25205330524E+02  0.40659132847E+02  0.00000000000E+00 0. -1.
         11    1    3    3    0    0  0.15878824610E+02 -0.69514418317E+01  0.15209245318E+02  0.23060372025E+02  0.51100000000E-03 0. -1.
        -11    1    3    3    0    0  0.91517053026E+01 -0.19091437643E+02  0.94892698591E+01  0.23200925498E+02  0.51100000000E-03 0.  1.
         12    1    3    3    0    0 -0.32013068035E+01  0.27761346344E+01  0.50681534712E+00  0.42675696309E+01  0.00000000000E+00 0. -1.
</event>
<event>
 7    1  0.4971907E-013  0.5052892E+02  0.7816164E-02  0.1300439E+00
        -11   -1    0    0    0    0  0.00000000000E+00  0.00000000000E+00  0.45593999997E+02  0.45594000000E+02  0.51100000000E-03 0. -1.
         11   -1    0    0    0    0 -0.00000000000E+00 -0.00000000000E+00 -0.45593999997E+02  0.45594000000E+02  0.51100000000E-03 0.  1.
    9900012    2    1    2    0    0 -0.45899284153E+01 -0.32422576979E+02 -0.24101234992E+02  0.50528923905E+02  0.30000194700E+02 0.  0.
         12    1    1    2    0    0  0.45899284153E+01  0.32422576979E+02  0.24101234992E+02  0.40659076095E+02  0.00000000000E+00 0. -1.
         11    1    3    3    0    0  0.33260829053E+01 -0.12313564180E+02 -0.11674923169E+02  0.17291342388E+02  0.51100000000E-03 0. -1.
        -11    1    3    3    0    0 -0.90697098407E+01 -0.30151615088E+01 -0.12952042602E+02  0.16096777421E+02  0.51100000000E-03 0.  1.
        -12    1    3    3    0    0  0.11536985201E+01 -0.17093851290E+02  0.52573077954E+00  0.17140804096E+02  0.00000000000E+00 0.  1.
</event>
<event>
 7    1  0.4971907E-013  0.5052881E+02  0.7816164E-02  0.1300439E+00
        -11   -1    0    0    0    0  0.00000000000E+00  0.00000000000E+00  0.45593999997E+02  0.45594000000E+02  0.51100000000E-03 0.  1.
         11   -1    0    0    0    0 -0.00000000000E+00 -0.00000000000E+00 -0.45593999997E+02  0.45594000000E+02  0.51100000000E-03 0. -1.
    9900012    2    1    2    0    0  0.27293635431E+02 -0.28158871758E+02  0.10738016797E+02  0.50528811635E+02  0.29999853446E+02 0.  0.
         12    1    1    2    0    0 -0.27293635431E+02  0.28158871758E+02 -0.10738016797E+02  0.40659188365E+02  0.00000000000E+00 0. -1.
         11    1    3    3    0    0  0.28469085978E+01  0.54922938258E+00  0.35448777000E+01  0.45795960136E+01  0.51100000000E-03 0. -1.
        -11    1    3    3    0    0 -0.35376598964E+01  0.16634657754E+01 -0.49771767961E+00  0.39407967568E+01  0.51100000000E-03 0.  1.
        -12    1    3    3    0    0  0.27984386730E+02 -0.30371566916E+02  0.76908567770E+01  0.42008418865E+02  0.00000000000E+00 0.  1.
</event>
<event>
 7    1  0.4971907E-013  0.5052886E+02  0.7816164E-02  0.1300439E+00
        -11   -1    0    0    0    0  0.00000000000E+00  0.00000000000E+00  0.45593999997E+02  0.45594000000E+02  0.51100000000E-03 0. -1.
         11   -1    0    0    0    0 -0.00000000000E+00 -0.00000000000E+00 -0.45593999997E+02  0.45594000000E+02  0.51100000000E-03 0.  1.
    9900012    2    1    2    0    0  0.38144623825E+02  0.95425435107E+01 -0.10348585165E+02  0.50528859843E+02  0.29999999977E+02 0.  0.
         12    1    1    2    0    0 -0.38144623825E+02 -0.95425435107E+01  0.10348585165E+02  0.40659140157E+02  0.00000000000E+00 0. -1.
         11    1    3    3    0    0  0.72683024912E+01 -0.69280873320E+01 -0.52888814120E+01  0.11348959513E+02  0.51100000000E-03 0. -1.
        -11    1    3    3    0    0  0.57954632523E+01  0.60963939675E+01 -0.83344650037E+01  0.11841314153E+02  0.51100000000E-03 0.  1.
         12    1    3    3    0    0  0.25080858082E+02  0.10374236875E+02  0.32747612503E+01  0.27338586176E+02  0.00000000000E+00 0. -1.
</event>
<event>
 7    1  0.4971907E-013  0.5052886E+02  0.7816164E-02  0.1300439E+00
        -11   -1    0    0    0    0  0.00000000000E+00  0.00000000000E+00  0.45593999997E+02  0.45594000000E+02  0.51100000000E-03 0.  1.
         11   -1    0    0    0    0 -0.00000000000E+00 -0.00000000000E+00 -0.45593999997E+02  0.45594000000E+02  0.51100000000E-03 0. -1.
    9900012    2    1    2    0    0  0.35695014390E+02 -0.96967137743E+01  0.16882110035E+02  0.50528856508E+02  0.29999989841E+02 0.  0.
         12    1    1    2    0    0 -0.35695014390E+02  0.96967137743E+01 -0.16882110035E+02  0.40659143492E+02  0.00000000000E+00 0. -1.
         11    1    3    3    0    0  0.17431935915E+02 -0.34535543180E+01  0.41155050879E+00  0.17775511280E+02  0.51100000000E-03 0. -1.
        -11    1    3    3    0    0  0.33779287524E+01  0.61817831983E+01 -0.39451886191E+00  0.70555291482E+01  0.51100000000E-03 0.  1.
         12    1    3    3    0    0  0.14885149722E+02 -0.12424942655E+02  0.16865078388E+02  0.25697816079E+02  0.00000000000E+00 0. -1.
</event>
<event>
 7    1  0.4971907E-013  0.5052886E+02  0.7816164E-02  0.1300439E+00
        -11   -1    0    0    0    0  0.00000000000E+00  0.00000000000E+00  0.45593999997E+02  0.45594000000E+02  0.51100000000E-03 0.  1.
         11   -1    0    0    0    0 -0.00000000000E+00 -0.00000000000E+00 -0.45593999997E+02  0.45594000000E+02  0.51100000000E-03 0. -1.
    9900012    2    1    2    0    0  0.10844414732E+02 -0.38623055766E+02  0.66199740655E+01  0.50528858048E+02  0.29999994524E+02 0.  0.
         12    1    1    2    0    0 -0.10844414732E+02  0.38623055766E+02 -0.66199740655E+01  0.40659141952E+02  0.00000000000E+00 0. -1.
         11    1    3    3    0    0 -0.28572976844E+01 -0.82871380353E+01 -0.54311959575E+01  0.10312065587E+02  0.51100000000E-03 0. -1.
        -11    1    3    3    0    0  0.15582692457E+02 -0.19229463329E+02  0.15217876520E+01  0.24797346673E+02  0.51100000000E-03 0.  1.
         12    1    3    3    0    0 -0.18809800404E+01 -0.11106454402E+02  0.10529382371E+02  0.15419445788E+02  0.00000000000E+00 0. -1.
</event>
<event>
 7    1  0.4971907E-013  0.5052886E+02  0.7816164E-02  0.1300439E+00
        -11   -1    0    0    0    0  0.00000000000E+00  0.00000000000E+00  0.45593999997E+02  0.45594000000E+02  0.51100000000E-03 0.  1.
         11   -1    0    0    0    0 -0.00000000000E+00 -0.00000000000E+00 -0.45593999997E+02  0.45594000000E+02  0.51100000000E-03 0. -1.
    9900012    2    1    2    0    0  0.27326435455E+02  0.28166776841E+02  0.10633160202E+02  0.50528862182E+02  0.30000007088E+02 0.  0.
         12    1    1    2    0    0 -0.27326435455E+02 -0.28166776841E+02 -0.10633160202E+02  0.40659137818E+02  0.00000000000E+00 0. -1.
         11    1    3    3    0    0  0.10538581644E+02 -0.16098616641E+01 -0.30057802218E+01  0.11076464808E+02  0.51100000000E-03 0. -1.
        -11    1    3    3    0    0  0.15966486252E+02  0.14208007798E+02  0.89619436807E+01  0.23175689927E+02  0.51100000000E-03 0.  1.
         12    1    3    3    0    0  0.82136755893E+00  0.15568630707E+02  0.46769967432E+01  0.16276707446E+02  0.00000000000E+00 0. -1.
</event>
<event>
 7    1  0.4971907E-013  0.5052886E+02  0.7816164E-02  0.1300439E+00
        -11   -1    0    0    0    0  0.00000000000E+00  0.00000000000E+00  0.45593999997E+02  0.45594000000E+02  0.51100000000E-03 0.  1.
         11   -1    0    0    0    0 -0.00000000000E+00 -0.00000000000E+00 -0.45593999997E+02  0.45594000000E+02  0.51100000000E-03 0. -1.
    9900012    2    1    2    0    0 -0.29850694975E+02 -0.13518080854E+02  0.24069967631E+02  0.50528857827E+02  0.29999993852E+02 0.  0.
         12    1    1    2    0    0  0.29850694975E+02  0.13518080854E+02 -0.24069967631E+02  0.40659142173E+02  0.00000000000E+00 0. -1.
         11    1    3    3    0    0 -0.12697411807E+02  0.57286563884E+01  0.91261798825E+01  0.16653195793E+02  0.51100000000E-03 0. -1.
        -11    1    3    3    0    0 -0.89887721500E+01  0.29028597309E+00  0.25812769115E+01  0.93565635500E+01  0.51100000000E-03 0.  1.
        -12    1    3    3    0    0 -0.81645110180E+01 -0.19537023215E+02  0.12362510837E+02  0.24519098484E+02  0.00000000000E+00 0.  1.
</event>
<event>
 7    1  0.4971907E-013  0.5052887E+02  0.7816164E-02  0.1300439E+00
        -11   -1    0    0    0    0  0.00000000000E+00  0.00000000000E+00  0.45593999997E+02  0.45594000000E+02  0.51100000000E-03 0.  1.
         11   -1    0    0    0    0 -0.00000000000E+00 -0.00000000000E+00 -0.45593999997E+02  0.45594000000E+02  0.51100000000E-03 0. -1.
    9900012    2    1    2    0    0 -0.18262432995E+02 -0.31410667094E+02  0.18248800259E+02  0.50528866006E+02  0.30000018712E+02 0.  0.
         12    1    1    2    0    0  0.18262432995E+02  0.31410667094E+02 -0.18248800259E+02  0.40659133994E+02  0.00000000000E+00 0. -1.
         11    1    3    3    0    0  0.58612432124E+01 -0.10367663345E+02  0.40550847915E+00  0.11916671205E+02  0.51100000000E-03 0. -1.
        -11    1    3    3    0    0 -0.10569986473E+02 -0.16851214859E+02  0.85454091374E+01  0.21649759210E+02  0.51100000000E-03 0.  1.
        -12    1    3    3    0    0 -0.13553689735E+02 -0.41917888909E+01  0.92978826429E+01  0.16962435591E+02  0.00000000000E+00 0.  1.
</event>
<event>
 7    1  0.4971907E-013  0.5052886E+02  0.7816164E-02  0.1300439E+00
        -11   -1    0    0    0    0  0.00000000000E+00  0.00000000000E+00  0.45593999997E+02  0.45594000000E+02  0.51100000000E-03 0.  1.
         11   -1    0    0    0    0 -0.00000000000E+00 -0.00000000000E+00 -0.45593999997E+02  0.45594000000E+02  0.51100000000E-03 0. -1.
    9900012    2    1    2    0    0  0.98837800065E+01 -0.39360932221E+02  0.24886348620E+01  0.50528863314E+02  0.30000010530E+02 0.  0.
         12    1    1    2    0    0 -0.98837800065E+01  0.39360932221E+02 -0.24886348620E+01  0.40659136686E+02  0.00000000000E+00 0. -1.
         11    1    3    3    0    0 -0.10738305719E+00 -0.20911425663E+02  0.10333501856E+02  0.23325533547E+02  0.51100000000E-03 0. -1.
        -11    1    3    3    0    0  0.65356723796E+01 -0.43507425497E+01  0.36776489350E+01  0.86700101578E+01  0.51100000000E-03 0.  1.
         12    1    3    3    0    0  0.34554906841E+01 -0.14098764009E+02 -0.11522515928E+02  0.18533319610E+02  0.00000000000E+00 0. -1.
</event>
<event>
 7    1  0.4971907E-013  0.5052885E+02  0.7816164E-02  0.1300439E+00
        -11   -1    0    0    0    0  0.00000000000E+00  0.00000000000E+00  0.45593999997E+02  0.45594000000E+02  0.51100000000E-03 0. -1.
         11   -1    0    0    0    0 -0.00000000000E+00 -0.00000000000E+00 -0.45593999997E+02  0.45594000000E+02  0.51100000000E-03 0.  1.
    9900012    2    1    2    0    0 -0.25895235685E+02 -0.27236495048E+02 -0.15516966103E+02  0.50528854280E+02  0.29999983068E+02 0.  0.
         12    1    1    2    0    0  0.25895235685E+02  0.27236495048E+02  0.15516966103E+02  0.40659145720E+02  0.00000000000E+00 0. -1.
         11    1    3    3    0    0 -0.14028580237E+02 -0.34825082714E+01 -0.15615681997E+02  0.21278591397E+02  0.51100000000E-03 0. -1.
        -11    1    3    3    0    0 -0.11701860709E+02 -0.97164150106E+01  0.20501920925E+00  0.15211321371E+02  0.51100000000E-03 0.  1.
         12    1    3    3    0    0 -0.16479473898E+00 -0.14037571766E+02 -0.10630331530E+00  0.14038941512E+02  0.00000000000E+00 0. -1.
</event>
<event>
 7    1  0.4971907E-013  0.5052887E+02  0.7816164E-02  0.1300439E+00
        -11   -1    0    0    0    0  0.00000000000E+00  0.00000000000E+00  0.45593999997E+02  0.45594000000E+02  0.51100000000E-03 0.  1.
         11   -1    0    0    0    0 -0.00000000000E+00 -0.00000000000E+00 -0.45593999997E+02  0.45594000000E+02  0.51100000000E-03 0. -1.
    9900012    2    1    2    0    0  0.15454972237E+02  0.66351134585E+01  0.37017351446E+02  0.50528865657E+02  0.30000017651E+02 0.  0.
         12    1    1    2    0    0 -0.15454972237E+02 -0.66351134585E+01 -0.37017351446E+02  0.40659134343E+02  0.00000000000E+00 0. -1.
         11    1    3    3    0    0  0.97490161146E+00 -0.50730437012E+01  0.66528442106E+00  0.52085323431E+01  0.51100000000E-03 0. -1.
        -11    1    3    3    0    0  0.10852726789E+02 -0.34835342560E+01  0.14025726634E+02  0.18073120858E+02  0.51100000000E-03 0.  1.
        -12    1    3    3    0    0  0.36273438372E+01  0.15191691416E+02  0.22326340391E+02  0.27247212456E+02  0.00000000000E+00 0.  1.
</event>
<event>
 7    1  0.4971907E-013  0.5052887E+02  0.7816164E-02  0.1300439E+00
        -11   -1    0    0    0    0  0.00000000000E+00  0.00000000000E+00  0.45593999997E+02  0.45594000000E+02  0.51100000000E-03 0.  1.
         11   -1    0    0    0    0 -0.00000000000E+00 -0.00000000000E+00 -0.45593999997E+02  0.45594000000E+02  0.51100000000E-03 0. -1.
    9900012    2    1    2    0    0 -0.12808131183E+02  0.38146888656E+01  0.38400063201E+02  0.50528869053E+02  0.30000027974E+02 0.  0.
         12    1    1    2    0    0  0.12808131183E+02 -0.38146888656E+01 -0.38400063201E+02  0.40659130947E+02  0.00000000000E+00 0. -1.
         11    1    3    3    0    0  0.10110337175E+01 -0.25220460887E+01  0.42843751560E+01  0.50733397668E+01  0.51100000000E-03 0. -1.
        -11    1    3    3    0    0  0.71656400945E+01  0.52994381411E+01  0.12040177610E+02  0.14979863808E+02  0.51100000000E-03 0.  1.
        -12    1    3    3    0    0 -0.20984804995E+02  0.10372968131E+01  0.22075510434E+02  0.30475665478E+02  0.00000000000E+00 0.  1.
</event>
<event>
 7    1  0.4971907E-013  0.5052886E+02  0.7816164E-02  0.1300439E+00
        -11   -1    0    0    0    0  0.00000000000E+00  0.00000000000E+00  0.45593999997E+02  0.45594000000E+02  0.51100000000E-03 0. -1.
         11   -1    0    0    0    0 -0.00000000000E+00 -0.00000000000E+00 -0.45593999997E+02  0.45594000000E+02  0.51100000000E-03 0.  1.
    9900012    2    1    2    0    0  0.36583253000E+02 -0.16159810194E+02 -0.73274935969E+01  0.50528855543E+02  0.29999986907E+02 0.  0.
         12    1    1    2    0    0 -0.36583253000E+02  0.16159810194E+02  0.73274935969E+01  0.40659144457E+02  0.00000000000E+00 0. -1.
         11    1    3    3    0    0 -0.56044751883E+00 -0.35682045134E+01  0.57149269285E+01  0.67606637936E+01  0.51100000000E-03 0. -1.
        -11    1    3    3    0    0  0.24432481828E+02 -0.14781823488E+01 -0.46572384882E+01  0.24916281062E+02  0.51100000000E-03 0.  1.
        -12    1    3    3    0    0  0.12711218691E+02 -0.11113423332E+02 -0.83851820372E+01  0.18851910687E+02  0.00000000000E+00 0.  1.
</event>
<event>
 7    1  0.4971907E-013  0.5052886E+02  0.7816164E-02  0.1300439E+00
        -11   -1    0    0    0    0  0.00000000000E+00  0.00000000000E+00  0.45593999997E+02  0.45594000000E+02  0.51100000000E-03 0.  1.
         11   -1    0    0    0    0 -0.00000000000E+00 -0.00000000000E+00 -0.45593999997E+02  0.45594000000E+02  0.51100000000E-03 0. -1.
    9900012    2    1    2    0    0  0.48969642433E+01  0.59342661155E+01  0.39924548419E+02  0.50528864008E+02  0.30000012640E+02 0.  0.
         12    1    1    2    0    0 -0.48969642433E+01 -0.59342661155E+01 -0.39924548419E+02  0.40659135992E+02  0.00000000000E+00 0. -1.
         11    1    3    3    0    0  0.11996235525E+01 -0.50580667955E+01  0.84765679039E+00  0.52670350930E+01  0.51100000000E-03 0. -1.
        -11    1    3    3    0    0 -0.77699669034E+01  0.42471628786E+01  0.10468706041E+02  0.13711476384E+02  0.51100000000E-03 0.  1.
        -12    1    3    3    0    0  0.11467307594E+02  0.67451700324E+01  0.28608185588E+02  0.31550352532E+02  0.00000000000E+00 0.  1.
</event>
<event>
 7    1  0.4971907E-013  0.5052884E+02  0.7816164E-02  0.1300439E+00
        -11   -1    0    0    0    0  0.00000000000E+00  0.00000000000E+00  0.45593999997E+02  0.45594000000E+02  0.51100000000E-03 0.  1.
         11   -1    0    0    0    0 -0.00000000000E+00 -0.00000000000E+00 -0.45593999997E+02  0.45594000000E+02  0.51100000000E-03 0. -1.
    9900012    2    1    2    0    0 -0.39437305437E+02  0.93813330064E+01  0.31395333748E+01  0.50528841881E+02  0.29999945381E+02 0.  0.
         12    1    1    2    0    0  0.39437305437E+02 -0.93813330064E+01 -0.31395333748E+01  0.40659158119E+02  0.00000000000E+00 0. -1.
         11    1    3    3    0    0 -0.93146168601E+01  0.12731793676E+01 -0.44365015242E+01  0.10395461461E+02  0.51100000000E-03 0. -1.
        -11    1    3    3    0    0 -0.21177831729E+02  0.16210208842E+02  0.17364985439E+01  0.26726145530E+02  0.51100000000E-03 0.  1.
         12    1    3    3    0    0 -0.89448568481E+01 -0.81020552030E+01  0.58395363551E+01  0.13407234890E+02  0.00000000000E+00 0. -1.
</event>
<event>
 7    1  0.4971907E-013  0.5052885E+02  0.7816164E-02  0.1300439E+00
        -11   -1    0    0    0    0  0.00000000000E+00  0.00000000000E+00  0.45593999997E+02  0.45594000000E+02  0.51100000000E-03 0.  1.
         11   -1    0    0    0    0 -0.00000000000E+00 -0.00000000000E+00 -0.45593999997E+02  0.45594000000E+02  0.51100000000E-03 0. -1.
    9900012    2    1    2    0    0  0.35512322358E+02 -0.87121334138E+01  0.17780323675E+02  0.50528853208E+02  0.29999979812E+02 0.  0.
         12    1    1    2    0    0 -0.35512322358E+02  0.87121334138E+01 -0.17780323675E+02  0.40659146792E+02  0.00000000000E+00 0. -1.
         11    1    3    3    0    0  0.89445604372E+01  0.61546479013E+01  0.94116732166E+01  0.14368870700E+02  0.51100000000E-03 0. -1.
        -11    1    3    3    0    0  0.12136147513E+02 -0.10264196583E+02  0.12766345794E+02  0.20386745526E+02  0.51100000000E-03 0.  1.
        -12    1    3    3    0    0  0.14431614407E+02 -0.46025847316E+01 -0.43976953361E+01  0.15773236982E+02  0.00000000000E+00 0.  1.
</event>
<event>
 7    1  0.4971907E-013  0.5052886E+02  0.7816164E-02  0.1300439E+00
        -11   -1    0    0    0    0  0.00000000000E+00  0.00000000000E+00  0.45593999997E+02  0.45594000000E+02  0.51100000000E-03 0.  1.
         11   -1    0    0    0    0 -0.00000000000E+00 -0.00000000000E+00 -0.45593999997E+02  0.45594000000E+02  0.51100000000E-03 0. -1.
    9900012    2    1    2    0    0 -0.11919924211E+01  0.37574239189E+02  0.15489384407E+02  0.50528864177E+02  0.30000013151E+02 0.  0.
         12    1    1    2    0    0  0.11919924211E+01 -0.37574239189E+02 -0.15489384407E+02  0.40659135823E+02  0.00000000000E+00 0. -1.
         11    1    3    3    0    0 -0.21085590656E+01  0.50508786006E+00 -0.46230143318E+00  0.22169478920E+01  0.51100000000E-03 0. -1.
        -11    1    3    3    0    0  0.34349409291E+01  0.87763815756E+01  0.17487863806E+02  0.19865776439E+02  0.51100000000E-03 0.  1.
         12    1    3    3    0    0 -0.25183742847E+01  0.28292769754E+02 -0.15361779660E+01  0.28446139846E+02  0.00000000000E+00 0. -1.
</event>
<event>
 7    1  0.4971907E-013  0.5052886E+02  0.7816164E-02  0.1300439E+00
        -11   -1    0    0    0    0  0.00000000000E+00  0.00000000000E+00  0.45593999997E+02  0.45594000000E+02  0.51100000000E-03 0.  1.
         11   -1    0    0    0    0 -0.00000000000E+00 -0.00000000000E+00 -0.45593999997E+02  0.45594000000E+02  0.51100000000E-03 0. -1.
    9900012    2    1    2    0    0 -0.17716999089E+01  0.27326202661E+02  0.30055040433E+02  0.50528859233E+02  0.29999998126E+02 0.  0.
         12    1    1    2    0    0  0.17716999089E+01 -0.27326202661E+02 -0.30055040433E+02  0.40659140767E+02  0.00000000000E+00 0. -1.
         11    1    3    3    0    0 -0.43297809040E+01  0.27198760184E+01 -0.32872003872E+01  0.60786852920E+01  0.51100000000E-03 0. -1.
        -11    1    3    3    0    0 -0.58732144917E+01  0.16309555325E+02  0.17031222497E+02  0.24301415255E+02  0.51100000000E-03 0.  1.
         12    1    3    3    0    0  0.84312954868E+01  0.82967713177E+01  0.16311018323E+02  0.20148758687E+02  0.00000000000E+00 0. -1.
</event>
<event>
 7    1  0.4971907E-013  0.5052885E+02  0.7816164E-02  0.1300439E+00
        -11   -1    0    0    0    0  0.00000000000E+00  0.00000000000E+00  0.45593999997E+02  0.45594000000E+02  0.51100000000E-03 0.  1.
         11   -1    0    0    0    0 -0.00000000000E+00 -0.00000000000E+00 -0.45593999997E+02  0.45594000000E+02  0.51100000000E-03 0. -1.
    9900012    2    1    2    0    0  0.12234403702E+02 -0.36236864303E+02  0.13797673905E+02  0.50528846373E+02  0.29999959035E+02 0.  0.
         12    1    1    2    0    0 -0.12234403702E+02  0.36236864303E+02 -0.13797673905E+02  0.40659153627E+02  0.00000000000E+00 0. -1.
         11    1    3    3    0    0  0.42929372016E-01 -0.66383393015E+01  0.12762256498E+01  0.67600402205E+01  0.51100000000E-03 0. -1.
        -11    1    3    3    0    0  0.20174507129E+02 -0.18172936298E+02  0.12350602366E+02  0.29829578117E+02  0.51100000000E-03 0.  1.
        -12    1    3    3    0    0 -0.79830327994E+01 -0.11425588704E+02  0.17084588980E+00  0.13939228036E+02  0.00000000000E+00 0.  1.
</event>
<event>
 7    1  0.4971907E-013  0.5052886E+02  0.7816164E-02  0.1300439E+00
        -11   -1    0    0    0    0  0.00000000000E+00  0.00000000000E+00  0.45593999997E+02  0.45594000000E+02  0.51100000000E-03 0.  1.
         11   -1    0    0    0    0 -0.00000000000E+00 -0.00000000000E+00 -0.45593999997E+02  0.45594000000E+02  0.51100000000E-03 0. -1.
    9900012    2    1    2    0    0  0.23725468582E+02  0.30157555435E+02  0.13445817759E+02  0.50528855586E+02  0.29999987040E+02 0.  0.
         12    1    1    2    0    0 -0.23725468582E+02 -0.30157555435E+02 -0.13445817759E+02  0.40659144414E+02  0.00000000000E+00 0. -1.
         11    1    3    3    0    0 -0.14258283285E+01 -0.20784120742E+01 -0.14560500545E+01  0.29108186469E+01  0.51100000000E-03 0. -1.
        -11    1    3    3    0    0  0.15246927248E+02  0.54961393788E+01  0.88558191972E+01  0.18468943459E+02  0.51100000000E-03 0.  1.
         12    1    3    3    0    0  0.99043696623E+01  0.26739828131E+02  0.60460486161E+01  0.29149093480E+02  0.00000000000E+00 0. -1.
</event>
<event>
 7    1  0.4971907E-013  0.5052886E+02  0.7816164E-02  0.1300439E+00
        -11   -1    0    0    0    0  0.00000000000E+00  0.00000000000E+00  0.45593999997E+02  0.45594000000E+02  0.51100000000E-03 0.  1.
         11   -1    0    0    0    0 -0.00000000000E+00 -0.00000000000E+00 -0.45593999997E+02  0.45594000000E+02  0.51100000000E-03 0. -1.
    9900012    2    1    2    0    0  0.29037880231E+02  0.88226334924E+01  0.27057874774E+02  0.50528856658E+02  0.29999990298E+02 0.  0.
         12    1    1    2    0    0 -0.29037880231E+02 -0.88226334924E+01 -0.27057874774E+02  0.40659143342E+02  0.00000000000E+00 0. -1.
         11    1    3    3    0    0  0.54685642749E+01 -0.17841766433E+01 -0.48494379849E+01  0.75236647024E+01  0.51100000000E-03 0. -1.
        -11    1    3    3    0    0  0.25354217209E+01  0.30858805110E+01 -0.74551305686E-01  0.39945688114E+01  0.51100000000E-03 0.  1.
        -12    1    3    3    0    0  0.21033894235E+02  0.75209296247E+01  0.31981864064E+02  0.39010623144E+02  0.00000000000E+00 0.  1.
</event>
<event>
 7    1  0.4971907E-013  0.5052886E+02  0.7816164E-02  0.1300439E+00
        -11   -1    0    0    0    0  0.00000000000E+00  0.00000000000E+00  0.45593999997E+02  0.45594000000E+02  0.51100000000E-03 0.  1.
         11   -1    0    0    0    0 -0.00000000000E+00 -0.00000000000E+00 -0.45593999997E+02  0.45594000000E+02  0.51100000000E-03 0. -1.
    9900012    2    1    2    0    0 -0.13417461926E+02 -0.30200062427E+02  0.23687420407E+02  0.50528856617E+02  0.29999990174E+02 0.  0.
         12    1    1    2    0    0  0.13417461926E+02  0.30200062427E+02 -0.23687420407E+02  0.40659143383E+02  0.00000000000E+00 0. -1.
         11    1    3    3    0    0 -0.15711908739E+01 -0.10621426826E+02  0.15811248791E+02  0.19112271900E+02  0.51100000000E-03 0. -1.
        -11    1    3    3    0    0  0.36517471198E+01 -0.93209101739E+01  0.80258614271E+01  0.12830786235E+02  0.51100000000E-03 0.  1.
         12    1    3    3    0    0 -0.15498018172E+02 -0.10257725427E+02 -0.14968981206E+00  0.18585798482E+02  0.00000000000E+00 0. -1.
</event>
<event>
 7    1  0.4971907E-013  0.5052886E+02  0.7816164E-02  0.1300439E+00
        -11   -1    0    0    0    0  0.00000000000E+00  0.00000000000E+00  0.45593999997E+02  0.45594000000E+02  0.51100000000E-03 0. -1.
         11   -1    0    0    0    0 -0.00000000000E+00 -0.00000000000E+00 -0.45593999997E+02  0.45594000000E+02  0.51100000000E-03 0.  1.
    9900012    2    1    2    0    0 -0.23778415277E+01 -0.34356230922E+02 -0.21613903648E+02  0.50528861244E+02  0.30000004238E+02 0.  0.
         12    1    1    2    0    0  0.23778415277E+01  0.34356230922E+02  0.21613903648E+02  0.40659138756E+02  0.00000000000E+00 0. -1.
         11    1    3    3    0    0  0.85612827418E+01 -0.50320695362E+01 -0.33305188076E+01  0.10474237051E+02  0.51100000000E-03 0. -1.
        -11    1    3    3    0    0 -0.34454623695E+01  0.15477333808E+01 -0.10860919751E+01  0.39301762806E+01  0.51100000000E-03 0.  1.
        -12    1    3    3    0    0 -0.74936619000E+01 -0.30871894766E+02 -0.17197292865E+02  0.36124447913E+02  0.00000000000E+00 0.  1.
</event>
<event>
 7    1  0.4971907E-013  0.5052886E+02  0.7816164E-02  0.1300439E+00
        -11   -1    0    0    0    0  0.00000000000E+00  0.00000000000E+00  0.45593999997E+02  0.45594000000E+02  0.51100000000E-03 0. -1.
         11   -1    0    0    0    0 -0.00000000000E+00 -0.00000000000E+00 -0.45593999997E+02  0.45594000000E+02  0.51100000000E-03 0.  1.
    9900012    2    1    2    0    0  0.33708098259E+02  0.20065328636E+02  0.10691689525E+02  0.50528861711E+02  0.30000005656E+02 0.  0.
         12    1    1    2    0    0 -0.33708098259E+02 -0.20065328636E+02 -0.10691689525E+02  0.40659138289E+02  0.00000000000E+00 0. -1.
         11    1    3    3    0    0  0.11157315791E+02  0.15839383659E+02 -0.27975489398E+01  0.19575445096E+02  0.51100000000E-03 0.  1.
        -11    1    3    3    0    0  0.10248235058E+02 -0.29907422624E+01 -0.87406701678E+00  0.10711435688E+02  0.51100000000E-03 0. -1.
         12    1    3    3    0    0  0.12302547410E+02  0.72166872391E+01  0.14363305481E+02  0.20241980926E+02  0.00000000000E+00 0. -1.
</event>
<event>
 7    1  0.4971907E-013  0.5052886E+02  0.7816164E-02  0.1300439E+00
        -11   -1    0    0    0    0  0.00000000000E+00  0.00000000000E+00  0.45593999997E+02  0.45594000000E+02  0.51100000000E-03 0.  1.
         11   -1    0    0    0    0 -0.00000000000E+00 -0.00000000000E+00 -0.45593999997E+02  0.45594000000E+02  0.51100000000E-03 0. -1.
    9900012    2    1    2    0    0  0.23402160705E+02  0.32280922068E+02  0.79653300960E+01  0.50528861560E+02  0.30000005196E+02 0.  0.
         12    1    1    2    0    0 -0.23402160705E+02 -0.32280922068E+02 -0.79653300960E+01  0.40659138440E+02  0.00000000000E+00 0. -1.
         11    1    3    3    0    0  0.93526122330E+01  0.61090324331E+01 -0.50517412718E+00  0.11182434172E+02  0.51100000000E-03 0. -1.
        -11    1    3    3    0    0  0.12220943484E+02  0.27474740815E+02  0.14154559205E+02  0.33234987423E+02  0.51100000000E-03 0.  1.
         12    1    3    3    0    0  0.18286049878E+01 -0.13028511801E+01 -0.56840549821E+01  0.61114399644E+01  0.00000000000E+00 0. -1.
</event>
<event>
 7    1  0.4971907E-013  0.5052883E+02  0.7816164E-02  0.1300439E+00
        -11   -1    0    0    0    0  0.00000000000E+00  0.00000000000E+00  0.45593999997E+02  0.45594000000E+02  0.51100000000E-03 0. -1.
         11   -1    0    0    0    0 -0.00000000000E+00 -0.00000000000E+00 -0.45593999997E+02  0.45594000000E+02  0.51100000000E-03 0.  1.
    9900012    2    1    2    0    0 -0.54636537004E+01  0.11148190992E+02 -0.38717370053E+02  0.50528826152E+02  0.29999897571E+02 0.  0.
         12    1    1    2    0    0  0.54636537004E+01 -0.11148190992E+02  0.38717370053E+02  0.40659173848E+02  0.00000000000E+00 0. -1.
         11    1    3    3    0    0  0.82158895622E+01  0.18036013929E+01 -0.59762856145E+01  0.10318420872E+02  0.51100000000E-03 0. -1.
        -11    1    3    3    0    0 -0.13440464458E+01  0.82834138190E+00 -0.21286922855E+02  0.21345390491E+02  0.51100000000E-03 0.  1.
         12    1    3    3    0    0 -0.12335496817E+02  0.85162482172E+01 -0.11454161583E+02  0.18865014789E+02  0.00000000000E+00 0. -1.
</event>
<event>
 7    1  0.4971907E-013  0.5052886E+02  0.7816164E-02  0.1300439E+00
        -11   -1    0    0    0    0  0.00000000000E+00  0.00000000000E+00  0.45593999997E+02  0.45594000000E+02  0.51100000000E-03 0. -1.
         11   -1    0    0    0    0 -0.00000000000E+00 -0.00000000000E+00 -0.45593999997E+02  0.45594000000E+02  0.51100000000E-03 0.  1.
    9900012    2    1    2    0    0 -0.30600524553E+02 -0.76174882627E+01 -0.25666079064E+02  0.50528857794E+02  0.29999993752E+02 0.  0.
         12    1    1    2    0    0  0.30600524553E+02  0.76174882627E+01  0.25666079064E+02  0.40659142206E+02  0.00000000000E+00 0. -1.
         11    1    3    3    0    0 -0.17350173511E+02 -0.17982364386E+02 -0.13626345507E+02  0.28461750507E+02  0.51100000000E-03 0. -1.
        -11    1    3    3    0    0 -0.59668410622E+01  0.80900244449E+00 -0.18116268083E+01  0.62880576628E+01  0.51100000000E-03 0.  1.
        -12    1    3    3    0    0 -0.72835099799E+01  0.95558736788E+01 -0.10228106749E+02  0.15779049624E+02  0.00000000000E+00 0.  1.
</event>
<event>
 7    1  0.4971907E-013  0.5052886E+02  0.7816164E-02  0.1300439E+00
        -11   -1    0    0    0    0  0.00000000000E+00  0.00000000000E+00  0.45593999997E+02  0.45594000000E+02  0.51100000000E-03 0.  1.
         11   -1    0    0    0    0 -0.00000000000E+00 -0.00000000000E+00 -0.45593999997E+02  0.45594000000E+02  0.51100000000E-03 0. -1.
    9900012    2    1    2    0    0  0.12040384548E+02  0.12313254262E+02  0.36831760874E+02  0.50528859580E+02  0.29999999179E+02 0.  0.
         12    1    1    2    0    0 -0.12040384548E+02 -0.12313254262E+02 -0.36831760874E+02  0.40659140420E+02  0.00000000000E+00 0. -1.
         11    1    3    3    0    0 -0.37136063434E+01 -0.21016244348E+01  0.78381134244E+01  0.89243330089E+01  0.51100000000E-03 0. -1.
        -11    1    3    3    0    0  0.90268326710E+01 -0.42647351404E+01  0.97999215348E+01  0.13989643892E+02  0.51100000000E-03 0.  1.
        -12    1    3    3    0    0  0.67271582204E+01  0.18679613838E+02  0.19193725915E+02  0.27614882679E+02  0.00000000000E+00 0.  1.
</event>
<event>
 7    1  0.4971907E-013  0.5052885E+02  0.7816164E-02  0.1300439E+00
        -11   -1    0    0    0    0  0.00000000000E+00  0.00000000000E+00  0.45593999997E+02  0.45594000000E+02  0.51100000000E-03 0. -1.
         11   -1    0    0    0    0 -0.00000000000E+00 -0.00000000000E+00 -0.45593999997E+02  0.45594000000E+02  0.51100000000E-03 0.  1.
    9900012    2    1    2    0    0 -0.51120695014E+01  0.18564285317E+02 -0.35810622151E+02  0.50528848474E+02  0.29999965422E+02 0.  0.
         12    1    1    2    0    0  0.51120695014E+01 -0.18564285317E+02  0.35810622151E+02  0.40659151526E+02  0.00000000000E+00 0. -1.
         11    1    3    3    0    0  0.59829673637E+01  0.95077881035E+01 -0.63979723818E+01  0.12927798883E+02  0.51100000000E-03 0. -1.
        -11    1    3    3    0    0 -0.18321637007E+01  0.10751622945E+02 -0.24848124217E+02  0.27136386958E+02  0.51100000000E-03 0.  1.
         12    1    3    3    0    0 -0.92628731644E+01 -0.16951257315E+01 -0.45645255524E+01  0.10464662633E+02  0.00000000000E+00 0. -1.
</event>
<event>
 7    1  0.4971907E-013  0.5052886E+02  0.7816164E-02  0.1300439E+00
        -11   -1    0    0    0    0  0.00000000000E+00  0.00000000000E+00  0.45593999997E+02  0.45594000000E+02  0.51100000000E-03 0. -1.
         11   -1    0    0    0    0 -0.00000000000E+00 -0.00000000000E+00 -0.45593999997E+02  0.45594000000E+02  0.51100000000E-03 0.  1.
    9900012    2    1    2    0    0  0.27788017444E+02 -0.87565187507E+01 -0.28360457116E+02  0.50528855125E+02  0.29999985639E+02 0.  0.
         12    1    1    2    0    0 -0.27788017444E+02  0.87565187507E+01  0.28360457116E+02  0.40659144875E+02  0.00000000000E+00 0. -1.
         11    1    3    3    0    0  0.34915088086E+01 -0.98942076380E+01 -0.55302438326E+01  0.11860420551E+02  0.51100000000E-03 0. -1.
        -11    1    3    3    0    0  0.25845843597E+02 -0.37144730958E+01 -0.19344932494E+02  0.32496636058E+02  0.51100000000E-03 0.  1.
         12    1    3    3    0    0 -0.15493349620E+01  0.48521619832E+01 -0.34852807893E+01  0.61717985155E+01  0.00000000000E+00 0. -1.
</event>
<event>
 7    1  0.7723529E-013  0.5052886E+02  0.7816164E-02  0.1300439E+00
        -11   -1    0    0    0    0  0.00000000000E+00  0.00000000000E+00  0.45593999997E+02  0.45594000000E+02  0.51100000000E-03 0. -1.
         11   -1    0    0    0    0 -0.00000000000E+00 -0.00000000000E+00 -0.45593999997E+02  0.45594000000E+02  0.51100000000E-03 0.  1.
    9900012    2    1    2    0    0  0.37479920892E+02 -0.15604777444E+02 -0.22162916424E+01  0.50528862063E+02  0.30000006727E+02 0.  0.
         12    1    1    2    0    0 -0.37479920892E+02  0.15604777444E+02  0.22162916424E+01  0.40659137937E+02  0.00000000000E+00 0. -1.
         11    1    3    3    0    0  0.14441288537E+01  0.10800316371E+01 -0.61919820966E+01  0.64492339877E+01  0.51100000000E-03 0. -1.
        -11    1    3    3    0    0  0.73970687373E+01  0.57684901744E+00  0.73840649304E+01  0.10467750276E+02  0.51100000000E-03 0.  1.
        -12    1    3    3    0    0  0.28638723301E+02 -0.17261658098E+02 -0.34083744762E+01  0.33611877799E+02  0.00000000000E+00 0.  1.
</event>
<event>
 7    1  0.4971907E-013  0.5052886E+02  0.7816164E-02  0.1300439E+00
        -11   -1    0    0    0    0  0.00000000000E+00  0.00000000000E+00  0.45593999997E+02  0.45594000000E+02  0.51100000000E-03 0. -1.
         11   -1    0    0    0    0 -0.00000000000E+00 -0.00000000000E+00 -0.45593999997E+02  0.45594000000E+02  0.51100000000E-03 0.  1.
    9900012    2    1    2    0    0 -0.40404935545E+02  0.37157617960E+01 -0.26077414216E+01  0.50528855673E+02  0.29999987302E+02 0.  0.
         12    1    1    2    0    0  0.40404935545E+02 -0.37157617960E+01  0.26077414216E+01  0.40659144327E+02  0.00000000000E+00 0. -1.
         11    1    3    3    0    0 -0.36802354267E+02  0.66065997287E+01  0.55955848514E+01  0.37807023285E+02  0.51100000000E-03 0.  1.
        -11    1    3    3    0    0  0.76008216263E+00 -0.37034688890E+01 -0.47547829431E+00  0.38104444065E+01  0.51100000000E-03 0. -1.
        -12    1    3    3    0    0 -0.43626634403E+01  0.81263095628E+00 -0.77278479787E+01  0.89113879810E+01  0.00000000000E+00 0.  1.
</event>
<event>
 7    1  0.5620179E-013  0.5052899E+02  0.7816164E-02  0.1300438E+00
        -11   -1    0    0    0    0  0.00000000000E+00  0.00000000000E+00  0.45593999997E+02  0.45594000000E+02  0.51100000000E-03 0.  1.
         11   -1    0    0    0    0 -0.00000000000E+00 -0.00000000000E+00 -0.45593999997E+02  0.45594000000E+02  0.51100000000E-03 0. -1.
    9900012    2    1    2    0    0 -0.17222955124E+01 -0.32261942093E+02  0.24685142997E+02  0.50528985081E+02  0.30000380650E+02 0.  0.
         12    1    1    2    0    0  0.17222955124E+01  0.32261942093E+02 -0.24685142997E+02  0.40659014919E+02  0.00000000000E+00 0. -1.
         11    1    3    3    0    0 -0.10387505427E+02 -0.12397141186E+02  0.33341549344E+01  0.16513811431E+02  0.51100000000E-03 0. -1.
        -11    1    3    3    0    0 -0.29487259045E+01 -0.11181634426E+02  0.12489219410E+02  0.17020708994E+02  0.51100000000E-03 0.  1.
         12    1    3    3    0    0  0.11613935819E+02 -0.86831664804E+01  0.88617686519E+01  0.16994464657E+02  0.00000000000E+00 0. -1.
</event>
<event>
 7    1  0.4971907E-013  0.5052886E+02  0.7816164E-02  0.1300439E+00
        -11   -1    0    0    0    0  0.00000000000E+00  0.00000000000E+00  0.45593999997E+02  0.45594000000E+02  0.51100000000E-03 0.  1.
         11   -1    0    0    0    0 -0.00000000000E+00 -0.00000000000E+00 -0.45593999997E+02  0.45594000000E+02  0.51100000000E-03 0. -1.
    9900012    2    1    2    0    0 -0.13058997735E+01  0.11503918886E+02  0.38975889464E+02  0.50528862239E+02  0.30000007262E+02 0.  0.
         12    1    1    2    0    0  0.13058997735E+01 -0.11503918886E+02 -0.38975889464E+02  0.40659137761E+02  0.00000000000E+00 0. -1.
         11    1    3    3    0    0 -0.27771558808E+01 -0.66197038870E+01  0.38707829592E+01  0.81557363442E+01  0.51100000000E-03 0. -1.
        -11    1    3    3    0    0  0.46506259628E+01  0.32921117200E+01  0.20643941149E+02  0.21415849921E+02  0.51100000000E-03 0.  1.
        -12    1    3    3    0    0 -0.31793698555E+01  0.14831511053E+02  0.14461165356E+02  0.20957275974E+02  0.00000000000E+00 0.  1.
</event>
<event>
 7    1  0.4971907E-013  0.5052887E+02  0.7816164E-02  0.1300439E+00
        -11   -1    0    0    0    0  0.00000000000E+00  0.00000000000E+00  0.45593999997E+02  0.45594000000E+02  0.51100000000E-03 0. -1.
         11   -1    0    0    0    0 -0.00000000000E+00 -0.00000000000E+00 -0.45593999997E+02  0.45594000000E+02  0.51100000000E-03 0.  1.
    9900012    2    1    2    0    0 -0.18571807321E+02  0.34681722557E+02  0.10267970681E+02  0.50528866603E+02  0.30000020525E+02 0.  0.
         12    1    1    2    0    0  0.18571807321E+02 -0.34681722557E+02 -0.10267970681E+02  0.40659133397E+02  0.00000000000E+00 0. -1.
         11    1    3    3    0    0 -0.14671581658E+02  0.11141007562E+02  0.66976972766E+01  0.19601951610E+02  0.51100000000E-03 0.  1.
        -11    1    3    3    0    0 -0.19842372352E+01 -0.13852587176E+01 -0.41141024126E+01  0.47730470397E+01  0.51100000000E-03 0. -1.
         12    1    3    3    0    0 -0.19159884280E+01  0.24925973713E+02  0.76843758172E+01  0.26153867953E+02  0.00000000000E+00 0. -1.
</event>
<event>
 7    1  0.6274412E-013  0.5052884E+02  0.7816164E-02  0.1300439E+00
        -11   -1    0    0    0    0  0.00000000000E+00  0.00000000000E+00  0.45593999997E+02  0.45594000000E+02  0.51100000000E-03 0. -1.
         11   -1    0    0    0    0 -0.00000000000E+00 -0.00000000000E+00 -0.45593999997E+02  0.45594000000E+02  0.51100000000E-03 0.  1.
    9900012    2    1    2    0    0 -0.27645258401E+02  0.28399852047E+02 -0.90749805208E+01  0.50528841378E+02  0.29999943853E+02 0.  0.
         12    1    1    2    0    0  0.27645258401E+02 -0.28399852047E+02  0.90749805208E+01  0.40659158622E+02  0.00000000000E+00 0. -1.
         11    1    3    3    0    0  0.74085018758E+00  0.13549477863E+01  0.37373877149E+01  0.40438607415E+01  0.51100000000E-03 0. -1.
        -11    1    3    3    0    0 -0.15981269528E+02  0.14291477041E+01 -0.26420829703E+01  0.16261120551E+02  0.51100000000E-03 0.  1.
        -12    1    3    3    0    0 -0.12404839061E+02  0.25615756557E+02 -0.10170285265E+02  0.30223860086E+02  0.00000000000E+00 0.  1.
</event>
<event>
 7    1  0.4971907E-013  0.5052886E+02  0.7816164E-02  0.1300439E+00
        -11   -1    0    0    0    0  0.00000000000E+00  0.00000000000E+00  0.45593999997E+02  0.45594000000E+02  0.51100000000E-03 0.  1.
         11   -1    0    0    0    0 -0.00000000000E+00 -0.00000000000E+00 -0.45593999997E+02  0.45594000000E+02  0.51100000000E-03 0. -1.
    9900012    2    1    2    0    0  0.34426232274E+02 -0.32343460573E+00  0.21630892410E+02  0.50528860991E+02  0.30000003467E+02 0.  0.
         12    1    1    2    0    0 -0.34426232274E+02  0.32343460573E+00 -0.21630892410E+02  0.40659139009E+02  0.00000000000E+00 0. -1.
         11    1    3    3    0    0 -0.27287200722E+01  0.12633656535E+01 -0.10107882917E+00  0.30086912766E+01  0.51100000000E-03 0. -1.
        -11    1    3    3    0    0  0.16494820981E+02  0.89283308820E+01  0.12645822950E+02  0.22621031141E+02  0.51100000000E-03 0.  1.
         12    1    3    3    0    0  0.20660131365E+02 -0.10515131141E+02  0.90861482894E+01  0.24899138573E+02  0.00000000000E+00 0. -1.
</event>
<event>
 7    1  0.4971907E-013  0.5052886E+02  0.7816164E-02  0.1300439E+00
        -11   -1    0    0    0    0  0.00000000000E+00  0.00000000000E+00  0.45593999997E+02  0.45594000000E+02  0.51100000000E-03 0. -1.
         11   -1    0    0    0    0 -0.00000000000E+00 -0.00000000000E+00 -0.45593999997E+02  0.45594000000E+02  0.51100000000E-03 0.  1.
    9900012    2    1    2    0    0 -0.90957148272E+01  0.34182232696E+02 -0.20050159070E+02  0.50528856637E+02  0.29999990234E+02 0.  0.
         12    1    1    2    0    0  0.90957148272E+01 -0.34182232696E+02  0.20050159070E+02  0.40659143363E+02  0.00000000000E+00 0. -1.
         11    1    3    3    0    0 -0.40340462367E+01 -0.27361090248E+00  0.36937286055E+01  0.54764973512E+01  0.51100000000E-03 0. -1.
        -11    1    3    3    0    0 -0.50623054833E+01  0.73145518160E+01 -0.13237101400E+02  0.15948368531E+02  0.51100000000E-03 0.  1.
         12    1    3    3    0    0  0.63689289500E-03  0.27141291782E+02 -0.10506786275E+02  0.29103990755E+02  0.00000000000E+00 0. -1.
</event>
<event>
 7    1  0.4971907E-013  0.5052886E+02  0.7816164E-02  0.1300439E+00
        -11   -1    0    0    0    0  0.00000000000E+00  0.00000000000E+00  0.45593999997E+02  0.45594000000E+02  0.51100000000E-03 0.  1.
         11   -1    0    0    0    0 -0.00000000000E+00 -0.00000000000E+00 -0.45593999997E+02  0.45594000000E+02  0.51100000000E-03 0. -1.
    9900012    2    1    2    0    0 -0.25870972078E+02 -0.26407086283E+02 -0.16927020193E+02  0.50528863083E+02  0.30000009828E+02 0.  0.
         12    1    1    2    0    0  0.25870972078E+02  0.26407086283E+02  0.16927020193E+02  0.40659136917E+02  0.00000000000E+00 0. -1.
         11    1    3    3    0    0 -0.13030361560E+01  0.40359764728E+00 -0.20295203467E+01  0.24453522003E+01  0.51100000000E-03 0. -1.
        -11    1    3    3    0    0 -0.33816271464E+01 -0.23765375111E+02 -0.50851029536E+01  0.24537455627E+02  0.51100000000E-03 0.  1.
        -12    1    3    3    0    0 -0.21186308776E+02 -0.30453088187E+01 -0.98123968924E+01  0.23546055256E+02  0.00000000000E+00 0.  1.
</event>
<event>
 7    1  0.4971907E-013  0.5052885E+02  0.7816164E-02  0.1300439E+00
        -11   -1    0    0    0    0  0.00000000000E+00  0.00000000000E+00  0.45593999997E+02  0.45594000000E+02  0.51100000000E-03 0.  1.
         11   -1    0    0    0    0 -0.00000000000E+00 -0.00000000000E+00 -0.45593999997E+02  0.45594000000E+02  0.51100000000E-03 0. -1.
    9900012    2    1    2    0    0  0.93184515573E+01 -0.71676440344E+00  0.39570429615E+02  0.50528853544E+02  0.29999980833E+02 0.  0.
         12    1    1    2    0    0 -0.93184515573E+01  0.71676440344E+00 -0.39570429615E+02  0.40659146456E+02  0.00000000000E+00 0. -1.
         11    1    3    3    0    0 -0.50972151379E+01 -0.25478104559E+01  0.57953371583E+00  0.57278966358E+01  0.51100000000E-03 0. -1.
        -11    1    3    3    0    0  0.29101546068E+01  0.81876274638E+01  0.18761041520E+02  0.20675660147E+02  0.51100000000E-03 0.  1.
        -12    1    3    3    0    0  0.11505512088E+02 -0.63565814113E+01  0.20229854378E+02  0.24125296761E+02  0.00000000000E+00 0.  1.
</event>
<event>
 7    1  0.4971907E-013  0.5052886E+02  0.7816164E-02  0.1300439E+00
        -11   -1    0    0    0    0  0.00000000000E+00  0.00000000000E+00  0.45593999997E+02  0.45594000000E+02  0.51100000000E-03 0. -1.
         11   -1    0    0    0    0 -0.00000000000E+00 -0.00000000000E+00 -0.45593999997E+02  0.45594000000E+02  0.51100000000E-03 0.  1.
    9900012    2    1    2    0    0  0.22647095762E+02 -0.28869191512E+02 -0.17516967612E+02  0.50528864257E+02  0.30000013396E+02 0.  0.
         12    1    1    2    0    0 -0.22647095762E+02  0.28869191512E+02  0.17516967612E+02  0.40659135743E+02  0.00000000000E+00 0. -1.
         11    1    3    3    0    0 -0.14551867903E+01 -0.30626010379E+01 -0.65892433173E+01  0.74104805154E+01  0.51100000000E-03 0. -1.
        -11    1    3    3    0    0  0.25154464948E+02 -0.24995015926E+02 -0.15246415260E+02  0.38599884799E+02  0.51100000000E-03 0.  1.
         12    1    3    3    0    0 -0.10521823953E+01 -0.81157454856E+00  0.43186909657E+01  0.45184989430E+01  0.00000000000E+00 0. -1.
</event>
<event>
 7    1  0.4971907E-013  0.5052886E+02  0.7816164E-02  0.1300439E+00
        -11   -1    0    0    0    0  0.00000000000E+00  0.00000000000E+00  0.45593999997E+02  0.45594000000E+02  0.51100000000E-03 0. -1.
         11   -1    0    0    0    0 -0.00000000000E+00 -0.00000000000E+00 -0.45593999997E+02  0.45594000000E+02  0.51100000000E-03 0.  1.
    9900012    2    1    2    0    0 -0.26151354820E+02  0.75512086372E+01 -0.30203504083E+02  0.50528858719E+02  0.29999996563E+02 0.  0.
         12    1    1    2    0    0  0.26151354820E+02 -0.75512086372E+01  0.30203504083E+02  0.40659141281E+02  0.00000000000E+00 0. -1.
         11    1    3    3    0    0 -0.24824474969E+02  0.10070339831E+02 -0.14839185392E+02  0.30624626122E+02  0.51100000000E-03 0. -1.
        -11    1    3    3    0    0 -0.44114134558E+00  0.45807418831E+01 -0.98464120362E+01  0.10868745656E+02  0.51100000000E-03 0.  1.
        -12    1    3    3    0    0 -0.88573850551E+00 -0.70998730766E+01 -0.55179066553E+01  0.90354869409E+01  0.00000000000E+00 0.  1.
</event>
<event>
 7    1  0.4971907E-013  0.5052893E+02  0.7816164E-02  0.1300439E+00
        -11   -1    0    0    0    0  0.00000000000E+00  0.00000000000E+00  0.45593999997E+02  0.45594000000E+02  0.51100000000E-03 0.  1.
         11   -1    0    0    0    0 -0.00000000000E+00 -0.00000000000E+00 -0.45593999997E+02  0.45594000000E+02  0.51100000000E-03 0. -1.
    9900012    2    1    2    0    0 -0.14156180618E+02  0.36017245147E+02  0.12470800244E+02  0.50528926519E+02  0.30000202645E+02 0.  0.
         12    1    1    2    0    0  0.14156180618E+02 -0.36017245147E+02 -0.12470800244E+02  0.40659073481E+02  0.00000000000E+00 0. -1.
         11    1    3    3    0    0  0.39741206228E+01  0.14737426836E+02  0.14578711641E+01  0.15333322310E+02  0.51100000000E-03 0. -1.
        -11    1    3    3    0    0 -0.57564277262E+01  0.58512036432E+00  0.93895016308E+01  0.11029123589E+02  0.51100000000E-03 0.  1.
         12    1    3    3    0    0 -0.12373873514E+02  0.20694697947E+02  0.16234274487E+01  0.24166480620E+02  0.00000000000E+00 0. -1.
</event>
<event>
 7    1  0.4971907E-013  0.5052887E+02  0.7816164E-02  0.1300439E+00
        -11   -1    0    0    0    0  0.00000000000E+00  0.00000000000E+00  0.45593999997E+02  0.45594000000E+02  0.51100000000E-03 0.  1.
         11   -1    0    0    0    0 -0.00000000000E+00 -0.00000000000E+00 -0.45593999997E+02  0.45594000000E+02  0.51100000000E-03 0. -1.
    9900012    2    1    2    0    0  0.24444516688E+02 -0.32100209073E+02  0.50206952710E+01  0.50528865729E+02  0.30000017871E+02 0.  0.
         12    1    1    2    0    0 -0.24444516688E+02  0.32100209073E+02 -0.50206952710E+01  0.40659134271E+02  0.00000000000E+00 0. -1.
         11    1    3    3    0    0  0.11356035392E+02 -0.23505317130E+02  0.58385878802E+01  0.26749739847E+02  0.51100000000E-03 0. -1.
        -11    1    3    3    0    0  0.13670261477E+02 -0.11106870177E+02 -0.54843533742E+01  0.18447675901E+02  0.51100000000E-03 0.  1.
         12    1    3    3    0    0 -0.58178018132E+00  0.25119782332E+01  0.46664607650E+01  0.53314499805E+01  0.00000000000E+00 0. -1.
</event>
<event>
 7    1  0.4971907E-013  0.5052886E+02  0.7816164E-02  0.1300439E+00
        -11   -1    0    0    0    0  0.00000000000E+00  0.00000000000E+00  0.45593999997E+02  0.45594000000E+02  0.51100000000E-03 0.  1.
         11   -1    0    0    0    0 -0.00000000000E+00 -0.00000000000E+00 -0.45593999997E+02  0.45594000000E+02  0.51100000000E-03 0. -1.
    9900012    2    1    2    0    0 -0.38745772453E+02 -0.10468054385E+02 -0.65077312505E+01  0.50528860664E+02  0.30000002473E+02 0.  0.
         12    1    1    2    0    0  0.38745772453E+02  0.10468054385E+02  0.65077312505E+01  0.40659139336E+02  0.00000000000E+00 0. -1.
         11    1    3    3    0    0 -0.75416772916E+01 -0.10010403348E+02 -0.31177641451E+01  0.12915321331E+02  0.51100000000E-03 0. -1.
        -11    1    3    3    0    0 -0.13647999616E+02  0.18554047571E+01  0.85912155420E+01  0.16233280786E+02  0.51100000000E-03 0.  1.
         12    1    3    3    0    0 -0.17556095545E+02 -0.23130557940E+01 -0.11981182648E+02  0.21380258546E+02  0.00000000000E+00 0. -1.
</event>
<event>
 7    1  0.4971907E-013  0.5052886E+02  0.7816164E-02  0.1300439E+00
        -11   -1    0    0    0    0  0.00000000000E+00  0.00000000000E+00  0.45593999997E+02  0.45594000000E+02  0.51100000000E-03 0.  1.
         11   -1    0    0    0    0 -0.00000000000E+00 -0.00000000000E+00 -0.45593999997E+02  0.45594000000E+02  0.51100000000E-03 0. -1.
    9900012    2    1    2    0    0 -0.15499456243E+02  0.10972890614E+02  0.35951750957E+02  0.50528857496E+02  0.29999992845E+02 0.  0.
         12    1    1    2    0    0  0.15499456243E+02 -0.10972890614E+02 -0.35951750957E+02  0.40659142504E+02  0.00000000000E+00 0. -1.
         11    1    3    3    0    0 -0.51602241984E+01  0.10229505424E+01  0.17826200528E+02  0.18586225198E+02  0.51100000000E-03 0. -1.
        -11    1    3    3    0    0 -0.12498556749E+02  0.83840632026E-01  0.17910775784E+02  0.21840715178E+02  0.51100000000E-03 0.  1.
         12    1    3    3    0    0  0.21593247043E+01  0.98660994399E+01  0.21477464516E+00  0.10101917119E+02  0.00000000000E+00 0. -1.
</event>
<event>
 7    1  0.4971907E-013  0.5052886E+02  0.7816164E-02  0.1300439E+00
        -11   -1    0    0    0    0  0.00000000000E+00  0.00000000000E+00  0.45593999997E+02  0.45594000000E+02  0.51100000000E-03 0. -1.
         11   -1    0    0    0    0 -0.00000000000E+00 -0.00000000000E+00 -0.45593999997E+02  0.45594000000E+02  0.51100000000E-03 0.  1.
    9900012    2    1    2    0    0  0.27952261092E+02  0.23695303540E+02 -0.17617302194E+02  0.50528860233E+02  0.30000001164E+02 0.  0.
         12    1    1    2    0    0 -0.27952261092E+02 -0.23695303540E+02  0.17617302194E+02  0.40659139767E+02  0.00000000000E+00 0. -1.
         11    1    3    3    0    0  0.99570041471E+01 -0.81174664857E+00 -0.10206735953E+02  0.14282098000E+02  0.51100000000E-03 0. -1.
        -11    1    3    3    0    0  0.11560735751E+02  0.82364690587E+01  0.47170264536E+01  0.14957953486E+02  0.51100000000E-03 0.  1.
        -12    1    3    3    0    0  0.64345211938E+01  0.16270581129E+02 -0.12127592695E+02  0.21288808747E+02  0.00000000000E+00 0.  1.
</event>
<event>
 7    1  0.4971907E-013  0.5052885E+02  0.7816164E-02  0.1300439E+00
        -11   -1    0    0    0    0  0.00000000000E+00  0.00000000000E+00  0.45593999997E+02  0.45594000000E+02  0.51100000000E-03 0. -1.
         11   -1    0    0    0    0 -0.00000000000E+00 -0.00000000000E+00 -0.45593999997E+02  0.45594000000E+02  0.51100000000E-03 0.  1.
    9900012    2    1    2    0    0  0.40429959360E+02  0.42784190203E+01  0.52941065461E+00  0.50528846555E+02  0.29999959590E+02 0.  0.
         12    1    1    2    0    0 -0.40429959360E+02 -0.42784190203E+01 -0.52941065461E+00  0.40659153445E+02  0.00000000000E+00 0. -1.
         11    1    3    3    0    0  0.13145366733E+02  0.38990911838E+01  0.10848189419E+02  0.17483900953E+02  0.51100000000E-03 0. -1.
        -11    1    3    3    0    0  0.53709963148E+01  0.66941948023E+01 -0.30762503764E+01  0.91171904721E+01  0.51100000000E-03 0.  1.
        -12    1    3    3    0    0  0.21913596312E+02 -0.63148669658E+01 -0.72425283877E+01  0.23927755130E+02  0.00000000000E+00 0.  1.
</event>
<event>
 7    1  0.4971907E-013  0.5052886E+02  0.7816164E-02  0.1300439E+00
        -11   -1    0    0    0    0  0.00000000000E+00  0.00000000000E+00  0.45593999997E+02  0.45594000000E+02  0.51100000000E-03 0. -1.
         11   -1    0    0    0    0 -0.00000000000E+00 -0.00000000000E+00 -0.45593999997E+02  0.45594000000E+02  0.51100000000E-03 0.  1.
    9900012    2    1    2    0    0 -0.39564795629E+02 -0.74829639496E+01  0.56389703033E+01  0.50528858485E+02  0.29999995851E+02 0.  0.
         12    1    1    2    0    0  0.39564795629E+02  0.74829639496E+01 -0.56389703033E+01  0.40659141515E+02  0.00000000000E+00 0. -1.
         11    1    3    3    0    0  0.73995041705E+00 -0.30219804275E+01  0.38274261061E+01  0.49324520457E+01  0.51100000000E-03 0. -1.
        -11    1    3    3    0    0 -0.21216510238E+02 -0.11190998295E+02  0.64348411546E+01  0.24835175265E+02  0.51100000000E-03 0.  1.
         12    1    3    3    0    0 -0.19088235808E+02  0.67300147726E+01 -0.46232969574E+01  0.20761231174E+02  0.00000000000E+00 0. -1.
</event>
<event>
 7    1  0.5223918E-013  0.5052885E+02  0.7816164E-02  0.1300439E+00
        -11   -1    0    0    0    0  0.00000000000E+00  0.00000000000E+00  0.45593999997E+02  0.45594000000E+02  0.51100000000E-03 0.  1.
         11   -1    0    0    0    0 -0.00000000000E+00 -0.00000000000E+00 -0.45593999997E+02  0.45594000000E+02  0.51100000000E-03 0. -1.
    9900012    2    1    2    0    0  0.21791373585E+02  0.28747795181E+02  0.18758104049E+02  0.50528853944E+02  0.29999982048E+02 0.  0.
         12    1    1    2    0    0 -0.21791373585E+02 -0.28747795181E+02 -0.18758104049E+02  0.40659146056E+02  0.00000000000E+00 0. -1.
         11    1    3    3    0    0  0.10428245769E+02 -0.57183629990E+00 -0.48520350613E+00  0.10455177152E+02  0.51100000000E-03 0. -1.
        -11    1    3    3    0    0  0.38348985744E+01  0.49928135217E+01  0.12077107556E+02  0.13619513983E+02  0.51100000000E-03 0.  1.
        -12    1    3    3    0    0  0.75282292420E+01  0.24326817959E+02  0.71661999986E+01  0.26454162809E+02  0.00000000000E+00 0.  1.
</event>
<event>
 7    1  0.4971907E-013  0.5052886E+02  0.7816164E-02  0.1300439E+00
        -11   -1    0    0    0    0  0.00000000000E+00  0.00000000000E+00  0.45593999997E+02  0.45594000000E+02  0.51100000000E-03 0.  1.
         11   -1    0    0    0    0 -0.00000000000E+00 -0.00000000000E+00 -0.45593999997E+02  0.45594000000E+02  0.51100000000E-03 0. -1.
    9900012    2    1    2    0    0  0.30785616731E+02  0.24461424960E+02  0.10346503929E+02  0.50528860165E+02  0.30000000957E+02 0.  0.
         12    1    1    2    0    0 -0.30785616731E+02 -0.24461424960E+02 -0.10346503929E+02  0.40659139835E+02  0.00000000000E+00 0. -1.
         11    1    3    3    0    0  0.20021241544E+02  0.23308551576E+02  0.90151223177E+01  0.32022041163E+02  0.51100000000E-03 0. -1.
        -11    1    3    3    0    0 -0.34740593818E+01  0.32138788926E-01  0.23400221224E+01  0.41887737208E+01  0.51100000000E-03 0.  1.
        -12    1    3    3    0    0  0.14238434569E+02  0.11207345945E+01 -0.10086405112E+01  0.14318045282E+02  0.00000000000E+00 0.  1.
</event>
<event>
 7    1  0.4971907E-013  0.5052886E+02  0.7816164E-02  0.1300439E+00
        -11   -1    0    0    0    0  0.00000000000E+00  0.00000000000E+00  0.45593999997E+02  0.45594000000E+02  0.51100000000E-03 0.  1.
         11   -1    0    0    0    0 -0.00000000000E+00 -0.00000000000E+00 -0.45593999997E+02  0.45594000000E+02  0.51100000000E-03 0. -1.
    9900012    2    1    2    0    0 -0.52147091629E+01  0.22883198330E+02  0.33201383284E+02  0.50528858231E+02  0.29999995078E+02 0.  0.
         12    1    1    2    0    0  0.52147091629E+01 -0.22883198330E+02 -0.33201383284E+02  0.40659141769E+02  0.00000000000E+00 0. -1.
         11    1    3    3    0    0  0.76319773669E+01  0.10775276795E+02  0.16682134633E+02  0.21275509036E+02  0.51100000000E-03 0. -1.
        -11    1    3    3    0    0 -0.28162068108E+01  0.13219039966E+02  0.12436846775E+02  0.18367068258E+02  0.51100000000E-03 0.  1.
        -12    1    3    3    0    0 -0.10030479719E+02 -0.11111184318E+01  0.40824018755E+01  0.10886280937E+02  0.00000000000E+00 0.  1.
</event>
<event>
 7    1  0.4971907E-013  0.5052885E+02  0.7816164E-02  0.1300439E+00
        -11   -1    0    0    0    0  0.00000000000E+00  0.00000000000E+00  0.45593999997E+02  0.45594000000E+02  0.51100000000E-03 0.  1.
         11   -1    0    0    0    0 -0.00000000000E+00 -0.00000000000E+00 -0.45593999997E+02  0.45594000000E+02  0.51100000000E-03 0. -1.
    9900012    2    1    2    0    0  0.14171842824E+02  0.42001166113E+01  0.37877225568E+02  0.50528851886E+02  0.29999975794E+02 0.  0.
         12    1    1    2    0    0 -0.14171842824E+02 -0.42001166113E+01 -0.37877225568E+02  0.40659148114E+02  0.00000000000E+00 0. -1.
         11    1    3    3    0    0  0.95788442480E+01  0.27521030469E+01  0.49314959930E+00  0.99785532567E+01  0.51100000000E-03 0. -1.
        -11    1    3    3    0    0  0.78745216703E+01 -0.18161852748E+01  0.10392533413E+02  0.13164777685E+02  0.51100000000E-03 0.  1.
        -12    1    3    3    0    0 -0.32815230943E+01  0.32641988392E+01  0.26991542556E+02  0.27385520945E+02  0.00000000000E+00 0.  1.
</event>
<event>
 7    1  0.4971907E-013  0.5052886E+02  0.7816164E-02  0.1300439E+00
        -11   -1    0    0    0    0  0.00000000000E+00  0.00000000000E+00  0.45593999997E+02  0.45594000000E+02  0.51100000000E-03 0.  1.
         11   -1    0    0    0    0 -0.00000000000E+00 -0.00000000000E+00 -0.45593999997E+02  0.45594000000E+02  0.51100000000E-03 0. -1.
    9900012    2    1    2    0    0  0.23693264262E+02 -0.77460967111E+01  0.32121530103E+02  0.50528862259E+02  0.30000007322E+02 0.  0.
         12    1    1    2    0    0 -0.23693264262E+02  0.77460967111E+01 -0.32121530103E+02  0.40659137741E+02  0.00000000000E+00 0. -1.
         11    1    3    3    0    0  0.29405291754E+01 -0.59502766764E+01  0.86353204074E+01  0.10891338906E+02  0.51100000000E-03 0. -1.
        -11    1    3    3    0    0 -0.50156179973E+01 -0.12559071515E+01  0.66671465856E+00  0.52132749175E+01  0.51100000000E-03 0.  1.
        -12    1    3    3    0    0  0.25768353084E+02 -0.53991288318E+00  0.22819495037E+02  0.34424248436E+02  0.00000000000E+00 0.  1.
</event>
<event>
 7    1  0.4971907E-013  0.5052886E+02  0.7816164E-02  0.1300439E+00
        -11   -1    0    0    0    0  0.00000000000E+00  0.00000000000E+00  0.45593999997E+02  0.45594000000E+02  0.51100000000E-03 0.  1.
         11   -1    0    0    0    0 -0.00000000000E+00 -0.00000000000E+00 -0.45593999997E+02  0.45594000000E+02  0.51100000000E-03 0. -1.
    9900012    2    1    2    0    0  0.40548157639E+02 -0.22549756184E+01 -0.19818229497E+01  0.50528860496E+02  0.30000001964E+02 0.  0.
         12    1    1    2    0    0 -0.40548157639E+02  0.22549756184E+01  0.19818229497E+01  0.40659139504E+02  0.00000000000E+00 0. -1.
         11    1    3    3    0    0  0.34728081011E+01 -0.68727235028E+01 -0.25697608976E+01  0.81177826890E+01  0.51100000000E-03 0. -1.
        -11    1    3    3    0    0  0.55382168317E+01 -0.55734304305E+01 -0.42241532557E+01  0.89206750545E+01  0.51100000000E-03 0.  1.
         12    1    3    3    0    0  0.31537132706E+02  0.10191178315E+02  0.48120912037E+01  0.33490402753E+02  0.00000000000E+00 0. -1.
</event>
<event>
 7    1  0.4971907E-013  0.5052886E+02  0.7816164E-02  0.1300439E+00
        -11   -1    0    0    0    0  0.00000000000E+00  0.00000000000E+00  0.45593999997E+02  0.45594000000E+02  0.51100000000E-03 0.  1.
         11   -1    0    0    0    0 -0.00000000000E+00 -0.00000000000E+00 -0.45593999997E+02  0.45594000000E+02  0.51100000000E-03 0. -1.
    9900012    2    1    2    0    0 -0.20632363594E+00 -0.40592491366E+02  0.23179833281E+01  0.50528856238E+02  0.29999989021E+02 0.  0.
         12    1    1    2    0    0  0.20632363594E+00  0.40592491366E+02 -0.23179833281E+01  0.40659143762E+02  0.00000000000E+00 0. -1.
         11    1    3    3    0    0 -0.68794723311E+01 -0.15920333322E+02 -0.51341089672E+01  0.18087101144E+02  0.51100000000E-03 0. -1.
        -11    1    3    3    0    0  0.26723655505E+01 -0.26873332811E+02  0.65036959390E+01  0.27777969961E+02  0.51100000000E-03 0.  1.
        -12    1    3    3    0    0  0.40007831446E+01  0.22011747668E+01  0.94839635631E+00  0.46637851336E+01  0.00000000000E+00 0.  1.
</event>
<event>
 7    1  0.4971907E-013  0.5052887E+02  0.7816164E-02  0.1300439E+00
        -11   -1    0    0    0    0  0.00000000000E+00  0.00000000000E+00  0.45593999997E+02  0.45594000000E+02  0.51100000000E-03 0.  1.
         11   -1    0    0    0    0 -0.00000000000E+00 -0.00000000000E+00 -0.45593999997E+02  0.45594000000E+02  0.51100000000E-03 0. -1.
    9900012    2    1    2    0    0  0.32921088591E+01 -0.16572625245E+02  0.36982088634E+02  0.50528871037E+02  0.30000034005E+02 0.  0.
         12    1    1    2    0    0 -0.32921088591E+01  0.16572625245E+02 -0.36982088634E+02  0.40659128963E+02  0.00000000000E+00 0. -1.
         11    1    3    3    0    0  0.10320642116E+02 -0.97854425283E+01  0.51333965171E+01  0.15120261216E+02  0.51100000000E-03 0. -1.
        -11    1    3    3    0    0  0.92306088624E+00 -0.74381707281E+01  0.15358691229E+02  0.17089991858E+02  0.51100000000E-03 0.  1.
        -12    1    3    3    0    0 -0.79515941434E+01  0.65098801133E+00  0.16490000888E+02  0.18318617964E+02  0.00000000000E+00 0.  1.
</event>
<event>
 7    1  0.4971907E-013  0.5052888E+02  0.7816164E-02  0.1300439E+00
        -11   -1    0    0    0    0  0.00000000000E+00  0.00000000000E+00  0.45593999997E+02  0.45594000000E+02  0.51100000000E-03 0.  1.
         11   -1    0    0    0    0 -0.00000000000E+00 -0.00000000000E+00 -0.45593999997E+02  0.45594000000E+02  0.51100000000E-03 0. -1.
    9900012    2    1    2    0    0  0.93827082396E+01 -0.30370816099E+02  0.25352356384E+02  0.50528884680E+02  0.30000075472E+02 0.  0.
         12    1    1    2    0    0 -0.93827082396E+01  0.30370816099E+02 -0.25352356384E+02  0.40659115320E+02  0.00000000000E+00 0. -1.
         11    1    3    3    0    0  0.99048598056E+01 -0.86740709890E+01  0.11204711218E+01  0.13213675154E+02  0.51100000000E-03 0. -1.
        -11    1    3    3    0    0  0.51868087710E+01 -0.36994830128E+01  0.15002357443E+02  0.16299076321E+02  0.51100000000E-03 0.  1.
         12    1    3    3    0    0 -0.57089603371E+01 -0.17997262097E+02  0.92295278190E+01  0.21016133205E+02  0.00000000000E+00 0. -1.
</event>
<event>
 7    1  0.4971907E-013  0.5052887E+02  0.7816164E-02  0.1300439E+00
        -11   -1    0    0    0    0  0.00000000000E+00  0.00000000000E+00  0.45593999997E+02  0.45594000000E+02  0.51100000000E-03 0.  1.
         11   -1    0    0    0    0 -0.00000000000E+00 -0.00000000000E+00 -0.45593999997E+02  0.45594000000E+02  0.51100000000E-03 0. -1.
    9900012    2    1    2    0    0  0.79782421830E+01 -0.36151259691E+02  0.16810684207E+02  0.50528867826E+02  0.30000024245E+02 0.  0.
         12    1    1    2    0    0 -0.79782421830E+01  0.36151259691E+02 -0.16810684207E+02  0.40659132174E+02  0.00000000000E+00 0. -1.
         11    1    3    3    0    0 -0.75318374395E+01 -0.41630058499E+01  0.78834643419E+01  0.11670827015E+02  0.51100000000E-03 0.  1.
        -11    1    3    3    0    0  0.48555130885E+01 -0.48507462003E+01 -0.28280488549E+01  0.74231803588E+01  0.51100000000E-03 0. -1.
        -12    1    3    3    0    0  0.10654566534E+02 -0.27137507641E+02  0.11755268720E+02  0.31434860453E+02  0.00000000000E+00 0.  1.
</event>
<event>
 7    1  0.4971907E-013  0.5052890E+02  0.7816164E-02  0.1300439E+00
        -11   -1    0    0    0    0  0.00000000000E+00  0.00000000000E+00  0.45593999997E+02  0.45594000000E+02  0.51100000000E-03 0.  1.
         11   -1    0    0    0    0 -0.00000000000E+00 -0.00000000000E+00 -0.45593999997E+02  0.45594000000E+02  0.51100000000E-03 0. -1.
    9900012    2    1    2    0    0  0.24489782508E+02  0.29184991598E+02  0.14200328097E+02  0.50528898928E+02  0.30000118783E+02 0.  0.
         12    1    1    2    0    0 -0.24489782508E+02 -0.29184991598E+02 -0.14200328097E+02  0.40659101072E+02  0.00000000000E+00 0. -1.
         11    1    3    3    0    0  0.12955406000E+02  0.12300095586E+02  0.44994709655E+01  0.18422272805E+02  0.51100000000E-03 0.  1.
        -11    1    3    3    0    0  0.47958725613E+01 -0.12538361167E+01  0.11648016206E+02  0.12658940731E+02  0.51100000000E-03 0. -1.
         12    1    3    3    0    0  0.67385039461E+01  0.18138732129E+02 -0.19471590742E+01  0.19447685393E+02  0.00000000000E+00 0. -1.
</event>
<event>
 7    1  0.4971907E-013  0.5052886E+02  0.7816164E-02  0.1300439E+00
        -11   -1    0    0    0    0  0.00000000000E+00  0.00000000000E+00  0.45593999997E+02  0.45594000000E+02  0.51100000000E-03 0. -1.
         11   -1    0    0    0    0 -0.00000000000E+00 -0.00000000000E+00 -0.45593999997E+02  0.45594000000E+02  0.51100000000E-03 0.  1.
    9900012    2    1    2    0    0  0.28608807843E+02 -0.23687530513E+02 -0.16540943180E+02  0.50528858478E+02  0.29999995830E+02 0.  0.
         12    1    1    2    0    0 -0.28608807843E+02  0.23687530513E+02  0.16540943180E+02  0.40659141522E+02  0.00000000000E+00 0. -1.
         11    1    3    3    0    0  0.68922097133E+01  0.34450141636E+01  0.24726258975E+01  0.80922528637E+01  0.51100000000E-03 0. -1.
        -11    1    3    3    0    0  0.75629370656E+00 -0.29999749674E+00 -0.58904651738E+01  0.59463904088E+01  0.51100000000E-03 0.  1.
        -12    1    3    3    0    0  0.20960304423E+02 -0.26832547180E+02 -0.13123103903E+02  0.36490215206E+02  0.00000000000E+00 0.  1.
</event>
<event>
 7    1  0.4971907E-013  0.5052888E+02  0.7816164E-02  0.1300439E+00
        -11   -1    0    0    0    0  0.00000000000E+00  0.00000000000E+00  0.45593999997E+02  0.45594000000E+02  0.51100000000E-03 0.  1.
         11   -1    0    0    0    0 -0.00000000000E+00 -0.00000000000E+00 -0.45593999997E+02  0.45594000000E+02  0.51100000000E-03 0. -1.
    9900012    2    1    2    0    0 -0.15634617609E+02  0.36010232248E+01  0.37359808756E+02  0.50528881142E+02  0.30000064718E+02 0.  0.
         12    1    1    2    0    0  0.15634617609E+02 -0.36010232248E+01 -0.37359808756E+02  0.40659118858E+02  0.00000000000E+00 0. -1.
         11    1    3    3    0    0 -0.66007440736E+01 -0.72608579608E+00  0.21994330760E+01  0.69953219387E+01  0.51100000000E-03 0. -1.
        -11    1    3    3    0    0  0.50477399217E+00  0.92732441849E+01  0.32119767806E+01  0.98267313791E+01  0.51100000000E-03 0.  1.
        -12    1    3    3    0    0 -0.95386475273E+01 -0.49461351640E+01  0.31948398900E+02  0.33706827824E+02  0.00000000000E+00 0.  1.
</event>
<event>
 7    1  0.4971907E-013  0.5052886E+02  0.7816164E-02  0.1300439E+00
        -11   -1    0    0    0    0  0.00000000000E+00  0.00000000000E+00  0.45593999997E+02  0.45594000000E+02  0.51100000000E-03 0.  1.
         11   -1    0    0    0    0 -0.00000000000E+00 -0.00000000000E+00 -0.45593999997E+02  0.45594000000E+02  0.51100000000E-03 0. -1.
    9900012    2    1    2    0    0 -0.14148772442E+02  0.24741948417E+02  0.28996790809E+02  0.50528860187E+02  0.30000001026E+02 0.  0.
         12    1    1    2    0    0  0.14148772442E+02 -0.24741948417E+02 -0.28996790809E+02  0.40659139813E+02  0.00000000000E+00 0. -1.
         11    1    3    3    0    0 -0.23341977904E+01  0.74191012917E+01  0.15410297904E+02  0.17261773520E+02  0.51100000000E-03 0. -1.
        -11    1    3    3    0    0 -0.13913690930E+02  0.17681496078E+02  0.17705209433E+02  0.28630412853E+02  0.51100000000E-03 0.  1.
         12    1    3    3    0    0  0.20991162779E+01 -0.35864895242E+00 -0.41187165281E+01  0.46366738141E+01  0.00000000000E+00 0. -1.
</event>
<event>
 7    1  0.4971907E-013  0.5052884E+02  0.7816164E-02  0.1300439E+00
        -11   -1    0    0    0    0  0.00000000000E+00  0.00000000000E+00  0.45593999997E+02  0.45594000000E+02  0.51100000000E-03 0. -1.
         11   -1    0    0    0    0 -0.00000000000E+00 -0.00000000000E+00 -0.45593999997E+02  0.45594000000E+02  0.51100000000E-03 0.  1.
    9900012    2    1    2    0    0  0.21564259201E+02  0.29047597483E+02 -0.18557669093E+02  0.50528840188E+02  0.29999940236E+02 0.  0.
         12    1    1    2    0    0 -0.21564259201E+02 -0.29047597483E+02  0.18557669093E+02  0.40659159812E+02  0.00000000000E+00 0. -1.
         11    1    3    3    0    0 -0.31614457452E+00  0.17941525393E+02 -0.10256381721E+02  0.20668615027E+02  0.51100000000E-03 0.  1.
        -11    1    3    3    0    0  0.15871333553E+01  0.15226459126E+01  0.37795080943E+01  0.43728851527E+01  0.51100000000E-03 0. -1.
        -12    1    3    3    0    0  0.20293270421E+02  0.95834261772E+01 -0.12080795465E+02  0.25487340009E+02  0.00000000000E+00 0.  1.
</event>
<event>
 7    1  0.4971907E-013  0.5052886E+02  0.7816164E-02  0.1300439E+00
        -11   -1    0    0    0    0  0.00000000000E+00  0.00000000000E+00  0.45593999997E+02  0.45594000000E+02  0.51100000000E-03 0. -1.
         11   -1    0    0    0    0 -0.00000000000E+00 -0.00000000000E+00 -0.45593999997E+02  0.45594000000E+02  0.51100000000E-03 0.  1.
    9900012    2    1    2    0    0 -0.26607202450E+02  0.61366618190E+01 -0.30125806687E+02  0.50528855038E+02  0.29999985374E+02 0.  0.
         12    1    1    2    0    0  0.26607202450E+02 -0.61366618190E+01  0.30125806687E+02  0.40659144962E+02  0.00000000000E+00 0. -1.
         11    1    3    3    0    0  0.25243805870E+01  0.69095137669E+01 -0.10080962306E+01  0.74249670783E+01  0.51100000000E-03 0. -1.
        -11    1    3    3    0    0 -0.74729256524E+01  0.93725402114E+00 -0.10413408712E+01  0.76031213312E+01  0.51100000000E-03 0.  1.
         12    1    3    3    0    0 -0.21658657385E+02 -0.17101059690E+01 -0.28076369585E+02  0.35500766628E+02  0.00000000000E+00 0. -1.
</event>
<event>
 7    1  0.4971907E-013  0.5052885E+02  0.7816164E-02  0.1300439E+00
        -11   -1    0    0    0    0  0.00000000000E+00  0.00000000000E+00  0.45593999997E+02  0.45594000000E+02  0.51100000000E-03 0.  1.
         11   -1    0    0    0    0 -0.00000000000E+00 -0.00000000000E+00 -0.45593999997E+02  0.45594000000E+02  0.51100000000E-03 0. -1.
    9900012    2    1    2    0    0 -0.71824456609E+01  0.35779809331E+02  0.17927188603E+02  0.50528851305E+02  0.29999974027E+02 0.  0.
         12    1    1    2    0    0  0.71824456609E+01 -0.35779809331E+02 -0.17927188603E+02  0.40659148695E+02  0.00000000000E+00 0. -1.
         11    1    3    3    0    0 -0.28478702656E+01  0.27199656484E+02  0.12685937615E+00  0.27348633814E+02  0.51100000000E-03 0. -1.
        -11    1    3    3    0    0  0.19255737831E+01 -0.18412807456E+01  0.26841943420E+01  0.37819371631E+01  0.51100000000E-03 0.  1.
        -12    1    3    3    0    0 -0.62601491785E+01  0.10421433592E+02  0.15116134884E+02  0.19398280328E+02  0.00000000000E+00 0.  1.
</event>
<event>
 7    1  0.4971907E-013  0.5052885E+02  0.7816164E-02  0.1300439E+00
        -11   -1    0    0    0    0  0.00000000000E+00  0.00000000000E+00  0.45593999997E+02  0.45594000000E+02  0.51100000000E-03 0.  1.
         11   -1    0    0    0    0 -0.00000000000E+00 -0.00000000000E+00 -0.45593999997E+02  0.45594000000E+02  0.51100000000E-03 0. -1.
    9900012    2    1    2    0    0  0.15361749485E+02 -0.49713920485E+01  0.37315790500E+02  0.50528852115E+02  0.29999976488E+02 0.  0.
         12    1    1    2    0    0 -0.15361749485E+02  0.49713920485E+01 -0.37315790500E+02  0.40659147885E+02  0.00000000000E+00 0. -1.
         11    1    3    3    0    0  0.17970337182E+02 -0.10486993364E+01  0.14312710702E+02  0.22997531968E+02  0.51100000000E-03 0. -1.
        -11    1    3    3    0    0 -0.79827912398E+00  0.53358673716E+01  0.11111829638E+02  0.12352387961E+02  0.51100000000E-03 0.  1.
         12    1    3    3    0    0 -0.18103085727E+01 -0.92585600836E+01  0.11891250160E+02  0.15178932186E+02  0.00000000000E+00 0. -1.
</event>
<event>
 7    1  0.4971907E-013  0.5052886E+02  0.7816164E-02  0.1300439E+00
        -11   -1    0    0    0    0  0.00000000000E+00  0.00000000000E+00  0.45593999997E+02  0.45594000000E+02  0.51100000000E-03 0. -1.
         11   -1    0    0    0    0 -0.00000000000E+00 -0.00000000000E+00 -0.45593999997E+02  0.45594000000E+02  0.51100000000E-03 0.  1.
    9900012    2    1    2    0    0  0.37807370415E+02  0.96817937899E+01 -0.11403129432E+02  0.50528858968E+02  0.29999997318E+02 0.  0.
         12    1    1    2    0    0 -0.37807370415E+02 -0.96817937899E+01  0.11403129432E+02  0.40659141032E+02  0.00000000000E+00 0. -1.
         11    1    3    3    0    0 -0.14675423298E+01 -0.23524377307E+01 -0.69935050659E+01  0.75230816249E+01  0.51100000000E-03 0. -1.
        -11    1    3    3    0    0  0.55144937185E+01 -0.18425529067E+01  0.15597919317E+01  0.60197668822E+01  0.51100000000E-03 0.  1.
         12    1    3    3    0    0  0.33760419026E+02  0.13876784427E+02 -0.59694162976E+01  0.36986010460E+02  0.00000000000E+00 0. -1.
</event>
<event>
 7    1  0.4971907E-013  0.5052887E+02  0.7816164E-02  0.1300439E+00
        -11   -1    0    0    0    0  0.00000000000E+00  0.00000000000E+00  0.45593999997E+02  0.45594000000E+02  0.51100000000E-03 0. -1.
         11   -1    0    0    0    0 -0.00000000000E+00 -0.00000000000E+00 -0.45593999997E+02  0.45594000000E+02  0.51100000000E-03 0.  1.
    9900012    2    1    2    0    0 -0.11561232878E+01  0.37652913144E+02 -0.15299892238E+02  0.50528865826E+02  0.30000018165E+02 0.  0.
         12    1    1    2    0    0  0.11561232878E+01 -0.37652913144E+02  0.15299892238E+02  0.40659134174E+02  0.00000000000E+00 0. -1.
         11    1    3    3    0    0  0.62875911693E+01  0.60473345420E+01 -0.35222825534E+01  0.94080036364E+01  0.51100000000E-03 0. -1.
        -11    1    3    3    0    0 -0.22548122141E+01  0.91976421117E-01 -0.87539119539E+01  0.90401113124E+01  0.51100000000E-03 0.  1.
         12    1    3    3    0    0 -0.51889022431E+01  0.31513602181E+02 -0.30236977307E+01  0.32080750877E+02  0.00000000000E+00 0. -1.
</event>
<event>
 7    1  0.4971907E-013  0.5052878E+02  0.7816164E-02  0.1300439E+00
        -11   -1    0    0    0    0  0.00000000000E+00  0.00000000000E+00  0.45593999997E+02  0.45594000000E+02  0.51100000000E-03 0.  1.
         11   -1    0    0    0    0 -0.00000000000E+00 -0.00000000000E+00 -0.45593999997E+02  0.45594000000E+02  0.51100000000E-03 0. -1.
    9900012    2    1    2    0    0  0.19180505105E+02 -0.16844361140E+02  0.31647245637E+02  0.50528776757E+02  0.29999747430E+02 0.  0.
         12    1    1    2    0    0 -0.19180505105E+02  0.16844361140E+02 -0.31647245637E+02  0.40659223243E+02  0.00000000000E+00 0. -1.
         11    1    3    3    0    0  0.11404940448E+02  0.42089005172E+00  0.30819872621E+01  0.11821525316E+02  0.51100000000E-03 0. -1.
        -11    1    3    3    0    0  0.12862640881E+02 -0.87613456448E+01  0.13114616811E+02  0.20351950332E+02  0.51100000000E-03 0.  1.
        -12    1    3    3    0    0 -0.50870762244E+01 -0.85039055474E+01  0.15450641564E+02  0.18355301109E+02  0.00000000000E+00 0.  1.
</event>
<event>
 7    1  0.4971907E-013  0.5052886E+02  0.7816164E-02  0.1300439E+00
        -11   -1    0    0    0    0  0.00000000000E+00  0.00000000000E+00  0.45593999997E+02  0.45594000000E+02  0.51100000000E-03 0. -1.
         11   -1    0    0    0    0 -0.00000000000E+00 -0.00000000000E+00 -0.45593999997E+02  0.45594000000E+02  0.51100000000E-03 0.  1.
    9900012    2    1    2    0    0  0.24772504479E+02 -0.12409035429E+02 -0.29757427863E+02  0.50528860173E+02  0.30000000982E+02 0.  0.
         12    1    1    2    0    0 -0.24772504479E+02  0.12409035429E+02  0.29757427863E+02  0.40659139827E+02  0.00000000000E+00 0. -1.
         11    1    3    3    0    0  0.58024944394E+01 -0.40171445339E+01 -0.10084964250E+02  0.12309057483E+02  0.51100000000E-03 0. -1.
        -11    1    3    3    0    0 -0.73390486528E+00 -0.12057417208E+02 -0.38295327218E+01  0.12672223452E+02  0.51100000000E-03 0.  1.
         12    1    3    3    0    0  0.19703914905E+02  0.36655263128E+01 -0.15842930891E+02  0.25547579238E+02  0.00000000000E+00 0. -1.
</event>
<event>
 7    1  0.4971907E-013  0.5052883E+02  0.7816164E-02  0.1300439E+00
        -11   -1    0    0    0    0  0.00000000000E+00  0.00000000000E+00  0.45593999997E+02  0.45594000000E+02  0.51100000000E-03 0.  1.
         11   -1    0    0    0    0 -0.00000000000E+00 -0.00000000000E+00 -0.45593999997E+02  0.45594000000E+02  0.51100000000E-03 0. -1.
    9900012    2    1    2    0    0 -0.23645458140E+02  0.10569380060E+02  0.31342447116E+02  0.50528825430E+02  0.29999895376E+02 0.  0.
         12    1    1    2    0    0  0.23645458140E+02 -0.10569380060E+02 -0.31342447116E+02  0.40659174570E+02  0.00000000000E+00 0. -1.
         11    1    3    3    0    0 -0.71402378130E+01  0.21067038757E+00 -0.20824118807E+01  0.74406866310E+01  0.51100000000E-03 0. -1.
        -11    1    3    3    0    0 -0.20815192817E+02  0.84683757965E+01  0.28132789549E+02  0.36006103493E+02  0.51100000000E-03 0.  1.
        -12    1    3    3    0    0  0.43099724906E+01  0.18903338762E+01  0.52920694481E+01  0.70820353061E+01  0.00000000000E+00 0.  1.
</event>
<event>
 7    1  0.4971907E-013  0.5052885E+02  0.7816164E-02  0.1300439E+00
        -11   -1    0    0    0    0  0.00000000000E+00  0.00000000000E+00  0.45593999997E+02  0.45594000000E+02  0.51100000000E-03 0. -1.
         11   -1    0    0    0    0 -0.00000000000E+00 -0.00000000000E+00 -0.45593999997E+02  0.45594000000E+02  0.51100000000E-03 0.  1.
    9900012    2    1    2    0    0  0.29441707612E+02 -0.27718004370E+02 -0.42502559095E+01  0.50528848648E+02  0.29999965949E+02 0.  0.
         12    1    1    2    0    0 -0.29441707612E+02  0.27718004370E+02  0.42502559095E+01  0.40659151352E+02  0.00000000000E+00 0. -1.
         11    1    3    3    0    0  0.41905952953E+01 -0.22551402784E+01  0.19163671114E+01  0.51302251189E+01  0.51100000000E-03 0. -1.
        -11    1    3    3    0    0  0.10276674357E+02 -0.27304192640E+02 -0.78661561736E+01  0.30215978964E+02  0.51100000000E-03 0.  1.
        -12    1    3    3    0    0  0.14974437960E+02  0.18413285478E+01  0.16995331528E+01  0.15182644565E+02  0.00000000000E+00 0.  1.
</event>
<event>
 7    1  0.4971907E-013  0.5052888E+02  0.7816164E-02  0.1300439E+00
        -11   -1    0    0    0    0  0.00000000000E+00  0.00000000000E+00  0.45593999997E+02  0.45594000000E+02  0.51100000000E-03 0.  1.
         11   -1    0    0    0    0 -0.00000000000E+00 -0.00000000000E+00 -0.45593999997E+02  0.45594000000E+02  0.51100000000E-03 0. -1.
    9900012    2    1    2    0    0  0.15851464543E+01 -0.18382286627E+02  0.36231796736E+02  0.50528877461E+02  0.30000053531E+02 0.  0.
         12    1    1    2    0    0 -0.15851464543E+01  0.18382286627E+02 -0.36231796736E+02  0.40659122539E+02  0.00000000000E+00 0. -1.
         11    1    3    3    0    0 -0.45700145527E+01 -0.62892977613E+01  0.10326270453E+01  0.78426155215E+01  0.51100000000E-03 0. -1.
        -11    1    3    3    0    0  0.77236518946E+01 -0.14861789976E+02  0.15791836928E+02  0.23019767890E+02  0.51100000000E-03 0.  1.
        -12    1    3    3    0    0 -0.15684908876E+01  0.27688011107E+01  0.19407332762E+02  0.19666494050E+02  0.00000000000E+00 0.  1.
</event>
<event>
 7    1  0.4971907E-013  0.5052886E+02  0.7816164E-02  0.1300439E+00
        -11   -1    0    0    0    0  0.00000000000E+00  0.00000000000E+00  0.45593999997E+02  0.45594000000E+02  0.51100000000E-03 0. -1.
         11   -1    0    0    0    0 -0.00000000000E+00 -0.00000000000E+00 -0.45593999997E+02  0.45594000000E+02  0.51100000000E-03 0.  1.
    9900012    2    1    2    0    0  0.28874568212E+02 -0.27027206301E+02  0.94315971452E+01  0.50528860872E+02  0.30000003108E+02 0.  0.
         12    1    1    2    0    0 -0.28874568212E+02  0.27027206301E+02 -0.94315971452E+01  0.40659139128E+02  0.00000000000E+00 0. -1.
         11    1    3    3    0    0  0.24018834946E+02 -0.24738071279E+02  0.11496689544E+02  0.36346258040E+02  0.51100000000E-03 0. -1.
        -11    1    3    3    0    0  0.37531182544E+01  0.23848341045E+01  0.43156590345E+01  0.61966316254E+01  0.51100000000E-03 0.  1.
         12    1    3    3    0    0  0.11026150113E+01 -0.46739691270E+01 -0.63807514336E+01  0.79859712071E+01  0.00000000000E+00 0. -1.
</event>
<event>
 7    1  0.4971907E-013  0.5052886E+02  0.7816164E-02  0.1300439E+00
        -11   -1    0    0    0    0  0.00000000000E+00  0.00000000000E+00  0.45593999997E+02  0.45594000000E+02  0.51100000000E-03 0.  1.
         11   -1    0    0    0    0 -0.00000000000E+00 -0.00000000000E+00 -0.45593999997E+02  0.45594000000E+02  0.51100000000E-03 0. -1.
    9900012    2    1    2    0    0  0.20370347138E+02 -0.30614550842E+02  0.17348307614E+02  0.50528861509E+02  0.30000005042E+02 0.  0.
         12    1    1    2    0    0 -0.20370347138E+02  0.30614550842E+02 -0.17348307614E+02  0.40659138491E+02  0.00000000000E+00 0. -1.
         11    1    3    3    0    0  0.78535045307E+01 -0.20243228283E+02  0.27015854345E+01  0.21880685292E+02  0.51100000000E-03 0. -1.
        -11    1    3    3    0    0  0.97409828189E+01 -0.15301782816E+02  0.77448091981E+01  0.19723421950E+02  0.51100000000E-03 0.  1.
        -12    1    3    3    0    0  0.27758597882E+01  0.49304602572E+01  0.69019129818E+01  0.89247542666E+01  0.00000000000E+00 0.  1.
</event>
<event>
 7    1  0.4971907E-013  0.5052886E+02  0.7816164E-02  0.1300439E+00
        -11   -1    0    0    0    0  0.00000000000E+00  0.00000000000E+00  0.45593999997E+02  0.45594000000E+02  0.51100000000E-03 0.  1.
         11   -1    0    0    0    0 -0.00000000000E+00 -0.00000000000E+00 -0.45593999997E+02  0.45594000000E+02  0.51100000000E-03 0. -1.
    9900012    2    1    2    0    0  0.15740826513E+02 -0.22881943159E+02  0.29695259718E+02  0.50528863366E+02  0.30000010688E+02 0.  0.
         12    1    1    2    0    0 -0.15740826513E+02  0.22881943159E+02 -0.29695259718E+02  0.40659136634E+02  0.00000000000E+00 0. -1.
         11    1    3    3    0    0 -0.11198652354E+01  0.20122078352E+01 -0.15919033347E+01  0.27995062075E+01  0.51100000000E-03 0. -1.
        -11    1    3    3    0    0  0.97128581664E+01 -0.18725681824E+02  0.79299396835E+01  0.22536075905E+02  0.51100000000E-03 0.  1.
        -12    1    3    3    0    0  0.71478335823E+01 -0.61684691707E+01  0.23357223369E+02  0.25193281254E+02  0.00000000000E+00 0.  1.
</event>
<event>
 7    1  0.4971907E-013  0.5052887E+02  0.7816164E-02  0.1300439E+00
        -11   -1    0    0    0    0  0.00000000000E+00  0.00000000000E+00  0.45593999997E+02  0.45594000000E+02  0.51100000000E-03 0. -1.
         11   -1    0    0    0    0 -0.00000000000E+00 -0.00000000000E+00 -0.45593999997E+02  0.45594000000E+02  0.51100000000E-03 0.  1.
    9900012    2    1    2    0    0  0.10170380166E+02 -0.89548449886E+01 -0.38334566044E+02  0.50528870210E+02  0.30000031491E+02 0.  0.
         12    1    1    2    0    0 -0.10170380166E+02  0.89548449886E+01  0.38334566044E+02  0.40659129790E+02  0.00000000000E+00 0. -1.
         11    1    3    3    0    0  0.76450213984E+00 -0.28350240178E+01  0.59125872425E+00  0.29952315175E+01  0.51100000000E-03 0. -1.
        -11    1    3    3    0    0  0.61964038657E+01  0.31659532648E+01  0.42844133531E+00  0.69715309065E+01  0.51100000000E-03 0.  1.
        -12    1    3    3    0    0  0.32094741605E+01 -0.92857742356E+01 -0.39354266103E+02  0.40562107786E+02  0.00000000000E+00 0.  1.
</event>
<event>
 7    1  0.4971907E-013  0.5052886E+02  0.7816164E-02  0.1300439E+00
        -11   -1    0    0    0    0  0.00000000000E+00  0.00000000000E+00  0.45593999997E+02  0.45594000000E+02  0.51100000000E-03 0. -1.
         11   -1    0    0    0    0 -0.00000000000E+00 -0.00000000000E+00 -0.45593999997E+02  0.45594000000E+02  0.51100000000E-03 0.  1.
    9900012    2    1    2    0    0  0.30872858917E+02 -0.22524989977E+01 -0.26362060183E+02  0.50528863431E+02  0.30000010884E+02 0.  0.
         12    1    1    2    0    0 -0.30872858917E+02  0.22524989977E+01  0.26362060183E+02  0.40659136569E+02  0.00000000000E+00 0. -1.
         11    1    3    3    0    0 -0.78508865956E+00 -0.96569197815E+01 -0.85022791871E+01  0.12890353583E+02  0.51100000000E-03 0. -1.
        -11    1    3    3    0    0  0.14573369779E+02  0.25280967122E+00 -0.87231968324E+01  0.16986500013E+02  0.51100000000E-03 0.  1.
        -12    1    3    3    0    0  0.17084577798E+02  0.71516111126E+01 -0.91365841633E+01  0.20652009835E+02  0.00000000000E+00 0.  1.
</event>
<event>
 7    1  0.4971907E-013  0.5052884E+02  0.7816164E-02  0.1300439E+00
        -11   -1    0    0    0    0  0.00000000000E+00  0.00000000000E+00  0.45593999997E+02  0.45594000000E+02  0.51100000000E-03 0. -1.
         11   -1    0    0    0    0 -0.00000000000E+00 -0.00000000000E+00 -0.45593999997E+02  0.45594000000E+02  0.51100000000E-03 0.  1.
    9900012    2    1    2    0    0 -0.24078641686E+02  0.28554604643E+02  0.16063028742E+02  0.50528839603E+02  0.29999938459E+02 0.  0.
         12    1    1    2    0    0  0.24078641686E+02 -0.28554604643E+02 -0.16063028742E+02  0.40659160397E+02  0.00000000000E+00 0. -1.
         11    1    3    3    0    0 -0.72791392974E+01 -0.85021896108E+00 -0.20627307145E+01  0.76133829179E+01  0.51100000000E-03 0.  1.
        -11    1    3    3    0    0 -0.18692044854E+02  0.28511370230E+02  0.11520044745E+02  0.35986139059E+02  0.51100000000E-03 0. -1.
         12    1    3    3    0    0  0.18925424654E+01  0.89345337470E+00  0.66057147114E+01  0.69293176262E+01  0.00000000000E+00 0. -1.
</event>
<event>
 7    1  0.6472090E-013  0.5052886E+02  0.7816164E-02  0.1300439E+00
        -11   -1    0    0    0    0  0.00000000000E+00  0.00000000000E+00  0.45593999997E+02  0.45594000000E+02  0.51100000000E-03 0.  1.
         11   -1    0    0    0    0 -0.00000000000E+00 -0.00000000000E+00 -0.45593999997E+02  0.45594000000E+02  0.51100000000E-03 0. -1.
    9900012    2    1    2    0    0 -0.40334212503E+02 -0.40348828957E+01 -0.31680599129E+01  0.50528861029E+02  0.30000003584E+02 0.  0.
         12    1    1    2    0    0  0.40334212503E+02  0.40348828957E+01  0.31680599129E+01  0.40659138971E+02  0.00000000000E+00 0. -1.
         11    1    3    3    0    0 -0.32110270412E+01  0.46239619823E+01  0.73818064992E+00  0.56777310614E+01  0.51100000000E-03 0. -1.
        -11    1    3    3    0    0 -0.69387517924E+01 -0.57345112747E+00 -0.10801378227E+02  0.12850871352E+02  0.51100000000E-03 0.  1.
        -12    1    3    3    0    0 -0.30184433670E+02 -0.80853937505E+01  0.68951376645E+01  0.32000258616E+02  0.00000000000E+00 0.  1.
</event>
<event>
 7    1  0.4971907E-013  0.5052885E+02  0.7816164E-02  0.1300439E+00
        -11   -1    0    0    0    0  0.00000000000E+00  0.00000000000E+00  0.45593999997E+02  0.45594000000E+02  0.51100000000E-03 0. -1.
         11   -1    0    0    0    0 -0.00000000000E+00 -0.00000000000E+00 -0.45593999997E+02  0.45594000000E+02  0.51100000000E-03 0.  1.
    9900012    2    1    2    0    0 -0.28571052363E+02 -0.18316953426E+02 -0.22390863036E+02  0.50528848958E+02  0.29999966893E+02 0.  0.
         12    1    1    2    0    0  0.28571052363E+02  0.18316953426E+02  0.22390863036E+02  0.40659151042E+02  0.00000000000E+00 0. -1.
         11    1    3    3    0    0  0.99365871497E+00 -0.36321372653E+01 -0.88957293417E+01  0.96599057727E+01  0.51100000000E-03 0. -1.
        -11    1    3    3    0    0 -0.10245695565E+02 -0.15368881792E+02 -0.10673207370E+02  0.21332936061E+02  0.51100000000E-03 0.  1.
        -12    1    3    3    0    0 -0.19319015513E+02  0.68406563131E+00 -0.28219263246E+01  0.19536007125E+02  0.00000000000E+00 0.  1.
</event>
<event>
 7    1  0.4971907E-013  0.5052886E+02  0.7816164E-02  0.1300439E+00
        -11   -1    0    0    0    0  0.00000000000E+00  0.00000000000E+00  0.45593999997E+02  0.45594000000E+02  0.51100000000E-03 0.  1.
         11   -1    0    0    0    0 -0.00000000000E+00 -0.00000000000E+00 -0.45593999997E+02  0.45594000000E+02  0.51100000000E-03 0. -1.
    9900012    2    1    2    0    0 -0.21562149808E+00 -0.38403644728E+02  0.13352133214E+02  0.50528857333E+02  0.29999992350E+02 0.  0.
         12    1    1    2    0    0  0.21562149808E+00  0.38403644728E+02 -0.13352133214E+02  0.40659142667E+02  0.00000000000E+00 0. -1.
         11    1    3    3    0    0 -0.10579230458E+02 -0.88747971749E+01  0.53272280244E+01  0.14800726356E+02  0.51100000000E-03 0. -1.
        -11    1    3    3    0    0  0.57787070518E+00 -0.97332658745E+01  0.94782936589E+01  0.13598104650E+02  0.51100000000E-03 0.  1.
        -12    1    3    3    0    0  0.97857382550E+01 -0.19795581679E+02 -0.14533884693E+01  0.22130026327E+02  0.00000000000E+00 0.  1.
</event>
<event>
 7    1  0.4971907E-013  0.5052886E+02  0.7816164E-02  0.1300439E+00
        -11   -1    0    0    0    0  0.00000000000E+00  0.00000000000E+00  0.45593999997E+02  0.45594000000E+02  0.51100000000E-03 0.  1.
         11   -1    0    0    0    0 -0.00000000000E+00 -0.00000000000E+00 -0.45593999997E+02  0.45594000000E+02  0.51100000000E-03 0. -1.
    9900012    2    1    2    0    0 -0.32614413819E+02 -0.20978223078E+02  0.12222113465E+02  0.50528857242E+02  0.29999992072E+02 0.  0.
         12    1    1    2    0    0  0.32614413819E+02  0.20978223078E+02 -0.12222113465E+02  0.40659142758E+02  0.00000000000E+00 0. -1.
         11    1    3    3    0    0 -0.43588440687E+01 -0.10036345204E+02  0.20087796721E+00  0.10943861242E+02  0.51100000000E-03 0. -1.
        -11    1    3    3    0    0 -0.45547804290E+01 -0.54916198318E+00  0.12899290483E+02  0.13690847266E+02  0.51100000000E-03 0.  1.
         12    1    3    3    0    0 -0.23700789322E+02 -0.10392715891E+02 -0.87805498521E+00  0.25894148733E+02  0.00000000000E+00 0. -1.
</event>
<event>
 7    1  0.4971907E-013  0.5052886E+02  0.7816164E-02  0.1300439E+00
        -11   -1    0    0    0    0  0.00000000000E+00  0.00000000000E+00  0.45593999997E+02  0.45594000000E+02  0.51100000000E-03 0.  1.
         11   -1    0    0    0    0 -0.00000000000E+00 -0.00000000000E+00 -0.45593999997E+02  0.45594000000E+02  0.51100000000E-03 0. -1.
    9900012    2    1    2    0    0  0.10326501372E+02 -0.73592769195E+01  0.38631206277E+02  0.50528859751E+02  0.29999999700E+02 0.  0.
         12    1    1    2    0    0 -0.10326501372E+02  0.73592769195E+01 -0.38631206277E+02  0.40659140249E+02  0.00000000000E+00 0. -1.
         11    1    3    3    0    0 -0.94006035384E+01 -0.42446129007E+01  0.15854643304E+02  0.18914486515E+02  0.51100000000E-03 0. -1.
        -11    1    3    3    0    0  0.43535150899E+01  0.22018398134E+00  0.11387395556E+02  0.12193209276E+02  0.51100000000E-03 0.  1.
        -12    1    3    3    0    0  0.15373589820E+02 -0.33348480002E+01  0.11389167417E+02  0.19421163961E+02  0.00000000000E+00 0.  1.
</event>
<event>
 7    1  0.4971907E-013  0.5052886E+02  0.7816164E-02  0.1300439E+00
        -11   -1    0    0    0    0  0.00000000000E+00  0.00000000000E+00  0.45593999997E+02  0.45594000000E+02  0.51100000000E-03 0.  1.
         11   -1    0    0    0    0 -0.00000000000E+00 -0.00000000000E+00 -0.45593999997E+02  0.45594000000E+02  0.51100000000E-03 0. -1.
    9900012    2    1    2    0    0 -0.80862492890E+00  0.28617100007E+02  0.28871671797E+02  0.50528859337E+02  0.29999998442E+02 0.  0.
         12    1    1    2    0    0  0.80862492890E+00 -0.28617100007E+02 -0.28871671797E+02  0.40659140663E+02  0.00000000000E+00 0. -1.
         11    1    3    3    0    0 -0.18402815491E+01 -0.27860550429E+00  0.67721942202E+01  0.70233091933E+01  0.51100000000E-03 0.  1.
        -11    1    3    3    0    0  0.89625545860E+01  0.17578070310E+01  0.42882147689E+01  0.10089898732E+02  0.51100000000E-03 0. -1.
         12    1    3    3    0    0 -0.79308979658E+01  0.27137898480E+02  0.17811262808E+02  0.33415651412E+02  0.00000000000E+00 0. -1.
</event>
<event>
 7    1  0.4971907E-013  0.5052884E+02  0.7816164E-02  0.1300439E+00
        -11   -1    0    0    0    0  0.00000000000E+00  0.00000000000E+00  0.45593999997E+02  0.45594000000E+02  0.51100000000E-03 0. -1.
         11   -1    0    0    0    0 -0.00000000000E+00 -0.00000000000E+00 -0.45593999997E+02  0.45594000000E+02  0.51100000000E-03 0.  1.
    9900012    2    1    2    0    0 -0.31143564906E+02  0.20145004025E+02  0.16656057834E+02  0.50528842547E+02  0.29999947406E+02 0.  0.
         12    1    1    2    0    0  0.31143564906E+02 -0.20145004025E+02 -0.16656057834E+02  0.40659157453E+02  0.00000000000E+00 0. -1.
         11    1    3    3    0    0 -0.12201593497E+02 -0.13361883054E+01  0.32716101529E+01  0.12703059328E+02  0.51100000000E-03 0. -1.
        -11    1    3    3    0    0 -0.15318184258E+02  0.10205919180E+02 -0.18835652401E+01  0.18502847714E+02  0.51100000000E-03 0.  1.
         12    1    3    3    0    0 -0.36237871510E+01  0.11275273151E+02  0.15268012921E+02  0.19322935504E+02  0.00000000000E+00 0. -1.
</event>
<event>
 7    1  0.4971907E-013  0.5052886E+02  0.7816164E-02  0.1300439E+00
        -11   -1    0    0    0    0  0.00000000000E+00  0.00000000000E+00  0.45593999997E+02  0.45594000000E+02  0.51100000000E-03 0.  1.
         11   -1    0    0    0    0 -0.00000000000E+00 -0.00000000000E+00 -0.45593999997E+02  0.45594000000E+02  0.51100000000E-03 0. -1.
    9900012    2    1    2    0    0 -0.17482493263E+02  0.12725508698E+01  0.36686629740E+02  0.50528858862E+02  0.29999996998E+02 0.  0.
         12    1    1    2    0    0  0.17482493263E+02 -0.12725508698E+01 -0.36686629740E+02  0.40659141138E+02  0.00000000000E+00 0. -1.
         11    1    3    3    0    0 -0.47175105620E+01  0.76894362959E+01  0.67238251681E+01  0.11251318216E+02  0.51100000000E-03 0. -1.
        -11    1    3    3    0    0 -0.11019038230E+02 -0.98307400938E+01  0.76370399795E+01  0.16624892006E+02  0.51100000000E-03 0.  1.
         12    1    3    3    0    0 -0.17459444707E+01  0.34138546677E+01  0.22325764592E+02  0.22652648640E+02  0.00000000000E+00 0. -1.
</event>
<event>
 7    1  0.4971907E-013  0.5052887E+02  0.7816164E-02  0.1300439E+00
        -11   -1    0    0    0    0  0.00000000000E+00  0.00000000000E+00  0.45593999997E+02  0.45594000000E+02  0.51100000000E-03 0.  1.
         11   -1    0    0    0    0 -0.00000000000E+00 -0.00000000000E+00 -0.45593999997E+02  0.45594000000E+02  0.51100000000E-03 0. -1.
    9900012    2    1    2    0    0  0.15940283770E+02 -0.32870688443E+02  0.17849095205E+02  0.50528868123E+02  0.30000025145E+02 0.  0.
         12    1    1    2    0    0 -0.15940283770E+02  0.32870688443E+02 -0.17849095205E+02  0.40659131877E+02  0.00000000000E+00 0. -1.
         11    1    3    3    0    0 -0.78799792796E+00 -0.73289388091E+01 -0.33505754334E+01  0.80969525624E+01  0.51100000000E-03 0. -1.
        -11    1    3    3    0    0  0.11065521173E+02 -0.24416862333E+02  0.79219167242E+01  0.27953276908E+02  0.51100000000E-03 0.  1.
         12    1    3    3    0    0  0.56627605247E+01 -0.11248873002E+01  0.13277753915E+02  0.14478638652E+02  0.00000000000E+00 0. -1.
</event>
<event>
 7    1  0.4971907E-013  0.5052886E+02  0.7816164E-02  0.1300439E+00
        -11   -1    0    0    0    0  0.00000000000E+00  0.00000000000E+00  0.45593999997E+02  0.45594000000E+02  0.51100000000E-03 0.  1.
         11   -1    0    0    0    0 -0.00000000000E+00 -0.00000000000E+00 -0.45593999997E+02  0.45594000000E+02  0.51100000000E-03 0. -1.
    9900012    2    1    2    0    0 -0.26024054379E+02  0.21603253178E+01  0.31164838684E+02  0.50528861027E+02  0.30000003578E+02 0.  0.
         12    1    1    2    0    0  0.26024054379E+02 -0.21603253178E+01 -0.31164838684E+02  0.40659138973E+02  0.00000000000E+00 0. -1.
         11    1    3    3    0    0  0.14980870387E+01 -0.54762484951E+01 -0.17282260378E+01  0.59346716720E+01  0.51100000000E-03 0. -1.
        -11    1    3    3    0    0 -0.15420797160E+02 -0.19279379653E+00  0.20002866105E+02  0.25257727672E+02  0.51100000000E-03 0.  1.
        -12    1    3    3    0    0 -0.12101344258E+02  0.78293676094E+01  0.12890198617E+02  0.19336461683E+02  0.00000000000E+00 0.  1.
</event>
<event>
 7    1  0.4971907E-013  0.5052885E+02  0.7816164E-02  0.1300439E+00
        -11   -1    0    0    0    0  0.00000000000E+00  0.00000000000E+00  0.45593999997E+02  0.45594000000E+02  0.51100000000E-03 0.  1.
         11   -1    0    0    0    0 -0.00000000000E+00 -0.00000000000E+00 -0.45593999997E+02  0.45594000000E+02  0.51100000000E-03 0. -1.
    9900012    2    1    2    0    0  0.98157001471E+01  0.10837771723E+02  0.37938908943E+02  0.50528854939E+02  0.29999985073E+02 0.  0.
         12    1    1    2    0    0 -0.98157001471E+01 -0.10837771723E+02 -0.37938908943E+02  0.40659145061E+02  0.00000000000E+00 0. -1.
         11    1    3    3    0    0 -0.15346815121E+01  0.56657269555E+01  0.22141742430E+02  0.22906603139E+02  0.51100000000E-03 0.  1.
        -11    1    3    3    0    0  0.13603173206E+02  0.15250887651E+01  0.18149395193E+02  0.22732636520E+02  0.51100000000E-03 0. -1.
         12    1    3    3    0    0 -0.22527915466E+01  0.36469560021E+01 -0.23522286792E+01  0.48896152807E+01  0.00000000000E+00 0. -1.
</event>
<event>
 7    1  0.4971907E-013  0.5052886E+02  0.7816164E-02  0.1300439E+00
        -11   -1    0    0    0    0  0.00000000000E+00  0.00000000000E+00  0.45593999997E+02  0.45594000000E+02  0.51100000000E-03 0.  1.
         11   -1    0    0    0    0 -0.00000000000E+00 -0.00000000000E+00 -0.45593999997E+02  0.45594000000E+02  0.51100000000E-03 0. -1.
    9900012    2    1    2    0    0 -0.14453843654E+02  0.21407059898E+02  0.31400474648E+02  0.50528860585E+02  0.30000002233E+02 0.  0.
         12    1    1    2    0    0  0.14453843654E+02 -0.21407059898E+02 -0.31400474648E+02  0.40659139415E+02  0.00000000000E+00 0. -1.
         11    1    3    3    0    0 -0.11096750924E+02  0.10503482838E+02  0.28943152802E+01  0.15551144460E+02  0.51100000000E-03 0. -1.
        -11    1    3    3    0    0  0.15885049170E+01  0.14215642998E+02  0.19554935209E+02  0.24228151911E+02  0.51100000000E-03 0.  1.
        -12    1    3    3    0    0 -0.49455976472E+01 -0.33120659377E+01  0.89512241585E+01  0.10749564214E+02  0.00000000000E+00 0.  1.
</event>
<event>
 7    1  0.4971907E-013  0.5052887E+02  0.7816164E-02  0.1300439E+00
        -11   -1    0    0    0    0  0.00000000000E+00  0.00000000000E+00  0.45593999997E+02  0.45594000000E+02  0.51100000000E-03 0. -1.
         11   -1    0    0    0    0 -0.00000000000E+00 -0.00000000000E+00 -0.45593999997E+02  0.45594000000E+02  0.51100000000E-03 0.  1.
    9900012    2    1    2    0    0  0.31688832460E+02 -0.24487271548E+02  0.70253944935E+01  0.50528871402E+02  0.30000035114E+02 0.  0.
         12    1    1    2    0    0 -0.31688832460E+02  0.24487271548E+02 -0.70253944935E+01  0.40659128598E+02  0.00000000000E+00 0. -1.
         11    1    3    3    0    0  0.15600880783E+02 -0.77288159481E+01  0.10024545285E+02  0.20090136525E+02  0.51100000000E-03 0. -1.
        -11    1    3    3    0    0  0.18861499863E+02 -0.69559188838E+01 -0.19845275640E+01  0.20200973604E+02  0.51100000000E-03 0.  1.
        -12    1    3    3    0    0 -0.27735481863E+01 -0.98025367159E+01 -0.10146232271E+01  0.10237761274E+02  0.00000000000E+00 0.  1.
</event>
<event>
 7    1  0.4971907E-013  0.5052886E+02  0.7816164E-02  0.1300439E+00
        -11   -1    0    0    0    0  0.00000000000E+00  0.00000000000E+00  0.45593999997E+02  0.45594000000E+02  0.51100000000E-03 0.  1.
         11   -1    0    0    0    0 -0.00000000000E+00 -0.00000000000E+00 -0.45593999997E+02  0.45594000000E+02  0.51100000000E-03 0. -1.
    9900012    2    1    2    0    0 -0.30827747069E+02  0.60722621749E+01  0.25805875564E+02  0.50528861164E+02  0.30000003993E+02 0.  0.
         12    1    1    2    0    0  0.30827747069E+02 -0.60722621749E+01 -0.25805875564E+02  0.40659138836E+02  0.00000000000E+00 0. -1.
         11    1    3    3    0    0 -0.43232359720E+01 -0.73155545833E+01  0.20541950831E+01  0.87422780687E+01  0.51100000000E-03 0. -1.
        -11    1    3    3    0    0 -0.11458866736E+02  0.18221819266E+01  0.18935677573E+02  0.22207788257E+02  0.51100000000E-03 0.  1.
        -12    1    3    3    0    0 -0.15045644361E+02  0.11565634832E+02  0.48160029073E+01  0.19578794838E+02  0.00000000000E+00 0.  1.
</event>
<event>
 7    1  0.4971907E-013  0.5052886E+02  0.7816164E-02  0.1300439E+00
        -11   -1    0    0    0    0  0.00000000000E+00  0.00000000000E+00  0.45593999997E+02  0.45594000000E+02  0.51100000000E-03 0.  1.
         11   -1    0    0    0    0 -0.00000000000E+00 -0.00000000000E+00 -0.45593999997E+02  0.45594000000E+02  0.51100000000E-03 0. -1.
    9900012    2    1    2    0    0  0.38410161274E+02 -0.13002003340E+02 -0.29618912566E+01  0.50528863514E+02  0.30000011139E+02 0.  0.
         12    1    1    2    0    0 -0.38410161274E+02  0.13002003340E+02  0.29618912566E+01  0.40659136486E+02  0.00000000000E+00 0. -1.
         11    1    3    3    0    0  0.26008549118E+02 -0.10821976911E+02 -0.81119084577E+01  0.29314891618E+02  0.51100000000E-03 0. -1.
        -11    1    3    3    0    0  0.16425855422E+02 -0.19459710481E+01  0.39110006013E+01  0.16996807218E+02  0.51100000000E-03 0.  1.
         12    1    3    3    0    0 -0.40242432662E+01 -0.23405538117E+00  0.12390165997E+01  0.42171646780E+01  0.00000000000E+00 0. -1.
</event>
<event>
 7    1  0.4971907E-013  0.5052886E+02  0.7816164E-02  0.1300439E+00
        -11   -1    0    0    0    0  0.00000000000E+00  0.00000000000E+00  0.45593999997E+02  0.45594000000E+02  0.51100000000E-03 0.  1.
         11   -1    0    0    0    0 -0.00000000000E+00 -0.00000000000E+00 -0.45593999997E+02  0.45594000000E+02  0.51100000000E-03 0. -1.
    9900012    2    1    2    0    0 -0.22325676044E+02  0.18787666723E+02  0.28315252398E+02  0.50528858960E+02  0.29999997295E+02 0.  0.
         12    1    1    2    0    0  0.22325676044E+02 -0.18787666723E+02 -0.28315252398E+02  0.40659141040E+02  0.00000000000E+00 0. -1.
         11    1    3    3    0    0 -0.11038128935E+02  0.75291377429E+01  0.80635769292E+01  0.15606071854E+02  0.51100000000E-03 0. -1.
        -11    1    3    3    0    0 -0.13027875436E+02  0.11875257169E+01  0.20927860553E+02  0.24680176323E+02  0.51100000000E-03 0.  1.
         12    1    3    3    0    0  0.17403283270E+01  0.10071003263E+02 -0.67618508439E+00  0.10242610784E+02  0.00000000000E+00 0. -1.
</event>
<event>
 7    1  0.4971907E-013  0.5052885E+02  0.7816164E-02  0.1300439E+00
        -11   -1    0    0    0    0  0.00000000000E+00  0.00000000000E+00  0.45593999997E+02  0.45594000000E+02  0.51100000000E-03 0.  1.
         11   -1    0    0    0    0 -0.00000000000E+00 -0.00000000000E+00 -0.45593999997E+02  0.45594000000E+02  0.51100000000E-03 0. -1.
    9900012    2    1    2    0    0  0.20735543314E+02  0.17336066150E+02  0.30375388020E+02  0.50528854123E+02  0.29999982593E+02 0.  0.
         12    1    1    2    0    0 -0.20735543314E+02 -0.17336066150E+02 -0.30375388020E+02  0.40659145877E+02  0.00000000000E+00 0. -1.
         11    1    3    3    0    0 -0.38910223033E+00  0.72135379661E+01  0.20859740570E+02  0.22075219306E+02  0.51100000000E-03 0. -1.
        -11    1    3    3    0    0  0.85915781201E+01  0.74869153785E+01  0.10648047240E+02  0.15596474819E+02  0.51100000000E-03 0.  1.
         12    1    3    3    0    0  0.12533067425E+02  0.26356128052E+01 -0.11323997901E+01  0.12857159998E+02  0.00000000000E+00 0. -1.
</event>
<event>
 7    1  0.4971907E-013  0.5052882E+02  0.7816164E-02  0.1300439E+00
        -11   -1    0    0    0    0  0.00000000000E+00  0.00000000000E+00  0.45593999997E+02  0.45594000000E+02  0.51100000000E-03 0. -1.
         11   -1    0    0    0    0 -0.00000000000E+00 -0.00000000000E+00 -0.45593999997E+02  0.45594000000E+02  0.51100000000E-03 0.  1.
    9900012    2    1    2    0    0  0.48956173342E+01 -0.29384681221E+02 -0.27672050762E+02  0.50528819573E+02  0.29999877575E+02 0.  0.
         12    1    1    2    0    0 -0.48956173342E+01  0.29384681221E+02  0.27672050762E+02  0.40659180427E+02  0.00000000000E+00 0. -1.
         11    1    3    3    0    0 -0.55522305656E+01 -0.21232651255E+02 -0.15939049426E+02  0.27123901645E+02  0.51100000000E-03 0. -1.
        -11    1    3    3    0    0  0.35499857960E+01 -0.41527547588E+01 -0.14072180996E+02  0.15095497656E+02  0.51100000000E-03 0.  1.
         12    1    3    3    0    0  0.68978621037E+01 -0.39992752076E+01  0.23391796595E+01  0.83094202727E+01  0.00000000000E+00 0. -1.
</event>
<event>
 7    1  0.4971907E-013  0.5052892E+02  0.7816164E-02  0.1300439E+00
        -11   -1    0    0    0    0  0.00000000000E+00  0.00000000000E+00  0.45593999997E+02  0.45594000000E+02  0.51100000000E-03 0.  1.
         11   -1    0    0    0    0 -0.00000000000E+00 -0.00000000000E+00 -0.45593999997E+02  0.45594000000E+02  0.51100000000E-03 0. -1.
    9900012    2    1    2    0    0 -0.11257515010E+02  0.34360928167E+01  0.38918150289E+02  0.50528919834E+02  0.30000182327E+02 0.  0.
         12    1    1    2    0    0  0.11257515010E+02 -0.34360928167E+01 -0.38918150289E+02  0.40659080166E+02  0.00000000000E+00 0. -1.
         11    1    3    3    0    0 -0.51325064073E+00  0.49529697721E+01  0.42552415378E+01  0.65499936328E+01  0.51100000000E-03 0.  1.
        -11    1    3    3    0    0 -0.11055714802E+02 -0.25401070712E+01  0.22703673599E+01  0.11568731215E+02  0.51100000000E-03 0. -1.
         12    1    3    3    0    0  0.31145043352E+00  0.10232301158E+01  0.32392541391E+02  0.32410194986E+02  0.00000000000E+00 0. -1.
</event>
<event>
 7    1  0.4971907E-013  0.5052886E+02  0.7816164E-02  0.1300439E+00
        -11   -1    0    0    0    0  0.00000000000E+00  0.00000000000E+00  0.45593999997E+02  0.45594000000E+02  0.51100000000E-03 0.  1.
         11   -1    0    0    0    0 -0.00000000000E+00 -0.00000000000E+00 -0.45593999997E+02  0.45594000000E+02  0.51100000000E-03 0. -1.
    9900012    2    1    2    0    0 -0.25163287030E+02  0.26547785918E+02  0.17753576095E+02  0.50528863075E+02  0.30000009804E+02 0.  0.
         12    1    1    2    0    0  0.25163287030E+02 -0.26547785918E+02 -0.17753576095E+02  0.40659136925E+02  0.00000000000E+00 0. -1.
         11    1    3    3    0    0 -0.20198135340E+02  0.22222481452E+02  0.12243263706E+02  0.32429937705E+02  0.51100000000E-03 0. -1.
        -11    1    3    3    0    0 -0.10703564180E+02  0.14725173336E+01  0.39453749034E+01  0.11502198783E+02  0.51100000000E-03 0.  1.
        -12    1    3    3    0    0  0.57384124904E+01  0.28527871323E+01  0.15649374854E+01  0.65967265871E+01  0.00000000000E+00 0.  1.
</event>
<event>
 7    1  0.4971907E-013  0.5052888E+02  0.7816164E-02  0.1300439E+00
        -11   -1    0    0    0    0  0.00000000000E+00  0.00000000000E+00  0.45593999997E+02  0.45594000000E+02  0.51100000000E-03 0. -1.
         11   -1    0    0    0    0 -0.00000000000E+00 -0.00000000000E+00 -0.45593999997E+02  0.45594000000E+02  0.51100000000E-03 0.  1.
    9900012    2    1    2    0    0  0.85933519018E+01 -0.35353855804E+02 -0.18150030960E+02  0.50528875059E+02  0.30000046229E+02 0.  0.
         12    1    1    2    0    0 -0.85933519018E+01  0.35353855804E+02  0.18150030960E+02  0.40659124941E+02  0.00000000000E+00 0. -1.
         11    1    3    3    0    0 -0.49134531433E+01 -0.15814551301E+02 -0.12796557646E+02  0.20928304817E+02  0.51100000000E-03 0. -1.
        -11    1    3    3    0    0  0.36364573202E+01 -0.18757582859E+02 -0.23322996497E+01  0.19248645627E+02  0.51100000000E-03 0.  1.
        -12    1    3    3    0    0  0.98703477249E+01 -0.78172164469E+00 -0.30211736637E+01  0.10351924616E+02  0.00000000000E+00 0.  1.
</event>
<event>
 7    1  0.4971907E-013  0.5052881E+02  0.7816164E-02  0.1300439E+00
        -11   -1    0    0    0    0  0.00000000000E+00  0.00000000000E+00  0.45593999997E+02  0.45594000000E+02  0.51100000000E-03 0.  1.
         11   -1    0    0    0    0 -0.00000000000E+00 -0.00000000000E+00 -0.45593999997E+02  0.45594000000E+02  0.51100000000E-03 0. -1.
    9900012    2    1    2    0    0  0.34648116618E+02  0.94869297261E+01  0.19044044111E+02  0.50528813622E+02  0.29999859485E+02 0.  0.
         12    1    1    2    0    0 -0.34648116618E+02 -0.94869297261E+01 -0.19044044111E+02  0.40659186378E+02  0.00000000000E+00 0. -1.
         11    1    3    3    0    0 -0.17135359163E+00 -0.20998086481E+01 -0.31030768046E+01  0.37506858477E+01  0.51100000000E-03 0. -1.
        -11    1    3    3    0    0 -0.13699493111E+01 -0.10045160793E+01  0.40708815555E+01  0.44111099021E+01  0.51100000000E-03 0.  1.
        -12    1    3    3    0    0  0.36189419521E+02  0.12591254453E+02  0.18076239360E+02  0.42367017872E+02  0.00000000000E+00 0.  1.
</event>
<event>
 7    1  0.4971907E-013  0.5052886E+02  0.7816164E-02  0.1300439E+00
        -11   -1    0    0    0    0  0.00000000000E+00  0.00000000000E+00  0.45593999997E+02  0.45594000000E+02  0.51100000000E-03 0.  1.
         11   -1    0    0    0    0 -0.00000000000E+00 -0.00000000000E+00 -0.45593999997E+02  0.45594000000E+02  0.51100000000E-03 0. -1.
    9900012    2    1    2    0    0 -0.21930337564E+02  0.41410344555E+01  0.33986437508E+02  0.50528858266E+02  0.29999995186E+02 0.  0.
         12    1    1    2    0    0  0.21930337564E+02 -0.41410344555E+01 -0.33986437508E+02  0.40659141734E+02  0.00000000000E+00 0. -1.
         11    1    3    3    0    0 -0.56576368969E+00  0.14051129365E+01 -0.39729961012E+01  0.42519559262E+01  0.51100000000E-03 0. -1.
        -11    1    3    3    0    0 -0.88427490472E+01  0.48892514393E+01  0.56902568713E+01  0.11596465577E+02  0.51100000000E-03 0.  1.
        -12    1    3    3    0    0 -0.12521824827E+02 -0.21533299202E+01  0.32269176738E+02  0.34680436763E+02  0.00000000000E+00 0.  1.
</event>
<event>
 7    1  0.4971907E-013  0.5052886E+02  0.7816164E-02  0.1300439E+00
        -11   -1    0    0    0    0  0.00000000000E+00  0.00000000000E+00  0.45593999997E+02  0.45594000000E+02  0.51100000000E-03 0.  1.
         11   -1    0    0    0    0 -0.00000000000E+00 -0.00000000000E+00 -0.45593999997E+02  0.45594000000E+02  0.51100000000E-03 0. -1.
    9900012    2    1    2    0    0  0.43012845629E+01  0.51546026489E+01  0.40101054040E+02  0.50528861882E+02  0.30000006177E+02 0.  0.
         12    1    1    2    0    0 -0.43012845629E+01 -0.51546026489E+01 -0.40101054040E+02  0.40659138118E+02  0.00000000000E+00 0. -1.
         11    1    3    3    0    0 -0.17403351210E+01  0.36190169597E+01  0.25463571411E+01  0.47549957980E+01  0.51100000000E-03 0. -1.
        -11    1    3    3    0    0  0.43940804736E+00  0.13035030036E+02  0.22613400732E+02  0.26104999146E+02  0.51100000000E-03 0.  1.
         12    1    3    3    0    0  0.56022116366E+01 -0.11499444347E+02  0.14941296166E+02  0.19668866938E+02  0.00000000000E+00 0. -1.
</event>
<event>
 7    1  0.4971907E-013  0.5052887E+02  0.7816164E-02  0.1300439E+00
        -11   -1    0    0    0    0  0.00000000000E+00  0.00000000000E+00  0.45593999997E+02  0.45594000000E+02  0.51100000000E-03 0.  1.
         11   -1    0    0    0    0 -0.00000000000E+00 -0.00000000000E+00 -0.45593999997E+02  0.45594000000E+02  0.51100000000E-03 0. -1.
    9900012    2    1    2    0    0  0.29862994316E+02  0.17815448372E+02  0.21070752633E+02  0.50528865150E+02  0.30000016110E+02 0.  0.
         12    1    1    2    0    0 -0.29862994316E+02 -0.17815448372E+02 -0.21070752633E+02  0.40659134850E+02  0.00000000000E+00 0. -1.
         11    1    3    3    0    0 -0.22480084370E+01  0.96291768769E+01 -0.57199994363E+00  0.99046339385E+01  0.51100000000E-03 0. -1.
        -11    1    3    3    0    0  0.59859373248E+01  0.24689372717E+01  0.88839825749E+01  0.10993281747E+02  0.51100000000E-03 0.  1.
        -12    1    3    3    0    0  0.26125065428E+02  0.57173342237E+01  0.12758770002E+02  0.29630949465E+02  0.00000000000E+00 0.  1.
</event>
<event>
 7    1  0.4971907E-013  0.5052896E+02  0.7816164E-02  0.1300438E+00
        -11   -1    0    0    0    0  0.00000000000E+00  0.00000000000E+00  0.45593999997E+02  0.45594000000E+02  0.51100000000E-03 0. -1.
         11   -1    0    0    0    0 -0.00000000000E+00 -0.00000000000E+00 -0.45593999997E+02  0.45594000000E+02  0.51100000000E-03 0.  1.
    9900012    2    1    2    0    0 -0.42922285568E+01 -0.39443101092E+02  0.88868598859E+01  0.50528957606E+02  0.30000297138E+02 0.  0.
         12    1    1    2    0    0  0.42922285568E+01  0.39443101092E+02 -0.88868598859E+01  0.40659042394E+02  0.00000000000E+00 0. -1.
         11    1    3    3    0    0 -0.30185968973E+01 -0.42091000969E+01 -0.38044437056E+00  0.51935718955E+01  0.51100000000E-03 0. -1.
        -11    1    3    3    0    0  0.10595988667E+02 -0.46510975504E+01  0.25298860025E+01  0.11845168116E+02  0.51100000000E-03 0.  1.
        -12    1    3    3    0    0 -0.11869620326E+02 -0.30582903445E+02  0.67374182540E+01  0.33490217595E+02  0.00000000000E+00 0.  1.
</event>
<event>
 7    1  0.4971907E-013  0.5052886E+02  0.7816164E-02  0.1300439E+00
        -11   -1    0    0    0    0  0.00000000000E+00  0.00000000000E+00  0.45593999997E+02  0.45594000000E+02  0.51100000000E-03 0. -1.
         11   -1    0    0    0    0 -0.00000000000E+00 -0.00000000000E+00 -0.45593999997E+02  0.45594000000E+02  0.51100000000E-03 0.  1.
    9900012    2    1    2    0    0  0.16419237247E+02 -0.32106406828E+02 -0.18781718022E+02  0.50528860276E+02  0.30000001296E+02 0.  0.
         12    1    1    2    0    0 -0.16419237247E+02  0.32106406828E+02  0.18781718022E+02  0.40659139724E+02  0.00000000000E+00 0. -1.
         11    1    3    3    0    0  0.77708535618E+01 -0.20257936346E+02  0.18099951027E+00  0.21697993252E+02  0.51100000000E-03 0. -1.
        -11    1    3    3    0    0  0.93999993499E+00  0.34389080868E+01 -0.41487465587E+00  0.35891238413E+01  0.51100000000E-03 0.  1.
        -12    1    3    3    0    0  0.77083837502E+01 -0.15287378569E+02 -0.18547842876E+02  0.25241743183E+02  0.00000000000E+00 0.  1.
</event>
<event>
 7    1  0.4971907E-013  0.5052886E+02  0.7816164E-02  0.1300439E+00
        -11   -1    0    0    0    0  0.00000000000E+00  0.00000000000E+00  0.45593999997E+02  0.45594000000E+02  0.51100000000E-03 0.  1.
         11   -1    0    0    0    0 -0.00000000000E+00 -0.00000000000E+00 -0.45593999997E+02  0.45594000000E+02  0.51100000000E-03 0. -1.
    9900012    2    1    2    0    0  0.15572753035E+02  0.27154142068E+02 -0.25948171223E+02  0.50528860088E+02  0.30000000725E+02 0.  0.
         12    1    1    2    0    0 -0.15572753035E+02 -0.27154142068E+02  0.25948171223E+02  0.40659139912E+02  0.00000000000E+00 0. -1.
         11    1    3    3    0    0  0.69843190620E+01  0.86483577400E+01 -0.15520784216E+02  0.19091085545E+02  0.51100000000E-03 0. -1.
        -11    1    3    3    0    0  0.15142368714E+02  0.16110505790E+02 -0.10461382435E+02  0.24459767984E+02  0.51100000000E-03 0.  1.
        -12    1    3    3    0    0 -0.65539347410E+01  0.23952785376E+01  0.33995427960E-01  0.69780065600E+01  0.00000000000E+00 0.  1.
</event>
<event>
 7    1  0.4971907E-013  0.5052886E+02  0.7816164E-02  0.1300439E+00
        -11   -1    0    0    0    0  0.00000000000E+00  0.00000000000E+00  0.45593999997E+02  0.45594000000E+02  0.51100000000E-03 0.  1.
         11   -1    0    0    0    0 -0.00000000000E+00 -0.00000000000E+00 -0.45593999997E+02  0.45594000000E+02  0.51100000000E-03 0. -1.
    9900012    2    1    2    0    0  0.99188144893E+01 -0.38025836773E+02  0.10431625338E+02  0.50528856497E+02  0.29999989809E+02 0.  0.
         12    1    1    2    0    0 -0.99188144893E+01  0.38025836773E+02 -0.10431625338E+02  0.40659143503E+02  0.00000000000E+00 0. -1.
         11    1    3    3    0    0  0.12764652168E+02 -0.78470403333E+01  0.42115852519E+01  0.15564377198E+02  0.51100000000E-03 0. -1.
        -11    1    3    3    0    0 -0.62498732001E+01 -0.81515594014E+01 -0.32119533083E+01  0.10762224677E+02  0.51100000000E-03 0.  1.
        -12    1    3    3    0    0  0.34040355212E+01 -0.22027237039E+02  0.94319933944E+01  0.24202254622E+02  0.00000000000E+00 0.  1.
</event>
<event>
 7    1  0.4971907E-013  0.5052887E+02  0.7816164E-02  0.1300439E+00
        -11   -1    0    0    0    0  0.00000000000E+00  0.00000000000E+00  0.45593999997E+02  0.45594000000E+02  0.51100000000E-03 0.  1.
         11   -1    0    0    0    0 -0.00000000000E+00 -0.00000000000E+00 -0.45593999997E+02  0.45594000000E+02  0.51100000000E-03 0. -1.
    9900012    2    1    2    0    0 -0.19885424507E+02 -0.19931719299E+02  0.29333619845E+02  0.50528870702E+02  0.30000032987E+02 0.  0.
         12    1    1    2    0    0  0.19885424507E+02  0.19931719299E+02 -0.29333619845E+02  0.40659129298E+02  0.00000000000E+00 0. -1.
         11    1    3    3    0    0 -0.73523058610E+01 -0.13203270098E+02  0.17398127532E+02  0.23045120625E+02  0.51100000000E-03 0. -1.
        -11    1    3    3    0    0  0.20522166764E+01 -0.60597934896E+01 -0.25771752562E+01  0.68974287228E+01  0.51100000000E-03 0.  1.
         12    1    3    3    0    0 -0.14585335322E+02 -0.66865571130E+00  0.14512667570E+02  0.20586321354E+02  0.00000000000E+00 0. -1.
</event>
<event>
 7    1  0.4971907E-013  0.5052886E+02  0.7816164E-02  0.1300439E+00
        -11   -1    0    0    0    0  0.00000000000E+00  0.00000000000E+00  0.45593999997E+02  0.45594000000E+02  0.51100000000E-03 0. -1.
         11   -1    0    0    0    0 -0.00000000000E+00 -0.00000000000E+00 -0.45593999997E+02  0.45594000000E+02  0.51100000000E-03 0.  1.
    9900012    2    1    2    0    0  0.20106290179E+02  0.33777141679E+02 -0.10392676338E+02  0.50528856795E+02  0.29999990713E+02 0.  0.
         12    1    1    2    0    0 -0.20106290179E+02 -0.33777141679E+02  0.10392676338E+02  0.40659143205E+02  0.00000000000E+00 0. -1.
         11    1    3    3    0    0  0.10918133676E+02  0.32756001386E+02 -0.99389246659E+01  0.35929702107E+02  0.51100000000E-03 0. -1.
        -11    1    3    3    0    0  0.64125313207E+01  0.42821246226E+01 -0.43124254441E+01  0.88348266929E+01  0.51100000000E-03 0.  1.
         12    1    3    3    0    0  0.27756251824E+01 -0.32609843296E+01  0.38586737719E+01  0.57643279946E+01  0.00000000000E+00 0. -1.
</event>
<event>
 7    1  0.4971907E-013  0.5052885E+02  0.7816164E-02  0.1300439E+00
        -11   -1    0    0    0    0  0.00000000000E+00  0.00000000000E+00  0.45593999997E+02  0.45594000000E+02  0.51100000000E-03 0.  1.
         11   -1    0    0    0    0 -0.00000000000E+00 -0.00000000000E+00 -0.45593999997E+02  0.45594000000E+02  0.51100000000E-03 0. -1.
    9900012    2    1    2    0    0 -0.14229466281E+02  0.23427260207E+02  0.30030851854E+02  0.50528852265E+02  0.29999976945E+02 0.  0.
         12    1    1    2    0    0  0.14229466281E+02 -0.23427260207E+02 -0.30030851854E+02  0.40659147735E+02  0.00000000000E+00 0. -1.
         11    1    3    3    0    0 -0.35518305398E+01 -0.22362309780E+01  0.13293927140E+02  0.13940757807E+02  0.51100000000E-03 0. -1.
        -11    1    3    3    0    0  0.38027797699E+01  0.11573575579E+01  0.11635979663E+01  0.41418076951E+01  0.51100000000E-03 0.  1.
        -12    1    3    3    0    0 -0.14480415511E+02  0.24506133627E+02  0.15573326748E+02  0.32446286763E+02  0.00000000000E+00 0.  1.
</event>
<event>
 7    1  0.4971907E-013  0.5052889E+02  0.7816164E-02  0.1300439E+00
        -11   -1    0    0    0    0  0.00000000000E+00  0.00000000000E+00  0.45593999997E+02  0.45594000000E+02  0.51100000000E-03 0.  1.
         11   -1    0    0    0    0 -0.00000000000E+00 -0.00000000000E+00 -0.45593999997E+02  0.45594000000E+02  0.51100000000E-03 0. -1.
    9900012    2    1    2    0    0 -0.50323136146E+01  0.19305773019E+02  0.35427761271E+02  0.50528888834E+02  0.30000088099E+02 0.  0.
         12    1    1    2    0    0  0.50323136146E+01 -0.19305773019E+02 -0.35427761271E+02  0.40659111166E+02  0.00000000000E+00 0. -1.
         11    1    3    3    0    0  0.76780973649E+01 -0.12950127218E+01  0.45954449309E+01  0.90414794956E+01  0.51100000000E-03 0. -1.
        -11    1    3    3    0    0 -0.46992149703E+01  0.49805642390E+01  0.10657979015E+01  0.69299759671E+01  0.51100000000E-03 0.  1.
        -12    1    3    3    0    0 -0.80111960092E+01  0.15620221502E+02  0.29766518438E+02  0.34557433371E+02  0.00000000000E+00 0.  1.
</event>
<event>
 7    1  0.4971907E-013  0.5052887E+02  0.7816164E-02  0.1300439E+00
        -11   -1    0    0    0    0  0.00000000000E+00  0.00000000000E+00  0.45593999997E+02  0.45594000000E+02  0.51100000000E-03 0.  1.
         11   -1    0    0    0    0 -0.00000000000E+00 -0.00000000000E+00 -0.45593999997E+02  0.45594000000E+02  0.51100000000E-03 0. -1.
    9900012    2    1    2    0    0  0.13086466737E+01  0.37506887853E+02  0.15642439593E+02  0.50528866844E+02  0.30000021260E+02 0.  0.
         12    1    1    2    0    0 -0.13086466737E+01 -0.37506887853E+02 -0.15642439593E+02  0.40659133156E+02  0.00000000000E+00 0. -1.
         11    1    3    3    0    0  0.38209357582E+01 -0.24105849780E+01  0.34227072632E+01  0.56679268940E+01  0.51100000000E-03 0. -1.
        -11    1    3    3    0    0  0.69160207265E+01  0.17370415662E+02  0.44823055560E+01  0.19226381520E+02  0.51100000000E-03 0.  1.
        -12    1    3    3    0    0 -0.94283098110E+01  0.22547057169E+02  0.77374267738E+01  0.25634558431E+02  0.00000000000E+00 0.  1.
</event>
<event>
 7    1  0.4971907E-013  0.5052887E+02  0.7816164E-02  0.1300439E+00
        -11   -1    0    0    0    0  0.00000000000E+00  0.00000000000E+00  0.45593999997E+02  0.45594000000E+02  0.51100000000E-03 0.  1.
         11   -1    0    0    0    0 -0.00000000000E+00 -0.00000000000E+00 -0.45593999997E+02  0.45594000000E+02  0.51100000000E-03 0. -1.
    9900012    2    1    2    0    0 -0.32979827361E+02  0.23669823227E+02  0.22881460541E+01  0.50528866257E+02  0.30000019475E+02 0.  0.
         12    1    1    2    0    0  0.32979827361E+02 -0.23669823227E+02 -0.22881460541E+01  0.40659133743E+02  0.00000000000E+00 0. -1.
         11    1    3    3    0    0 -0.32461092426E+02  0.17732138231E+02  0.10623306094E+02  0.38483839210E+02  0.51100000000E-03 0.  1.
        -11    1    3    3    0    0  0.17643460477E+01  0.44649018901E+01 -0.20930636552E+01  0.52372876176E+01  0.51100000000E-03 0. -1.
        -12    1    3    3    0    0 -0.22830809829E+01  0.14727831058E+01 -0.62420963851E+01  0.68077394290E+01  0.00000000000E+00 0.  1.
</event>
<event>
 7    1  0.4971907E-013  0.5052886E+02  0.7816164E-02  0.1300439E+00
        -11   -1    0    0    0    0  0.00000000000E+00  0.00000000000E+00  0.45593999997E+02  0.45594000000E+02  0.51100000000E-03 0.  1.
         11   -1    0    0    0    0 -0.00000000000E+00 -0.00000000000E+00 -0.45593999997E+02  0.45594000000E+02  0.51100000000E-03 0. -1.
    9900012    2    1    2    0    0 -0.15683577108E+02  0.34568847375E+02  0.14566600773E+02  0.50528860095E+02  0.30000000745E+02 0.  0.
         12    1    1    2    0    0  0.15683577108E+02 -0.34568847375E+02 -0.14566600773E+02  0.40659139905E+02  0.00000000000E+00 0. -1.
         11    1    3    3    0    0 -0.12084214216E+02  0.92235203059E+01  0.12213998581E+02  0.19500854382E+02  0.51100000000E-03 0.  1.
        -11    1    3    3    0    0 -0.88965307347E+01  0.17412775328E+02  0.65291138320E+01  0.20615099598E+02  0.51100000000E-03 0. -1.
         12    1    3    3    0    0  0.52971678423E+01  0.79325517405E+01 -0.41765116404E+01  0.10412906114E+02  0.00000000000E+00 0. -1.
</event>
<event>
 7    1  0.4971907E-013  0.5052881E+02  0.7816164E-02  0.1300439E+00
        -11   -1    0    0    0    0  0.00000000000E+00  0.00000000000E+00  0.45593999997E+02  0.45594000000E+02  0.51100000000E-03 0.  1.
         11   -1    0    0    0    0 -0.00000000000E+00 -0.00000000000E+00 -0.45593999997E+02  0.45594000000E+02  0.51100000000E-03 0. -1.
    9900012    2    1    2    0    0  0.36199538470E+02 -0.17200014241E+02  0.68499824707E+01  0.50528814873E+02  0.29999863288E+02 0.  0.
         12    1    1    2    0    0 -0.36199538470E+02  0.17200014241E+02 -0.68499824707E+01  0.40659185127E+02  0.00000000000E+00 0. -1.
         11    1    3    3    0    0  0.23765646615E+02 -0.94856000034E+00 -0.40938952855E+00  0.23788092087E+02  0.51100000000E-03 0. -1.
        -11    1    3    3    0    0 -0.34297225849E+00 -0.16657469502E+01 -0.39801498227E+01  0.43282716810E+01  0.51100000000E-03 0.  1.
        -12    1    3    3    0    0  0.12776864113E+02 -0.14585707291E+02  0.11239521822E+02  0.22412451105E+02  0.00000000000E+00 0.  1.
</event>
<event>
 7    1  0.4971907E-013  0.5052885E+02  0.7816164E-02  0.1300439E+00
        -11   -1    0    0    0    0  0.00000000000E+00  0.00000000000E+00  0.45593999997E+02  0.45594000000E+02  0.51100000000E-03 0.  1.
         11   -1    0    0    0    0 -0.00000000000E+00 -0.00000000000E+00 -0.45593999997E+02  0.45594000000E+02  0.51100000000E-03 0. -1.
    9900012    2    1    2    0    0 -0.15659837817E+02  0.60454063654E+01  0.37032271187E+02  0.50528848904E+02  0.29999966729E+02 0.  0.
         12    1    1    2    0    0  0.15659837817E+02 -0.60454063654E+01 -0.37032271187E+02  0.40659151096E+02  0.00000000000E+00 0. -1.
         11    1    3    3    0    0 -0.36402475629E+00 -0.39670592072E+01 -0.65901016964E+00  0.40378666943E+01  0.51100000000E-03 0. -1.
        -11    1    3    3    0    0 -0.16929600952E+02  0.77444081581E+00  0.18254394163E+02  0.24908513675E+02  0.51100000000E-03 0.  1.
         12    1    3    3    0    0  0.16337878916E+01  0.92380247568E+01  0.19436887193E+02  0.21582468535E+02  0.00000000000E+00 0. -1.
</event>
<event>
 7    1  0.4971907E-013  0.5052885E+02  0.7816164E-02  0.1300439E+00
        -11   -1    0    0    0    0  0.00000000000E+00  0.00000000000E+00  0.45593999997E+02  0.45594000000E+02  0.51100000000E-03 0.  1.
         11   -1    0    0    0    0 -0.00000000000E+00 -0.00000000000E+00 -0.45593999997E+02  0.45594000000E+02  0.51100000000E-03 0. -1.
    9900012    2    1    2    0    0 -0.12811454912E+02  0.34675031847E+02 -0.16931477477E+02  0.50528854164E+02  0.29999982717E+02 0.  0.
         12    1    1    2    0    0  0.12811454912E+02 -0.34675031847E+02  0.16931477477E+02  0.40659145836E+02  0.00000000000E+00 0. -1.
         11    1    3    3    0    0 -0.23405554302E+01  0.10459437726E+02 -0.11624295695E+02  0.15811460651E+02  0.51100000000E-03 0. -1.
        -11    1    3    3    0    0  0.45068805536E+01 -0.92112367130E+00  0.11740204773E+01  0.47475009725E+01  0.51100000000E-03 0.  1.
        -12    1    3    3    0    0 -0.14977780035E+02  0.25136717792E+02 -0.64812022595E+01  0.29969892540E+02  0.00000000000E+00 0.  1.
</event>
<event>
 7    1  0.4971907E-013  0.5052887E+02  0.7816164E-02  0.1300439E+00
        -11   -1    0    0    0    0  0.00000000000E+00  0.00000000000E+00  0.45593999997E+02  0.45594000000E+02  0.51100000000E-03 0.  1.
         11   -1    0    0    0    0 -0.00000000000E+00 -0.00000000000E+00 -0.45593999997E+02  0.45594000000E+02  0.51100000000E-03 0. -1.
    9900012    2    1    2    0    0  0.91032119076E+01 -0.30504732396E+02  0.25293433906E+02  0.50528868623E+02  0.30000026666E+02 0.  0.
         12    1    1    2    0    0 -0.91032119076E+01  0.30504732396E+02 -0.25293433906E+02  0.40659131377E+02  0.00000000000E+00 0. -1.
         11    1    3    3    0    0  0.91243878143E+00 -0.76859960976E+01 -0.17336437201E+01  0.79317464250E+01  0.51100000000E-03 0. -1.
        -11    1    3    3    0    0  0.11291871574E+02 -0.26011906937E+02  0.22058957505E+02  0.35926637369E+02  0.51100000000E-03 0.  1.
         12    1    3    3    0    0 -0.31010984483E+01  0.31931706391E+01  0.49681201210E+01  0.66704848290E+01  0.00000000000E+00 0. -1.
</event>
<event>
 7    1  0.4971907E-013  0.5052886E+02  0.7816164E-02  0.1300439E+00
        -11   -1    0    0    0    0  0.00000000000E+00  0.00000000000E+00  0.45593999997E+02  0.45594000000E+02  0.51100000000E-03 0.  1.
         11   -1    0    0    0    0 -0.00000000000E+00 -0.00000000000E+00 -0.45593999997E+02  0.45594000000E+02  0.51100000000E-03 0. -1.
    9900012    2    1    2    0    0 -0.21925529868E+02 -0.20852835667E+02  0.27158723600E+02  0.50528857327E+02  0.29999992330E+02 0.  0.
         12    1    1    2    0    0  0.21925529868E+02  0.20852835667E+02 -0.27158723600E+02  0.40659142673E+02  0.00000000000E+00 0. -1.
         11    1    3    3    0    0 -0.40157220852E+01  0.47373094792E+01 -0.20407247843E+01  0.65370240074E+01  0.51100000000E-03 0. -1.
        -11    1    3    3    0    0 -0.28135939870E+01 -0.91323414012E+01  0.14101788378E+02  0.17034565046E+02  0.51100000000E-03 0.  1.
        -12    1    3    3    0    0 -0.15096213795E+02 -0.16457803745E+02  0.15097660007E+02  0.26957268273E+02  0.00000000000E+00 0.  1.
</event>
<event>
 7    1  0.4971907E-013  0.5052886E+02  0.7816164E-02  0.1300439E+00
        -11   -1    0    0    0    0  0.00000000000E+00  0.00000000000E+00  0.45593999997E+02  0.45594000000E+02  0.51100000000E-03 0.  1.
         11   -1    0    0    0    0 -0.00000000000E+00 -0.00000000000E+00 -0.45593999997E+02  0.45594000000E+02  0.51100000000E-03 0. -1.
    9900012    2    1    2    0    0  0.35583563590E+02  0.16386910469E+02  0.10883221851E+02  0.50528863876E+02  0.30000012239E+02 0.  0.
         12    1    1    2    0    0 -0.35583563590E+02 -0.16386910469E+02 -0.10883221851E+02  0.40659136124E+02  0.00000000000E+00 0. -1.
         11    1    3    3    0    0  0.24581436551E+02  0.89401363027E+01  0.16435486647E+02  0.30891718657E+02  0.51100000000E-03 0.  1.
        -11    1    3    3    0    0 -0.13708393282E+01 -0.75790589480E-01  0.26576765984E+01  0.29913525102E+01  0.51100000000E-03 0. -1.
         12    1    3    3    0    0  0.12372966367E+02  0.75225647553E+01 -0.82099413940E+01  0.16645792709E+02  0.00000000000E+00 0. -1.
</event>
<event>
 7    1  0.4971907E-013  0.5052884E+02  0.7816164E-02  0.1300439E+00
        -11   -1    0    0    0    0  0.00000000000E+00  0.00000000000E+00  0.45593999997E+02  0.45594000000E+02  0.51100000000E-03 0.  1.
         11   -1    0    0    0    0 -0.00000000000E+00 -0.00000000000E+00 -0.45593999997E+02  0.45594000000E+02  0.51100000000E-03 0. -1.
    9900012    2    1    2    0    0  0.11957298088E+02  0.38260092070E+02 -0.68084705777E+01  0.50528844889E+02  0.29999954523E+02 0.  0.
         12    1    1    2    0    0 -0.11957298088E+02 -0.38260092070E+02  0.68084705777E+01  0.40659155111E+02  0.00000000000E+00 0. -1.
         11    1    3    3    0    0 -0.35989539853E+01  0.28753886484E+02 -0.59717512759E+01  0.29587163962E+02  0.51100000000E-03 0. -1.
        -11    1    3    3    0    0  0.32372309925E+01  0.70073426488E+01  0.21679688766E+01  0.80176433450E+01  0.51100000000E-03 0.  1.
         12    1    3    3    0    0  0.12319021081E+02  0.24988629368E+01 -0.30046881784E+01  0.12924037582E+02  0.00000000000E+00 0. -1.
</event>
<event>
 7    1  0.4971907E-013  0.5052889E+02  0.7816164E-02  0.1300439E+00
        -11   -1    0    0    0    0  0.00000000000E+00  0.00000000000E+00  0.45593999997E+02  0.45594000000E+02  0.51100000000E-03 0. -1.
         11   -1    0    0    0    0 -0.00000000000E+00 -0.00000000000E+00 -0.45593999997E+02  0.45594000000E+02  0.51100000000E-03 0.  1.
    9900012    2    1    2    0    0 -0.23208006162E+02  0.11297177315E+02 -0.31415372523E+02  0.50528887909E+02  0.30000085287E+02 0.  0.
         12    1    1    2    0    0  0.23208006162E+02 -0.11297177315E+02  0.31415372523E+02  0.40659112091E+02  0.00000000000E+00 0. -1.
         11    1    3    3    0    0 -0.12676946800E+02  0.13046892259E+02 -0.54518941703E+01  0.18990774815E+02  0.51100000000E-03 0. -1.
        -11    1    3    3    0    0 -0.56201127417E+01 -0.18667103068E+01 -0.89067468171E+00  0.59886205631E+01  0.51100000000E-03 0.  1.
        -12    1    3    3    0    0 -0.49109466202E+01  0.11699536292E+00 -0.25072803671E+02  0.25549492530E+02  0.00000000000E+00 0.  1.
</event>
<event>
 7    1  0.4971907E-013  0.5052886E+02  0.7816164E-02  0.1300439E+00
        -11   -1    0    0    0    0  0.00000000000E+00  0.00000000000E+00  0.45593999997E+02  0.45594000000E+02  0.51100000000E-03 0. -1.
         11   -1    0    0    0    0 -0.00000000000E+00 -0.00000000000E+00 -0.45593999997E+02  0.45594000000E+02  0.51100000000E-03 0.  1.
    9900012    2    1    2    0    0  0.21854780319E+02  0.33683619922E+02  0.63990535074E+01  0.50528861302E+02  0.30000004414E+02 0.  0.
         12    1    1    2    0    0 -0.21854780319E+02 -0.33683619922E+02 -0.63990535074E+01  0.40659138698E+02  0.00000000000E+00 0. -1.
         11    1    3    3    0    0  0.15276145598E+02  0.12630504991E+02 -0.12052483419E+01  0.19858069002E+02  0.51100000000E-03 0. -1.
        -11    1    3    3    0    0 -0.58449357444E+01  0.48397359709E+01 -0.23558543495E+01  0.79458396725E+01  0.51100000000E-03 0.  1.
         12    1    3    3    0    0  0.12423570466E+02  0.16213378961E+02  0.99601561989E+01  0.22724952628E+02  0.00000000000E+00 0. -1.
</event>
<event>
 7    1  0.4971907E-013  0.5052886E+02  0.7816164E-02  0.1300439E+00
        -11   -1    0    0    0    0  0.00000000000E+00  0.00000000000E+00  0.45593999997E+02  0.45594000000E+02  0.51100000000E-03 0.  1.
         11   -1    0    0    0    0 -0.00000000000E+00 -0.00000000000E+00 -0.45593999997E+02  0.45594000000E+02  0.51100000000E-03 0. -1.
    9900012    2    1    2    0    0  0.34433217348E+01  0.13687643451E+02  0.38130800476E+02  0.50528855976E+02  0.29999988225E+02 0.  0.
         12    1    1    2    0    0 -0.34433217348E+01 -0.13687643451E+02 -0.38130800476E+02  0.40659144024E+02  0.00000000000E+00 0. -1.
         11    1    3    3    0    0 -0.53886017674E+01 -0.89344197301E+00  0.12822122897E+02  0.13937076573E+02  0.51100000000E-03 0. -1.
        -11    1    3    3    0    0  0.24693581087E+01  0.55961700399E+00 -0.32660738994E+01  0.41325705847E+01  0.51100000000E-03 0.  1.
        -12    1    3    3    0    0  0.63625653936E+01  0.14021468420E+02  0.28574751479E+02  0.32459208818E+02  0.00000000000E+00 0.  1.
</event>
<event>
 7    1  0.4971907E-013  0.5052885E+02  0.7816164E-02  0.1300439E+00
        -11   -1    0    0    0    0  0.00000000000E+00  0.00000000000E+00  0.45593999997E+02  0.45594000000E+02  0.51100000000E-03 0.  1.
         11   -1    0    0    0    0 -0.00000000000E+00 -0.00000000000E+00 -0.45593999997E+02  0.45594000000E+02  0.51100000000E-03 0. -1.
    9900012    2    1    2    0    0 -0.26641258256E+01 -0.34585593007E+02  0.21210978197E+02  0.50528850893E+02  0.29999972773E+02 0.  0.
         12    1    1    2    0    0  0.26641258256E+01  0.34585593007E+02 -0.21210978197E+02  0.40659149107E+02  0.00000000000E+00 0. -1.
         11    1    3    3    0    0  0.60802110260E+01 -0.13657821705E+01  0.28820001394E+01  0.68658759181E+01  0.51100000000E-03 0. -1.
        -11    1    3    3    0    0  0.52604498466E+01 -0.18824833219E+02  0.90545885986E+01  0.21541407875E+02  0.51100000000E-03 0.  1.
         12    1    3    3    0    0 -0.14004786698E+02 -0.14394977618E+02  0.92743894587E+01  0.22121567099E+02  0.00000000000E+00 0. -1.
</event>
<event>
 7    1  0.4971907E-013  0.5052884E+02  0.7816164E-02  0.1300439E+00
        -11   -1    0    0    0    0  0.00000000000E+00  0.00000000000E+00  0.45593999997E+02  0.45594000000E+02  0.51100000000E-03 0.  1.
         11   -1    0    0    0    0 -0.00000000000E+00 -0.00000000000E+00 -0.45593999997E+02  0.45594000000E+02  0.51100000000E-03 0. -1.
    9900012    2    1    2    0    0  0.12970283500E+02 -0.20199051247E+02  0.32816725565E+02  0.50528838644E+02  0.29999935541E+02 0.  0.
         12    1    1    2    0    0 -0.12970283500E+02  0.20199051247E+02 -0.32816725565E+02  0.40659161356E+02  0.00000000000E+00 0. -1.
         11    1    3    3    0    0  0.52695608464E+01 -0.20949226190E+02  0.12884959901E+02  0.25152744212E+02  0.51100000000E-03 0. -1.
        -11    1    3    3    0    0  0.89166837095E+01 -0.41186253053E+01  0.88912419691E+01  0.13248566217E+02  0.51100000000E-03 0.  1.
         12    1    3    3    0    0 -0.12159610558E+01  0.48688002482E+01  0.11040523695E+02  0.12127528215E+02  0.00000000000E+00 0. -1.
</event>
<event>
 7    1  0.4971907E-013  0.5052888E+02  0.7816164E-02  0.1300439E+00
        -11   -1    0    0    0    0  0.00000000000E+00  0.00000000000E+00  0.45593999997E+02  0.45594000000E+02  0.51100000000E-03 0.  1.
         11   -1    0    0    0    0 -0.00000000000E+00 -0.00000000000E+00 -0.45593999997E+02  0.45594000000E+02  0.51100000000E-03 0. -1.
    9900012    2    1    2    0    0 -0.82207370757E+01  0.49048531584E+01  0.39516151568E+02  0.50528876334E+02  0.30000050105E+02 0.  0.
         12    1    1    2    0    0  0.82207370757E+01 -0.49048531584E+01 -0.39516151568E+02  0.40659123666E+02  0.00000000000E+00 0. -1.
         11    1    3    3    0    0  0.28269353246E+01 -0.62133916509E+00  0.18737622514E+02  0.18959855575E+02  0.51100000000E-03 0. -1.
        -11    1    3    3    0    0  0.37626180069E+01  0.78386025716E+01  0.63831367351E+01  0.10786353387E+02  0.51100000000E-03 0.  1.
         12    1    3    3    0    0 -0.14810290407E+02 -0.23124102481E+01  0.14395392318E+02  0.20782667372E+02  0.00000000000E+00 0. -1.
</event>
<event>
 7    1  0.4971907E-013  0.5052886E+02  0.7816164E-02  0.1300439E+00
        -11   -1    0    0    0    0  0.00000000000E+00  0.00000000000E+00  0.45593999997E+02  0.45594000000E+02  0.51100000000E-03 0. -1.
         11   -1    0    0    0    0 -0.00000000000E+00 -0.00000000000E+00 -0.45593999997E+02  0.45594000000E+02  0.51100000000E-03 0.  1.
    9900012    2    1    2    0    0  0.36294368987E+02 -0.92860309820E+01 -0.15800448810E+02  0.50528858665E+02  0.29999996397E+02 0.  0.
         12    1    1    2    0    0 -0.36294368987E+02  0.92860309820E+01  0.15800448810E+02  0.40659141335E+02  0.00000000000E+00 0. -1.
         11    1    3    3    0    0 -0.15915110982E-01 -0.26105074839E+01  0.27039144903E+01  0.37584779428E+01  0.51100000000E-03 0. -1.
        -11    1    3    3    0    0  0.20707814754E+02 -0.14320455183E+02 -0.77774043450E+01  0.26351035029E+02  0.51100000000E-03 0.  1.
        -12    1    3    3    0    0  0.15602469344E+02  0.76449316845E+01 -0.10726958955E+02  0.20419345693E+02  0.00000000000E+00 0.  1.
</event>
<event>
 7    1  0.5343169E-013  0.5052892E+02  0.7816164E-02  0.1300439E+00
        -11   -1    0    0    0    0  0.00000000000E+00  0.00000000000E+00  0.45593999997E+02  0.45594000000E+02  0.51100000000E-03 0.  1.
         11   -1    0    0    0    0 -0.00000000000E+00 -0.00000000000E+00 -0.45593999997E+02  0.45594000000E+02  0.51100000000E-03 0. -1.
    9900012    2    1    2    0    0  0.24970716094E+02 -0.27463058030E+02  0.16595324720E+02  0.50528917113E+02  0.30000174058E+02 0.  0.
         12    1    1    2    0    0 -0.24970716094E+02  0.27463058030E+02 -0.16595324720E+02  0.40659082887E+02  0.00000000000E+00 0. -1.
         11    1    3    3    0    0  0.12791799989E+02 -0.91598068225E+01 -0.59125942470E+01  0.16807467952E+02  0.51100000000E-03 0. -1.
        -11    1    3    3    0    0  0.16370262142E+01 -0.76319590158E+00  0.90502379416E+01  0.92287122542E+01  0.51100000000E-03 0.  1.
        -12    1    3    3    0    0  0.10541889891E+02 -0.17540055306E+02  0.13457681026E+02  0.24492736907E+02  0.00000000000E+00 0.  1.
</event>
<event>
 7    1  0.4971907E-013  0.5052886E+02  0.7816164E-02  0.1300439E+00
        -11   -1    0    0    0    0  0.00000000000E+00  0.00000000000E+00  0.45593999997E+02  0.45594000000E+02  0.51100000000E-03 0.  1.
         11   -1    0    0    0    0 -0.00000000000E+00 -0.00000000000E+00 -0.45593999997E+02  0.45594000000E+02  0.51100000000E-03 0. -1.
    9900012    2    1    2    0    0 -0.60731611941E+01  0.36688792465E+02  0.16438216058E+02  0.50528859249E+02  0.29999998174E+02 0.  0.
         12    1    1    2    0    0  0.60731611941E+01 -0.36688792465E+02 -0.16438216058E+02  0.40659140751E+02  0.00000000000E+00 0. -1.
         11    1    3    3    0    0  0.13396232144E+01  0.76775558851E+01  0.85676479593E+01  0.11582057095E+02  0.51100000000E-03 0. -1.
        -11    1    3    3    0    0  0.26211944566E+01  0.27737353151E+02  0.41430597728E+01  0.28167292464E+02  0.51100000000E-03 0.  1.
         12    1    3    3    0    0 -0.10033978865E+02  0.12738834287E+01  0.37275083260E+01  0.10779509691E+02  0.00000000000E+00 0. -1.
</event>
<event>
 7    1  0.4971907E-013  0.5052886E+02  0.7816164E-02  0.1300439E+00
        -11   -1    0    0    0    0  0.00000000000E+00  0.00000000000E+00  0.45593999997E+02  0.45594000000E+02  0.51100000000E-03 0.  1.
         11   -1    0    0    0    0 -0.00000000000E+00 -0.00000000000E+00 -0.45593999997E+02  0.45594000000E+02  0.51100000000E-03 0. -1.
    9900012    2    1    2    0    0 -0.38533632707E+02 -0.12549708566E+02  0.32908714235E+01  0.50528857493E+02  0.29999992835E+02 0.  0.
         12    1    1    2    0    0  0.38533632707E+02  0.12549708566E+02 -0.32908714235E+01  0.40659142507E+02  0.00000000000E+00 0. -1.
         11    1    3    3    0    0 -0.39243003475E+01 -0.91502619614E+01  0.43459277357E+01  0.10863448593E+02  0.51100000000E-03 0. -1.
        -11    1    3    3    0    0 -0.29328126434E+02 -0.97912509673E+01  0.15960656942E+01  0.30960539750E+02  0.51100000000E-03 0.  1.
         12    1    3    3    0    0 -0.52812059256E+01  0.63918043623E+01 -0.26511220065E+01  0.87048691505E+01  0.00000000000E+00 0. -1.
</event>
<event>
 7    1  0.4971907E-013  0.5052886E+02  0.7816164E-02  0.1300439E+00
        -11   -1    0    0    0    0  0.00000000000E+00  0.00000000000E+00  0.45593999997E+02  0.45594000000E+02  0.51100000000E-03 0. -1.
         11   -1    0    0    0    0 -0.00000000000E+00 -0.00000000000E+00 -0.45593999997E+02  0.45594000000E+02  0.51100000000E-03 0.  1.
    9900012    2    1    2    0    0  0.30929475946E+02 -0.26209574395E+02 -0.30970117947E+01  0.50528858908E+02  0.29999997136E+02 0.  0.
         12    1    1    2    0    0 -0.30929475946E+02  0.26209574395E+02  0.30970117947E+01  0.40659141092E+02  0.00000000000E+00 0. -1.
         11    1    3    3    0    0  0.16495951532E+02 -0.10411728028E+02  0.54950254412E+01  0.20266124502E+02  0.51100000000E-03 0. -1.
        -11    1    3    3    0    0  0.71746802720E+01 -0.18108145884E+02 -0.99312750831E+00  0.19503007124E+02  0.51100000000E-03 0.  1.
        -12    1    3    3    0    0  0.72588441420E+01  0.23102995163E+01 -0.75989097276E+01  0.10759727282E+02  0.00000000000E+00 0.  1.
</event>
<event>
 7    1  0.5989104E-013  0.5052890E+02  0.7816164E-02  0.1300439E+00
        -11   -1    0    0    0    0  0.00000000000E+00  0.00000000000E+00  0.45593999997E+02  0.45594000000E+02  0.51100000000E-03 0. -1.
         11   -1    0    0    0    0 -0.00000000000E+00 -0.00000000000E+00 -0.45593999997E+02  0.45594000000E+02  0.51100000000E-03 0.  1.
    9900012    2    1    2    0    0 -0.58042939176E+01 -0.30253092750E+02 -0.26537196120E+02  0.50528902289E+02  0.30000128997E+02 0.  0.
         12    1    1    2    0    0  0.58042939176E+01  0.30253092750E+02  0.26537196120E+02  0.40659097711E+02  0.00000000000E+00 0. -1.
         11    1    3    3    0    0  0.13758609448E+01 -0.66680815557E+01  0.23702583959E+01  0.72093293792E+01  0.51100000000E-03 0. -1.
        -11    1    3    3    0    0 -0.54036996583E+01  0.25701564449E+01 -0.64743089133E+01  0.88160280350E+01  0.51100000000E-03 0.  1.
        -12    1    3    3    0    0 -0.17764552041E+01 -0.26155167639E+02 -0.22433145602E+02  0.34503544875E+02  0.00000000000E+00 0.  1.
</event>
<event>
 7    1  0.4971907E-013  0.5052884E+02  0.7816164E-02  0.1300439E+00
        -11   -1    0    0    0    0  0.00000000000E+00  0.00000000000E+00  0.45593999997E+02  0.45594000000E+02  0.51100000000E-03 0.  1.
         11   -1    0    0    0    0 -0.00000000000E+00 -0.00000000000E+00 -0.45593999997E+02  0.45594000000E+02  0.51100000000E-03 0. -1.
    9900012    2    1    2    0    0  0.27357433743E+02  0.25844861436E+02  0.15387685829E+02  0.50528844588E+02  0.29999953608E+02 0.  0.
         12    1    1    2    0    0 -0.27357433743E+02 -0.25844861436E+02 -0.15387685829E+02  0.40659155412E+02  0.00000000000E+00 0. -1.
         11    1    3    3    0    0  0.18199913626E+00  0.72005066902E+01 -0.23687678570E+00  0.72067004346E+01  0.51100000000E-03 0. -1.
        -11    1    3    3    0    0  0.23107074494E+02  0.23354143142E+02  0.86472391170E+01  0.33972454109E+02  0.51100000000E-03 0.  1.
        -12    1    3    3    0    0  0.40683601132E+01 -0.47097883954E+01  0.69773234974E+01  0.93496900445E+01  0.00000000000E+00 0.  1.
</event>
<event>
 7    1  0.4971907E-013  0.5052882E+02  0.7816164E-02  0.1300439E+00
        -11   -1    0    0    0    0  0.00000000000E+00  0.00000000000E+00  0.45593999997E+02  0.45594000000E+02  0.51100000000E-03 0.  1.
         11   -1    0    0    0    0 -0.00000000000E+00 -0.00000000000E+00 -0.45593999997E+02  0.45594000000E+02  0.51100000000E-03 0. -1.
    9900012    2    1    2    0    0 -0.13340005745E+02  0.17706647453E+02  0.34083546887E+02  0.50528815482E+02  0.29999865138E+02 0.  0.
         12    1    1    2    0    0  0.13340005745E+02 -0.17706647453E+02 -0.34083546887E+02  0.40659184518E+02  0.00000000000E+00 0. -1.
         11    1    3    3    0    0  0.46410070978E+01  0.69392130814E+01  0.61751592453E+01  0.10383844039E+02  0.51100000000E-03 0. -1.
        -11    1    3    3    0    0  0.33116126066E+01 -0.19288669692E+00 -0.68848325563E-01  0.33179396750E+01  0.51100000000E-03 0.  1.
         12    1    3    3    0    0 -0.21292625449E+02  0.10960321068E+02  0.27977235967E+02  0.36827031767E+02  0.00000000000E+00 0. -1.
</event>
<event>
 7    1  0.4971907E-013  0.5052886E+02  0.7816164E-02  0.1300439E+00
        -11   -1    0    0    0    0  0.00000000000E+00  0.00000000000E+00  0.45593999997E+02  0.45594000000E+02  0.51100000000E-03 0.  1.
         11   -1    0    0    0    0 -0.00000000000E+00 -0.00000000000E+00 -0.45593999997E+02  0.45594000000E+02  0.51100000000E-03 0. -1.
    9900012    2    1    2    0    0 -0.21615861126E+01 -0.91457523927E+01  0.39558166379E+02  0.50528858733E+02  0.29999996604E+02 0.  0.
         12    1    1    2    0    0  0.21615861126E+01  0.91457523927E+01 -0.39558166379E+02  0.40659141267E+02  0.00000000000E+00 0. -1.
         11    1    3    3    0    0 -0.35143952561E+01  0.47740566431E+01  0.13162405791E+00  0.59295797492E+01  0.51100000000E-03 0. -1.
        -11    1    3    3    0    0 -0.24358527189E+01 -0.90414903424E+01  0.72695958371E+01  0.11854490709E+02  0.51100000000E-03 0.  1.
        -12    1    3    3    0    0  0.37886618625E+01 -0.48783186934E+01  0.32156946484E+02  0.32744788274E+02  0.00000000000E+00 0.  1.
</event>
<event>
 7    1  0.4971907E-013  0.5052886E+02  0.7816164E-02  0.1300439E+00
        -11   -1    0    0    0    0  0.00000000000E+00  0.00000000000E+00  0.45593999997E+02  0.45594000000E+02  0.51100000000E-03 0.  1.
         11   -1    0    0    0    0 -0.00000000000E+00 -0.00000000000E+00 -0.45593999997E+02  0.45594000000E+02  0.51100000000E-03 0. -1.
    9900012    2    1    2    0    0  0.35617867301E+02 -0.17557763295E+02  0.87325788565E+01  0.50528862571E+02  0.30000008270E+02 0.  0.
         12    1    1    2    0    0 -0.35617867301E+02  0.17557763295E+02 -0.87325788565E+01  0.40659137429E+02  0.00000000000E+00 0. -1.
         11    1    3    3    0    0  0.32770202107E+01  0.43292317018E+01  0.57540026111E+01  0.79113623921E+01  0.51100000000E-03 0. -1.
        -11    1    3    3    0    0  0.84125665819E+01 -0.12303512642E+02 -0.48582486765E+01  0.15676424346E+02  0.51100000000E-03 0.  1.
        -12    1    3    3    0    0  0.23928280509E+02 -0.95834823550E+01  0.78368249219E+01  0.26941075832E+02  0.00000000000E+00 0.  1.
</event>
<event>
 7    1  0.4971907E-013  0.5052886E+02  0.7816164E-02  0.1300439E+00
        -11   -1    0    0    0    0  0.00000000000E+00  0.00000000000E+00  0.45593999997E+02  0.45594000000E+02  0.51100000000E-03 0.  1.
         11   -1    0    0    0    0 -0.00000000000E+00 -0.00000000000E+00 -0.45593999997E+02  0.45594000000E+02  0.51100000000E-03 0. -1.
    9900012    2    1    2    0    0  0.18989806504E+01 -0.36185876185E+02 -0.18442942710E+02  0.50528857134E+02  0.29999991746E+02 0.  0.
         12    1    1    2    0    0 -0.18989806504E+01  0.36185876185E+02  0.18442942710E+02  0.40659142866E+02  0.00000000000E+00 0. -1.
         11    1    3    3    0    0  0.67816023582E+01 -0.12594581799E+02 -0.12795597636E+02  0.19192210408E+02  0.51100000000E-03 0.  1.
        -11    1    3    3    0    0 -0.99960921752E+01 -0.46230068919E+01 -0.48394518935E+00  0.11023985428E+02  0.51100000000E-03 0. -1.
         12    1    3    3    0    0  0.51134704674E+01 -0.18968287494E+02 -0.51633998844E+01  0.20312661299E+02  0.00000000000E+00 0. -1.
</event>
<event>
 7    1  0.4971907E-013  0.5052886E+02  0.7816164E-02  0.1300439E+00
        -11   -1    0    0    0    0  0.00000000000E+00  0.00000000000E+00  0.45593999997E+02  0.45594000000E+02  0.51100000000E-03 0.  1.
         11   -1    0    0    0    0 -0.00000000000E+00 -0.00000000000E+00 -0.45593999997E+02  0.45594000000E+02  0.51100000000E-03 0. -1.
    9900012    2    1    2    0    0  0.27921476959E+02 -0.27888819065E+02 -0.97862349027E+01  0.50528862061E+02  0.30000006719E+02 0.  0.
         12    1    1    2    0    0 -0.27921476959E+02  0.27888819065E+02  0.97862349027E+01  0.40659137939E+02  0.00000000000E+00 0. -1.
         11    1    3    3    0    0  0.23747254084E+02 -0.69113029412E+01 -0.79946143846E+01  0.25992538243E+02  0.51100000000E-03 0. -1.
        -11    1    3    3    0    0 -0.16702978615E+01  0.81396048602E+00  0.28307221512E+00  0.18795097124E+01  0.51100000000E-03 0.  1.
        -12    1    3    3    0    0  0.58445207364E+01 -0.21791476609E+02 -0.20746927332E+01  0.22656814105E+02  0.00000000000E+00 0.  1.
</event>
<event>
 7    1  0.4971907E-013  0.5052886E+02  0.7816164E-02  0.1300439E+00
        -11   -1    0    0    0    0  0.00000000000E+00  0.00000000000E+00  0.45593999997E+02  0.45594000000E+02  0.51100000000E-03 0.  1.
         11   -1    0    0    0    0 -0.00000000000E+00 -0.00000000000E+00 -0.45593999997E+02  0.45594000000E+02  0.51100000000E-03 0. -1.
    9900012    2    1    2    0    0  0.40462706741E+02  0.39612766608E+01 -0.49310102961E+00  0.50528862058E+02  0.30000006711E+02 0.  0.
         12    1    1    2    0    0 -0.40462706741E+02 -0.39612766608E+01  0.49310102961E+00  0.40659137942E+02  0.00000000000E+00 0. -1.
         11    1    3    3    0    0  0.38417177430E+01 -0.37870410979E+01  0.61371412251E+01  0.81709839170E+01  0.51100000000E-03 0.  1.
        -11    1    3    3    0    0  0.35354751023E+01  0.70684528435E+01  0.20122006485E+01  0.81554620661E+01  0.51100000000E-03 0. -1.
        -12    1    3    3    0    0  0.33085513895E+02  0.67986491516E+00 -0.86424429033E+01  0.34202416075E+02  0.00000000000E+00 0.  1.
</event>
<event>
 7    1  0.4971907E-013  0.5052886E+02  0.7816164E-02  0.1300439E+00
        -11   -1    0    0    0    0  0.00000000000E+00  0.00000000000E+00  0.45593999997E+02  0.45594000000E+02  0.51100000000E-03 0.  1.
         11   -1    0    0    0    0 -0.00000000000E+00 -0.00000000000E+00 -0.45593999997E+02  0.45594000000E+02  0.51100000000E-03 0. -1.
    9900012    2    1    2    0    0 -0.63226349044E+01 -0.38704384117E+02 -0.10731281534E+02  0.50528862462E+02  0.30000007938E+02 0.  0.
         12    1    1    2    0    0  0.63226349044E+01  0.38704384117E+02  0.10731281534E+02  0.40659137538E+02  0.00000000000E+00 0. -1.
         11    1    3    3    0    0  0.95680821653E+00 -0.18557939138E+02 -0.13282240445E+02  0.22841420676E+02  0.51100000000E-03 0.  1.
        -11    1    3    3    0    0 -0.11363992518E+02 -0.65464269698E+01 -0.65063193075E+00  0.13130855045E+02  0.51100000000E-03 0. -1.
        -12    1    3    3    0    0  0.40845493976E+01 -0.13600018009E+02  0.32015908416E+01  0.14556586741E+02  0.00000000000E+00 0.  1.
</event>
<event>
 7    1  0.4971907E-013  0.5052886E+02  0.7816164E-02  0.1300439E+00
        -11   -1    0    0    0    0  0.00000000000E+00  0.00000000000E+00  0.45593999997E+02  0.45594000000E+02  0.51100000000E-03 0.  1.
         11   -1    0    0    0    0 -0.00000000000E+00 -0.00000000000E+00 -0.45593999997E+02  0.45594000000E+02  0.51100000000E-03 0. -1.
    9900012    2    1    2    0    0 -0.31469791057E+02  0.18679520545E+02  0.17717044606E+02  0.50528857037E+02  0.29999991448E+02 0.  0.
         12    1    1    2    0    0  0.31469791057E+02 -0.18679520545E+02 -0.17717044606E+02  0.40659142963E+02  0.00000000000E+00 0. -1.
         11    1    3    3    0    0 -0.71386547661E+00  0.52804948473E+00  0.10347380598E+02  0.10385409269E+02  0.51100000000E-03 0. -1.
        -11    1    3    3    0    0  0.16257754812E+01  0.27002967759E+01  0.23133320751E+01  0.39097639499E+01  0.51100000000E-03 0.  1.
         12    1    3    3    0    0 -0.32381701061E+02  0.15451174284E+02  0.50563319329E+01  0.36233683818E+02  0.00000000000E+00 0. -1.
</event>
<event>
 7    1  0.4971907E-013  0.5052887E+02  0.7816164E-02  0.1300439E+00
        -11   -1    0    0    0    0  0.00000000000E+00  0.00000000000E+00  0.45593999997E+02  0.45594000000E+02  0.51100000000E-03 0. -1.
         11   -1    0    0    0    0 -0.00000000000E+00 -0.00000000000E+00 -0.45593999997E+02  0.45594000000E+02  0.51100000000E-03 0.  1.
    9900012    2    1    2    0    0  0.20130097041E+02 -0.15365313527E+02 -0.31809613770E+02  0.50528865789E+02  0.30000018051E+02 0.  0.
         12    1    1    2    0    0 -0.20130097041E+02  0.15365313527E+02  0.31809613770E+02  0.40659134211E+02  0.00000000000E+00 0. -1.
         11    1    3    3    0    0  0.65613811194E+01  0.50551595854E+01 -0.61855649617E+01  0.10337677437E+02  0.51100000000E-03 0. -1.
        -11    1    3    3    0    0  0.26386883968E+01 -0.86327930185E+01  0.10084702231E+01  0.90832155213E+01  0.51100000000E-03 0.  1.
        -12    1    3    3    0    0  0.10930027524E+02 -0.11787680093E+02 -0.26632519031E+02  0.31107972831E+02  0.00000000000E+00 0.  1.
</event>
<event>
 7    1  0.4971907E-013  0.5052885E+02  0.7816164E-02  0.1300439E+00
        -11   -1    0    0    0    0  0.00000000000E+00  0.00000000000E+00  0.45593999997E+02  0.45594000000E+02  0.51100000000E-03 0. -1.
         11   -1    0    0    0    0 -0.00000000000E+00 -0.00000000000E+00 -0.45593999997E+02  0.45594000000E+02  0.51100000000E-03 0.  1.
    9900012    2    1    2    0    0 -0.23424901024E+02 -0.23038272710E+02 -0.23951590451E+02  0.50528847493E+02  0.29999962441E+02 0.  0.
         12    1    1    2    0    0  0.23424901024E+02  0.23038272710E+02  0.23951590451E+02  0.40659152507E+02  0.00000000000E+00 0. -1.
         11    1    3    3    0    0 -0.88602689487E+01 -0.96490136707E+01 -0.21854181278E+02  0.25479659932E+02  0.51100000000E-03 0. -1.
        -11    1    3    3    0    0 -0.52259180369E+01  0.44281370414E+00 -0.59390543017E+01  0.79232991591E+01  0.51100000000E-03 0.  1.
         12    1    3    3    0    0 -0.93387140389E+01 -0.13832072743E+02  0.38416451291E+01  0.17125888402E+02  0.00000000000E+00 0. -1.
</event>
<event>
 7    1  0.4971907E-013  0.5052887E+02  0.7816164E-02  0.1300439E+00
        -11   -1    0    0    0    0  0.00000000000E+00  0.00000000000E+00  0.45593999997E+02  0.45594000000E+02  0.51100000000E-03 0.  1.
         11   -1    0    0    0    0 -0.00000000000E+00 -0.00000000000E+00 -0.45593999997E+02  0.45594000000E+02  0.51100000000E-03 0. -1.
    9900012    2    1    2    0    0  0.36374971483E+00 -0.14477522439E+01  0.40631719539E+02  0.50528869007E+02  0.30000027833E+02 0.  0.
         12    1    1    2    0    0 -0.36374971483E+00  0.14477522439E+01 -0.40631719539E+02  0.40659130993E+02  0.00000000000E+00 0. -1.
         11    1    3    3    0    0  0.76381283267E+01  0.90486918749E+01  0.68672115483E+01  0.13688623879E+02  0.51100000000E-03 0. -1.
        -11    1    3    3    0    0 -0.35215190793E+01  0.51660237133E-01  0.88936729482E+01  0.95656251326E+01  0.51100000000E-03 0.  1.
        -12    1    3    3    0    0 -0.37528595326E+01 -0.10548104356E+02  0.24870835043E+02  0.27274619995E+02  0.00000000000E+00 0.  1.
</event>
<event>
 7    1  0.4971907E-013  0.5052887E+02  0.7816164E-02  0.1300439E+00
        -11   -1    0    0    0    0  0.00000000000E+00  0.00000000000E+00  0.45593999997E+02  0.45594000000E+02  0.51100000000E-03 0.  1.
         11   -1    0    0    0    0 -0.00000000000E+00 -0.00000000000E+00 -0.45593999997E+02  0.45594000000E+02  0.51100000000E-03 0. -1.
    9900012    2    1    2    0    0  0.14363965490E+02 -0.78117925687E+01  0.37226561270E+02  0.50528874681E+02  0.30000045080E+02 0.  0.
         12    1    1    2    0    0 -0.14363965490E+02  0.78117925687E+01 -0.37226561270E+02  0.40659125319E+02  0.00000000000E+00 0. -1.
         11    1    3    3    0    0 -0.69619774491E+01 -0.10043717618E-01  0.72412134419E+01  0.10045118379E+02  0.51100000000E-03 0. -1.
        -11    1    3    3    0    0  0.65789670110E+01 -0.10206712151E+02  0.11611740918E+02  0.16801556692E+02  0.51100000000E-03 0.  1.
        -12    1    3    3    0    0  0.14746975928E+02  0.24049632996E+01  0.18373606910E+02  0.23682199610E+02  0.00000000000E+00 0.  1.
</event>
<event>
 7    1  0.4971907E-013  0.5052881E+02  0.7816164E-02  0.1300439E+00
        -11   -1    0    0    0    0  0.00000000000E+00  0.00000000000E+00  0.45593999997E+02  0.45594000000E+02  0.51100000000E-03 0. -1.
         11   -1    0    0    0    0 -0.00000000000E+00 -0.00000000000E+00 -0.45593999997E+02  0.45594000000E+02  0.51100000000E-03 0.  1.
    9900012    2    1    2    0    0 -0.21342249745E+02  0.59288793444E+01 -0.34095844506E+02  0.50528808579E+02  0.29999844157E+02 0.  0.
         12    1    1    2    0    0  0.21342249745E+02 -0.59288793444E+01  0.34095844506E+02  0.40659191421E+02  0.00000000000E+00 0. -1.
         11    1    3    3    0    0  0.32627631667E+01 -0.23166090574E+01 -0.71997971968E+00  0.40657929196E+01  0.51100000000E-03 0. -1.
        -11    1    3    3    0    0 -0.16294439592E+02  0.79429862421E+01 -0.33562325292E+02  0.38144848555E+02  0.51100000000E-03 0.  1.
         12    1    3    3    0    0 -0.83105733195E+01  0.30250215976E+00  0.18646050591E+00  0.83181671043E+01  0.00000000000E+00 0. -1.
</event>
<event>
 7    1  0.4971907E-013  0.5052886E+02  0.7816164E-02  0.1300439E+00
        -11   -1    0    0    0    0  0.00000000000E+00  0.00000000000E+00  0.45593999997E+02  0.45594000000E+02  0.51100000000E-03 0. -1.
         11   -1    0    0    0    0 -0.00000000000E+00 -0.00000000000E+00 -0.45593999997E+02  0.45594000000E+02  0.51100000000E-03 0.  1.
    9900012    2    1    2    0    0  0.99178220157E+00  0.29054224969E+02 -0.28425942429E+02  0.50528858058E+02  0.29999994552E+02 0.  0.
         12    1    1    2    0    0 -0.99178220157E+00 -0.29054224969E+02  0.28425942429E+02  0.40659141942E+02  0.00000000000E+00 0. -1.
         11    1    3    3    0    0 -0.65053238830E+01  0.17243998097E+02 -0.79543386616E+01  0.20073520194E+02  0.51100000000E-03 0. -1.
        -11    1    3    3    0    0  0.81204097667E+01  0.10570920042E+02 -0.39882562486E+01  0.13913719613E+02  0.51100000000E-03 0.  1.
        -12    1    3    3    0    0 -0.62330368207E+00  0.12393068305E+01 -0.16483347519E+02  0.16541618250E+02  0.00000000000E+00 0.  1.
</event>
<event>
 7    1  0.4971907E-013  0.5052889E+02  0.7816164E-02  0.1300439E+00
        -11   -1    0    0    0    0  0.00000000000E+00  0.00000000000E+00  0.45593999997E+02  0.45594000000E+02  0.51100000000E-03 0. -1.
         11   -1    0    0    0    0 -0.00000000000E+00 -0.00000000000E+00 -0.45593999997E+02  0.45594000000E+02  0.51100000000E-03 0.  1.
    9900012    2    1    2    0    0  0.32698359351E+02 -0.20204554137E+02 -0.13257315986E+02  0.50528891067E+02  0.30000094886E+02 0.  0.
         12    1    1    2    0    0 -0.32698359351E+02  0.20204554137E+02  0.13257315986E+02  0.40659108933E+02  0.00000000000E+00 0. -1.
         11    1    3    3    0    0  0.27204610332E+01  0.99063205844E+00  0.23678570246E+00  0.29048800041E+01  0.51100000000E-03 0. -1.
        -11    1    3    3    0    0  0.33864638547E+02 -0.21214798138E+02 -0.77768706150E+01  0.40710700322E+02  0.51100000000E-03 0.  1.
        -12    1    3    3    0    0 -0.38867402292E+01  0.19611942649E-01 -0.57172310738E+01  0.69133107401E+01  0.00000000000E+00 0.  1.
</event>
<event>
 7    1  0.4971907E-013  0.5052888E+02  0.7816164E-02  0.1300439E+00
        -11   -1    0    0    0    0  0.00000000000E+00  0.00000000000E+00  0.45593999997E+02  0.45594000000E+02  0.51100000000E-03 0.  1.
         11   -1    0    0    0    0 -0.00000000000E+00 -0.00000000000E+00 -0.45593999997E+02  0.45594000000E+02  0.51100000000E-03 0. -1.
    9900012    2    1    2    0    0 -0.18652082046E+02  0.12247178513E+02  0.33989264360E+02  0.50528884934E+02  0.30000076245E+02 0.  0.
         12    1    1    2    0    0  0.18652082046E+02 -0.12247178513E+02 -0.33989264360E+02  0.40659115066E+02  0.00000000000E+00 0. -1.
         11    1    3    3    0    0 -0.11815980785E+02  0.21102419351E+01  0.78517409298E+01  0.14342955025E+02  0.51100000000E-03 0. -1.
        -11    1    3    3    0    0 -0.45721650551E+01 -0.65379326776E+01  0.10722253275E+02  0.13364728674E+02  0.51100000000E-03 0.  1.
         12    1    3    3    0    0 -0.22639362055E+01  0.16674869256E+02  0.15415270156E+02  0.22821201235E+02  0.00000000000E+00 0. -1.
</event>
<event>
 7    1  0.4971907E-013  0.5052886E+02  0.7816164E-02  0.1300439E+00
        -11   -1    0    0    0    0  0.00000000000E+00  0.00000000000E+00  0.45593999997E+02  0.45594000000E+02  0.51100000000E-03 0.  1.
         11   -1    0    0    0    0 -0.00000000000E+00 -0.00000000000E+00 -0.45593999997E+02  0.45594000000E+02  0.51100000000E-03 0. -1.
    9900012    2    1    2    0    0  0.16228993106E+02 -0.32585807886E+02  0.18109413501E+02  0.50528856500E+02  0.29999989816E+02 0.  0.
         12    1    1    2    0    0 -0.16228993106E+02  0.32585807886E+02 -0.18109413501E+02  0.40659143500E+02  0.00000000000E+00 0. -1.
         11    1    3    3    0    0  0.81034526096E+01 -0.65127907598E-01  0.42607950514E+01  0.91555753818E+01  0.51100000000E-03 0. -1.
        -11    1    3    3    0    0  0.94264020039E+01 -0.13568141203E+02 -0.19886612875E+01  0.16640501327E+02  0.51100000000E-03 0.  1.
        -12    1    3    3    0    0 -0.13008615072E+01 -0.18952538775E+02  0.15837279737E+02  0.24732779791E+02  0.00000000000E+00 0.  1.
</event>
<event>
 7    1  0.4971907E-013  0.5052886E+02  0.7816164E-02  0.1300439E+00
        -11   -1    0    0    0    0  0.00000000000E+00  0.00000000000E+00  0.45593999997E+02  0.45594000000E+02  0.51100000000E-03 0.  1.
         11   -1    0    0    0    0 -0.00000000000E+00 -0.00000000000E+00 -0.45593999997E+02  0.45594000000E+02  0.51100000000E-03 0. -1.
    9900012    2    1    2    0    0 -0.80172066885E+01 -0.38877394232E+02  0.87998793915E+01  0.50528864954E+02  0.30000015515E+02 0.  0.
         12    1    1    2    0    0  0.80172066885E+01  0.38877394232E+02 -0.87998793915E+01  0.40659135046E+02  0.00000000000E+00 0. -1.
         11    1    3    3    0    0 -0.53251171231E+01  0.50848371187E+00  0.32307963237E+01  0.62492778148E+01  0.51100000000E-03 0. -1.
        -11    1    3    3    0    0 -0.44625550114E+01 -0.18679773960E+02  0.11853051295E+02  0.22568632606E+02  0.51100000000E-03 0.  1.
        -12    1    3    3    0    0  0.17704654460E+01 -0.20706103984E+02 -0.62839682268E+01  0.21710954534E+02  0.00000000000E+00 0.  1.
</event>
<event>
 7    1  0.4971907E-013  0.5052873E+02  0.7816164E-02  0.1300439E+00
        -11   -1    0    0    0    0  0.00000000000E+00  0.00000000000E+00  0.45593999997E+02  0.45594000000E+02  0.51100000000E-03 0.  1.
         11   -1    0    0    0    0 -0.00000000000E+00 -0.00000000000E+00 -0.45593999997E+02  0.45594000000E+02  0.51100000000E-03 0. -1.
    9900012    2    1    2    0    0  0.34511362060E+02 -0.14373377890E+02  0.15985864613E+02  0.50528733275E+02  0.29999615259E+02 0.  0.
         12    1    1    2    0    0 -0.34511362060E+02  0.14373377890E+02 -0.15985864613E+02  0.40659266725E+02  0.00000000000E+00 0. -1.
         11    1    3    3    0    0 -0.25532328060E+01 -0.36697118017E+01  0.74069957539E+00  0.45314918726E+01  0.51100000000E-03 0. -1.
        -11    1    3    3    0    0  0.70898242851E+01 -0.26528463014E+00  0.12197693640E+02  0.14110978517E+02  0.51100000000E-03 0.  1.
         12    1    3    3    0    0  0.29974770581E+02 -0.10438381458E+02  0.30474713982E+01  0.31886262885E+02  0.00000000000E+00 0. -1.
</event>
<event>
 7    1  0.4971907E-013  0.5052885E+02  0.7816164E-02  0.1300439E+00
        -11   -1    0    0    0    0  0.00000000000E+00  0.00000000000E+00  0.45593999997E+02  0.45594000000E+02  0.51100000000E-03 0. -1.
         11   -1    0    0    0    0 -0.00000000000E+00 -0.00000000000E+00 -0.45593999997E+02  0.45594000000E+02  0.51100000000E-03 0.  1.
    9900012    2    1    2    0    0  0.13582608062E+02  0.73447317944E+01 -0.37612955538E+02  0.50528846649E+02  0.29999959875E+02 0.  0.
         12    1    1    2    0    0 -0.13582608062E+02 -0.73447317944E+01  0.37612955538E+02  0.40659153351E+02  0.00000000000E+00 0. -1.
         11    1    3    3    0    0  0.75098170157E+01  0.36791812941E+01 -0.55117329998E+00  0.83807827124E+01  0.51100000000E-03 0. -1.
        -11    1    3    3    0    0 -0.49891421354E+01 -0.93039678608E+00 -0.26799435972E+01  0.57392748124E+01  0.51100000000E-03 0.  1.
        -12    1    3    3    0    0  0.11061933181E+02  0.45959472864E+01 -0.34381838641E+02  0.36408789124E+02  0.00000000000E+00 0.  1.
</event>
<event>
 7    1  0.4971907E-013  0.5052884E+02  0.7816164E-02  0.1300439E+00
        -11   -1    0    0    0    0  0.00000000000E+00  0.00000000000E+00  0.45593999997E+02  0.45594000000E+02  0.51100000000E-03 0.  1.
         11   -1    0    0    0    0 -0.00000000000E+00 -0.00000000000E+00 -0.45593999997E+02  0.45594000000E+02  0.51100000000E-03 0. -1.
    9900012    2    1    2    0    0 -0.31041674895E+02 -0.24993557707E+02 -0.80562638702E+01  0.50528844884E+02  0.29999954510E+02 0.  0.
         12    1    1    2    0    0  0.31041674895E+02  0.24993557707E+02  0.80562638702E+01  0.40659155116E+02  0.00000000000E+00 0. -1.
         11    1    3    3    0    0 -0.47014401010E+01 -0.16056942428E+02 -0.81557187148E+01  0.18613024665E+02  0.51100000000E-03 0. -1.
        -11    1    3    3    0    0 -0.92670642772E+01 -0.10200996867E+02  0.40131668050E+01  0.14354244162E+02  0.51100000000E-03 0.  1.
         12    1    3    3    0    0 -0.17073170517E+02  0.12643815879E+01 -0.39137119604E+01  0.17561576057E+02  0.00000000000E+00 0. -1.
</event>
<event>
 7    1  0.4971907E-013  0.5052886E+02  0.7816164E-02  0.1300439E+00
        -11   -1    0    0    0    0  0.00000000000E+00  0.00000000000E+00  0.45593999997E+02  0.45594000000E+02  0.51100000000E-03 0.  1.
         11   -1    0    0    0    0 -0.00000000000E+00 -0.00000000000E+00 -0.45593999997E+02  0.45594000000E+02  0.51100000000E-03 0. -1.
    9900012    2    1    2    0    0 -0.75949223646E+01  0.21265120505E+02  0.33812385654E+02  0.50528860567E+02  0.30000002179E+02 0.  0.
         12    1    1    2    0    0  0.75949223646E+01 -0.21265120505E+02 -0.33812385654E+02  0.40659139433E+02  0.00000000000E+00 0. -1.
         11    1    3    3    0    0 -0.10195729568E+02  0.11210888569E+02  0.16004812191E+02  0.22040665540E+02  0.51100000000E-03 0. -1.
        -11    1    3    3    0    0 -0.10544734886E+01  0.17159755669E+01  0.19176162385E+02  0.19281641283E+02  0.51100000000E-03 0.  1.
         12    1    3    3    0    0  0.36552806918E+01  0.83382563688E+01 -0.13685889210E+01  0.92065537441E+01  0.00000000000E+00 0. -1.
</event>
<event>
 7    1  0.4971907E-013  0.5052881E+02  0.7816164E-02  0.1300439E+00
        -11   -1    0    0    0    0  0.00000000000E+00  0.00000000000E+00  0.45593999997E+02  0.45594000000E+02  0.51100000000E-03 0.  1.
         11   -1    0    0    0    0 -0.00000000000E+00 -0.00000000000E+00 -0.45593999997E+02  0.45594000000E+02  0.51100000000E-03 0. -1.
    9900012    2    1    2    0    0 -0.39456704464E+02 -0.34864419804E+01  0.91751449643E+01  0.50528805591E+02  0.29999835074E+02 0.  0.
         12    1    1    2    0    0  0.39456704464E+02  0.34864419804E+01 -0.91751449643E+01  0.40659194409E+02  0.00000000000E+00 0. -1.
         11    1    3    3    0    0 -0.34160378055E+01 -0.69838274648E+01 -0.13250155709E+01  0.78866232870E+01  0.51100000000E-03 0. -1.
        -11    1    3    3    0    0 -0.54678480789E+00 -0.46039420745E+01  0.28442907889E+01  0.54392321705E+01  0.51100000000E-03 0.  1.
        -12    1    3    3    0    0 -0.35493881851E+02  0.81013275590E+01  0.76558697463E+01  0.37202950134E+02  0.00000000000E+00 0.  1.
</event>
<event>
 7    1  0.4971907E-013  0.5052886E+02  0.7816164E-02  0.1300439E+00
        -11   -1    0    0    0    0  0.00000000000E+00  0.00000000000E+00  0.45593999997E+02  0.45594000000E+02  0.51100000000E-03 0.  1.
         11   -1    0    0    0    0 -0.00000000000E+00 -0.00000000000E+00 -0.45593999997E+02  0.45594000000E+02  0.51100000000E-03 0. -1.
    9900012    2    1    2    0    0 -0.14949274249E+02  0.27724318847E+02  0.25710837255E+02  0.50528858243E+02  0.29999995116E+02 0.  0.
         12    1    1    2    0    0  0.14949274249E+02 -0.27724318847E+02 -0.25710837255E+02  0.40659141757E+02  0.00000000000E+00 0. -1.
         11    1    3    3    0    0  0.31596486199E+01  0.13916841269E+02  0.71778162333E+01  0.15974445106E+02  0.51100000000E-03 0. -1.
        -11    1    3    3    0    0 -0.43598379268E+01  0.67419266868E+01 -0.25386762062E+01  0.84206080148E+01  0.51100000000E-03 0.  1.
        -12    1    3    3    0    0 -0.13749084942E+02  0.70655508909E+01  0.21071697227E+02  0.26133805122E+02  0.00000000000E+00 0.  1.
</event>
<event>
 7    1  0.4971907E-013  0.5052886E+02  0.7816164E-02  0.1300439E+00
        -11   -1    0    0    0    0  0.00000000000E+00  0.00000000000E+00  0.45593999997E+02  0.45594000000E+02  0.51100000000E-03 0.  1.
         11   -1    0    0    0    0 -0.00000000000E+00 -0.00000000000E+00 -0.45593999997E+02  0.45594000000E+02  0.51100000000E-03 0. -1.
    9900012    2    1    2    0    0  0.35907398369E+01 -0.37873682726E+02  0.14347683838E+02  0.50528864651E+02  0.30000014594E+02 0.  0.
         12    1    1    2    0    0 -0.35907398369E+01  0.37873682726E+02 -0.14347683838E+02  0.40659135349E+02  0.00000000000E+00 0. -1.
         11    1    3    3    0    0  0.30823415331E+01 -0.11830238466E+00  0.49194104721E+01  0.58064984659E+01  0.51100000000E-03 0.  1.
        -11    1    3    3    0    0  0.11087257653E+02 -0.18194205233E+02  0.26301175911E+01  0.21467973941E+02  0.51100000000E-03 0. -1.
         12    1    3    3    0    0 -0.10578859349E+02 -0.19561175108E+02  0.67981557743E+01  0.23254392245E+02  0.00000000000E+00 0. -1.
</event>
<event>
 7    1  0.4971907E-013  0.5052886E+02  0.7816164E-02  0.1300439E+00
        -11   -1    0    0    0    0  0.00000000000E+00  0.00000000000E+00  0.45593999997E+02  0.45594000000E+02  0.51100000000E-03 0.  1.
         11   -1    0    0    0    0 -0.00000000000E+00 -0.00000000000E+00 -0.45593999997E+02  0.45594000000E+02  0.51100000000E-03 0. -1.
    9900012    2    1    2    0    0 -0.19249121965E+02  0.35064346244E+02  0.72889330627E+01  0.50528860570E+02  0.30000002189E+02 0.  0.
         12    1    1    2    0    0  0.19249121965E+02 -0.35064346244E+02 -0.72889330627E+01  0.40659139430E+02  0.00000000000E+00 0. -1.
         11    1    3    3    0    0 -0.42862757898E+01  0.63026810786E+01  0.11191328983E+02  0.13540376420E+02  0.51100000000E-03 0. -1.
        -11    1    3    3    0    0 -0.68909752995E+01  0.65347037254E+00 -0.34655734538E+01  0.77409795072E+01  0.51100000000E-03 0.  1.
        -12    1    3    3    0    0 -0.80718708762E+01  0.28108194793E+02 -0.43682246636E+00  0.29247504643E+02  0.00000000000E+00 0.  1.
</event>
<event>
 7    1  0.4971907E-013  0.5052884E+02  0.7816164E-02  0.1300439E+00
        -11   -1    0    0    0    0  0.00000000000E+00  0.00000000000E+00  0.45593999997E+02  0.45594000000E+02  0.51100000000E-03 0. -1.
         11   -1    0    0    0    0 -0.00000000000E+00 -0.00000000000E+00 -0.45593999997E+02  0.45594000000E+02  0.51100000000E-03 0.  1.
    9900012    2    1    2    0    0 -0.92793936098E+01  0.98748550487E+01 -0.38334672997E+02  0.50528842830E+02  0.29999948266E+02 0.  0.
         12    1    1    2    0    0  0.92793936098E+01 -0.98748550487E+01  0.38334672997E+02  0.40659157170E+02  0.00000000000E+00 0. -1.
         11    1    3    3    0    0 -0.50401152922E+01 -0.24722094830E+01 -0.69853431612E+01  0.89615624322E+01  0.51100000000E-03 0. -1.
        -11    1    3    3    0    0 -0.38626454644E+01 -0.69274501169E+01 -0.76799666395E+01  0.11040447588E+02  0.51100000000E-03 0.  1.
        -12    1    3    3    0    0 -0.37663285324E+00  0.19274514649E+02 -0.23669363196E+02  0.30526832809E+02  0.00000000000E+00 0.  1.
</event>
<event>
 7    1  0.4971907E-013  0.5052886E+02  0.7816164E-02  0.1300439E+00
        -11   -1    0    0    0    0  0.00000000000E+00  0.00000000000E+00  0.45593999997E+02  0.45594000000E+02  0.51100000000E-03 0. -1.
         11   -1    0    0    0    0 -0.00000000000E+00 -0.00000000000E+00 -0.45593999997E+02  0.45594000000E+02  0.51100000000E-03 0.  1.
    9900012    2    1    2    0    0 -0.35982662829E+02 -0.17592412656E+02  0.69943476674E+01  0.50528857035E+02  0.29999991444E+02 0.  0.
         12    1    1    2    0    0  0.35982662829E+02  0.17592412656E+02 -0.69943476674E+01  0.40659142965E+02  0.00000000000E+00 0. -1.
         11    1    3    3    0    0 -0.14895002578E+02  0.16979239603E-01  0.96079155033E+01  0.17724938101E+02  0.51100000000E-03 0. -1.
        -11    1    3    3    0    0 -0.14248498729E+02 -0.16687603931E+01  0.28332809834E+01  0.14622994176E+02  0.51100000000E-03 0.  1.
        -12    1    3    3    0    0 -0.68391615225E+01 -0.15940631502E+02 -0.54468488192E+01  0.18180924759E+02  0.00000000000E+00 0.  1.
</event>
<event>
 7    1  0.4971907E-013  0.5052885E+02  0.7816164E-02  0.1300439E+00
        -11   -1    0    0    0    0  0.00000000000E+00  0.00000000000E+00  0.45593999997E+02  0.45594000000E+02  0.51100000000E-03 0. -1.
         11   -1    0    0    0    0 -0.00000000000E+00 -0.00000000000E+00 -0.45593999997E+02  0.45594000000E+02  0.51100000000E-03 0.  1.
    9900012    2    1    2    0    0  0.14238204783E+02  0.37956564180E+02 -0.31208212036E+01  0.50528846482E+02  0.29999959368E+02 0.  0.
         12    1    1    2    0    0 -0.14238204783E+02 -0.37956564180E+02  0.31208212036E+01  0.40659153518E+02  0.00000000000E+00 0. -1.
         11    1    3    3    0    0  0.14301501994E+02  0.19981446899E+02 -0.21128994335E+01  0.24662836895E+02  0.51100000000E-03 0. -1.
        -11    1    3    3    0    0  0.17914248919E+01  0.72918979776E+01 -0.94887249682E+01  0.12100284337E+02  0.51100000000E-03 0.  1.
         12    1    3    3    0    0 -0.18547221027E+01  0.10683219303E+02  0.84808031982E+01  0.13765725250E+02  0.00000000000E+00 0. -1.
</event>
<event>
 7    1  0.4971907E-013  0.5052887E+02  0.7816164E-02  0.1300439E+00
        -11   -1    0    0    0    0  0.00000000000E+00  0.00000000000E+00  0.45593999997E+02  0.45594000000E+02  0.51100000000E-03 0.  1.
         11   -1    0    0    0    0 -0.00000000000E+00 -0.00000000000E+00 -0.45593999997E+02  0.45594000000E+02  0.51100000000E-03 0. -1.
    9900012    2    1    2    0    0  0.23642024528E+02  0.32972970407E+02  0.26462704162E+01  0.50528870049E+02  0.30000031000E+02 0.  0.
         12    1    1    2    0    0 -0.23642024528E+02 -0.32972970407E+02 -0.26462704162E+01  0.40659129951E+02  0.00000000000E+00 0. -1.
         11    1    3    3    0    0  0.89373164347E+01  0.17201832770E+02  0.10352075537E+02  0.21975990169E+02  0.51100000000E-03 0. -1.
        -11    1    3    3    0    0  0.11882123239E+02  0.32174329414E+01  0.19528980434E+01  0.12463969610E+02  0.51100000000E-03 0.  1.
        -12    1    3    3    0    0  0.28225848543E+01  0.12553704696E+02 -0.96587031644E+01  0.16088910270E+02  0.00000000000E+00 0.  1.
</event>
<event>
 7    1  0.4971907E-013  0.5052887E+02  0.7816164E-02  0.1300439E+00
        -11   -1    0    0    0    0  0.00000000000E+00  0.00000000000E+00  0.45593999997E+02  0.45594000000E+02  0.51100000000E-03 0. -1.
         11   -1    0    0    0    0 -0.00000000000E+00 -0.00000000000E+00 -0.45593999997E+02  0.45594000000E+02  0.51100000000E-03 0.  1.
    9900012    2    1    2    0    0  0.24556952924E+00  0.32826645433E+02 -0.23989905941E+02  0.50528873819E+02  0.30000042460E+02 0.  0.
         12    1    1    2    0    0 -0.24556952924E+00 -0.32826645433E+02  0.23989905941E+02  0.40659126181E+02  0.00000000000E+00 0. -1.
         11    1    3    3    0    0 -0.14750456297E+01 -0.46065075172E+00 -0.10333581506E+01  0.18589750007E+01  0.51100000000E-03 0. -1.
        -11    1    3    3    0    0 -0.60642919322E+01  0.33799263929E+02 -0.14829713584E+02  0.37404361832E+02  0.51100000000E-03 0.  1.
        -12    1    3    3    0    0  0.77849070911E+01 -0.51196774451E+00 -0.81268342060E+01  0.11265536987E+02  0.00000000000E+00 0.  1.
</event>
<event>
 7    1  0.4971907E-013  0.5052886E+02  0.7816164E-02  0.1300439E+00
        -11   -1    0    0    0    0  0.00000000000E+00  0.00000000000E+00  0.45593999997E+02  0.45594000000E+02  0.51100000000E-03 0. -1.
         11   -1    0    0    0    0 -0.00000000000E+00 -0.00000000000E+00 -0.45593999997E+02  0.45594000000E+02  0.51100000000E-03 0.  1.
    9900012    2    1    2    0    0  0.36363828348E+02  0.17541065339E+02 -0.48113088395E+01  0.50528859846E+02  0.29999999988E+02 0.  0.
         12    1    1    2    0    0 -0.36363828348E+02 -0.17541065339E+02  0.48113088395E+01  0.40659140154E+02  0.00000000000E+00 0. -1.
         11    1    3    3    0    0  0.10309583247E+02 -0.49700351454E+01 -0.21447616509E+01  0.11644258623E+02  0.51100000000E-03 0. -1.
        -11    1    3    3    0    0  0.18648241592E+02  0.66046422441E+01  0.38742135521E+01  0.20159061103E+02  0.51100000000E-03 0.  1.
         12    1    3    3    0    0  0.74060035082E+01  0.15906458240E+02 -0.65407607408E+01  0.18725540120E+02  0.00000000000E+00 0. -1.
</event>
<event>
 7    1  0.4971907E-013  0.5052887E+02  0.7816164E-02  0.1300439E+00
        -11   -1    0    0    0    0  0.00000000000E+00  0.00000000000E+00  0.45593999997E+02  0.45594000000E+02  0.51100000000E-03 0.  1.
         11   -1    0    0    0    0 -0.00000000000E+00 -0.00000000000E+00 -0.45593999997E+02  0.45594000000E+02  0.51100000000E-03 0. -1.
    9900012    2    1    2    0    0  0.15805945247E+02  0.29275754393E+02 -0.23372361856E+02  0.50528868194E+02  0.30000025364E+02 0.  0.
         12    1    1    2    0    0 -0.15805945247E+02 -0.29275754393E+02  0.23372361856E+02  0.40659131806E+02  0.00000000000E+00 0. -1.
         11    1    3    3    0    0  0.62266633491E+01  0.15155926645E+02 -0.11171069397E+02  0.19830941498E+02  0.51100000000E-03 0.  1.
        -11    1    3    3    0    0  0.28561817024E+00 -0.37540372207E+01 -0.96908161184E+01  0.10396455670E+02  0.51100000000E-03 0. -1.
         12    1    3    3    0    0  0.92936637280E+01  0.17873864969E+02 -0.25104763401E+01  0.20301471027E+02  0.00000000000E+00 0. -1.
</event>
<event>
 7    1  0.4971907E-013  0.5052885E+02  0.7816164E-02  0.1300439E+00
        -11   -1    0    0    0    0  0.00000000000E+00  0.00000000000E+00  0.45593999997E+02  0.45594000000E+02  0.51100000000E-03 0.  1.
         11   -1    0    0    0    0 -0.00000000000E+00 -0.00000000000E+00 -0.45593999997E+02  0.45594000000E+02  0.51100000000E-03 0. -1.
    9900012    2    1    2    0    0  0.24744473127E+02 -0.15381695106E+02  0.28359850677E+02  0.50528848201E+02  0.29999964590E+02 0.  0.
         12    1    1    2    0    0 -0.24744473127E+02  0.15381695106E+02 -0.28359850677E+02  0.40659151799E+02  0.00000000000E+00 0. -1.
         11    1    3    3    0    0  0.78543200857E+00 -0.92055728196E+01  0.31445001703E+01  0.97594751887E+01  0.51100000000E-03 0. -1.
        -11    1    3    3    0    0  0.16592346091E+02 -0.10972133071E+02  0.25036967514E+02  0.31977232455E+02  0.51100000000E-03 0.  1.
        -12    1    3    3    0    0  0.73666950271E+01  0.47960107854E+01  0.17838299263E+00  0.87921405566E+01  0.00000000000E+00 0.  1.
</event>
<event>
 7    1  0.4971907E-013  0.5052890E+02  0.7816164E-02  0.1300439E+00
        -11   -1    0    0    0    0  0.00000000000E+00  0.00000000000E+00  0.45593999997E+02  0.45594000000E+02  0.51100000000E-03 0.  1.
         11   -1    0    0    0    0 -0.00000000000E+00 -0.00000000000E+00 -0.45593999997E+02  0.45594000000E+02  0.51100000000E-03 0. -1.
    9900012    2    1    2    0    0 -0.26079825105E+02 -0.54765207697E+00  0.31188218723E+02  0.50528902772E+02  0.30000130465E+02 0.  0.
         12    1    1    2    0    0  0.26079825105E+02  0.54765207697E+00 -0.31188218723E+02  0.40659097228E+02  0.00000000000E+00 0. -1.
         11    1    3    3    0    0 -0.90724587464E+01 -0.60874210346E+01  0.27927532034E+01  0.11276775837E+02  0.51100000000E-03 0. -1.
        -11    1    3    3    0    0 -0.10116486833E+02 -0.55055776715E+01  0.21806088005E+02  0.24660903586E+02  0.51100000000E-03 0.  1.
         12    1    3    3    0    0 -0.68908795253E+01  0.11045346629E+02  0.65893775149E+01  0.14591223349E+02  0.00000000000E+00 0. -1.
</event>
<event>
 7    1  0.4971907E-013  0.5052886E+02  0.7816164E-02  0.1300439E+00
        -11   -1    0    0    0    0  0.00000000000E+00  0.00000000000E+00  0.45593999997E+02  0.45594000000E+02  0.51100000000E-03 0.  1.
         11   -1    0    0    0    0 -0.00000000000E+00 -0.00000000000E+00 -0.45593999997E+02  0.45594000000E+02  0.51100000000E-03 0. -1.
    9900012    2    1    2    0    0  0.14385590184E+02 -0.35447822640E+01  0.37863634125E+02  0.50528862338E+02  0.30000007563E+02 0.  0.
         12    1    1    2    0    0 -0.14385590184E+02  0.35447822640E+01 -0.37863634125E+02  0.40659137662E+02  0.00000000000E+00 0. -1.
         11    1    3    3    0    0 -0.25013144189E+01  0.28153524751E+01  0.42330082547E+01  0.56657870174E+01  0.51100000000E-03 0. -1.
        -11    1    3    3    0    0 -0.31085936019E+01  0.55838547655E+01  0.77507266737E+01  0.10045723093E+02  0.51100000000E-03 0.  1.
         12    1    3    3    0    0  0.19995498204E+02 -0.11943989505E+02  0.25879899197E+02  0.34817352228E+02  0.00000000000E+00 0. -1.
</event>
<event>
 7    1  0.4971907E-013  0.5052886E+02  0.7816164E-02  0.1300439E+00
        -11   -1    0    0    0    0  0.00000000000E+00  0.00000000000E+00  0.45593999997E+02  0.45594000000E+02  0.51100000000E-03 0.  1.
         11   -1    0    0    0    0 -0.00000000000E+00 -0.00000000000E+00 -0.45593999997E+02  0.45594000000E+02  0.51100000000E-03 0. -1.
    9900012    2    1    2    0    0  0.30864704121E+02 -0.15694584550E+02  0.21312340477E+02  0.50528858331E+02  0.29999995382E+02 0.  0.
         12    1    1    2    0    0 -0.30864704121E+02  0.15694584550E+02 -0.21312340477E+02  0.40659141669E+02  0.00000000000E+00 0. -1.
         11    1    3    3    0    0  0.12393559760E+02 -0.10389143043E+01  0.80156137928E+00  0.12462831434E+02  0.51100000000E-03 0. -1.
        -11    1    3    3    0    0  0.11603379555E+02  0.41202068540E+00 -0.12051095934E+00  0.11611317810E+02  0.51100000000E-03 0.  1.
        -12    1    3    3    0    0  0.68677648068E+01 -0.15067690931E+02  0.20631290057E+02  0.26454709087E+02  0.00000000000E+00 0.  1.
</event>
<event>
 7    1  0.4971907E-013  0.5052886E+02  0.7816164E-02  0.1300439E+00
        -11   -1    0    0    0    0  0.00000000000E+00  0.00000000000E+00  0.45593999997E+02  0.45594000000E+02  0.51100000000E-03 0.  1.
         11   -1    0    0    0    0 -0.00000000000E+00 -0.00000000000E+00 -0.45593999997E+02  0.45594000000E+02  0.51100000000E-03 0. -1.
    9900012    2    1    2    0    0  0.20523088399E+02  0.16965464564E+02  0.30726882401E+02  0.50528862683E+02  0.30000008611E+02 0.  0.
         12    1    1    2    0    0 -0.20523088399E+02 -0.16965464564E+02 -0.30726882401E+02  0.40659137317E+02  0.00000000000E+00 0. -1.
         11    1    3    3    0    0  0.10724890825E+01 -0.33436359786E+01 -0.10299377598E+01  0.36593587471E+01  0.51100000000E-03 0. -1.
        -11    1    3    3    0    0  0.55164790172E+01  0.16701616437E+01  0.19966058772E+02  0.20781349423E+02  0.51100000000E-03 0.  1.
        -12    1    3    3    0    0  0.13934120299E+02  0.18638938899E+02  0.11790761388E+02  0.26088154513E+02  0.00000000000E+00 0.  1.
</event>
<event>
 7    1  0.4971907E-013  0.5052888E+02  0.7816164E-02  0.1300439E+00
        -11   -1    0    0    0    0  0.00000000000E+00  0.00000000000E+00  0.45593999997E+02  0.45594000000E+02  0.51100000000E-03 0.  1.
         11   -1    0    0    0    0 -0.00000000000E+00 -0.00000000000E+00 -0.45593999997E+02  0.45594000000E+02  0.51100000000E-03 0. -1.
    9900012    2    1    2    0    0  0.33889861504E+02  0.17323517212E+02 -0.14301633876E+02  0.50528884258E+02  0.30000074191E+02 0.  0.
         12    1    1    2    0    0 -0.33889861504E+02 -0.17323517212E+02  0.14301633876E+02  0.40659115742E+02  0.00000000000E+00 0. -1.
         11    1    3    3    0    0  0.37799804819E+01 -0.32244994218E+01 -0.49853705195E+01  0.70384350848E+01  0.51100000000E-03 0. -1.
        -11    1    3    3    0    0  0.32594327087E+02  0.15010803927E+02 -0.54544036648E+01  0.36296899488E+02  0.51100000000E-03 0.  1.
         12    1    3    3    0    0 -0.24844460646E+01  0.55372127061E+01 -0.38618596921E+01  0.71935496858E+01  0.00000000000E+00 0. -1.
</event>
<event>
 7    1  0.4971907E-013  0.5052886E+02  0.7816164E-02  0.1300439E+00
        -11   -1    0    0    0    0  0.00000000000E+00  0.00000000000E+00  0.45593999997E+02  0.45594000000E+02  0.51100000000E-03 0. -1.
         11   -1    0    0    0    0 -0.00000000000E+00 -0.00000000000E+00 -0.45593999997E+02  0.45594000000E+02  0.51100000000E-03 0.  1.
    9900012    2    1    2    0    0 -0.20151047752E+02 -0.23541203082E+02  0.26323241336E+02  0.50528855856E+02  0.29999987860E+02 0.  0.
         12    1    1    2    0    0  0.20151047752E+02  0.23541203082E+02 -0.26323241336E+02  0.40659144144E+02  0.00000000000E+00 0. -1.
         11    1    3    3    0    0 -0.18329913344E+02 -0.21292840117E+02  0.18214019632E+02  0.33483149118E+02  0.51100000000E-03 0.  1.
        -11    1    3    3    0    0  0.14197245932E+01 -0.79973051024E+01  0.60648257537E+01  0.10136795278E+02  0.51100000000E-03 0. -1.
        -12    1    3    3    0    0 -0.32408590011E+01  0.57489421370E+01  0.20443959501E+01  0.69089114598E+01  0.00000000000E+00 0.  1.
</event>
<event>
 7    1  0.4971907E-013  0.5052887E+02  0.7816164E-02  0.1300439E+00
        -11   -1    0    0    0    0  0.00000000000E+00  0.00000000000E+00  0.45593999997E+02  0.45594000000E+02  0.51100000000E-03 0.  1.
         11   -1    0    0    0    0 -0.00000000000E+00 -0.00000000000E+00 -0.45593999997E+02  0.45594000000E+02  0.51100000000E-03 0. -1.
    9900012    2    1    2    0    0  0.14692541849E+02 -0.26895308283E+02  0.26719594945E+02  0.50528866369E+02  0.30000019816E+02 0.  0.
         12    1    1    2    0    0 -0.14692541849E+02  0.26895308283E+02 -0.26719594945E+02  0.40659133631E+02  0.00000000000E+00 0. -1.
         11    1    3    3    0    0 -0.27029529537E+01 -0.68970808882E-01  0.61282208133E+01  0.66981939536E+01  0.51100000000E-03 0. -1.
        -11    1    3    3    0    0  0.92958589007E+01 -0.17693398333E+02  0.10956179367E+00  0.19987029327E+02  0.51100000000E-03 0.  1.
         12    1    3    3    0    0  0.80996359019E+01 -0.91329391408E+01  0.20481812338E+02  0.23843643089E+02  0.00000000000E+00 0. -1.
</event>
<event>
 7    1  0.4971907E-013  0.5052886E+02  0.7816164E-02  0.1300439E+00
        -11   -1    0    0    0    0  0.00000000000E+00  0.00000000000E+00  0.45593999997E+02  0.45594000000E+02  0.51100000000E-03 0.  1.
         11   -1    0    0    0    0 -0.00000000000E+00 -0.00000000000E+00 -0.45593999997E+02  0.45594000000E+02  0.51100000000E-03 0. -1.
    9900012    2    1    2    0    0 -0.15056844830E+02  0.37526563809E+02  0.42677925241E+01  0.50528860553E+02  0.30000002136E+02 0.  0.
         12    1    1    2    0    0  0.15056844830E+02 -0.37526563809E+02 -0.42677925241E+01  0.40659139447E+02  0.00000000000E+00 0. -1.
         11    1    3    3    0    0 -0.10682197740E+01 -0.18225562434E+01  0.58955481758E+01  0.62626107415E+01  0.51100000000E-03 0. -1.
        -11    1    3    3    0    0 -0.91304082530E+01  0.88089220856E+01  0.28947372060E+01  0.13013107505E+02  0.51100000000E-03 0.  1.
        -12    1    3    3    0    0 -0.48582168028E+01  0.30540197967E+02 -0.45224928577E+01  0.31253142306E+02  0.00000000000E+00 0.  1.
</event>
<event>
 7    1  0.4971907E-013  0.5052873E+02  0.7816164E-02  0.1300439E+00
        -11   -1    0    0    0    0  0.00000000000E+00  0.00000000000E+00  0.45593999997E+02  0.45594000000E+02  0.51100000000E-03 0.  1.
         11   -1    0    0    0    0 -0.00000000000E+00 -0.00000000000E+00 -0.45593999997E+02  0.45594000000E+02  0.51100000000E-03 0. -1.
    9900012    2    1    2    0    0  0.63328915962E+01  0.24309515590E+02  0.31970585952E+02  0.50528727622E+02  0.29999598078E+02 0.  0.
         12    1    1    2    0    0 -0.63328915962E+01 -0.24309515590E+02 -0.31970585952E+02  0.40659272378E+02  0.00000000000E+00 0. -1.
         11    1    3    3    0    0 -0.12325936759E-01  0.15649062361E+01  0.15708108592E+02  0.15785872141E+02  0.51100000000E-03 0. -1.
        -11    1    3    3    0    0 -0.17795493031E+01  0.19628079206E+02  0.16975837193E+02  0.26011676949E+02  0.51100000000E-03 0.  1.
         12    1    3    3    0    0  0.81247668361E+01  0.31165301478E+01 -0.71335983326E+00  0.87311785318E+01  0.00000000000E+00 0. -1.
</event>
<event>
 7    1  0.4971907E-013  0.5052885E+02  0.7816164E-02  0.1300439E+00
        -11   -1    0    0    0    0  0.00000000000E+00  0.00000000000E+00  0.45593999997E+02  0.45594000000E+02  0.51100000000E-03 0.  1.
         11   -1    0    0    0    0 -0.00000000000E+00 -0.00000000000E+00 -0.45593999997E+02  0.45594000000E+02  0.51100000000E-03 0. -1.
    9900012    2    1    2    0    0 -0.18934398254E+01  0.18067659743E+02  0.36375003612E+02  0.50528851820E+02  0.29999975592E+02 0.  0.
         12    1    1    2    0    0  0.18934398254E+01 -0.18067659743E+02 -0.36375003612E+02  0.40659148180E+02  0.00000000000E+00 0. -1.
         11    1    3    3    0    0  0.40292432141E+01  0.77630383423E+01 -0.14407133418E+00  0.87475894961E+01  0.51100000000E-03 0. -1.
        -11    1    3    3    0    0  0.20644687192E+00  0.58510871054E+01  0.16276634336E+01  0.60767696303E+01  0.51100000000E-03 0.  1.
        -12    1    3    3    0    0 -0.61291299114E+01  0.44535342955E+01  0.34891411512E+02  0.35704492694E+02  0.00000000000E+00 0.  1.
</event>
<event>
 7    1  0.4971907E-013  0.5052885E+02  0.7816164E-02  0.1300439E+00
        -11   -1    0    0    0    0  0.00000000000E+00  0.00000000000E+00  0.45593999997E+02  0.45594000000E+02  0.51100000000E-03 0.  1.
         11   -1    0    0    0    0 -0.00000000000E+00 -0.00000000000E+00 -0.45593999997E+02  0.45594000000E+02  0.51100000000E-03 0. -1.
    9900012    2    1    2    0    0  0.21596895560E+02 -0.34319458621E+02 -0.29858618141E+01  0.50528849632E+02  0.29999968941E+02 0.  0.
         12    1    1    2    0    0 -0.21596895560E+02  0.34319458621E+02  0.29858618141E+01  0.40659150368E+02  0.00000000000E+00 0. -1.
         11    1    3    3    0    0  0.15919679510E+01 -0.15664188991E+02  0.79855268221E+01  0.17654172809E+02  0.51100000000E-03 0. -1.
        -11    1    3    3    0    0  0.10484653151E+02 -0.18566919840E+02 -0.60889692739E+01  0.22175076350E+02  0.51100000000E-03 0.  1.
        -12    1    3    3    0    0  0.95202744580E+01 -0.88349790218E-01 -0.48824193623E+01  0.10699600472E+02  0.00000000000E+00 0.  1.
</event>
<event>
 7    1  0.4971907E-013  0.5052883E+02  0.7816164E-02  0.1300439E+00
        -11   -1    0    0    0    0  0.00000000000E+00  0.00000000000E+00  0.45593999997E+02  0.45594000000E+02  0.51100000000E-03 0. -1.
         11   -1    0    0    0    0 -0.00000000000E+00 -0.00000000000E+00 -0.45593999997E+02  0.45594000000E+02  0.51100000000E-03 0.  1.
    9900012    2    1    2    0    0  0.38096525116E+00  0.35041480999E+02 -0.20618386080E+02  0.50528826746E+02  0.29999899378E+02 0.  0.
         12    1    1    2    0    0 -0.38096525116E+00 -0.35041480999E+02  0.20618386080E+02  0.40659173254E+02  0.00000000000E+00 0. -1.
         11    1    3    3    0    0  0.47603070999E+01  0.11391837964E+02 -0.14170640349E+02  0.18794721175E+02  0.51100000000E-03 0. -1.
        -11    1    3    3    0    0  0.58484126784E+01  0.51265236825E+01 -0.71482731952E+01  0.10563284804E+02  0.51100000000E-03 0.  1.
         12    1    3    3    0    0 -0.10227754527E+02  0.18523119353E+02  0.70052746437E+00  0.21170820767E+02  0.00000000000E+00 0. -1.
</event>
<event>
 7    1  0.4971907E-013  0.5052886E+02  0.7816164E-02  0.1300439E+00
        -11   -1    0    0    0    0  0.00000000000E+00  0.00000000000E+00  0.45593999997E+02  0.45594000000E+02  0.51100000000E-03 0.  1.
         11   -1    0    0    0    0 -0.00000000000E+00 -0.00000000000E+00 -0.45593999997E+02  0.45594000000E+02  0.51100000000E-03 0. -1.
    9900012    2    1    2    0    0 -0.22443042719E+02 -0.33766069433E+02 -0.30542369943E+01  0.50528856194E+02  0.29999988888E+02 0.  0.
         12    1    1    2    0    0  0.22443042719E+02  0.33766069433E+02  0.30542369943E+01  0.40659143806E+02  0.00000000000E+00 0. -1.
         11    1    3    3    0    0 -0.16305949720E+02 -0.22912566038E+02 -0.32046516991E+01  0.28304407280E+02  0.51100000000E-03 0. -1.
        -11    1    3    3    0    0 -0.62454131250E+01 -0.15865472096E+02  0.12356801767E+01  0.17095183406E+02  0.51100000000E-03 0.  1.
         12    1    3    3    0    0  0.10832012597E+00  0.50119687010E+01 -0.10852654719E+01  0.51292655082E+01  0.00000000000E+00 0. -1.
</event>
<event>
 7    1  0.4971907E-013  0.5052886E+02  0.7816164E-02  0.1300439E+00
        -11   -1    0    0    0    0  0.00000000000E+00  0.00000000000E+00  0.45593999997E+02  0.45594000000E+02  0.51100000000E-03 0. -1.
         11   -1    0    0    0    0 -0.00000000000E+00 -0.00000000000E+00 -0.45593999997E+02  0.45594000000E+02  0.51100000000E-03 0.  1.
    9900012    2    1    2    0    0 -0.53015739512E+01 -0.30834462866E+02 -0.25967195741E+02  0.50528855380E+02  0.29999986414E+02 0.  0.
         12    1    1    2    0    0  0.53015739512E+01  0.30834462866E+02  0.25967195741E+02  0.40659144620E+02  0.00000000000E+00 0. -1.
         11    1    3    3    0    0  0.70696942546E+01 -0.14612077975E+02 -0.18746189351E+02  0.24797439687E+02  0.51100000000E-03 0. -1.
        -11    1    3    3    0    0 -0.41269030275E+01 -0.15553711355E+02 -0.67387936200E+01  0.17445933773E+02  0.51100000000E-03 0.  1.
         12    1    3    3    0    0 -0.82443651783E+01 -0.66867353576E+00 -0.48221276996E+00  0.82854819199E+01  0.00000000000E+00 0. -1.
</event>
<event>
 7    1  0.4971907E-013  0.5052876E+02  0.7816164E-02  0.1300439E+00
        -11   -1    0    0    0    0  0.00000000000E+00  0.00000000000E+00  0.45593999997E+02  0.45594000000E+02  0.51100000000E-03 0. -1.
         11   -1    0    0    0    0 -0.00000000000E+00 -0.00000000000E+00 -0.45593999997E+02  0.45594000000E+02  0.51100000000E-03 0.  1.
    9900012    2    1    2    0    0  0.23767837046E+02  0.28817558493E+02 -0.16056531819E+02  0.50528757884E+02  0.29999690063E+02 0.  0.
         12    1    1    2    0    0 -0.23767837046E+02 -0.28817558493E+02  0.16056531819E+02  0.40659242116E+02  0.00000000000E+00 0. -1.
         11    1    3    3    0    0  0.10403975482E+02  0.37650339651E+01 -0.12613581569E+02  0.16778576424E+02  0.51100000000E-03 0.  1.
        -11    1    3    3    0    0  0.15954196914E+02  0.13595204537E+02 -0.58447093430E+01  0.21760666652E+02  0.51100000000E-03 0. -1.
         12    1    3    3    0    0 -0.25903353487E+01  0.11457319991E+02  0.24017590928E+01  0.11989514808E+02  0.00000000000E+00 0. -1.
</event>
<event>
 7    1  0.4971907E-013  0.5052886E+02  0.7816164E-02  0.1300439E+00
        -11   -1    0    0    0    0  0.00000000000E+00  0.00000000000E+00  0.45593999997E+02  0.45594000000E+02  0.51100000000E-03 0. -1.
         11   -1    0    0    0    0 -0.00000000000E+00 -0.00000000000E+00 -0.45593999997E+02  0.45594000000E+02  0.51100000000E-03 0.  1.
    9900012    2    1    2    0    0 -0.27320719412E+02  0.53603675714E+01 -0.29631243012E+02  0.50528858198E+02  0.29999994977E+02 0.  0.
         12    1    1    2    0    0  0.27320719412E+02 -0.53603675714E+01  0.29631243012E+02  0.40659141802E+02  0.00000000000E+00 0. -1.
         11    1    3    3    0    0 -0.22301671520E+02  0.60765009678E+01 -0.28643317369E+02  0.36806630473E+02  0.51100000000E-03 0.  1.
        -11    1    3    3    0    0 -0.88311589194E+01  0.19378779489E+01 -0.60646137109E+00  0.90615966838E+01  0.51100000000E-03 0. -1.
        -12    1    3    3    0    0  0.38121110276E+01 -0.26540113453E+01 -0.38146427161E+00  0.46606310407E+01  0.00000000000E+00 0.  1.
</event>
<event>
 7    1  0.5001559E-013  0.5052886E+02  0.7816164E-02  0.1300439E+00
        -11   -1    0    0    0    0  0.00000000000E+00  0.00000000000E+00  0.45593999997E+02  0.45594000000E+02  0.51100000000E-03 0. -1.
         11   -1    0    0    0    0 -0.00000000000E+00 -0.00000000000E+00 -0.45593999997E+02  0.45594000000E+02  0.51100000000E-03 0.  1.
    9900012    2    1    2    0    0  0.42481767305E+01  0.26094426376E+02 -0.30890119239E+02  0.50528861298E+02  0.30000004400E+02 0.  0.
         12    1    1    2    0    0 -0.42481767305E+01 -0.26094426376E+02  0.30890119239E+02  0.40659138702E+02  0.00000000000E+00 0. -1.
         11    1    3    3    0    0 -0.38625581078E+01  0.41874837296E+00 -0.10119325238E+02  0.10839531764E+02  0.51100000000E-03 0. -1.
        -11    1    3    3    0    0 -0.66304049724E+01  0.11422649173E+02 -0.66048008405E+01  0.14766942088E+02  0.51100000000E-03 0.  1.
        -12    1    3    3    0    0  0.14741139811E+02  0.14253028830E+02 -0.14165993160E+02  0.24922387445E+02  0.00000000000E+00 0.  1.
</event>
<event>
 7    1  0.4971907E-013  0.5052885E+02  0.7816164E-02  0.1300439E+00
        -11   -1    0    0    0    0  0.00000000000E+00  0.00000000000E+00  0.45593999997E+02  0.45594000000E+02  0.51100000000E-03 0.  1.
         11   -1    0    0    0    0 -0.00000000000E+00 -0.00000000000E+00 -0.45593999997E+02  0.45594000000E+02  0.51100000000E-03 0. -1.
    9900012    2    1    2    0    0 -0.27646803473E+02 -0.16442945909E+02  0.24868653922E+02  0.50528853915E+02  0.29999981961E+02 0.  0.
         12    1    1    2    0    0  0.27646803473E+02  0.16442945909E+02 -0.24868653922E+02  0.40659146085E+02  0.00000000000E+00 0. -1.
         11    1    3    3    0    0 -0.10449016908E+02  0.31162329296E+01  0.18444568917E+02  0.21426501926E+02  0.51100000000E-03 0. -1.
        -11    1    3    3    0    0 -0.10453959525E+02 -0.15032996686E+02  0.92352292388E+01  0.20507699005E+02  0.51100000000E-03 0.  1.
        -12    1    3    3    0    0 -0.67438270400E+01 -0.45261821525E+01 -0.28111442331E+01  0.85946529844E+01  0.00000000000E+00 0.  1.
</event>
<event>
 7    1  0.4971907E-013  0.5052887E+02  0.7816164E-02  0.1300439E+00
        -11   -1    0    0    0    0  0.00000000000E+00  0.00000000000E+00  0.45593999997E+02  0.45594000000E+02  0.51100000000E-03 0.  1.
         11   -1    0    0    0    0 -0.00000000000E+00 -0.00000000000E+00 -0.45593999997E+02  0.45594000000E+02  0.51100000000E-03 0. -1.
    9900012    2    1    2    0    0 -0.63979037823E+01 -0.24277427567E+02  0.31981837884E+02  0.50528872900E+02  0.30000039668E+02 0.  0.
         12    1    1    2    0    0  0.63979037823E+01  0.24277427567E+02 -0.31981837884E+02  0.40659127100E+02  0.00000000000E+00 0. -1.
         11    1    3    3    0    0 -0.11235652292E+01 -0.85915033178E+01  0.24601511797E+02  0.26082766553E+02  0.51100000000E-03 0. -1.
        -11    1    3    3    0    0 -0.28381358683E+01 -0.16151769493E+02  0.11223434752E+02  0.19872095030E+02  0.51100000000E-03 0.  1.
         12    1    3    3    0    0 -0.24362026848E+01  0.46584524461E+00 -0.38431086657E+01  0.45740113172E+01  0.00000000000E+00 0. -1.
</event>
<event>
 7    1  0.4971907E-013  0.5052886E+02  0.7816164E-02  0.1300439E+00
        -11   -1    0    0    0    0  0.00000000000E+00  0.00000000000E+00  0.45593999997E+02  0.45594000000E+02  0.51100000000E-03 0.  1.
         11   -1    0    0    0    0 -0.00000000000E+00 -0.00000000000E+00 -0.45593999997E+02  0.45594000000E+02  0.51100000000E-03 0. -1.
    9900012    2    1    2    0    0 -0.25210875962E+02 -0.31313751965E+02  0.60849393999E+01  0.50528858145E+02  0.29999994817E+02 0.  0.
         12    1    1    2    0    0  0.25210875962E+02  0.31313751965E+02 -0.60849393999E+01  0.40659141855E+02  0.00000000000E+00 0. -1.
         11    1    3    3    0    0  0.36017361428E+01 -0.81104201851E+01  0.27302940045E+01  0.92847145585E+01  0.51100000000E-03 0. -1.
        -11    1    3    3    0    0 -0.36708201548E+01 -0.30085719355E+01 -0.60154239972E+01  0.76623594164E+01  0.51100000000E-03 0.  1.
        -12    1    3    3    0    0 -0.25141791950E+02 -0.20194759845E+02  0.93700693925E+01  0.33581784170E+02  0.00000000000E+00 0.  1.
</event>
<event>
 7    1  0.4971907E-013  0.5052886E+02  0.7816164E-02  0.1300439E+00
        -11   -1    0    0    0    0  0.00000000000E+00  0.00000000000E+00  0.45593999997E+02  0.45594000000E+02  0.51100000000E-03 0.  1.
         11   -1    0    0    0    0 -0.00000000000E+00 -0.00000000000E+00 -0.45593999997E+02  0.45594000000E+02  0.51100000000E-03 0. -1.
    9900012    2    1    2    0    0  0.17270935798E+02  0.35730886522E+02 -0.88421719354E+01  0.50528862287E+02  0.30000007409E+02 0.  0.
         12    1    1    2    0    0 -0.17270935798E+02 -0.35730886522E+02  0.88421719354E+01  0.40659137713E+02  0.00000000000E+00 0. -1.
         11    1    3    3    0    0  0.17258783702E+01 -0.11269408608E+01  0.59673869444E+01  0.63133476902E+01  0.51100000000E-03 0. -1.
        -11    1    3    3    0    0  0.61606629160E+01  0.12869719441E+02  0.45192660817E+00  0.14275422374E+02  0.51100000000E-03 0.  1.
         12    1    3    3    0    0  0.93843945115E+01  0.23988107942E+02 -0.15261485488E+02  0.29940092223E+02  0.00000000000E+00 0. -1.
</event>
<event>
 7    1  0.4971907E-013  0.5052886E+02  0.7816164E-02  0.1300439E+00
        -11   -1    0    0    0    0  0.00000000000E+00  0.00000000000E+00  0.45593999997E+02  0.45594000000E+02  0.51100000000E-03 0.  1.
         11   -1    0    0    0    0 -0.00000000000E+00 -0.00000000000E+00 -0.45593999997E+02  0.45594000000E+02  0.51100000000E-03 0. -1.
    9900012    2    1    2    0    0  0.28447959677E+02  0.27784002574E+02  0.84810585214E+01  0.50528861268E+02  0.30000004310E+02 0.  0.
         12    1    1    2    0    0 -0.28447959677E+02 -0.27784002574E+02 -0.84810585214E+01  0.40659138732E+02  0.00000000000E+00 0. -1.
         11    1    3    3    0    0 -0.49249091954E+00  0.57201014537E+01  0.49959278038E+01  0.76106111994E+01  0.51100000000E-03 0. -1.
        -11    1    3    3    0    0  0.16012034593E+02  0.20592634221E+02 -0.60610158597E+01  0.26780174560E+02  0.51100000000E-03 0.  1.
         12    1    3    3    0    0  0.12928416003E+02  0.14712668990E+01  0.95461465773E+01  0.16138075508E+02  0.00000000000E+00 0. -1.
</event>
<event>
 7    1  0.4971907E-013  0.5052886E+02  0.7816164E-02  0.1300439E+00
        -11   -1    0    0    0    0  0.00000000000E+00  0.00000000000E+00  0.45593999997E+02  0.45594000000E+02  0.51100000000E-03 0.  1.
         11   -1    0    0    0    0 -0.00000000000E+00 -0.00000000000E+00 -0.45593999997E+02  0.45594000000E+02  0.51100000000E-03 0. -1.
    9900012    2    1    2    0    0  0.34287801039E+02 -0.21806753601E+02  0.14062459582E+01  0.50528864122E+02  0.30000012984E+02 0.  0.
         12    1    1    2    0    0 -0.34287801039E+02  0.21806753601E+02 -0.14062459582E+01  0.40659135878E+02  0.00000000000E+00 0. -1.
         11    1    3    3    0    0  0.79469266907E+01 -0.52699695466E+00 -0.13536076935E+01  0.80785904505E+01  0.51100000000E-03 0. -1.
        -11    1    3    3    0    0 -0.18815974624E+01 -0.62775995126E+01  0.76971359518E+01  0.10109132840E+02  0.51100000000E-03 0.  1.
        -12    1    3    3    0    0  0.28222471810E+02 -0.15002157134E+02 -0.49372823001E+01  0.32341140831E+02  0.00000000000E+00 0.  1.
</event>
<event>
 7    1  0.4971907E-013  0.5052886E+02  0.7816164E-02  0.1300439E+00
        -11   -1    0    0    0    0  0.00000000000E+00  0.00000000000E+00  0.45593999997E+02  0.45594000000E+02  0.51100000000E-03 0. -1.
         11   -1    0    0    0    0 -0.00000000000E+00 -0.00000000000E+00 -0.45593999997E+02  0.45594000000E+02  0.51100000000E-03 0.  1.
    9900012    2    1    2    0    0  0.29676108791E+02 -0.23166677471E+02  0.15355763830E+02  0.50528857598E+02  0.29999993156E+02 0.  0.
         12    1    1    2    0    0 -0.29676108791E+02  0.23166677471E+02 -0.15355763830E+02  0.40659142402E+02  0.00000000000E+00 0. -1.
         11    1    3    3    0    0  0.16118392779E+02 -0.12624653406E+02  0.22735266906E+01  0.20599839400E+02  0.51100000000E-03 0. -1.
        -11    1    3    3    0    0  0.13791975242E+02 -0.15597326652E+02  0.68880882929E+01  0.21930365714E+02  0.51100000000E-03 0.  1.
         12    1    3    3    0    0 -0.23425922970E+00  0.50553025874E+01  0.61941488462E+01  0.79986524844E+01  0.00000000000E+00 0. -1.
</event>
<event>
 7    1  0.4971907E-013  0.5052886E+02  0.7816164E-02  0.1300439E+00
        -11   -1    0    0    0    0  0.00000000000E+00  0.00000000000E+00  0.45593999997E+02  0.45594000000E+02  0.51100000000E-03 0.  1.
         11   -1    0    0    0    0 -0.00000000000E+00 -0.00000000000E+00 -0.45593999997E+02  0.45594000000E+02  0.51100000000E-03 0. -1.
    9900012    2    1    2    0    0  0.15451386872E+02 -0.24389113564E+02  0.28628505252E+02  0.50528861671E+02  0.30000005534E+02 0.  0.
         12    1    1    2    0    0 -0.15451386872E+02  0.24389113564E+02 -0.28628505252E+02  0.40659138329E+02  0.00000000000E+00 0. -1.
         11    1    3    3    0    0 -0.47229148645E+00 -0.33678697932E+01  0.20738938912E+01  0.39832954102E+01  0.51100000000E-03 0. -1.
        -11    1    3    3    0    0 -0.43535899679E+01 -0.16902096724E+02  0.13676037248E+02  0.22173601745E+02  0.51100000000E-03 0.  1.
        -12    1    3    3    0    0  0.20277268326E+02 -0.41191470472E+01  0.12878574113E+02  0.24371964515E+02  0.00000000000E+00 0.  1.
</event>
<event>
 7    1  0.4971907E-013  0.5052884E+02  0.7816164E-02  0.1300439E+00
        -11   -1    0    0    0    0  0.00000000000E+00  0.00000000000E+00  0.45593999997E+02  0.45594000000E+02  0.51100000000E-03 0.  1.
         11   -1    0    0    0    0 -0.00000000000E+00 -0.00000000000E+00 -0.45593999997E+02  0.45594000000E+02  0.51100000000E-03 0. -1.
    9900012    2    1    2    0    0 -0.18278100545E+02  0.19737381373E+02  0.30487934254E+02  0.50528839678E+02  0.29999938685E+02 0.  0.
         12    1    1    2    0    0  0.18278100545E+02 -0.19737381373E+02 -0.30487934254E+02  0.40659160322E+02  0.00000000000E+00 0. -1.
         11    1    3    3    0    0  0.28026632901E+01  0.72562506092E+01  0.98309675244E+01  0.12536188302E+02  0.51100000000E-03 0. -1.
        -11    1    3    3    0    0 -0.13963537006E+02  0.17057675309E+02  0.19539786021E+02  0.29457560840E+02  0.51100000000E-03 0.  1.
        -12    1    3    3    0    0 -0.71172268292E+01 -0.45765445448E+01  0.11171807086E+01  0.85350905352E+01  0.00000000000E+00 0.  1.
</event>
<event>
 7    1  0.4971907E-013  0.5052886E+02  0.7816164E-02  0.1300439E+00
        -11   -1    0    0    0    0  0.00000000000E+00  0.00000000000E+00  0.45593999997E+02  0.45594000000E+02  0.51100000000E-03 0. -1.
         11   -1    0    0    0    0 -0.00000000000E+00 -0.00000000000E+00 -0.45593999997E+02  0.45594000000E+02  0.51100000000E-03 0.  1.
    9900012    2    1    2    0    0 -0.22019530726E+02 -0.31343733483E+02 -0.13633638071E+02  0.50528862662E+02  0.30000008548E+02 0.  0.
         12    1    1    2    0    0  0.22019530726E+02  0.31343733483E+02  0.13633638071E+02  0.40659137338E+02  0.00000000000E+00 0. -1.
         11    1    3    3    0    0 -0.14753363742E+01 -0.24652884986E+01 -0.70233570820E+01  0.75882679026E+01  0.51100000000E-03 0. -1.
        -11    1    3    3    0    0 -0.23936309741E+02 -0.15904380694E+02 -0.67882059096E+01  0.29529239560E+02  0.51100000000E-03 0.  1.
         12    1    3    3    0    0  0.33921153889E+01 -0.12974064290E+02  0.17792492099E+00  0.13411355200E+02  0.00000000000E+00 0. -1.
</event>
<event>
 7    1  0.4971907E-013  0.5052886E+02  0.7816164E-02  0.1300439E+00
        -11   -1    0    0    0    0  0.00000000000E+00  0.00000000000E+00  0.45593999997E+02  0.45594000000E+02  0.51100000000E-03 0.  1.
         11   -1    0    0    0    0 -0.00000000000E+00 -0.00000000000E+00 -0.45593999997E+02  0.45594000000E+02  0.51100000000E-03 0. -1.
    9900012    2    1    2    0    0 -0.34973938777E+02 -0.20162802972E+02  0.48425886381E+01  0.50528859798E+02  0.29999999842E+02 0.  0.
         12    1    1    2    0    0  0.34973938777E+02  0.20162802972E+02 -0.48425886381E+01  0.40659140202E+02  0.00000000000E+00 0. -1.
         11    1    3    3    0    0 -0.10212123569E+02 -0.19045697599E+02 -0.38603569165E+01  0.21952868164E+02  0.51100000000E-03 0. -1.
        -11    1    3    3    0    0 -0.36028379603E+01 -0.43316711800E+01  0.31941791240E+01  0.64766192660E+01  0.51100000000E-03 0.  1.
         12    1    3    3    0    0 -0.21158977247E+02  0.32145658069E+01  0.55087664307E+01  0.22099372368E+02  0.00000000000E+00 0. -1.
</event>
<event>
 7    1  0.4971907E-013  0.5052886E+02  0.7816164E-02  0.1300439E+00
        -11   -1    0    0    0    0  0.00000000000E+00  0.00000000000E+00  0.45593999997E+02  0.45594000000E+02  0.51100000000E-03 0.  1.
         11   -1    0    0    0    0 -0.00000000000E+00 -0.00000000000E+00 -0.45593999997E+02  0.45594000000E+02  0.51100000000E-03 0. -1.
    9900012    2    1    2    0    0 -0.40243150789E+01  0.14980633167E+02  0.37583924827E+02  0.50528857273E+02  0.29999992166E+02 0.  0.
         12    1    1    2    0    0  0.40243150789E+01 -0.14980633167E+02 -0.37583924827E+02  0.40659142727E+02  0.00000000000E+00 0. -1.
         11    1    3    3    0    0  0.62722510668E+00 -0.62757779935E+01  0.30852915107E+01  0.70212409676E+01  0.51100000000E-03 0. -1.
        -11    1    3    3    0    0 -0.37444383497E+01  0.11959270680E+01  0.15040889212E+02  0.15546041575E+02  0.51100000000E-03 0.  1.
        -12    1    3    3    0    0 -0.90710183589E+00  0.20060484092E+02  0.19457744104E+02  0.27961574730E+02  0.00000000000E+00 0.  1.
</event>
<event>
 7    1  0.4971907E-013  0.5052885E+02  0.7816164E-02  0.1300439E+00
        -11   -1    0    0    0    0  0.00000000000E+00  0.00000000000E+00  0.45593999997E+02  0.45594000000E+02  0.51100000000E-03 0.  1.
         11   -1    0    0    0    0 -0.00000000000E+00 -0.00000000000E+00 -0.45593999997E+02  0.45594000000E+02  0.51100000000E-03 0. -1.
    9900012    2    1    2    0    0 -0.32574174477E+02 -0.99993055337E+01  0.22183413223E+02  0.50528846341E+02  0.29999958939E+02 0.  0.
         12    1    1    2    0    0  0.32574174477E+02  0.99993055337E+01 -0.22183413223E+02  0.40659153659E+02  0.00000000000E+00 0. -1.
         11    1    3    3    0    0 -0.39350817801E+01  0.16491589160E+01 -0.18305016091E+01  0.46427718174E+01  0.51100000000E-03 0. -1.
        -11    1    3    3    0    0  0.15234019994E+01 -0.86496354380E+01  0.50421373330E+01  0.10127195861E+02  0.51100000000E-03 0.  1.
        -12    1    3    3    0    0 -0.30162494697E+02 -0.29988290117E+01  0.18971777499E+02  0.35758878663E+02  0.00000000000E+00 0.  1.
</event>
<event>
 7    1  0.4971907E-013  0.5052886E+02  0.7816164E-02  0.1300439E+00
        -11   -1    0    0    0    0  0.00000000000E+00  0.00000000000E+00  0.45593999997E+02  0.45594000000E+02  0.51100000000E-03 0.  1.
         11   -1    0    0    0    0 -0.00000000000E+00 -0.00000000000E+00 -0.45593999997E+02  0.45594000000E+02  0.51100000000E-03 0. -1.
    9900012    2    1    2    0    0  0.10047916096E+02  0.24423947377E+02  0.30914006060E+02  0.50528860880E+02  0.30000003130E+02 0.  0.
         12    1    1    2    0    0 -0.10047916096E+02 -0.24423947377E+02 -0.30914006060E+02  0.40659139120E+02  0.00000000000E+00 0. -1.
         11    1    3    3    0    0  0.63266227855E+01  0.16978948761E+02  0.12814690725E+02  0.22192952835E+02  0.51100000000E-03 0. -1.
        -11    1    3    3    0    0  0.63351030955E+01  0.66444004658E+01  0.21846778027E+02  0.23697326837E+02  0.51100000000E-03 0.  1.
         12    1    3    3    0    0 -0.26138097852E+01  0.80059815040E+00 -0.37474626926E+01  0.46385812081E+01  0.00000000000E+00 0. -1.
</event>
<event>
 7    1  0.5189905E-013  0.5052882E+02  0.7816164E-02  0.1300439E+00
        -11   -1    0    0    0    0  0.00000000000E+00  0.00000000000E+00  0.45593999997E+02  0.45594000000E+02  0.51100000000E-03 0.  1.
         11   -1    0    0    0    0 -0.00000000000E+00 -0.00000000000E+00 -0.45593999997E+02  0.45594000000E+02  0.51100000000E-03 0. -1.
    9900012    2    1    2    0    0 -0.38390995760E+02  0.57337689902E+00  0.13378019600E+02  0.50528822378E+02  0.29999886099E+02 0.  0.
         12    1    1    2    0    0  0.38390995760E+02 -0.57337689902E+00 -0.13378019600E+02  0.40659177622E+02  0.00000000000E+00 0. -1.
         11    1    3    3    0    0 -0.28206077858E+02 -0.10936202374E+01  0.47683667073E+01  0.28627192574E+02  0.51100000000E-03 0. -1.
        -11    1    3    3    0    0 -0.13527976358E+02  0.18808721840E+01  0.11203197546E+02  0.17665091566E+02  0.51100000000E-03 0.  1.
         12    1    3    3    0    0  0.33430584560E+01 -0.21387504753E+00 -0.25935446530E+01  0.42365382382E+01  0.00000000000E+00 0. -1.
</event>
<event>
 7    1  0.4971907E-013  0.5052886E+02  0.7816164E-02  0.1300439E+00
        -11   -1    0    0    0    0  0.00000000000E+00  0.00000000000E+00  0.45593999997E+02  0.45594000000E+02  0.51100000000E-03 0. -1.
         11   -1    0    0    0    0 -0.00000000000E+00 -0.00000000000E+00 -0.45593999997E+02  0.45594000000E+02  0.51100000000E-03 0.  1.
    9900012    2    1    2    0    0 -0.37563060094E+02  0.49378909924E+00  0.15554361432E+02  0.50528862394E+02  0.30000007733E+02 0.  0.
         12    1    1    2    0    0  0.37563060094E+02 -0.49378909924E+00 -0.15554361432E+02  0.40659137606E+02  0.00000000000E+00 0. -1.
         11    1    3    3    0    0 -0.12401448013E+01  0.61195737495E+01  0.69074759769E+01  0.93113031653E+01  0.51100000000E-03 0. -1.
        -11    1    3    3    0    0 -0.11089987939E+02 -0.91821034027E+01  0.60003975016E+01  0.15598193031E+02  0.51100000000E-03 0.  1.
        -12    1    3    3    0    0 -0.25232927353E+02  0.35563187524E+01  0.26464879532E+01  0.25619366198E+02  0.00000000000E+00 0.  1.
</event>
<event>
 7    1  0.4971907E-013  0.5052887E+02  0.7816164E-02  0.1300439E+00
        -11   -1    0    0    0    0  0.00000000000E+00  0.00000000000E+00  0.45593999997E+02  0.45594000000E+02  0.51100000000E-03 0.  1.
         11   -1    0    0    0    0 -0.00000000000E+00 -0.00000000000E+00 -0.45593999997E+02  0.45594000000E+02  0.51100000000E-03 0. -1.
    9900012    2    1    2    0    0  0.16134106937E+02 -0.67020708853E+01  0.36714274648E+02  0.50528866663E+02  0.30000020709E+02 0.  0.
         12    1    1    2    0    0 -0.16134106937E+02  0.67020708853E+01 -0.36714274648E+02  0.40659133337E+02  0.00000000000E+00 0. -1.
         11    1    3    3    0    0  0.37713353598E+01 -0.11651248403E+01 -0.25021306202E+01  0.46734509938E+01  0.51100000000E-03 0. -1.
        -11    1    3    3    0    0  0.33105999301E+01  0.71306335894E+01  0.16962457972E+02  0.18695747858E+02  0.51100000000E-03 0.  1.
         12    1    3    3    0    0  0.90521716467E+01 -0.12667579634E+02  0.22253947297E+02  0.27159667811E+02  0.00000000000E+00 0. -1.
</event>
<event>
 7    1  0.4971907E-013  0.5052886E+02  0.7816164E-02  0.1300439E+00
        -11   -1    0    0    0    0  0.00000000000E+00  0.00000000000E+00  0.45593999997E+02  0.45594000000E+02  0.51100000000E-03 0. -1.
         11   -1    0    0    0    0 -0.00000000000E+00 -0.00000000000E+00 -0.45593999997E+02  0.45594000000E+02  0.51100000000E-03 0.  1.
    9900012    2    1    2    0    0  0.11408698784E+02  0.27247003147E+02 -0.27939357637E+02  0.50528864574E+02  0.30000014359E+02 0.  0.
         12    1    1    2    0    0 -0.11408698784E+02 -0.27247003147E+02  0.27939357637E+02  0.40659135426E+02  0.00000000000E+00 0. -1.
         11    1    3    3    0    0  0.52083316657E+01  0.20861757557E+01  0.20047719803E+01  0.59580163626E+01  0.51100000000E-03 0. -1.
        -11    1    3    3    0    0 -0.67243880200E+01  0.12760346499E+02 -0.89528635773E+01  0.16976383699E+02  0.51100000000E-03 0.  1.
        -12    1    3    3    0    0  0.12924755138E+02  0.12400480893E+02 -0.20991266040E+02  0.27594464512E+02  0.00000000000E+00 0.  1.
</event>
<event>
 7    1  0.4971907E-013  0.5052886E+02  0.7816164E-02  0.1300439E+00
        -11   -1    0    0    0    0  0.00000000000E+00  0.00000000000E+00  0.45593999997E+02  0.45594000000E+02  0.51100000000E-03 0. -1.
         11   -1    0    0    0    0 -0.00000000000E+00 -0.00000000000E+00 -0.45593999997E+02  0.45594000000E+02  0.51100000000E-03 0.  1.
    9900012    2    1    2    0    0 -0.92580530269E+01  0.39424426024E+02 -0.36289063557E+01  0.50528857430E+02  0.29999992645E+02 0.  0.
         12    1    1    2    0    0  0.92580530269E+01 -0.39424426024E+02  0.36289063557E+01  0.40659142570E+02  0.00000000000E+00 0. -1.
         11    1    3    3    0    0 -0.17752683260E+02  0.26749553819E+02 -0.13018913467E+01  0.32130846765E+02  0.51100000000E-03 0. -1.
        -11    1    3    3    0    0 -0.29331073299E+00 -0.15082421209E+01  0.88705069464E-01  0.15390563121E+01  0.51100000000E-03 0.  1.
        -12    1    3    3    0    0  0.87879409665E+01  0.14183114326E+02 -0.24157200784E+01  0.16858954354E+02  0.00000000000E+00 0.  1.
</event>
<event>
 7    1  0.4971907E-013  0.5052885E+02  0.7816164E-02  0.1300439E+00
        -11   -1    0    0    0    0  0.00000000000E+00  0.00000000000E+00  0.45593999997E+02  0.45594000000E+02  0.51100000000E-03 0.  1.
         11   -1    0    0    0    0 -0.00000000000E+00 -0.00000000000E+00 -0.45593999997E+02  0.45594000000E+02  0.51100000000E-03 0. -1.
    9900012    2    1    2    0    0 -0.18670281158E+01 -0.38302722540E+02  0.13512291675E+02  0.50528851285E+02  0.29999973965E+02 0.  0.
         12    1    1    2    0    0  0.18670281158E+01  0.38302722540E+02 -0.13512291675E+02  0.40659148715E+02  0.00000000000E+00 0. -1.
         11    1    3    3    0    0 -0.66246861340E+01 -0.13967917991E+02 -0.37064921919E+01  0.15897398656E+02  0.51100000000E-03 0.  1.
        -11    1    3    3    0    0  0.43204011538E+01 -0.19148351448E+02  0.34747263348E+01  0.19934867762E+02  0.51100000000E-03 0. -1.
        -12    1    3    3    0    0  0.43725686430E+00 -0.51864531003E+01  0.13744057532E+02  0.14696584867E+02  0.00000000000E+00 0.  1.
</event>
<event>
 7    1  0.4971907E-013  0.5052886E+02  0.7816164E-02  0.1300439E+00
        -11   -1    0    0    0    0  0.00000000000E+00  0.00000000000E+00  0.45593999997E+02  0.45594000000E+02  0.51100000000E-03 0. -1.
         11   -1    0    0    0    0 -0.00000000000E+00 -0.00000000000E+00 -0.45593999997E+02  0.45594000000E+02  0.51100000000E-03 0.  1.
    9900012    2    1    2    0    0 -0.30849972558E+02  0.46742364571E+01 -0.26069073680E+02  0.50528857168E+02  0.29999991849E+02 0.  0.
         12    1    1    2    0    0  0.30849972558E+02 -0.46742364571E+01  0.26069073680E+02  0.40659142832E+02  0.00000000000E+00 0. -1.
         11    1    3    3    0    0 -0.97587600651E+01 -0.20956375447E+01 -0.19363283451E+02  0.21784440341E+02  0.51100000000E-03 0. -1.
        -11    1    3    3    0    0 -0.58955793271E+01 -0.57251803191E+01 -0.28410178965E+01  0.86952244501E+01  0.51100000000E-03 0.  1.
        -12    1    3    3    0    0 -0.15195633165E+02  0.12495054321E+02 -0.38647723329E+01  0.20049192377E+02  0.00000000000E+00 0.  1.
</event>
<event>
 7    1  0.4971907E-013  0.5052887E+02  0.7816164E-02  0.1300439E+00
        -11   -1    0    0    0    0  0.00000000000E+00  0.00000000000E+00  0.45593999997E+02  0.45594000000E+02  0.51100000000E-03 0.  1.
         11   -1    0    0    0    0 -0.00000000000E+00 -0.00000000000E+00 -0.45593999997E+02  0.45594000000E+02  0.51100000000E-03 0. -1.
    9900012    2    1    2    0    0  0.35713725611E+02 -0.19330786259E+02 -0.20037681933E+01  0.50528873332E+02  0.30000040981E+02 0.  0.
         12    1    1    2    0    0 -0.35713725611E+02  0.19330786259E+02  0.20037681933E+01  0.40659126668E+02  0.00000000000E+00 0. -1.
         11    1    3    3    0    0  0.17618375444E+02 -0.13248802861E+02 -0.13016505071E+02  0.25600143262E+02  0.51100000000E-03 0. -1.
        -11    1    3    3    0    0  0.12587497699E+02  0.14787215098E+01  0.41826990124E+01  0.13346411012E+02  0.51100000000E-03 0.  1.
        -12    1    3    3    0    0  0.55078524684E+01 -0.75607049078E+01  0.68300378649E+01  0.11582319058E+02  0.00000000000E+00 0.  1.
</event>
<event>
 7    1  0.4971907E-013  0.5052885E+02  0.7816164E-02  0.1300439E+00
        -11   -1    0    0    0    0  0.00000000000E+00  0.00000000000E+00  0.45593999997E+02  0.45594000000E+02  0.51100000000E-03 0.  1.
         11   -1    0    0    0    0 -0.00000000000E+00 -0.00000000000E+00 -0.45593999997E+02  0.45594000000E+02  0.51100000000E-03 0. -1.
    9900012    2    1    2    0    0  0.22868303933E+02  0.33029592038E+02  0.62652534704E+01  0.50528847574E+02  0.29999962685E+02 0.  0.
         12    1    1    2    0    0 -0.22868303933E+02 -0.33029592038E+02 -0.62652534704E+01  0.40659152426E+02  0.00000000000E+00 0. -1.
         11    1    3    3    0    0 -0.15253899745E+01  0.19668374209E+01  0.69626289474E+01  0.73941508056E+01  0.51100000000E-03 0. -1.
        -11    1    3    3    0    0  0.11795808785E+02  0.44370078329E+01  0.41802489368E+01  0.13277899865E+02  0.51100000000E-03 0.  1.
         12    1    3    3    0    0  0.12597885123E+02  0.26625746784E+02 -0.48776244138E+01  0.29856796903E+02  0.00000000000E+00 0. -1.
</event>
<event>
 7    1  0.4971907E-013  0.5052889E+02  0.7816164E-02  0.1300439E+00
        -11   -1    0    0    0    0  0.00000000000E+00  0.00000000000E+00  0.45593999997E+02  0.45594000000E+02  0.51100000000E-03 0. -1.
         11   -1    0    0    0    0 -0.00000000000E+00 -0.00000000000E+00 -0.45593999997E+02  0.45594000000E+02  0.51100000000E-03 0.  1.
    9900012    2    1    2    0    0 -0.76493134160E+01 -0.24115938029E+02 -0.31828806080E+02  0.50528888361E+02  0.30000086663E+02 0.  0.
         12    1    1    2    0    0  0.76493134160E+01  0.24115938029E+02  0.31828806080E+02  0.40659111639E+02  0.00000000000E+00 0. -1.
         11    1    3    3    0    0  0.41530803977E+01 -0.13648043713E+02 -0.25849805548E+02  0.29525067673E+02  0.51100000000E-03 0.  1.
        -11    1    3    3    0    0  0.20469654855E+01 -0.35407628872E+01  0.68282594317E+00  0.41464829738E+01  0.51100000000E-03 0. -1.
         12    1    3    3    0    0 -0.13849359299E+02 -0.69271314286E+01 -0.66618264757E+01  0.16857337714E+02  0.00000000000E+00 0. -1.
</event>
<event>
 7    1  0.4971907E-013  0.5052886E+02  0.7816164E-02  0.1300439E+00
        -11   -1    0    0    0    0  0.00000000000E+00  0.00000000000E+00  0.45593999997E+02  0.45594000000E+02  0.51100000000E-03 0. -1.
         11   -1    0    0    0    0 -0.00000000000E+00 -0.00000000000E+00 -0.45593999997E+02  0.45594000000E+02  0.51100000000E-03 0.  1.
    9900012    2    1    2    0    0 -0.19775454877E+02  0.22659361056E+02 -0.27361482428E+02  0.50528856136E+02  0.29999988712E+02 0.  0.
         12    1    1    2    0    0  0.19775454877E+02 -0.22659361056E+02  0.27361482428E+02  0.40659143864E+02  0.00000000000E+00 0. -1.
         11    1    3    3    0    0 -0.27131233585E+01  0.44940482193E+00 -0.18619006326E+02  0.18821009534E+02  0.51100000000E-03 0. -1.
        -11    1    3    3    0    0 -0.12063362802E+02  0.90543725201E+01 -0.91260571429E+01  0.17629274036E+02  0.51100000000E-03 0.  1.
         12    1    3    3    0    0 -0.49989687169E+01  0.13155583714E+02  0.38358104051E+00  0.14078572566E+02  0.00000000000E+00 0. -1.
</event>
<event>
 7    1  0.4971907E-013  0.5052886E+02  0.7816164E-02  0.1300439E+00
        -11   -1    0    0    0    0  0.00000000000E+00  0.00000000000E+00  0.45593999997E+02  0.45594000000E+02  0.51100000000E-03 0.  1.
         11   -1    0    0    0    0 -0.00000000000E+00 -0.00000000000E+00 -0.45593999997E+02  0.45594000000E+02  0.51100000000E-03 0. -1.
    9900012    2    1    2    0    0 -0.18130613752E+02 -0.26554168388E+02  0.24886187101E+02  0.50528864222E+02  0.30000013288E+02 0.  0.
         12    1    1    2    0    0  0.18130613752E+02  0.26554168388E+02 -0.24886187101E+02  0.40659135778E+02  0.00000000000E+00 0. -1.
         11    1    3    3    0    0 -0.20100052880E+01 -0.88403630514E+01  0.27556921825E+01  0.94755464119E+01  0.51100000000E-03 0. -1.
        -11    1    3    3    0    0 -0.80675065506E+01 -0.23353468244E+02  0.16694843527E+02  0.29819237777E+02  0.51100000000E-03 0.  1.
        -12    1    3    3    0    0 -0.80531019137E+01  0.56396629069E+01  0.54356513911E+01  0.11234080033E+02  0.00000000000E+00 0.  1.
</event>
<event>
 7    1  0.4971907E-013  0.5052885E+02  0.7816164E-02  0.1300439E+00
        -11   -1    0    0    0    0  0.00000000000E+00  0.00000000000E+00  0.45593999997E+02  0.45594000000E+02  0.51100000000E-03 0. -1.
         11   -1    0    0    0    0 -0.00000000000E+00 -0.00000000000E+00 -0.45593999997E+02  0.45594000000E+02  0.51100000000E-03 0.  1.
    9900012    2    1    2    0    0  0.35609809374E+02  0.14165851896E+02 -0.13580733787E+02  0.50528853258E+02  0.29999979963E+02 0.  0.
         12    1    1    2    0    0 -0.35609809374E+02 -0.14165851896E+02  0.13580733787E+02  0.40659146742E+02  0.00000000000E+00 0. -1.
         11    1    3    3    0    0  0.19047184845E+02 -0.23867972975E+01 -0.27065724317E+01  0.19386015229E+02  0.51100000000E-03 0. -1.
        -11    1    3    3    0    0  0.14233432184E+02  0.20752444532E+01 -0.68822277447E+01  0.15945604105E+02  0.51100000000E-03 0.  1.
         12    1    3    3    0    0  0.23291923447E+01  0.14477404741E+02 -0.39919336104E+01  0.15197233924E+02  0.00000000000E+00 0. -1.
</event>
<event>
 7    1  0.4971907E-013  0.5052885E+02  0.7816164E-02  0.1300439E+00
        -11   -1    0    0    0    0  0.00000000000E+00  0.00000000000E+00  0.45593999997E+02  0.45594000000E+02  0.51100000000E-03 0. -1.
         11   -1    0    0    0    0 -0.00000000000E+00 -0.00000000000E+00 -0.45593999997E+02  0.45594000000E+02  0.51100000000E-03 0.  1.
    9900012    2    1    2    0    0 -0.57023485409E+01  0.39098988578E+02 -0.95874304224E+01  0.50528849630E+02  0.29999968936E+02 0.  0.
         12    1    1    2    0    0  0.57023485409E+01 -0.39098988578E+02  0.95874304224E+01  0.40659150370E+02  0.00000000000E+00 0. -1.
         11    1    3    3    0    0 -0.11463465712E+02  0.16405980406E+02 -0.33402147103E+01  0.20290989966E+02  0.51100000000E-03 0. -1.
        -11    1    3    3    0    0  0.24388436127E+01  0.15086352060E+02 -0.12582750635E+02  0.19795746777E+02  0.51100000000E-03 0.  1.
         12    1    3    3    0    0  0.33222735585E+01  0.76066561110E+01  0.63355349228E+01  0.10442112887E+02  0.00000000000E+00 0. -1.
</event>
<event>
 7    1  0.4971907E-013  0.5052886E+02  0.7816164E-02  0.1300439E+00
        -11   -1    0    0    0    0  0.00000000000E+00  0.00000000000E+00  0.45593999997E+02  0.45594000000E+02  0.51100000000E-03 0. -1.
         11   -1    0    0    0    0 -0.00000000000E+00 -0.00000000000E+00 -0.45593999997E+02  0.45594000000E+02  0.51100000000E-03 0.  1.
    9900012    2    1    2    0    0  0.14298193509E+02  0.25115471045E+02  0.28599659360E+02  0.50528859098E+02  0.29999997713E+02 0.  0.
         12    1    1    2    0    0 -0.14298193509E+02 -0.25115471045E+02 -0.28599659360E+02  0.40659140902E+02  0.00000000000E+00 0. -1.
         11    1    3    3    0    0  0.65955585660E+01  0.19928587308E+01  0.14399570953E+02  0.15963098778E+02  0.51100000000E-03 0. -1.
        -11    1    3    3    0    0 -0.60388248676E+01  0.39275688239E+01  0.65885223541E+01  0.97622656039E+01  0.51100000000E-03 0.  1.
         12    1    3    3    0    0  0.13741459811E+02  0.19195043490E+02  0.76115660524E+01  0.24803494715E+02  0.00000000000E+00 0. -1.
</event>
<event>
 7    1  0.4971907E-013  0.5052886E+02  0.7816164E-02  0.1300439E+00
        -11   -1    0    0    0    0  0.00000000000E+00  0.00000000000E+00  0.45593999997E+02  0.45594000000E+02  0.51100000000E-03 0.  1.
         11   -1    0    0    0    0 -0.00000000000E+00 -0.00000000000E+00 -0.45593999997E+02  0.45594000000E+02  0.51100000000E-03 0. -1.
    9900012    2    1    2    0    0  0.25367492501E+02 -0.21677869842E+01  0.31701058062E+02  0.50528855168E+02  0.29999985770E+02 0.  0.
         12    1    1    2    0    0 -0.25367492501E+02  0.21677869842E+01 -0.31701058062E+02  0.40659144832E+02  0.00000000000E+00 0. -1.
         11    1    3    3    0    0  0.65248479243E+01  0.19367832680E+01 -0.27802645554E+01  0.73521861457E+01  0.51100000000E-03 0. -1.
        -11    1    3    3    0    0  0.16924566971E+01  0.53814727868E+01  0.12577091991E+02  0.13784335393E+02  0.51100000000E-03 0.  1.
         12    1    3    3    0    0  0.17150187879E+02 -0.94860430390E+01  0.21904230627E+02  0.29392333630E+02  0.00000000000E+00 0. -1.
</event>
<event>
 7    1  0.4971907E-013  0.5052887E+02  0.7816164E-02  0.1300439E+00
        -11   -1    0    0    0    0  0.00000000000E+00  0.00000000000E+00  0.45593999997E+02  0.45594000000E+02  0.51100000000E-03 0.  1.
         11   -1    0    0    0    0 -0.00000000000E+00 -0.00000000000E+00 -0.45593999997E+02  0.45594000000E+02  0.51100000000E-03 0. -1.
    9900012    2    1    2    0    0 -0.80792488688E+01 -0.18811837555E+02  0.35128413746E+02  0.50528868838E+02  0.30000027320E+02 0.  0.
         12    1    1    2    0    0  0.80792488688E+01  0.18811837555E+02 -0.35128413746E+02  0.40659131162E+02  0.00000000000E+00 0. -1.
         11    1    3    3    0    0 -0.24379078378E+01 -0.64108814390E+01 -0.34540199063E+01  0.76793912014E+01  0.51100000000E-03 0. -1.
        -11    1    3    3    0    0 -0.27514985550E+01 -0.86934884378E+01  0.87117563680E+01  0.12611192838E+02  0.51100000000E-03 0.  1.
        -12    1    3    3    0    0 -0.28898424760E+01 -0.37074676786E+01  0.29870677285E+02  0.30238284799E+02  0.00000000000E+00 0.  1.
</event>
<event>
 7    1  0.4971907E-013  0.5052892E+02  0.7816164E-02  0.1300439E+00
        -11   -1    0    0    0    0  0.00000000000E+00  0.00000000000E+00  0.45593999997E+02  0.45594000000E+02  0.51100000000E-03 0.  1.
         11   -1    0    0    0    0 -0.00000000000E+00 -0.00000000000E+00 -0.45593999997E+02  0.45594000000E+02  0.51100000000E-03 0. -1.
    9900012    2    1    2    0    0 -0.92119764190E+01  0.15414637603E+02  0.36478611228E+02  0.50528921812E+02  0.30000188340E+02 0.  0.
         12    1    1    2    0    0  0.92119764190E+01 -0.15414637603E+02 -0.36478611228E+02  0.40659078188E+02  0.00000000000E+00 0. -1.
         11    1    3    3    0    0 -0.34033890682E+01  0.81762749209E+01  0.22355370128E+02  0.24045729403E+02  0.51100000000E-03 0. -1.
        -11    1    3    3    0    0  0.10605009323E+01 -0.56171053501E+01  0.96862794157E+01  0.11247246059E+02  0.51100000000E-03 0.  1.
         12    1    3    3    0    0 -0.68690882831E+01  0.12855468032E+02  0.44369616841E+01  0.15235946349E+02  0.00000000000E+00 0. -1.
</event>
<event>
 7    1  0.4971907E-013  0.5052885E+02  0.7816164E-02  0.1300439E+00
        -11   -1    0    0    0    0  0.00000000000E+00  0.00000000000E+00  0.45593999997E+02  0.45594000000E+02  0.51100000000E-03 0.  1.
         11   -1    0    0    0    0 -0.00000000000E+00 -0.00000000000E+00 -0.45593999997E+02  0.45594000000E+02  0.51100000000E-03 0. -1.
    9900012    2    1    2    0    0 -0.10134131300E+02 -0.35699790922E+02  0.16612969042E+02  0.50528850605E+02  0.29999971900E+02 0.  0.
         12    1    1    2    0    0  0.10134131300E+02  0.35699790922E+02 -0.16612969042E+02  0.40659149395E+02  0.00000000000E+00 0. -1.
         11    1    3    3    0    0 -0.71510520394E+01  0.16391217675E+01  0.43706288649E+01  0.85397109070E+01  0.51100000000E-03 0. -1.
        -11    1    3    3    0    0 -0.80896490869E+01 -0.13341590953E+02  0.55196018544E+01  0.16550120133E+02  0.51100000000E-03 0.  1.
        -12    1    3    3    0    0  0.51065698263E+01 -0.23997321736E+02  0.67227383228E+01  0.25439019566E+02  0.00000000000E+00 0.  1.
</event>
<event>
 7    1  0.4971907E-013  0.5052887E+02  0.7816164E-02  0.1300439E+00
        -11   -1    0    0    0    0  0.00000000000E+00  0.00000000000E+00  0.45593999997E+02  0.45594000000E+02  0.51100000000E-03 0.  1.
         11   -1    0    0    0    0 -0.00000000000E+00 -0.00000000000E+00 -0.45593999997E+02  0.45594000000E+02  0.51100000000E-03 0. -1.
    9900012    2    1    2    0    0  0.49071614674E+01  0.40299187644E+02  0.22495207313E+01  0.50528866931E+02  0.30000021523E+02 0.  0.
         12    1    1    2    0    0 -0.49071614674E+01 -0.40299187644E+02 -0.22495207313E+01  0.40659133069E+02  0.00000000000E+00 0. -1.
         11    1    3    3    0    0  0.30520843364E+01  0.21011510190E+02 -0.70851012058E+01  0.22382972068E+02  0.51100000000E-03 0. -1.
        -11    1    3    3    0    0 -0.21888868697E+01 -0.30747602217E+01  0.71784411723E+00  0.38419625958E+01  0.51100000000E-03 0.  1.
         12    1    3    3    0    0  0.40439640008E+01  0.22362437675E+02  0.86167778198E+01  0.24303932267E+02  0.00000000000E+00 0. -1.
</event>
<event>
 7    1  0.4971907E-013  0.5052886E+02  0.7816164E-02  0.1300439E+00
        -11   -1    0    0    0    0  0.00000000000E+00  0.00000000000E+00  0.45593999997E+02  0.45594000000E+02  0.51100000000E-03 0.  1.
         11   -1    0    0    0    0 -0.00000000000E+00 -0.00000000000E+00 -0.45593999997E+02  0.45594000000E+02  0.51100000000E-03 0. -1.
    9900012    2    1    2    0    0 -0.27481529824E+02  0.10994698920E+02  0.27875579303E+02  0.50528858257E+02  0.29999995157E+02 0.  0.
         12    1    1    2    0    0  0.27481529824E+02 -0.10994698920E+02 -0.27875579303E+02  0.40659141743E+02  0.00000000000E+00 0. -1.
         11    1    3    3    0    0 -0.13980536006E+02  0.70533682289E+01 -0.96280266310E+00  0.15688606682E+02  0.51100000000E-03 0. -1.
        -11    1    3    3    0    0 -0.23156471106E+01  0.44801979484E+01  0.14447596905E+01  0.52461153268E+01  0.51100000000E-03 0.  1.
        -12    1    3    3    0    0 -0.11185346708E+02 -0.53886725719E+00  0.27393622276E+02  0.29594136248E+02  0.00000000000E+00 0.  1.
</event>
<event>
 7    1  0.4971907E-013  0.5052882E+02  0.7816164E-02  0.1300439E+00
        -11   -1    0    0    0    0  0.00000000000E+00  0.00000000000E+00  0.45593999997E+02  0.45594000000E+02  0.51100000000E-03 0.  1.
         11   -1    0    0    0    0 -0.00000000000E+00 -0.00000000000E+00 -0.45593999997E+02  0.45594000000E+02  0.51100000000E-03 0. -1.
    9900012    2    1    2    0    0 -0.25050188931E+02  0.15159196196E+02  0.28210913298E+02  0.50528821161E+02  0.29999882400E+02 0.  0.
         12    1    1    2    0    0  0.25050188931E+02 -0.15159196196E+02 -0.28210913298E+02  0.40659178839E+02  0.00000000000E+00 0. -1.
         11    1    3    3    0    0 -0.27658106468E+01  0.11234554268E+02  0.18473107148E+02  0.21797261436E+02  0.51100000000E-03 0. -1.
        -11    1    3    3    0    0 -0.40400968186E+01  0.33293701340E+01  0.90614599618E+01  0.10465043941E+02  0.51100000000E-03 0.  1.
        -12    1    3    3    0    0 -0.18244281466E+02  0.59527179406E+00  0.67634618801E+00  0.18266515784E+02  0.00000000000E+00 0.  1.
</event>
<event>
 7    1  0.4971907E-013  0.5052886E+02  0.7816164E-02  0.1300439E+00
        -11   -1    0    0    0    0  0.00000000000E+00  0.00000000000E+00  0.45593999997E+02  0.45594000000E+02  0.51100000000E-03 0.  1.
         11   -1    0    0    0    0 -0.00000000000E+00 -0.00000000000E+00 -0.45593999997E+02  0.45594000000E+02  0.51100000000E-03 0. -1.
    9900012    2    1    2    0    0 -0.88080137039E+01 -0.15431206059E+02  0.36571328742E+02  0.50528864351E+02  0.30000013680E+02 0.  0.
         12    1    1    2    0    0  0.88080137039E+01  0.15431206059E+02 -0.36571328742E+02  0.40659135649E+02  0.00000000000E+00 0. -1.
         11    1    3    3    0    0 -0.36878623110E+01 -0.65706983545E+01  0.67473858341E+00  0.75650299212E+01  0.51100000000E-03 0. -1.
        -11    1    3    3    0    0  0.19921088259E+01 -0.57816567835E+01 -0.12645313186E+00  0.61165385139E+01  0.51100000000E-03 0.  1.
        -12    1    3    3    0    0 -0.71122602187E+01 -0.30788509208E+01  0.36023043290E+02  0.36847295915E+02  0.00000000000E+00 0.  1.
</event>
<event>
 7    1  0.4971907E-013  0.5052886E+02  0.7816164E-02  0.1300439E+00
        -11   -1    0    0    0    0  0.00000000000E+00  0.00000000000E+00  0.45593999997E+02  0.45594000000E+02  0.51100000000E-03 0.  1.
         11   -1    0    0    0    0 -0.00000000000E+00 -0.00000000000E+00 -0.45593999997E+02  0.45594000000E+02  0.51100000000E-03 0. -1.
    9900012    2    1    2    0    0 -0.25873930106E+02  0.13886111328E+01  0.31333324377E+02  0.50528859373E+02  0.29999998550E+02 0.  0.
         12    1    1    2    0    0  0.25873930106E+02 -0.13886111328E+01 -0.31333324377E+02  0.40659140627E+02  0.00000000000E+00 0. -1.
         11    1    3    3    0    0 -0.18684025089E+01 -0.64537817093E+01  0.18867432907E+02  0.20028036625E+02  0.51100000000E-03 0. -1.
        -11    1    3    3    0    0 -0.75224085627E+01  0.28216536128E+01  0.10407058530E+02  0.13147441850E+02  0.51100000000E-03 0.  1.
         12    1    3    3    0    0 -0.16483119035E+02  0.50207392293E+01  0.20588329404E+01  0.17353380898E+02  0.00000000000E+00 0. -1.
</event>
<event>
 7    1 -0.4971907E-013  0.5052887E+02  0.7816164E-02  0.1300439E+00
        -11   -1    0    0    0    0  0.00000000000E+00  0.00000000000E+00  0.45593999997E+02  0.45594000000E+02  0.51100000000E-03 0.  1.
         11   -1    0    0    0    0 -0.00000000000E+00 -0.00000000000E+00 -0.45593999997E+02  0.45594000000E+02  0.51100000000E-03 0. -1.
    9900012    2    1    2    0    0 -0.10272138428E+02 -0.77216628593E+01  0.38574917112E+02  0.50528866520E+02  0.30000020273E+02 0.  0.
         12    1    1    2    0    0  0.10272138428E+02  0.77216628593E+01 -0.38574917112E+02  0.40659133480E+02  0.00000000000E+00 0. -1.
         11    1    3    3    0    0  0.59483866211E+01  0.10102191226E+01  0.81662603293E+01  0.10153406034E+02  0.51100000000E-03 0. -1.
        -11    1    3    3    0    0 -0.17033435832E+01  0.28465807221E+01  0.17374850136E+02  0.17688691831E+02  0.51100000000E-03 0.  1.
         12    1    3    3    0    0 -0.14517181466E+02 -0.11578462704E+02  0.13033806646E+02  0.22686768655E+02  0.00000000000E+00 0. -1.
</event>
<event>
 7    1  0.6088050E-013  0.5052886E+02  0.7816164E-02  0.1300439E+00
        -11   -1    0    0    0    0  0.00000000000E+00  0.00000000000E+00  0.45593999997E+02  0.45594000000E+02  0.51100000000E-03 0.  1.
         11   -1    0    0    0    0 -0.00000000000E+00 -0.00000000000E+00 -0.45593999997E+02  0.45594000000E+02  0.51100000000E-03 0. -1.
    9900012    2    1    2    0    0  0.31573958323E+02  0.25617203547E+02  0.97514391999E-01  0.50528862394E+02  0.30000007734E+02 0.  0.
         12    1    1    2    0    0 -0.31573958323E+02 -0.25617203547E+02 -0.97514391999E-01  0.40659137606E+02  0.00000000000E+00 0. -1.
         11    1    3    3    0    0 -0.10062741834E+01 -0.32872927347E+01 -0.20909906816E+01  0.40238195223E+01  0.51100000000E-03 0. -1.
        -11    1    3    3    0    0  0.13082428008E+02  0.51650436924E+01  0.64809984353E+01  0.15486476032E+02  0.51100000000E-03 0.  1.
        -12    1    3    3    0    0  0.19497804499E+02  0.23739452590E+02 -0.42924933617E+01  0.31018566840E+02  0.00000000000E+00 0.  1.
</event>
<event>
 7    1  0.4971907E-013  0.5052885E+02  0.7816164E-02  0.1300439E+00
        -11   -1    0    0    0    0  0.00000000000E+00  0.00000000000E+00  0.45593999997E+02  0.45594000000E+02  0.51100000000E-03 0.  1.
         11   -1    0    0    0    0 -0.00000000000E+00 -0.00000000000E+00 -0.45593999997E+02  0.45594000000E+02  0.51100000000E-03 0. -1.
    9900012    2    1    2    0    0  0.31573364304E+02 -0.16005139099E+01  0.25568090532E+02  0.50528853038E+02  0.29999979293E+02 0.  0.
         12    1    1    2    0    0 -0.31573364304E+02  0.16005139099E+01 -0.25568090532E+02  0.40659146962E+02  0.00000000000E+00 0. -1.
         11    1    3    3    0    0  0.92100591043E+01 -0.20981117999E+01 -0.33497537844E+01  0.10022380581E+02  0.51100000000E-03 0. -1.
        -11    1    3    3    0    0  0.15242287734E+02 -0.79304160308E+01  0.15554405677E+02  0.23176677286E+02  0.51100000000E-03 0.  1.
        -12    1    3    3    0    0  0.71210174656E+01  0.84280139208E+01  0.13363438639E+02  0.17329795170E+02  0.00000000000E+00 0.  1.
</event>
<event>
 7    1  0.4971907E-013  0.5052884E+02  0.7816164E-02  0.1300439E+00
        -11   -1    0    0    0    0  0.00000000000E+00  0.00000000000E+00  0.45593999997E+02  0.45594000000E+02  0.51100000000E-03 0.  1.
         11   -1    0    0    0    0 -0.00000000000E+00 -0.00000000000E+00 -0.45593999997E+02  0.45594000000E+02  0.51100000000E-03 0. -1.
    9900012    2    1    2    0    0 -0.12606762156E+02  0.98459781141E+01  0.37380386418E+02  0.50528843272E+02  0.29999949610E+02 0.  0.
         12    1    1    2    0    0  0.12606762156E+02 -0.98459781141E+01 -0.37380386418E+02  0.40659156728E+02  0.00000000000E+00 0. -1.
         11    1    3    3    0    0  0.43250111586E+01  0.19419374880E+01  0.50731261565E+00  0.47680403816E+01  0.51100000000E-03 0. -1.
        -11    1    3    3    0    0 -0.70306678371E+01  0.99349539192E+00  0.14827858896E+00  0.71020637938E+01  0.51100000000E-03 0.  1.
         12    1    3    3    0    0 -0.99011054780E+01  0.69105452341E+01  0.36724795213E+02  0.38658739097E+02  0.00000000000E+00 0. -1.
</event>
<event>
 7    1  0.4971907E-013  0.5052886E+02  0.7816164E-02  0.1300439E+00
        -11   -1    0    0    0    0  0.00000000000E+00  0.00000000000E+00  0.45593999997E+02  0.45594000000E+02  0.51100000000E-03 0. -1.
         11   -1    0    0    0    0 -0.00000000000E+00 -0.00000000000E+00 -0.45593999997E+02  0.45594000000E+02  0.51100000000E-03 0.  1.
    9900012    2    1    2    0    0 -0.35513506079E+02 -0.15777893165E+02 -0.11958864227E+02  0.50528862524E+02  0.30000008127E+02 0.  0.
         12    1    1    2    0    0  0.35513506079E+02  0.15777893165E+02  0.11958864227E+02  0.40659137476E+02  0.00000000000E+00 0. -1.
         11    1    3    3    0    0 -0.10302357779E+02 -0.93014990363E+01  0.18786469105E+01  0.14006633236E+02  0.51100000000E-03 0. -1.
        -11    1    3    3    0    0  0.26339686596E+01 -0.22307972592E+01  0.22158849347E+01  0.41017549435E+01  0.51100000000E-03 0.  1.
        -12    1    3    3    0    0 -0.27845116959E+02 -0.42455968696E+01 -0.16053396072E+02  0.32420474344E+02  0.00000000000E+00 0.  1.
</event>
<event>
 7    1  0.4971907E-013  0.5052886E+02  0.7816164E-02  0.1300439E+00
        -11   -1    0    0    0    0  0.00000000000E+00  0.00000000000E+00  0.45593999997E+02  0.45594000000E+02  0.51100000000E-03 0.  1.
         11   -1    0    0    0    0 -0.00000000000E+00 -0.00000000000E+00 -0.45593999997E+02  0.45594000000E+02  0.51100000000E-03 0. -1.
    9900012    2    1    2    0    0  0.77995759878E+01  0.46007868103E+01  0.39637921382E+02  0.50528862819E+02  0.30000009023E+02 0.  0.
         12    1    1    2    0    0 -0.77995759878E+01 -0.46007868103E+01 -0.39637921382E+02  0.40659137181E+02  0.00000000000E+00 0. -1.
         11    1    3    3    0    0 -0.55889607352E+01 -0.55424658872E+01  0.71329390930E+01  0.10622345813E+02  0.51100000000E-03 0. -1.
        -11    1    3    3    0    0  0.16854034169E+02  0.83302435157E+01  0.23544309147E+02  0.30129485862E+02  0.51100000000E-03 0.  1.
         12    1    3    3    0    0 -0.34654974458E+01  0.18130091817E+01  0.89606731413E+01  0.97770311438E+01  0.00000000000E+00 0. -1.
</event>
<event>
 7    1  0.4971907E-013  0.5052885E+02  0.7816164E-02  0.1300439E+00
        -11   -1    0    0    0    0  0.00000000000E+00  0.00000000000E+00  0.45593999997E+02  0.45594000000E+02  0.51100000000E-03 0.  1.
         11   -1    0    0    0    0 -0.00000000000E+00 -0.00000000000E+00 -0.45593999997E+02  0.45594000000E+02  0.51100000000E-03 0. -1.
    9900012    2    1    2    0    0 -0.17926214098E+02 -0.18094047606E+02  0.31692632396E+02  0.50528847785E+02  0.29999963327E+02 0.  0.
         12    1    1    2    0    0  0.17926214098E+02  0.18094047606E+02 -0.31692632396E+02  0.40659152215E+02  0.00000000000E+00 0. -1.
         11    1    3    3    0    0 -0.26237094820E+01 -0.68507395204E+01  0.12389982046E+02  0.14398893665E+02  0.51100000000E-03 0. -1.
        -11    1    3    3    0    0 -0.21624986916E+02 -0.10225969791E+02  0.16907430606E+02  0.29292861370E+02  0.51100000000E-03 0.  1.
         12    1    3    3    0    0  0.63224823002E+01 -0.10173382947E+01  0.23952197442E+01  0.68370927495E+01  0.00000000000E+00 0. -1.
</event>
<event>
 7    1  0.4971907E-013  0.5052885E+02  0.7816164E-02  0.1300439E+00
        -11   -1    0    0    0    0  0.00000000000E+00  0.00000000000E+00  0.45593999997E+02  0.45594000000E+02  0.51100000000E-03 0.  1.
         11   -1    0    0    0    0 -0.00000000000E+00 -0.00000000000E+00 -0.45593999997E+02  0.45594000000E+02  0.51100000000E-03 0. -1.
    9900012    2    1    2    0    0  0.18865239176E+02 -0.10370129829E+02  0.34492452408E+02  0.50528854473E+02  0.29999983657E+02 0.  0.
         12    1    1    2    0    0 -0.18865239176E+02  0.10370129829E+02 -0.34492452408E+02  0.40659145527E+02  0.00000000000E+00 0. -1.
         11    1    3    3    0    0 -0.51040890249E+01 -0.31289131063E+01  0.24857393820E+01  0.64823392797E+01  0.51100000000E-03 0. -1.
        -11    1    3    3    0    0  0.92643682431E+01  0.52188140145E+01  0.14700194280E+02  0.18142774065E+02  0.51100000000E-03 0.  1.
        -12    1    3    3    0    0  0.14704959958E+02 -0.12460030737E+02  0.17306518746E+02  0.25903741128E+02  0.00000000000E+00 0.  1.
</event>
<event>
 7    1  0.4971907E-013  0.5052889E+02  0.7816164E-02  0.1300439E+00
        -11   -1    0    0    0    0  0.00000000000E+00  0.00000000000E+00  0.45593999997E+02  0.45594000000E+02  0.51100000000E-03 0.  1.
         11   -1    0    0    0    0 -0.00000000000E+00 -0.00000000000E+00 -0.45593999997E+02  0.45594000000E+02  0.51100000000E-03 0. -1.
    9900012    2    1    2    0    0  0.23486103777E+02  0.15537811858E+02  0.29328189369E+02  0.50528888356E+02  0.30000086647E+02 0.  0.
         12    1    1    2    0    0 -0.23486103777E+02 -0.15537811858E+02 -0.29328189369E+02  0.40659111644E+02  0.00000000000E+00 0. -1.
         11    1    3    3    0    0  0.16545614306E+02  0.52757339783E+01  0.15510394115E+02  0.23284394939E+02  0.51100000000E-03 0.  1.
        -11    1    3    3    0    0  0.57822114371E+00  0.11670143482E+00 -0.49481250841E+01  0.49831617498E+01  0.51100000000E-03 0. -1.
         12    1    3    3    0    0  0.63622683272E+01  0.10145376445E+02  0.18765920338E+02  0.22261331668E+02  0.00000000000E+00 0. -1.
</event>
<event>
 7    1  0.4971907E-013  0.5052886E+02  0.7816164E-02  0.1300439E+00
        -11   -1    0    0    0    0  0.00000000000E+00  0.00000000000E+00  0.45593999997E+02  0.45594000000E+02  0.51100000000E-03 0. -1.
         11   -1    0    0    0    0 -0.00000000000E+00 -0.00000000000E+00 -0.45593999997E+02  0.45594000000E+02  0.51100000000E-03 0.  1.
    9900012    2    1    2    0    0 -0.32847498340E+02 -0.16547790273E+02 -0.17331423556E+02  0.50528858929E+02  0.29999997202E+02 0.  0.
         12    1    1    2    0    0  0.32847498340E+02  0.16547790273E+02  0.17331423556E+02  0.40659141071E+02  0.00000000000E+00 0. -1.
         11    1    3    3    0    0 -0.13961939114E+02 -0.56525660152E+01 -0.13371810353E+02  0.20141811209E+02  0.51100000000E-03 0.  1.
        -11    1    3    3    0    0  0.41898879906E+01 -0.43917387077E+01 -0.17170660833E+01  0.63079986086E+01  0.51100000000E-03 0. -1.
        -12    1    3    3    0    0 -0.23075447217E+02 -0.65034855501E+01 -0.22425471189E+01  0.24079049112E+02  0.00000000000E+00 0.  1.
</event>
<event>
 7    1  0.4971907E-013  0.5052887E+02  0.7816164E-02  0.1300439E+00
        -11   -1    0    0    0    0  0.00000000000E+00  0.00000000000E+00  0.45593999997E+02  0.45594000000E+02  0.51100000000E-03 0.  1.
         11   -1    0    0    0    0 -0.00000000000E+00 -0.00000000000E+00 -0.45593999997E+02  0.45594000000E+02  0.51100000000E-03 0. -1.
    9900012    2    1    2    0    0  0.48267618613E+01  0.13577311229E+02  0.38020049197E+02  0.50528866325E+02  0.30000019682E+02 0.  0.
         12    1    1    2    0    0 -0.48267618613E+01 -0.13577311229E+02 -0.38020049197E+02  0.40659133675E+02  0.00000000000E+00 0. -1.
         11    1    3    3    0    0 -0.36922812469E+01 -0.20277866279E+01  0.73257883172E+01  0.84505641317E+01  0.51100000000E-03 0. -1.
        -11    1    3    3    0    0 -0.28232874151E+01  0.13010425164E+02  0.26596481294E+02  0.29742476902E+02  0.51100000000E-03 0.  1.
         12    1    3    3    0    0  0.11342330523E+02  0.25946726927E+01  0.40977795852E+01  0.12335825291E+02  0.00000000000E+00 0. -1.
</event>
<event>
 7    1  0.4971907E-013  0.5052889E+02  0.7816164E-02  0.1300439E+00
        -11   -1    0    0    0    0  0.00000000000E+00  0.00000000000E+00  0.45593999997E+02  0.45594000000E+02  0.51100000000E-03 0. -1.
         11   -1    0    0    0    0 -0.00000000000E+00 -0.00000000000E+00 -0.45593999997E+02  0.45594000000E+02  0.51100000000E-03 0.  1.
    9900012    2    1    2    0    0  0.22861604509E+02 -0.23614843057E+02 -0.23934281954E+02  0.50528885081E+02  0.30000076693E+02 0.  0.
         12    1    1    2    0    0 -0.22861604509E+02  0.23614843057E+02  0.23934281954E+02  0.40659114919E+02  0.00000000000E+00 0. -1.
         11    1    3    3    0    0 -0.37570882193E+01 -0.13113286159E+02 -0.64878512147E+01  0.15105171281E+02  0.51100000000E-03 0. -1.
        -11    1    3    3    0    0  0.71045620253E+01 -0.77554112949E+01 -0.28400376147E+01  0.10894357248E+02  0.51100000000E-03 0.  1.
        -12    1    3    3    0    0  0.19514130703E+02 -0.27461456025E+01 -0.14606393124E+02  0.24529356553E+02  0.00000000000E+00 0.  1.
</event>
<event>
 7    1  0.4971907E-013  0.5052885E+02  0.7816164E-02  0.1300439E+00
        -11   -1    0    0    0    0  0.00000000000E+00  0.00000000000E+00  0.45593999997E+02  0.45594000000E+02  0.51100000000E-03 0.  1.
         11   -1    0    0    0    0 -0.00000000000E+00 -0.00000000000E+00 -0.45593999997E+02  0.45594000000E+02  0.51100000000E-03 0. -1.
    9900012    2    1    2    0    0 -0.21852645775E+02  0.76903200844E+01  0.33413877449E+02  0.50528851503E+02  0.29999974628E+02 0.  0.
         12    1    1    2    0    0  0.21852645775E+02 -0.76903200844E+01 -0.33413877449E+02  0.40659148497E+02  0.00000000000E+00 0. -1.
         11    1    3    3    0    0 -0.81499880982E+01 -0.15764863268E+01 -0.36571710221E+01  0.90709710222E+01  0.51100000000E-03 0. -1.
        -11    1    3    3    0    0 -0.57490765616E+01 -0.40215535392E-01  0.74792103494E+01  0.94335616981E+01  0.51100000000E-03 0.  1.
        -12    1    3    3    0    0 -0.79535811151E+01  0.93070219467E+01  0.29591838121E+02  0.32024318782E+02  0.00000000000E+00 0.  1.
</event>
<event>
 7    1  0.4971907E-013  0.5052887E+02  0.7816164E-02  0.1300439E+00
        -11   -1    0    0    0    0  0.00000000000E+00  0.00000000000E+00  0.45593999997E+02  0.45594000000E+02  0.51100000000E-03 0.  1.
         11   -1    0    0    0    0 -0.00000000000E+00 -0.00000000000E+00 -0.45593999997E+02  0.45594000000E+02  0.51100000000E-03 0. -1.
    9900012    2    1    2    0    0  0.13656712336E+02 -0.13583200198E+01  0.38272885256E+02  0.50528873461E+02  0.30000041371E+02 0.  0.
         12    1    1    2    0    0 -0.13656712336E+02  0.13583200198E+01 -0.38272885256E+02  0.40659126539E+02  0.00000000000E+00 0. -1.
         11    1    3    3    0    0 -0.27457171835E+01  0.16533149773E-01  0.94754030691E+00  0.29046633352E+01  0.51100000000E-03 0. -1.
        -11    1    3    3    0    0  0.31100049563E+01 -0.93149781519E+01  0.27708631729E+02  0.29397435626E+02  0.51100000000E-03 0.  1.
         12    1    3    3    0    0  0.13292424563E+02  0.79401249823E+01  0.96167132204E+01  0.18226774500E+02  0.00000000000E+00 0. -1.
</event>
<event>
 7    1  0.4971907E-013  0.5052883E+02  0.7816164E-02  0.1300439E+00
        -11   -1    0    0    0    0  0.00000000000E+00  0.00000000000E+00  0.45593999997E+02  0.45594000000E+02  0.51100000000E-03 0.  1.
         11   -1    0    0    0    0 -0.00000000000E+00 -0.00000000000E+00 -0.45593999997E+02  0.45594000000E+02  0.51100000000E-03 0. -1.
    9900012    2    1    2    0    0  0.95787027980E+01  0.16187537939E+01  0.39481590574E+02  0.50528832455E+02  0.29999916732E+02 0.  0.
         12    1    1    2    0    0 -0.95787027980E+01 -0.16187537939E+01 -0.39481590574E+02  0.40659167545E+02  0.00000000000E+00 0. -1.
         11    1    3    3    0    0 -0.15790873731E+01  0.96473512296E+01  0.15982768160E+02  0.18735361779E+02  0.51100000000E-03 0. -1.
        -11    1    3    3    0    0 -0.61145485340E+00 -0.11770443300E+01 -0.22804865924E+01  0.26381678779E+01  0.51100000000E-03 0.  1.
        -12    1    3    3    0    0  0.11769245024E+02 -0.68515531056E+01  0.25779309007E+02  0.29155302799E+02  0.00000000000E+00 0.  1.
</event>
<event>
 7    1  0.4971907E-013  0.5052887E+02  0.7816164E-02  0.1300439E+00
        -11   -1    0    0    0    0  0.00000000000E+00  0.00000000000E+00  0.45593999997E+02  0.45594000000E+02  0.51100000000E-03 0. -1.
         11   -1    0    0    0    0 -0.00000000000E+00 -0.00000000000E+00 -0.45593999997E+02  0.45594000000E+02  0.51100000000E-03 0.  1.
    9900012    2    1    2    0    0  0.29691253329E+02 -0.55133213506E+01 -0.27224950386E+02  0.50528866216E+02  0.30000019349E+02 0.  0.
         12    1    1    2    0    0 -0.29691253329E+02  0.55133213506E+01  0.27224950386E+02  0.40659133784E+02  0.00000000000E+00 0. -1.
         11    1    3    3    0    0  0.20025876405E+02 -0.62718757632E+01 -0.12175706997E+02  0.24261491968E+02  0.51100000000E-03 0.  1.
        -11    1    3    3    0    0  0.10649657012E+02  0.26459576993E+01 -0.18907342021E+02  0.21861012538E+02  0.51100000000E-03 0. -1.
         12    1    3    3    0    0 -0.98428008876E+00 -0.18874032866E+01  0.38580986318E+01  0.44063617092E+01  0.00000000000E+00 0. -1.
</event>
<event>
 7    1  0.4971907E-013  0.5052885E+02  0.7816164E-02  0.1300439E+00
        -11   -1    0    0    0    0  0.00000000000E+00  0.00000000000E+00  0.45593999997E+02  0.45594000000E+02  0.51100000000E-03 0. -1.
         11   -1    0    0    0    0 -0.00000000000E+00 -0.00000000000E+00 -0.45593999997E+02  0.45594000000E+02  0.51100000000E-03 0.  1.
    9900012    2    1    2    0    0 -0.30602593787E+02 -0.21934019250E+02 -0.15347527034E+02  0.50528849333E+02  0.29999968033E+02 0.  0.
         12    1    1    2    0    0  0.30602593787E+02  0.21934019250E+02  0.15347527034E+02  0.40659150667E+02  0.00000000000E+00 0. -1.
         11    1    3    3    0    0 -0.10510462245E+02 -0.25286004360E-01 -0.10174884559E+02  0.14628695500E+02  0.51100000000E-03 0. -1.
        -11    1    3    3    0    0 -0.19992336782E+02 -0.19428208647E+02 -0.10684703039E+02  0.29854843837E+02  0.51100000000E-03 0.  1.
         12    1    3    3    0    0 -0.99794759435E-01 -0.24805245981E+01  0.55120605647E+01  0.60453099958E+01  0.00000000000E+00 0. -1.
</event>
<event>
 7    1  0.4971907E-013  0.5052886E+02  0.7816164E-02  0.1300439E+00
        -11   -1    0    0    0    0  0.00000000000E+00  0.00000000000E+00  0.45593999997E+02  0.45594000000E+02  0.51100000000E-03 0. -1.
         11   -1    0    0    0    0 -0.00000000000E+00 -0.00000000000E+00 -0.45593999997E+02  0.45594000000E+02  0.51100000000E-03 0.  1.
    9900012    2    1    2    0    0  0.33194015229E+02 -0.22600928434E+02  0.63656049556E+01  0.50528861550E+02  0.30000005167E+02 0.  0.
         12    1    1    2    0    0 -0.33194015229E+02  0.22600928434E+02 -0.63656049556E+01  0.40659138450E+02  0.00000000000E+00 0. -1.
         11    1    3    3    0    0  0.92823527926E+01 -0.91016185623E+01  0.41711287821E+01  0.13652833017E+02  0.51100000000E-03 0. -1.
        -11    1    3    3    0    0  0.23241335654E+02 -0.17400515998E+02  0.77542775040E+01  0.30051064205E+02  0.51100000000E-03 0.  1.
        -12    1    3    3    0    0  0.67032678245E+00  0.39012061270E+01 -0.55598013306E+01  0.68249643278E+01  0.00000000000E+00 0.  1.
</event>
<event>
 7    1  0.4971907E-013  0.5052885E+02  0.7816164E-02  0.1300439E+00
        -11   -1    0    0    0    0  0.00000000000E+00  0.00000000000E+00  0.45593999997E+02  0.45594000000E+02  0.51100000000E-03 0. -1.
         11   -1    0    0    0    0 -0.00000000000E+00 -0.00000000000E+00 -0.45593999997E+02  0.45594000000E+02  0.51100000000E-03 0.  1.
    9900012    2    1    2    0    0  0.33725383664E+02  0.35442208012E+00 -0.22707698302E+02  0.50528847519E+02  0.29999962518E+02 0.  0.
         12    1    1    2    0    0 -0.33725383664E+02 -0.35442208012E+00  0.22707698302E+02  0.40659152481E+02  0.00000000000E+00 0. -1.
         11    1    3    3    0    0  0.26144967117E+02 -0.53443888068E+00 -0.57853261999E+01  0.26782735670E+02  0.51100000000E-03 0. -1.
        -11    1    3    3    0    0  0.84256591376E+01  0.67064888202E+01 -0.11357188601E+02  0.15651020969E+02  0.51100000000E-03 0.  1.
         12    1    3    3    0    0 -0.84524259022E+00 -0.58176278594E+01 -0.55651835015E+01  0.80950908798E+01  0.00000000000E+00 0. -1.
</event>
<event>
 7    1  0.4971907E-013  0.5052886E+02  0.7816164E-02  0.1300439E+00
        -11   -1    0    0    0    0  0.00000000000E+00  0.00000000000E+00  0.45593999997E+02  0.45594000000E+02  0.51100000000E-03 0. -1.
         11   -1    0    0    0    0 -0.00000000000E+00 -0.00000000000E+00 -0.45593999997E+02  0.45594000000E+02  0.51100000000E-03 0.  1.
    9900012    2    1    2    0    0  0.10221196794E+02 -0.28009784475E+02 -0.27643169728E+02  0.50528859295E+02  0.29999998314E+02 0.  0.
         12    1    1    2    0    0 -0.10221196794E+02  0.28009784475E+02  0.27643169728E+02  0.40659140705E+02  0.00000000000E+00 0. -1.
         11    1    3    3    0    0 -0.54713109449E+01 -0.45876544777E+01 -0.35479695007E+01  0.79730737424E+01  0.51100000000E-03 0. -1.
        -11    1    3    3    0    0  0.40455953403E+01 -0.22850138859E+02 -0.13789226809E+02  0.26993304055E+02  0.51100000000E-03 0.  1.
        -12    1    3    3    0    0  0.11646912399E+02 -0.57199113791E+00 -0.10305973418E+02  0.15562481498E+02  0.00000000000E+00 0.  1.
</event>
<event>
 7    1  0.4971907E-013  0.5052889E+02  0.7816164E-02  0.1300439E+00
        -11   -1    0    0    0    0  0.00000000000E+00  0.00000000000E+00  0.45593999997E+02  0.45594000000E+02  0.51100000000E-03 0.  1.
         11   -1    0    0    0    0 -0.00000000000E+00 -0.00000000000E+00 -0.45593999997E+02  0.45594000000E+02  0.51100000000E-03 0. -1.
    9900012    2    1    2    0    0  0.58868509479E+01 -0.82067120888E+00  0.40222316380E+02  0.50528889702E+02  0.30000090737E+02 0.  0.
         12    1    1    2    0    0 -0.58868509479E+01  0.82067120888E+00 -0.40222316380E+02  0.40659110298E+02  0.00000000000E+00 0. -1.
         11    1    3    3    0    0 -0.19560581485E+01  0.59012437153E+01  0.11143967762E+01  0.63160685005E+01  0.51100000000E-03 0. -1.
        -11    1    3    3    0    0  0.73198072334E+01  0.13858886176E+01  0.33554458982E+02  0.34371528669E+02  0.51100000000E-03 0.  1.
        -12    1    3    3    0    0  0.52310186308E+00 -0.81078035417E+01  0.55534606212E+01  0.98412925320E+01  0.00000000000E+00 0.  1.
</event>
<event>
 7    1  0.4971907E-013  0.5052882E+02  0.7816164E-02  0.1300439E+00
        -11   -1    0    0    0    0  0.00000000000E+00  0.00000000000E+00  0.45593999997E+02  0.45594000000E+02  0.51100000000E-03 0.  1.
         11   -1    0    0    0    0 -0.00000000000E+00 -0.00000000000E+00 -0.45593999997E+02  0.45594000000E+02  0.51100000000E-03 0. -1.
    9900012    2    1    2    0    0 -0.26751654237E+02  0.18097879452E+02  0.24697872290E+02  0.50528817265E+02  0.29999870558E+02 0.  0.
         12    1    1    2    0    0  0.26751654237E+02 -0.18097879452E+02 -0.24697872290E+02  0.40659182735E+02  0.00000000000E+00 0. -1.
         11    1    3    3    0    0 -0.10303285389E+02  0.11037709671E+02  0.48364692167E+01  0.15854972700E+02  0.51100000000E-03 0. -1.
        -11    1    3    3    0    0 -0.13868537086E+02  0.43786251022E+01  0.24643325548E+02  0.28614719517E+02  0.51100000000E-03 0.  1.
         12    1    3    3    0    0 -0.25798317616E+01  0.26815446791E+01 -0.47819224754E+01  0.60591250478E+01  0.00000000000E+00 0. -1.
</event>
<event>
 7    1  0.4971907E-013  0.5052886E+02  0.7816164E-02  0.1300439E+00
        -11   -1    0    0    0    0  0.00000000000E+00  0.00000000000E+00  0.45593999997E+02  0.45594000000E+02  0.51100000000E-03 0.  1.
         11   -1    0    0    0    0 -0.00000000000E+00 -0.00000000000E+00 -0.45593999997E+02  0.45594000000E+02  0.51100000000E-03 0. -1.
    9900012    2    1    2    0    0 -0.23720229303E+02  0.90991174015E+01  0.31744642820E+02  0.50528861256E+02  0.30000004274E+02 0.  0.
         12    1    1    2    0    0  0.23720229303E+02 -0.90991174015E+01 -0.31744642820E+02  0.40659138744E+02  0.00000000000E+00 0. -1.
         11    1    3    3    0    0 -0.28699980875E+00 -0.21559215893E+01 -0.69891761274E+00  0.22844808776E+01  0.51100000000E-03 0. -1.
        -11    1    3    3    0    0 -0.23613566779E+02  0.15875769391E+02  0.19487271737E+02  0.34487597043E+02  0.51100000000E-03 0.  1.
         12    1    3    3    0    0  0.18033728554E+00 -0.46207304005E+01  0.12956288695E+02  0.13756783335E+02  0.00000000000E+00 0. -1.
</event>
<event>
 7    1  0.4971907E-013  0.5052886E+02  0.7816164E-02  0.1300439E+00
        -11   -1    0    0    0    0  0.00000000000E+00  0.00000000000E+00  0.45593999997E+02  0.45594000000E+02  0.51100000000E-03 0.  1.
         11   -1    0    0    0    0 -0.00000000000E+00 -0.00000000000E+00 -0.45593999997E+02  0.45594000000E+02  0.51100000000E-03 0. -1.
    9900012    2    1    2    0    0  0.54233640447E+01  0.27683999796E+02  0.29280518751E+02  0.50528862028E+02  0.30000006620E+02 0.  0.
         12    1    1    2    0    0 -0.54233640447E+01 -0.27683999796E+02 -0.29280518751E+02  0.40659137972E+02  0.00000000000E+00 0. -1.
         11    1    3    3    0    0 -0.63810036629E+01  0.37837851074E+01  0.12588190214E+02  0.14611528689E+02  0.51100000000E-03 0. -1.
        -11    1    3    3    0    0  0.32622993533E+01 -0.14782869829E+01  0.61948153426E+01  0.71556737533E+01  0.51100000000E-03 0.  1.
        -12    1    3    3    0    0  0.85420683543E+01  0.25378501672E+02  0.10497513195E+02  0.28761659586E+02  0.00000000000E+00 0.  1.
</event>
<event>
 7    1  0.4971907E-013  0.5052886E+02  0.7816164E-02  0.1300439E+00
        -11   -1    0    0    0    0  0.00000000000E+00  0.00000000000E+00  0.45593999997E+02  0.45594000000E+02  0.51100000000E-03 0.  1.
         11   -1    0    0    0    0 -0.00000000000E+00 -0.00000000000E+00 -0.45593999997E+02  0.45594000000E+02  0.51100000000E-03 0. -1.
    9900012    2    1    2    0    0  0.38429341987E+01 -0.10058578668E+02  0.39207427668E+02  0.50528861637E+02  0.30000005433E+02 0.  0.
         12    1    1    2    0    0 -0.38429341987E+01  0.10058578668E+02 -0.39207427668E+02  0.40659138363E+02  0.00000000000E+00 0. -1.
         11    1    3    3    0    0 -0.33295979741E+00 -0.73019954909E+01  0.72708519710E+01  0.10309960670E+02  0.51100000000E-03 0. -1.
        -11    1    3    3    0    0  0.13018390665E+02  0.21143052134E+01  0.11816370864E+02  0.17708060388E+02  0.51100000000E-03 0.  1.
         12    1    3    3    0    0 -0.88424966694E+01 -0.48708883907E+01  0.20120204833E+02  0.22510840579E+02  0.00000000000E+00 0. -1.
</event>
<event>
 7    1  0.4971907E-013  0.5052886E+02  0.7816164E-02  0.1300439E+00
        -11   -1    0    0    0    0  0.00000000000E+00  0.00000000000E+00  0.45593999997E+02  0.45594000000E+02  0.51100000000E-03 0. -1.
         11   -1    0    0    0    0 -0.00000000000E+00 -0.00000000000E+00 -0.45593999997E+02  0.45594000000E+02  0.51100000000E-03 0.  1.
    9900012    2    1    2    0    0  0.27926476011E+02  0.26451010220E+02 -0.13176566575E+02  0.50528856985E+02  0.29999991290E+02 0.  0.
         12    1    1    2    0    0 -0.27926476011E+02 -0.26451010220E+02  0.13176566575E+02  0.40659143015E+02  0.00000000000E+00 0. -1.
         11    1    3    3    0    0  0.15260784039E+02  0.14874001517E+02 -0.11293883274E+02  0.24118027495E+02  0.51100000000E-03 0. -1.
        -11    1    3    3    0    0  0.69644932087E+01  0.16941976403E+02 -0.27937196303E+01  0.18529425240E+02  0.51100000000E-03 0.  1.
         12    1    3    3    0    0  0.57011987630E+01 -0.53649676995E+01  0.91103632849E+00  0.78814042495E+01  0.00000000000E+00 0. -1.
</event>
<event>
 7    1  0.4971907E-013  0.5052886E+02  0.7816164E-02  0.1300439E+00
        -11   -1    0    0    0    0  0.00000000000E+00  0.00000000000E+00  0.45593999997E+02  0.45594000000E+02  0.51100000000E-03 0. -1.
         11   -1    0    0    0    0 -0.00000000000E+00 -0.00000000000E+00 -0.45593999997E+02  0.45594000000E+02  0.51100000000E-03 0.  1.
    9900012    2    1    2    0    0 -0.10511453220E+02  0.69607751069E+01 -0.38655180910E+02  0.50528855271E+02  0.29999986081E+02 0.  0.
         12    1    1    2    0    0  0.10511453220E+02 -0.69607751069E+01  0.38655180910E+02  0.40659144729E+02  0.00000000000E+00 0. -1.
         11    1    3    3    0    0 -0.29131851014E+00 -0.28784945822E+01 -0.28185515173E+02  0.28333617195E+02  0.51100000000E-03 0. -1.
        -11    1    3    3    0    0  0.15893650049E+01  0.56459078877E+01 -0.71172737804E+01  0.92226863398E+01  0.51100000000E-03 0.  1.
         12    1    3    3    0    0 -0.11809499715E+02  0.41933618014E+01 -0.33523919574E+01  0.12972551736E+02  0.00000000000E+00 0. -1.
</event>
<event>
 7    1  0.4971907E-013  0.5052887E+02  0.7816164E-02  0.1300439E+00
        -11   -1    0    0    0    0  0.00000000000E+00  0.00000000000E+00  0.45593999997E+02  0.45594000000E+02  0.51100000000E-03 0.  1.
         11   -1    0    0    0    0 -0.00000000000E+00 -0.00000000000E+00 -0.45593999997E+02  0.45594000000E+02  0.51100000000E-03 0. -1.
    9900012    2    1    2    0    0 -0.30326035260E+02 -0.15412235317E+02  0.22270154690E+02  0.50528865700E+02  0.30000017782E+02 0.  0.
         12    1    1    2    0    0  0.30326035260E+02  0.15412235317E+02 -0.22270154690E+02  0.40659134300E+02  0.00000000000E+00 0. -1.
         11    1    3    3    0    0 -0.33424187913E+00  0.47915078026E+01  0.24628363797E+00  0.48094615652E+01  0.51100000000E-03 0. -1.
        -11    1    3    3    0    0 -0.43775283943E+01 -0.11537295049E+02  0.10954738728E+02  0.16500855516E+02  0.51100000000E-03 0.  1.
        -12    1    3    3    0    0 -0.25614264987E+02 -0.86664480705E+01  0.11069132324E+02  0.29218548619E+02  0.00000000000E+00 0.  1.
</event>
<event>
 7    1  0.4971907E-013  0.5052886E+02  0.7816164E-02  0.1300439E+00
        -11   -1    0    0    0    0  0.00000000000E+00  0.00000000000E+00  0.45593999997E+02  0.45594000000E+02  0.51100000000E-03 0.  1.
         11   -1    0    0    0    0 -0.00000000000E+00 -0.00000000000E+00 -0.45593999997E+02  0.45594000000E+02  0.51100000000E-03 0. -1.
    9900012    2    1    2    0    0 -0.37822434561E+02 -0.11896553069E+02  0.90056238868E+01  0.50528858437E+02  0.29999995705E+02 0.  0.
         12    1    1    2    0    0  0.37822434561E+02  0.11896553069E+02 -0.90056238868E+01  0.40659141563E+02  0.00000000000E+00 0. -1.
         11    1    3    3    0    0  0.19905201490E+01  0.22919363422E+01 -0.13735143311E+01  0.33319190475E+01  0.51100000000E-03 0. -1.
        -11    1    3    3    0    0 -0.13515070015E+02 -0.31840977579E+01  0.12402626354E+02  0.18617753269E+02  0.51100000000E-03 0.  1.
        -12    1    3    3    0    0 -0.26297884695E+02 -0.11004391653E+02 -0.20234881358E+01  0.28579186121E+02  0.00000000000E+00 0.  1.
</event>
<event>
 7    1  0.4971907E-013  0.5052887E+02  0.7816164E-02  0.1300439E+00
        -11   -1    0    0    0    0  0.00000000000E+00  0.00000000000E+00  0.45593999997E+02  0.45594000000E+02  0.51100000000E-03 0.  1.
         11   -1    0    0    0    0 -0.00000000000E+00 -0.00000000000E+00 -0.45593999997E+02  0.45594000000E+02  0.51100000000E-03 0. -1.
    9900012    2    1    2    0    0 -0.29938544345E+02 -0.20152508502E+02  0.18727658986E+02  0.50528865141E+02  0.30000016084E+02 0.  0.
         12    1    1    2    0    0  0.29938544345E+02  0.20152508502E+02 -0.18727658986E+02  0.40659134859E+02  0.00000000000E+00 0. -1.
         11    1    3    3    0    0  0.26067006713E+01  0.50315117692E+00 -0.73155504376E+00  0.27537651570E+01  0.51100000000E-03 0. -1.
        -11    1    3    3    0    0 -0.12887058497E+02 -0.19362036085E+02  0.14676769331E+02  0.27502223116E+02  0.51100000000E-03 0.  1.
        -12    1    3    3    0    0 -0.19658186519E+02 -0.12936235932E+01  0.47824446978E+01  0.20272876868E+02  0.00000000000E+00 0.  1.
</event>
<event>
 7    1  0.4971907E-013  0.5052886E+02  0.7816164E-02  0.1300439E+00
        -11   -1    0    0    0    0  0.00000000000E+00  0.00000000000E+00  0.45593999997E+02  0.45594000000E+02  0.51100000000E-03 0.  1.
         11   -1    0    0    0    0 -0.00000000000E+00 -0.00000000000E+00 -0.45593999997E+02  0.45594000000E+02  0.51100000000E-03 0. -1.
    9900012    2    1    2    0    0 -0.14015701965E+01 -0.40297703506E+02  0.52246204176E+01  0.50528856313E+02  0.29999989249E+02 0.  0.
         12    1    1    2    0    0  0.14015701965E+01  0.40297703506E+02 -0.52246204176E+01  0.40659143687E+02  0.00000000000E+00 0. -1.
         11    1    3    3    0    0 -0.88391366001E+01 -0.12962173110E+02 -0.26498341655E+00  0.15691350613E+02  0.51100000000E-03 0. -1.
        -11    1    3    3    0    0 -0.29674226977E+01 -0.15143205480E+02  0.97487297757E+01  0.18252671097E+02  0.51100000000E-03 0.  1.
         12    1    3    3    0    0  0.10404989101E+02 -0.12192324915E+02 -0.42591259416E+01  0.16584834603E+02  0.00000000000E+00 0. -1.
</event>
<event>
 7    1  0.4971907E-013  0.5052886E+02  0.7816164E-02  0.1300439E+00
        -11   -1    0    0    0    0  0.00000000000E+00  0.00000000000E+00  0.45593999997E+02  0.45594000000E+02  0.51100000000E-03 0.  1.
         11   -1    0    0    0    0 -0.00000000000E+00 -0.00000000000E+00 -0.45593999997E+02  0.45594000000E+02  0.51100000000E-03 0. -1.
    9900012    2    1    2    0    0 -0.32657095147E+02 -0.13152628223E+02  0.20339326349E+02  0.50528859713E+02  0.29999999583E+02 0.  0.
         12    1    1    2    0    0  0.32657095147E+02  0.13152628223E+02 -0.20339326349E+02  0.40659140287E+02  0.00000000000E+00 0. -1.
         11    1    3    3    0    0  0.15941406338E+01  0.18872141459E+01 -0.16486001178E+00  0.24758918954E+01  0.51100000000E-03 0. -1.
        -11    1    3    3    0    0 -0.19356530583E+02 -0.25397319056E+01 -0.36893842249E+00  0.19525922006E+02  0.51100000000E-03 0.  1.
         12    1    3    3    0    0 -0.14894705197E+02 -0.12500110463E+02  0.20873124783E+02  0.28527045811E+02  0.00000000000E+00 0. -1.
</event>
<event>
 7    1  0.4971907E-013  0.5052886E+02  0.7816164E-02  0.1300439E+00
        -11   -1    0    0    0    0  0.00000000000E+00  0.00000000000E+00  0.45593999997E+02  0.45594000000E+02  0.51100000000E-03 0.  1.
         11   -1    0    0    0    0 -0.00000000000E+00 -0.00000000000E+00 -0.45593999997E+02  0.45594000000E+02  0.51100000000E-03 0. -1.
    9900012    2    1    2    0    0 -0.25253349566E+02  0.31024183893E+02  0.72755621456E+01  0.50528862588E+02  0.30000008324E+02 0.  0.
         12    1    1    2    0    0  0.25253349566E+02 -0.31024183893E+02 -0.72755621456E+01  0.40659137412E+02  0.00000000000E+00 0. -1.
         11    1    3    3    0    0 -0.74223926859E+01  0.19733060309E+02  0.43569371249E+01  0.21528318182E+02  0.51100000000E-03 0. -1.
        -11    1    3    3    0    0 -0.14661415245E+01  0.21048051259E+01  0.89325976939E+01  0.92936041131E+01  0.51100000000E-03 0.  1.
         12    1    3    3    0    0 -0.16364815356E+02  0.91863184577E+01 -0.60139726732E+01  0.19706940294E+02  0.00000000000E+00 0. -1.
</event>
<event>
 7    1  0.4971907E-013  0.5052894E+02  0.7816164E-02  0.1300439E+00
        -11   -1    0    0    0    0  0.00000000000E+00  0.00000000000E+00  0.45593999997E+02  0.45594000000E+02  0.51100000000E-03 0.  1.
         11   -1    0    0    0    0 -0.00000000000E+00 -0.00000000000E+00 -0.45593999997E+02  0.45594000000E+02  0.51100000000E-03 0. -1.
    9900012    2    1    2    0    0 -0.29284424395E+02 -0.13408068828E+01  0.28174167162E+02  0.50528942331E+02  0.30000250708E+02 0.  0.
         12    1    1    2    0    0  0.29284424395E+02  0.13408068828E+01 -0.28174167162E+02  0.40659057669E+02  0.00000000000E+00 0. -1.
         11    1    3    3    0    0 -0.87199365631E+00  0.29630695439E+01  0.16134076851E+01  0.34847150067E+01  0.51100000000E-03 0. -1.
        -11    1    3    3    0    0 -0.24653791595E+02 -0.69236647730E+01  0.31308005355E+02  0.40446727599E+02  0.51100000000E-03 0.  1.
         12    1    3    3    0    0 -0.37586391437E+01  0.26197883463E+01 -0.47472458783E+01  0.65974997250E+01  0.00000000000E+00 0. -1.
</event>
<event>
 7    1  0.9759306E-013  0.5052885E+02  0.7816164E-02  0.1300439E+00
        -11   -1    0    0    0    0  0.00000000000E+00  0.00000000000E+00  0.45593999997E+02  0.45594000000E+02  0.51100000000E-03 0.  1.
         11   -1    0    0    0    0 -0.00000000000E+00 -0.00000000000E+00 -0.45593999997E+02  0.45594000000E+02  0.51100000000E-03 0. -1.
    9900012    2    1    2    0    0  0.34411221522E+01 -0.38740335619E+02  0.11853741242E+02  0.50528854571E+02  0.29999983955E+02 0.  0.
         12    1    1    2    0    0 -0.34411221522E+01  0.38740335619E+02 -0.11853741242E+02  0.40659145429E+02  0.00000000000E+00 0. -1.
         11    1    3    3    0    0 -0.45874795391E+01 -0.23249258064E+01 -0.75613811338E+00  0.51982683304E+01  0.51100000000E-03 0. -1.
        -11    1    3    3    0    0  0.30601471222E+01  0.29693974571E+00  0.72793902077E+01  0.79020374385E+01  0.51100000000E-03 0.  1.
        -12    1    3    3    0    0  0.49684545691E+01 -0.36712349558E+02  0.53304891480E+01  0.37428548802E+02  0.00000000000E+00 0.  1.
</event>
<event>
 7    1  0.4971907E-013  0.5052886E+02  0.7816164E-02  0.1300439E+00
        -11   -1    0    0    0    0  0.00000000000E+00  0.00000000000E+00  0.45593999997E+02  0.45594000000E+02  0.51100000000E-03 0. -1.
         11   -1    0    0    0    0 -0.00000000000E+00 -0.00000000000E+00 -0.45593999997E+02  0.45594000000E+02  0.51100000000E-03 0.  1.
    9900012    2    1    2    0    0 -0.38335634513E+02  0.17649248000E+01 -0.13432416909E+02  0.50528860104E+02  0.30000000773E+02 0.  0.
         12    1    1    2    0    0  0.38335634513E+02 -0.17649248000E+01  0.13432416909E+02  0.40659139896E+02  0.00000000000E+00 0. -1.
         11    1    3    3    0    0  0.30564778327E+01 -0.66399538327E+00 -0.88249460071E+00  0.32498836275E+01  0.51100000000E-03 0. -1.
        -11    1    3    3    0    0 -0.85814583606E+01  0.69071348568E+01  0.18474369368E+01  0.11169734241E+02  0.51100000000E-03 0.  1.
        -12    1    3    3    0    0 -0.32810653985E+02 -0.44782146735E+01 -0.14397359245E+02  0.36109242235E+02  0.00000000000E+00 0.  1.
</event>
<event>
 7    1  0.4971907E-013  0.5052886E+02  0.7816164E-02  0.1300439E+00
        -11   -1    0    0    0    0  0.00000000000E+00  0.00000000000E+00  0.45593999997E+02  0.45594000000E+02  0.51100000000E-03 0.  1.
         11   -1    0    0    0    0 -0.00000000000E+00 -0.00000000000E+00 -0.45593999997E+02  0.45594000000E+02  0.51100000000E-03 0. -1.
    9900012    2    1    2    0    0 -0.63527712775E+01  0.33074595577E+02  0.22778911578E+02  0.50528863411E+02  0.30000010823E+02 0.  0.
         12    1    1    2    0    0  0.63527712775E+01 -0.33074595577E+02 -0.22778911578E+02  0.40659136589E+02  0.00000000000E+00 0. -1.
         11    1    3    3    0    0  0.48163137046E+01  0.17490098032E+02  0.98876990169E+01  0.20660759884E+02  0.51100000000E-03 0. -1.
        -11    1    3    3    0    0 -0.19357721825E+01 -0.39653922257E+01  0.54285673769E+01  0.69957768313E+01  0.51100000000E-03 0.  1.
        -12    1    3    3    0    0 -0.92333127996E+01  0.19549889771E+02  0.74626451842E+01  0.22872326696E+02  0.00000000000E+00 0.  1.
</event>
<event>
 7    1  0.5642329E-013  0.5052886E+02  0.7816164E-02  0.1300439E+00
        -11   -1    0    0    0    0  0.00000000000E+00  0.00000000000E+00  0.45593999997E+02  0.45594000000E+02  0.51100000000E-03 0. -1.
         11   -1    0    0    0    0 -0.00000000000E+00 -0.00000000000E+00 -0.45593999997E+02  0.45594000000E+02  0.51100000000E-03 0.  1.
    9900012    2    1    2    0    0  0.92602972004E+01  0.17379503016E+02 -0.35571976026E+02  0.50528859482E+02  0.29999998881E+02 0.  0.
         12    1    1    2    0    0 -0.92602972004E+01 -0.17379503016E+02  0.35571976026E+02  0.40659140518E+02  0.00000000000E+00 0. -1.
         11    1    3    3    0    0  0.60678336812E+01  0.13046632496E+02 -0.75058119912E+01  0.16228691844E+02  0.51100000000E-03 0. -1.
        -11    1    3    3    0    0 -0.67111141208E+01  0.65815955477E+01 -0.15694054561E+02  0.18293709343E+02  0.51100000000E-03 0.  1.
        -12    1    3    3    0    0  0.99035776400E+01 -0.22487250277E+01 -0.12372109473E+02  0.16006458295E+02  0.00000000000E+00 0.  1.
</event>
<event>
 7    1  0.4971907E-013  0.5052886E+02  0.7816164E-02  0.1300439E+00
        -11   -1    0    0    0    0  0.00000000000E+00  0.00000000000E+00  0.45593999997E+02  0.45594000000E+02  0.51100000000E-03 0.  1.
         11   -1    0    0    0    0 -0.00000000000E+00 -0.00000000000E+00 -0.45593999997E+02  0.45594000000E+02  0.51100000000E-03 0. -1.
    9900012    2    1    2    0    0  0.40048873929E+02  0.68791275470E+01  0.13896166494E+01  0.50528859167E+02  0.29999997925E+02 0.  0.
         12    1    1    2    0    0 -0.40048873929E+02 -0.68791275470E+01 -0.13896166494E+01  0.40659140833E+02  0.00000000000E+00 0. -1.
         11    1    3    3    0    0  0.23010330261E+02 -0.94025913373E+01  0.12884046091E+00  0.24857606939E+02  0.51100000000E-03 0. -1.
        -11    1    3    3    0    0  0.43267858769E+01 -0.57911998211E+00  0.13020727267E+01  0.45554198078E+01  0.51100000000E-03 0.  1.
         12    1    3    3    0    0  0.12711757791E+02  0.16860838866E+02 -0.41296538140E-01  0.21115832421E+02  0.00000000000E+00 0. -1.
</event>
<event>
 7    1  0.4971907E-013  0.5052890E+02  0.7816164E-02  0.1300439E+00
        -11   -1    0    0    0    0  0.00000000000E+00  0.00000000000E+00  0.45593999997E+02  0.45594000000E+02  0.51100000000E-03 0.  1.
         11   -1    0    0    0    0 -0.00000000000E+00 -0.00000000000E+00 -0.45593999997E+02  0.45594000000E+02  0.51100000000E-03 0. -1.
    9900012    2    1    2    0    0 -0.37090835266E+02  0.16455857212E+02 -0.25762931012E+01  0.50528897901E+02  0.30000115660E+02 0.  0.
         12    1    1    2    0    0  0.37090835266E+02 -0.16455857212E+02  0.25762931012E+01  0.40659102099E+02  0.00000000000E+00 0. -1.
         11    1    3    3    0    0 -0.23763060694E+02  0.63888392283E+01 -0.32692543716E+01  0.24823141313E+02  0.51100000000E-03 0. -1.
        -11    1    3    3    0    0 -0.15445139144E+02  0.45196494464E+01  0.65413359038E+01  0.17371488997E+02  0.51100000000E-03 0.  1.
         12    1    3    3    0    0  0.21173645727E+01  0.55473685375E+01 -0.58483746334E+01  0.83342675909E+01  0.00000000000E+00 0. -1.
</event>
<event>
 7    1  0.4971907E-013  0.5052887E+02  0.7816164E-02  0.1300439E+00
        -11   -1    0    0    0    0  0.00000000000E+00  0.00000000000E+00  0.45593999997E+02  0.45594000000E+02  0.51100000000E-03 0. -1.
         11   -1    0    0    0    0 -0.00000000000E+00 -0.00000000000E+00 -0.45593999997E+02  0.45594000000E+02  0.51100000000E-03 0.  1.
    9900012    2    1    2    0    0  0.23070264700E+02 -0.32115479228E+02 -0.94616998257E+01  0.50528869623E+02  0.30000029707E+02 0.  0.
         12    1    1    2    0    0 -0.23070264700E+02  0.32115479228E+02  0.94616998257E+01  0.40659130377E+02  0.00000000000E+00 0. -1.
         11    1    3    3    0    0  0.12361651455E+02 -0.61645164900E+01 -0.15620032936E+02  0.20851789358E+02  0.51100000000E-03 0. -1.
        -11    1    3    3    0    0  0.50582058570E+01 -0.99341697519E+01 -0.11100770853E+01  0.11202921340E+02  0.51100000000E-03 0.  1.
        -12    1    3    3    0    0  0.56504073879E+01 -0.16016792986E+02  0.72684101960E+01  0.18474158925E+02  0.00000000000E+00 0.  1.
</event>
<event>
 7    1  0.4971907E-013  0.5052886E+02  0.7816164E-02  0.1300439E+00
        -11   -1    0    0    0    0  0.00000000000E+00  0.00000000000E+00  0.45593999997E+02  0.45594000000E+02  0.51100000000E-03 0.  1.
         11   -1    0    0    0    0 -0.00000000000E+00 -0.00000000000E+00 -0.45593999997E+02  0.45594000000E+02  0.51100000000E-03 0. -1.
    9900012    2    1    2    0    0 -0.11078310072E+02 -0.32008337860E+02  0.22492289062E+02  0.50528859405E+02  0.29999998649E+02 0.  0.
         12    1    1    2    0    0  0.11078310072E+02  0.32008337860E+02 -0.22492289062E+02  0.40659140595E+02  0.00000000000E+00 0. -1.
         11    1    3    3    0    0 -0.70726395017E+01 -0.70439464902E-01  0.24533020788E+01  0.74863798054E+01  0.51100000000E-03 0. -1.
        -11    1    3    3    0    0  0.83498500447E+00 -0.42182399320E+01  0.13479696067E+02  0.14148955948E+02  0.51100000000E-03 0.  1.
         12    1    3    3    0    0 -0.48406555752E+01 -0.27719658463E+02  0.65592909158E+01  0.28893523652E+02  0.00000000000E+00 0. -1.
</event>
<event>
 7    1  0.4971907E-013  0.5052886E+02  0.7816164E-02  0.1300439E+00
        -11   -1    0    0    0    0  0.00000000000E+00  0.00000000000E+00  0.45593999997E+02  0.45594000000E+02  0.51100000000E-03 0.  1.
         11   -1    0    0    0    0 -0.00000000000E+00 -0.00000000000E+00 -0.45593999997E+02  0.45594000000E+02  0.51100000000E-03 0. -1.
    9900012    2    1    2    0    0 -0.40242566075E+02 -0.57169932296E+01 -0.10087611611E+01  0.50528859146E+02  0.29999997860E+02 0.  0.
         12    1    1    2    0    0  0.40242566075E+02  0.57169932296E+01  0.10087611611E+01  0.40659140854E+02  0.00000000000E+00 0. -1.
         11    1    3    3    0    0 -0.13174346039E+01  0.15122780719E+01  0.28043895948E+01  0.34477848197E+01  0.51100000000E-03 0. -1.
        -11    1    3    3    0    0 -0.38682098820E+02 -0.23004714663E+01  0.27750003421E+01  0.38849679088E+02  0.51100000000E-03 0.  1.
         12    1    3    3    0    0 -0.24303265177E+00 -0.49287998351E+01 -0.65881510981E+01  0.82313952387E+01  0.00000000000E+00 0. -1.
</event>
<event>
 7    1  0.4971907E-013  0.5052886E+02  0.7816164E-02  0.1300439E+00
        -11   -1    0    0    0    0  0.00000000000E+00  0.00000000000E+00  0.45593999997E+02  0.45594000000E+02  0.51100000000E-03 0.  1.
         11   -1    0    0    0    0 -0.00000000000E+00 -0.00000000000E+00 -0.45593999997E+02  0.45594000000E+02  0.51100000000E-03 0. -1.
    9900012    2    1    2    0    0 -0.81369688925E+01  0.23673706579E+02  0.32039210604E+02  0.50528860042E+02  0.30000000584E+02 0.  0.
         12    1    1    2    0    0  0.81369688925E+01 -0.23673706579E+02 -0.32039210604E+02  0.40659139958E+02  0.00000000000E+00 0. -1.
         11    1    3    3    0    0  0.42574386577E+01  0.61945993117E+01  0.99299478595E+01  0.12454023820E+02  0.51100000000E-03 0. -1.
        -11    1    3    3    0    0 -0.14534629715E+02  0.11607432773E+02  0.25023219723E+02  0.31179311764E+02  0.51100000000E-03 0.  1.
         12    1    3    3    0    0  0.21402221645E+01  0.58716744947E+01 -0.29139569778E+01  0.68955244582E+01  0.00000000000E+00 0. -1.
</event>
<event>
 7    1  0.4971907E-013  0.5052886E+02  0.7816164E-02  0.1300439E+00
        -11   -1    0    0    0    0  0.00000000000E+00  0.00000000000E+00  0.45593999997E+02  0.45594000000E+02  0.51100000000E-03 0.  1.
         11   -1    0    0    0    0 -0.00000000000E+00 -0.00000000000E+00 -0.45593999997E+02  0.45594000000E+02  0.51100000000E-03 0. -1.
    9900012    2    1    2    0    0  0.12164619522E+02  0.29461230808E+02  0.25243288020E+02  0.50528859835E+02  0.29999999956E+02 0.  0.
         12    1    1    2    0    0 -0.12164619522E+02 -0.29461230808E+02 -0.25243288020E+02  0.40659140165E+02  0.00000000000E+00 0. -1.
         11    1    3    3    0    0  0.50494029552E+01 -0.26030908067E+00 -0.18059531170E+01  0.53689568767E+01  0.51100000000E-03 0. -1.
        -11    1    3    3    0    0  0.74896647031E+01  0.40436798589E+01  0.13924326724E+02  0.16319721172E+02  0.51100000000E-03 0.  1.
        -12    1    3    3    0    0 -0.37444813614E+00  0.25677860030E+02  0.13124914413E+02  0.28840181787E+02  0.00000000000E+00 0.  1.
</event>
<event>
 7    1  0.4971907E-013  0.5052885E+02  0.7816164E-02  0.1300439E+00
        -11   -1    0    0    0    0  0.00000000000E+00  0.00000000000E+00  0.45593999997E+02  0.45594000000E+02  0.51100000000E-03 0. -1.
         11   -1    0    0    0    0 -0.00000000000E+00 -0.00000000000E+00 -0.45593999997E+02  0.45594000000E+02  0.51100000000E-03 0.  1.
    9900012    2    1    2    0    0  0.14090222216E+01 -0.19624573109E+02 -0.35581693959E+02  0.50528853940E+02  0.29999982035E+02 0.  0.
         12    1    1    2    0    0 -0.14090222216E+01  0.19624573109E+02  0.35581693959E+02  0.40659146060E+02  0.00000000000E+00 0. -1.
         11    1    3    3    0    0  0.56294134696E+01 -0.64088899178E+01 -0.74537493954E+00  0.85626952562E+01  0.51100000000E-03 0. -1.
        -11    1    3    3    0    0  0.44785204599E+01 -0.13283177402E+02 -0.26164432036E+02  0.29682948833E+02  0.51100000000E-03 0.  1.
         12    1    3    3    0    0 -0.86989117079E+01  0.67494210544E-01 -0.86718869836E+01  0.12283209850E+02  0.00000000000E+00 0. -1.
</event>
<event>
 7    1  0.4971907E-013  0.5052888E+02  0.7816164E-02  0.1300439E+00
        -11   -1    0    0    0    0  0.00000000000E+00  0.00000000000E+00  0.45593999997E+02  0.45594000000E+02  0.51100000000E-03 0.  1.
         11   -1    0    0    0    0 -0.00000000000E+00 -0.00000000000E+00 -0.45593999997E+02  0.45594000000E+02  0.51100000000E-03 0. -1.
    9900012    2    1    2    0    0 -0.15666039564E+02 -0.20644283057E+02  0.31329747543E+02  0.50528876797E+02  0.30000051511E+02 0.  0.
         12    1    1    2    0    0  0.15666039564E+02  0.20644283057E+02 -0.31329747543E+02  0.40659123203E+02  0.00000000000E+00 0. -1.
         11    1    3    3    0    0 -0.34422824602E+01  0.74585743042E+00  0.13464243173E+02  0.13917307798E+02  0.51100000000E-03 0. -1.
        -11    1    3    3    0    0 -0.13530992623E+02 -0.10623325055E+02  0.19088946877E+02  0.25696900391E+02  0.51100000000E-03 0.  1.
         12    1    3    3    0    0  0.13072355194E+01 -0.10766815432E+02 -0.12234425068E+01  0.10914668608E+02  0.00000000000E+00 0. -1.
</event>
<event>
 7    1  0.4971907E-013  0.5052887E+02  0.7816164E-02  0.1300439E+00
        -11   -1    0    0    0    0  0.00000000000E+00  0.00000000000E+00  0.45593999997E+02  0.45594000000E+02  0.51100000000E-03 0.  1.
         11   -1    0    0    0    0 -0.00000000000E+00 -0.00000000000E+00 -0.45593999997E+02  0.45594000000E+02  0.51100000000E-03 0. -1.
    9900012    2    1    2    0    0 -0.42260258503E+01 -0.19196452456E+02  0.35592156159E+02  0.50528872348E+02  0.30000037988E+02 0.  0.
         12    1    1    2    0    0  0.42260258503E+01  0.19196452456E+02 -0.35592156159E+02  0.40659127652E+02  0.00000000000E+00 0. -1.
         11    1    3    3    0    0 -0.11441617038E+01  0.24406678407E+01  0.99628378736E+01  0.10321051510E+02  0.51100000000E-03 0. -1.
        -11    1    3    3    0    0 -0.91551324280E+01 -0.11518155090E+02  0.24197507545E+02  0.28319670162E+02  0.51100000000E-03 0.  1.
         12    1    3    3    0    0  0.60732682816E+01 -0.10118965207E+02  0.14318107406E+01  0.11888150675E+02  0.00000000000E+00 0. -1.
</event>
<event>
 7    1  0.4971907E-013  0.5052883E+02  0.7816164E-02  0.1300439E+00
        -11   -1    0    0    0    0  0.00000000000E+00  0.00000000000E+00  0.45593999997E+02  0.45594000000E+02  0.51100000000E-03 0. -1.
         11   -1    0    0    0    0 -0.00000000000E+00 -0.00000000000E+00 -0.45593999997E+02  0.45594000000E+02  0.51100000000E-03 0.  1.
    9900012    2    1    2    0    0  0.41691175072E+01  0.33636690771E+02 -0.22457955281E+02  0.50528828068E+02  0.29999903394E+02 0.  0.
         12    1    1    2    0    0 -0.41691175072E+01 -0.33636690771E+02  0.22457955281E+02  0.40659171932E+02  0.00000000000E+00 0. -1.
         11    1    3    3    0    0  0.38286368802E+01  0.17847409451E+02 -0.35844283135E+01  0.18602059323E+02  0.51100000000E-03 0. -1.
        -11    1    3    3    0    0  0.31666937484E+01  0.19998151966E+02 -0.17262326685E+02  0.26607178622E+02  0.51100000000E-03 0.  1.
         12    1    3    3    0    0 -0.28262131214E+01 -0.42088706461E+01 -0.16112002829E+01  0.53195901228E+01  0.00000000000E+00 0. -1.
</event>
<event>
 7    1  0.4971907E-013  0.5052886E+02  0.7816164E-02  0.1300439E+00
        -11   -1    0    0    0    0  0.00000000000E+00  0.00000000000E+00  0.45593999997E+02  0.45594000000E+02  0.51100000000E-03 0. -1.
         11   -1    0    0    0    0 -0.00000000000E+00 -0.00000000000E+00 -0.45593999997E+02  0.45594000000E+02  0.51100000000E-03 0.  1.
    9900012    2    1    2    0    0  0.37691221927E+02 -0.49905139172E+01 -0.14409447639E+02  0.50528860551E+02  0.30000002130E+02 0.  0.
         12    1    1    2    0    0 -0.37691221927E+02  0.49905139172E+01  0.14409447639E+02  0.40659139449E+02  0.00000000000E+00 0. -1.
         11    1    3    3    0    0 -0.20617511366E+00 -0.33401989541E+00 -0.88773316368E+01  0.88860055547E+01  0.51100000000E-03 0. -1.
        -11    1    3    3    0    0  0.12332816797E+01  0.34819504382E+01 -0.97704859821E-01  0.36952008141E+01  0.51100000000E-03 0.  1.
        -12    1    3    3    0    0  0.36664115361E+02 -0.81384444600E+01 -0.54344111423E+01  0.37947654182E+02  0.00000000000E+00 0.  1.
</event>
<event>
 7    1  0.4971907E-013  0.5052886E+02  0.7816164E-02  0.1300439E+00
        -11   -1    0    0    0    0  0.00000000000E+00  0.00000000000E+00  0.45593999997E+02  0.45594000000E+02  0.51100000000E-03 0.  1.
         11   -1    0    0    0    0 -0.00000000000E+00 -0.00000000000E+00 -0.45593999997E+02  0.45594000000E+02  0.51100000000E-03 0. -1.
    9900012    2    1    2    0    0 -0.24634846678E+02 -0.32291788479E+02 -0.18790287750E+01  0.50528855602E+02  0.29999987087E+02 0.  0.
         12    1    1    2    0    0  0.24634846678E+02  0.32291788479E+02  0.18790287750E+01  0.40659144398E+02  0.00000000000E+00 0. -1.
         11    1    3    3    0    0  0.10206776779E+01  0.37636584779E+01  0.14139349521E+01  0.41480260812E+01  0.51100000000E-03 0.  1.
        -11    1    3    3    0    0 -0.74177250201E+00 -0.79393137291E+01 -0.37506477796E+01  0.88119400793E+01  0.51100000000E-03 0. -1.
        -12    1    3    3    0    0 -0.24913751854E+02 -0.28116133228E+02  0.45768405246E+00  0.37568889441E+02  0.00000000000E+00 0.  1.
</event>
<event>
 7    1  0.4971907E-013  0.5052893E+02  0.7816164E-02  0.1300439E+00
        -11   -1    0    0    0    0  0.00000000000E+00  0.00000000000E+00  0.45593999997E+02  0.45594000000E+02  0.51100000000E-03 0. -1.
         11   -1    0    0    0    0 -0.00000000000E+00 -0.00000000000E+00 -0.45593999997E+02  0.45594000000E+02  0.51100000000E-03 0.  1.
    9900012    2    1    2    0    0  0.18382067785E+02  0.32159877819E+02 -0.16763107272E+02  0.50528930620E+02  0.30000215113E+02 0.  0.
         12    1    1    2    0    0 -0.18382067785E+02 -0.32159877819E+02  0.16763107272E+02  0.40659069380E+02  0.00000000000E+00 0. -1.
         11    1    3    3    0    0 -0.18308032949E+01  0.12224766801E+02 -0.79730327198E+01  0.14709385271E+02  0.51100000000E-03 0.  1.
        -11    1    3    3    0    0  0.64679966774E+01  0.19725404512E+02 -0.72439694650E+01  0.21986397114E+02  0.51100000000E-03 0. -1.
        -12    1    3    3    0    0  0.13744874402E+02  0.20970650638E+00 -0.15461050874E+01  0.13833148235E+02  0.00000000000E+00 0.  1.
</event>
<event>
 7    1  0.4971907E-013  0.5052886E+02  0.7816164E-02  0.1300439E+00
        -11   -1    0    0    0    0  0.00000000000E+00  0.00000000000E+00  0.45593999997E+02  0.45594000000E+02  0.51100000000E-03 0. -1.
         11   -1    0    0    0    0 -0.00000000000E+00 -0.00000000000E+00 -0.45593999997E+02  0.45594000000E+02  0.51100000000E-03 0.  1.
    9900012    2    1    2    0    0 -0.12793096348E+01  0.36012237128E+02 -0.18832105624E+02  0.50528855169E+02  0.29999985773E+02 0.  0.
         12    1    1    2    0    0  0.12793096348E+01 -0.36012237128E+02  0.18832105624E+02  0.40659144831E+02  0.00000000000E+00 0. -1.
         11    1    3    3    0    0 -0.16682012189E+01 -0.16793406134E+01 -0.66735556013E+00  0.24593584341E+01  0.51100000000E-03 0. -1.
        -11    1    3    3    0    0 -0.81770533888E+00  0.13655835367E+01 -0.10886069232E+02  0.11001816395E+02  0.51100000000E-03 0.  1.
        -12    1    3    3    0    0  0.12065969230E+01  0.36325994205E+02 -0.72786808322E+01  0.37067680340E+02  0.00000000000E+00 0.  1.
</event>
<event>
 7    1  0.4971907E-013  0.5052886E+02  0.7816164E-02  0.1300439E+00
        -11   -1    0    0    0    0  0.00000000000E+00  0.00000000000E+00  0.45593999997E+02  0.45594000000E+02  0.51100000000E-03 0.  1.
         11   -1    0    0    0    0 -0.00000000000E+00 -0.00000000000E+00 -0.45593999997E+02  0.45594000000E+02  0.51100000000E-03 0. -1.
    9900012    2    1    2    0    0 -0.20136130620E+02 -0.85799899890E+01  0.34264933995E+02  0.50528859746E+02  0.29999999682E+02 0.  0.
         12    1    1    2    0    0  0.20136130620E+02  0.85799899890E+01 -0.34264933995E+02  0.40659140254E+02  0.00000000000E+00 0. -1.
         11    1    3    3    0    0  0.58855797587E+00  0.11972177769E+00 -0.44000686704E+01  0.44408713515E+01  0.51100000000E-03 0. -1.
        -11    1    3    3    0    0 -0.12731298539E+02 -0.12874852011E+00  0.14963050076E+02  0.19646765803E+02  0.51100000000E-03 0.  1.
        -12    1    3    3    0    0 -0.79933900568E+01 -0.85709632466E+01  0.23701952589E+02  0.26441222591E+02  0.00000000000E+00 0.  1.
</event>
<event>
 7    1  0.4971907E-013  0.5052887E+02  0.7816164E-02  0.1300439E+00
        -11   -1    0    0    0    0  0.00000000000E+00  0.00000000000E+00  0.45593999997E+02  0.45594000000E+02  0.51100000000E-03 0.  1.
         11   -1    0    0    0    0 -0.00000000000E+00 -0.00000000000E+00 -0.45593999997E+02  0.45594000000E+02  0.51100000000E-03 0. -1.
    9900012    2    1    2    0    0 -0.35281593167E+02 -0.76317898068E+01  0.18711752894E+02  0.50528871524E+02  0.30000035484E+02 0.  0.
         12    1    1    2    0    0  0.35281593167E+02  0.76317898068E+01 -0.18711752894E+02  0.40659128476E+02  0.00000000000E+00 0. -1.
         11    1    3    3    0    0  0.24385104521E+01 -0.55977117894E-01  0.22483534427E+01  0.33173121842E+01  0.51100000000E-03 0. -1.
        -11    1    3    3    0    0 -0.19373224821E+02  0.64988576778E+01  0.11884424665E+02  0.23638877743E+02  0.51100000000E-03 0.  1.
        -12    1    3    3    0    0 -0.18346878798E+02 -0.14074670367E+02  0.45789747869E+01  0.23572681596E+02  0.00000000000E+00 0.  1.
</event>
<event>
 7    1  0.4971907E-013  0.5052883E+02  0.7816164E-02  0.1300439E+00
        -11   -1    0    0    0    0  0.00000000000E+00  0.00000000000E+00  0.45593999997E+02  0.45594000000E+02  0.51100000000E-03 0.  1.
         11   -1    0    0    0    0 -0.00000000000E+00 -0.00000000000E+00 -0.45593999997E+02  0.45594000000E+02  0.51100000000E-03 0. -1.
    9900012    2    1    2    0    0 -0.17310814734E+02  0.36766977328E+02  0.13012993404E+01  0.50528827497E+02  0.29999901661E+02 0.  0.
         12    1    1    2    0    0  0.17310814734E+02 -0.36766977328E+02 -0.13012993404E+01  0.40659172503E+02  0.00000000000E+00 0. -1.
         11    1    3    3    0    0 -0.21062137484E+00  0.11804573189E+01  0.45562495819E+01  0.47113959034E+01  0.51100000000E-03 0. -1.
        -11    1    3    3    0    0 -0.20511638392E+02  0.17200745887E+02 -0.41865432591E+01  0.27094651009E+02  0.51100000000E-03 0.  1.
         12    1    3    3    0    0  0.34114450320E+01  0.18385774122E+02  0.93159301763E+00  0.18722780585E+02  0.00000000000E+00 0. -1.
</event>
<event>
 7    1  0.4971907E-013  0.5052884E+02  0.7816164E-02  0.1300439E+00
        -11   -1    0    0    0    0  0.00000000000E+00  0.00000000000E+00  0.45593999997E+02  0.45594000000E+02  0.51100000000E-03 0. -1.
         11   -1    0    0    0    0 -0.00000000000E+00 -0.00000000000E+00 -0.45593999997E+02  0.45594000000E+02  0.51100000000E-03 0.  1.
    9900012    2    1    2    0    0 -0.33600176623E+02 -0.22844002641E+02  0.15320839410E+01  0.50528836125E+02  0.29999927887E+02 0.  0.
         12    1    1    2    0    0  0.33600176623E+02  0.22844002641E+02 -0.15320839410E+01  0.40659163875E+02  0.00000000000E+00 0. -1.
         11    1    3    3    0    0 -0.15431407355E+02 -0.70520771567E+01  0.23764669816E+01  0.17132067031E+02  0.51100000000E-03 0. -1.
        -11    1    3    3    0    0 -0.10132130958E+02  0.45990782517E+01  0.19670714422E+01  0.11299600384E+02  0.51100000000E-03 0.  1.
         12    1    3    3    0    0 -0.80366383098E+01 -0.20391003736E+02 -0.28114544829E+01  0.22097168710E+02  0.00000000000E+00 0. -1.
</event>
<event>
 7    1  0.4971907E-013  0.5052887E+02  0.7816164E-02  0.1300439E+00
        -11   -1    0    0    0    0  0.00000000000E+00  0.00000000000E+00  0.45593999997E+02  0.45594000000E+02  0.51100000000E-03 0.  1.
         11   -1    0    0    0    0 -0.00000000000E+00 -0.00000000000E+00 -0.45593999997E+02  0.45594000000E+02  0.51100000000E-03 0. -1.
    9900012    2    1    2    0    0 -0.16899633231E+02  0.21440669150E+02  0.30130804151E+02  0.50528865040E+02  0.30000015775E+02 0.  0.
         12    1    1    2    0    0  0.16899633231E+02 -0.21440669150E+02 -0.30130804151E+02  0.40659134960E+02  0.00000000000E+00 0. -1.
         11    1    3    3    0    0 -0.92975150873E+01  0.29983685811E+01 -0.23603837146E+01  0.10050144899E+02  0.51100000000E-03 0. -1.
        -11    1    3    3    0    0 -0.51396898722E+01  0.17887991215E+01  0.22936137821E+01  0.59056649687E+01  0.51100000000E-03 0.  1.
        -12    1    3    3    0    0 -0.24624282714E+01  0.16653501447E+02  0.30197574083E+02  0.34573055172E+02  0.00000000000E+00 0.  1.
</event>
<event>
 7    1  0.4971907E-013  0.5052886E+02  0.7816164E-02  0.1300439E+00
        -11   -1    0    0    0    0  0.00000000000E+00  0.00000000000E+00  0.45593999997E+02  0.45594000000E+02  0.51100000000E-03 0.  1.
         11   -1    0    0    0    0 -0.00000000000E+00 -0.00000000000E+00 -0.45593999997E+02  0.45594000000E+02  0.51100000000E-03 0. -1.
    9900012    2    1    2    0    0 -0.24715484746E+02 -0.81865025034E+01  0.31229654398E+02  0.50528864209E+02  0.30000013249E+02 0.  0.
         12    1    1    2    0    0  0.24715484746E+02  0.81865025034E+01 -0.31229654398E+02  0.40659135791E+02  0.00000000000E+00 0. -1.
         11    1    3    3    0    0 -0.41068100201E+01 -0.67040288533E+01  0.11458562710E+01  0.79449907654E+01  0.51100000000E-03 0. -1.
        -11    1    3    3    0    0 -0.14287071116E+02 -0.89344807139E+01  0.27863658998E+02  0.32562690917E+02  0.51100000000E-03 0.  1.
        -12    1    3    3    0    0 -0.63216036096E+01  0.74520070638E+01  0.22201391286E+01  0.10021182526E+02  0.00000000000E+00 0.  1.
</event>
<event>
 7    1  0.4971907E-013  0.5052886E+02  0.7816164E-02  0.1300439E+00
        -11   -1    0    0    0    0  0.00000000000E+00  0.00000000000E+00  0.45593999997E+02  0.45594000000E+02  0.51100000000E-03 0.  1.
         11   -1    0    0    0    0 -0.00000000000E+00 -0.00000000000E+00 -0.45593999997E+02  0.45594000000E+02  0.51100000000E-03 0. -1.
    9900012    2    1    2    0    0  0.19561614859E+02 -0.59209517703E+01  0.35148985672E+02  0.50528860320E+02  0.30000001429E+02 0.  0.
         12    1    1    2    0    0 -0.19561614859E+02  0.59209517703E+01 -0.35148985672E+02  0.40659139680E+02  0.00000000000E+00 0. -1.
         11    1    3    3    0    0  0.71600812198E+01  0.45260225283E+01  0.13092088722E+02  0.15593409838E+02  0.51100000000E-03 0.  1.
        -11    1    3    3    0    0  0.15320304577E+01  0.25204943037E+01 -0.33160944742E+01  0.44380729693E+01  0.51100000000E-03 0. -1.
        -12    1    3    3    0    0  0.10869503181E+02 -0.12967468602E+02  0.25372991424E+02  0.30497377513E+02  0.00000000000E+00 0.  1.
</event>
<event>
 7    1  0.4971907E-013  0.5052886E+02  0.7816164E-02  0.1300439E+00
        -11   -1    0    0    0    0  0.00000000000E+00  0.00000000000E+00  0.45593999997E+02  0.45594000000E+02  0.51100000000E-03 0.  1.
         11   -1    0    0    0    0 -0.00000000000E+00 -0.00000000000E+00 -0.45593999997E+02  0.45594000000E+02  0.51100000000E-03 0. -1.
    9900012    2    1    2    0    0  0.36209160248E+02 -0.30843998561E+01  0.18235923901E+02  0.50528859222E+02  0.29999998090E+02 0.  0.
         12    1    1    2    0    0 -0.36209160248E+02  0.30843998561E+01 -0.18235923901E+02  0.40659140778E+02  0.00000000000E+00 0. -1.
         11    1    3    3    0    0  0.71937816354E+01  0.26483341187E+01 -0.27876138518E+01  0.81568964116E+01  0.51100000000E-03 0. -1.
        -11    1    3    3    0    0 -0.33734106186E+01 -0.88790804243E+00  0.44904135604E+01  0.56861317342E+01  0.51100000000E-03 0.  1.
        -12    1    3    3    0    0  0.32388789231E+02 -0.48448259324E+01  0.16533124193E+02  0.36685831076E+02  0.00000000000E+00 0.  1.
</event>
<event>
 7    1  0.4971907E-013  0.5052885E+02  0.7816164E-02  0.1300439E+00
        -11   -1    0    0    0    0  0.00000000000E+00  0.00000000000E+00  0.45593999997E+02  0.45594000000E+02  0.51100000000E-03 0. -1.
         11   -1    0    0    0    0 -0.00000000000E+00 -0.00000000000E+00 -0.45593999997E+02  0.45594000000E+02  0.51100000000E-03 0.  1.
    9900012    2    1    2    0    0 -0.51928980736E+01  0.28610505778E+02  0.28418994782E+02  0.50528849792E+02  0.29999969427E+02 0.  0.
         12    1    1    2    0    0  0.51928980736E+01 -0.28610505778E+02 -0.28418994782E+02  0.40659150208E+02  0.00000000000E+00 0. -1.
         11    1    3    3    0    0  0.66035013472E-01 -0.11895274489E+01 -0.11505568479E+00  0.11969019368E+01  0.51100000000E-03 0. -1.
        -11    1    3    3    0    0 -0.20124529274E+01 -0.49428512967E+01  0.41879627110E+01  0.67838615593E+01  0.51100000000E-03 0.  1.
         12    1    3    3    0    0 -0.32464801596E+01  0.34742884523E+02  0.24346087756E+02  0.42548086296E+02  0.00000000000E+00 0. -1.
</event>
<event>
 7    1  0.4971907E-013  0.5052886E+02  0.7816164E-02  0.1300439E+00
        -11   -1    0    0    0    0  0.00000000000E+00  0.00000000000E+00  0.45593999997E+02  0.45594000000E+02  0.51100000000E-03 0.  1.
         11   -1    0    0    0    0 -0.00000000000E+00 -0.00000000000E+00 -0.45593999997E+02  0.45594000000E+02  0.51100000000E-03 0. -1.
    9900012    2    1    2    0    0 -0.87787980069E+01 -0.22997485731E+02  0.32360683080E+02  0.50528862604E+02  0.30000008371E+02 0.  0.
         12    1    1    2    0    0  0.87787980069E+01  0.22997485731E+02 -0.32360683080E+02  0.40659137396E+02  0.00000000000E+00 0. -1.
         11    1    3    3    0    0  0.35324473133E+01 -0.10391699925E+02  0.60531450351E+01  0.12534200271E+02  0.51100000000E-03 0. -1.
        -11    1    3    3    0    0 -0.10941324046E+02 -0.14198545926E+02  0.81068641570E+01  0.19673142225E+02  0.51100000000E-03 0.  1.
         12    1    3    3    0    0 -0.13699212744E+01  0.15927601200E+01  0.18200673888E+02  0.18321520108E+02  0.00000000000E+00 0. -1.
</event>
<event>
 7    1  0.4971907E-013  0.5052886E+02  0.7816164E-02  0.1300439E+00
        -11   -1    0    0    0    0  0.00000000000E+00  0.00000000000E+00  0.45593999997E+02  0.45594000000E+02  0.51100000000E-03 0. -1.
         11   -1    0    0    0    0 -0.00000000000E+00 -0.00000000000E+00 -0.45593999997E+02  0.45594000000E+02  0.51100000000E-03 0.  1.
    9900012    2    1    2    0    0 -0.28441752397E+02 -0.13863754319E+01 -0.29022589129E+02  0.50528855936E+02  0.29999988102E+02 0.  0.
         12    1    1    2    0    0  0.28441752397E+02  0.13863754319E+01  0.29022589129E+02  0.40659144064E+02  0.00000000000E+00 0. -1.
         11    1    3    3    0    0 -0.17662994349E+02 -0.34677207871E+01  0.15001278130E+01  0.18062581226E+02  0.51100000000E-03 0. -1.
        -11    1    3    3    0    0 -0.21973373767E+01  0.38528902049E+00 -0.47086419753E+01  0.52103789391E+01  0.51100000000E-03 0.  1.
         12    1    3    3    0    0 -0.85814206714E+01  0.16960563347E+01 -0.25814074967E+02  0.27255895770E+02  0.00000000000E+00 0. -1.
</event>
<event>
 7    1  0.4971907E-013  0.5052886E+02  0.7816164E-02  0.1300439E+00
        -11   -1    0    0    0    0  0.00000000000E+00  0.00000000000E+00  0.45593999997E+02  0.45594000000E+02  0.51100000000E-03 0.  1.
         11   -1    0    0    0    0 -0.00000000000E+00 -0.00000000000E+00 -0.45593999997E+02  0.45594000000E+02  0.51100000000E-03 0. -1.
    9900012    2    1    2    0    0  0.26315777819E+01  0.77957141523E+01  0.39817927877E+02  0.50528859070E+02  0.29999997629E+02 0.  0.
         12    1    1    2    0    0 -0.26315777819E+01 -0.77957141523E+01 -0.39817927877E+02  0.40659140930E+02  0.00000000000E+00 0. -1.
         11    1    3    3    0    0 -0.92396525465E+01  0.22510228470E+01  0.11901635056E+02  0.15234408433E+02  0.51100000000E-03 0. -1.
        -11    1    3    3    0    0  0.93564775989E+01  0.62458897220E+00  0.28243230809E+02  0.29759265301E+02  0.51100000000E-03 0.  1.
         12    1    3    3    0    0  0.25147527295E+01  0.49201023330E+01 -0.32693798849E+00  0.55351853362E+01  0.00000000000E+00 0. -1.
</event>
<event>
 7    1  0.4971907E-013  0.5052885E+02  0.7816164E-02  0.1300439E+00
        -11   -1    0    0    0    0  0.00000000000E+00  0.00000000000E+00  0.45593999997E+02  0.45594000000E+02  0.51100000000E-03 0. -1.
         11   -1    0    0    0    0 -0.00000000000E+00 -0.00000000000E+00 -0.45593999997E+02  0.45594000000E+02  0.51100000000E-03 0.  1.
    9900012    2    1    2    0    0  0.46788314229E+01 -0.42293974026E+01 -0.40166994215E+02  0.50528847400E+02  0.29999962158E+02 0.  0.
         12    1    1    2    0    0 -0.46788314229E+01  0.42293974026E+01  0.40166994215E+02  0.40659152600E+02  0.00000000000E+00 0. -1.
         11    1    3    3    0    0  0.54753298063E+01 -0.37438499165E+01 -0.51423572291E+01  0.83928235308E+01  0.51100000000E-03 0. -1.
        -11    1    3    3    0    0  0.85224141886E+01 -0.54112463551E+01 -0.72508278088E+01  0.12429305487E+02  0.51100000000E-03 0.  1.
        -12    1    3    3    0    0 -0.93189125720E+01  0.49256988690E+01 -0.27773809177E+02  0.29706718383E+02  0.00000000000E+00 0.  1.
</event>
<event>
 7    1  0.4971907E-013  0.5052886E+02  0.7816164E-02  0.1300439E+00
        -11   -1    0    0    0    0  0.00000000000E+00  0.00000000000E+00  0.45593999997E+02  0.45594000000E+02  0.51100000000E-03 0. -1.
         11   -1    0    0    0    0 -0.00000000000E+00 -0.00000000000E+00 -0.45593999997E+02  0.45594000000E+02  0.51100000000E-03 0.  1.
    9900012    2    1    2    0    0 -0.68299574286E+01  0.39394159004E+02 -0.73903752160E+01  0.50528859233E+02  0.29999998124E+02 0.  0.
         12    1    1    2    0    0  0.68299574286E+01 -0.39394159004E+02  0.73903752160E+01  0.40659140767E+02  0.00000000000E+00 0. -1.
         11    1    3    3    0    0 -0.24688010143E+01  0.14431730924E-01 -0.16177247458E+01  0.29516470550E+01  0.51100000000E-03 0. -1.
        -11    1    3    3    0    0 -0.58785717443E+01 -0.16557027795E+01 -0.15237350594E+01  0.62944996814E+01  0.51100000000E-03 0.  1.
         12    1    3    3    0    0  0.15174153300E+01  0.41035430053E+02 -0.42489154107E+01  0.41282712496E+02  0.00000000000E+00 0. -1.
</event>
<event>
 7    1  0.4971907E-013  0.5052887E+02  0.7816164E-02  0.1300439E+00
        -11   -1    0    0    0    0  0.00000000000E+00  0.00000000000E+00  0.45593999997E+02  0.45594000000E+02  0.51100000000E-03 0.  1.
         11   -1    0    0    0    0 -0.00000000000E+00 -0.00000000000E+00 -0.45593999997E+02  0.45594000000E+02  0.51100000000E-03 0. -1.
    9900012    2    1    2    0    0  0.24958647458E+02  0.12481172490E+02  0.29571121283E+02  0.50528868632E+02  0.30000026693E+02 0.  0.
         12    1    1    2    0    0 -0.24958647458E+02 -0.12481172490E+02 -0.29571121283E+02  0.40659131368E+02  0.00000000000E+00 0. -1.
         11    1    3    3    0    0  0.19825373457E+01 -0.64590423215E-03 -0.53356269938E+01  0.56920444853E+01  0.51100000000E-03 0. -1.
        -11    1    3    3    0    0  0.12046059551E+02  0.80298148260E+01  0.11021885399E+02  0.18195258582E+02  0.51100000000E-03 0.  1.
        -12    1    3    3    0    0  0.10930050561E+02  0.44520035679E+01  0.23884862878E+02  0.26641565565E+02  0.00000000000E+00 0.  1.
</event>
<event>
 7    1  0.4971907E-013  0.5052886E+02  0.7816164E-02  0.1300439E+00
        -11   -1    0    0    0    0  0.00000000000E+00  0.00000000000E+00  0.45593999997E+02  0.45594000000E+02  0.51100000000E-03 0.  1.
         11   -1    0    0    0    0 -0.00000000000E+00 -0.00000000000E+00 -0.45593999997E+02  0.45594000000E+02  0.51100000000E-03 0. -1.
    9900012    2    1    2    0    0  0.30759749690E+02  0.16281440912E+02  0.21021842099E+02  0.50528863704E+02  0.30000011714E+02 0.  0.
         12    1    1    2    0    0 -0.30759749690E+02 -0.16281440912E+02 -0.21021842099E+02  0.40659136296E+02  0.00000000000E+00 0. -1.
         11    1    3    3    0    0  0.25994463911E+02  0.12713700719E+02  0.20056629856E+02  0.35208219799E+02  0.51100000000E-03 0. -1.
        -11    1    3    3    0    0  0.47539469840E+01  0.84648857848E+01  0.27790184698E+01  0.10098378444E+02  0.51100000000E-03 0.  1.
         12    1    3    3    0    0  0.11338794453E-01 -0.48971455917E+01 -0.18138062267E+01  0.52222654607E+01  0.00000000000E+00 0. -1.
</event>
<event>
 7    1  0.4971907E-013  0.5052886E+02  0.7816164E-02  0.1300439E+00
        -11   -1    0    0    0    0  0.00000000000E+00  0.00000000000E+00  0.45593999997E+02  0.45594000000E+02  0.51100000000E-03 0. -1.
         11   -1    0    0    0    0 -0.00000000000E+00 -0.00000000000E+00 -0.45593999997E+02  0.45594000000E+02  0.51100000000E-03 0.  1.
    9900012    2    1    2    0    0  0.16580663575E+02 -0.14160708627E+02 -0.34317951569E+02  0.50528857445E+02  0.29999992691E+02 0.  0.
         12    1    1    2    0    0 -0.16580663575E+02  0.14160708627E+02  0.34317951569E+02  0.40659142555E+02  0.00000000000E+00 0. -1.
         11    1    3    3    0    0  0.26979265170E+01  0.36599143127E+01 -0.16641605222E+02  0.17251573983E+02  0.51100000000E-03 0. -1.
        -11    1    3    3    0    0  0.13612801917E+02 -0.39343631937E+01 -0.10555465231E+02  0.17669336046E+02  0.51100000000E-03 0.  1.
         12    1    3    3    0    0  0.26993514069E+00 -0.13886259746E+02 -0.71208811156E+01  0.15607947417E+02  0.00000000000E+00 0. -1.
</event>
<event>
 7    1  0.4971907E-013  0.5052888E+02  0.7816164E-02  0.1300439E+00
        -11   -1    0    0    0    0  0.00000000000E+00  0.00000000000E+00  0.45593999997E+02  0.45594000000E+02  0.51100000000E-03 0.  1.
         11   -1    0    0    0    0 -0.00000000000E+00 -0.00000000000E+00 -0.45593999997E+02  0.45594000000E+02  0.51100000000E-03 0. -1.
    9900012    2    1    2    0    0 -0.18922069934E+02 -0.30897206287E+02  0.18452148415E+02  0.50528882105E+02  0.30000067645E+02 0.  0.
         12    1    1    2    0    0  0.18922069934E+02  0.30897206287E+02 -0.18452148415E+02  0.40659117895E+02  0.00000000000E+00 0. -1.
         11    1    3    3    0    0 -0.42187407919E+01 -0.88236772511E+01  0.36614391160E+01  0.10443236604E+02  0.51100000000E-03 0. -1.
        -11    1    3    3    0    0 -0.18815729812E+02 -0.93406695262E+01  0.16343174585E+02  0.26615393127E+02  0.51100000000E-03 0.  1.
         12    1    3    3    0    0  0.41124006695E+01 -0.12732859509E+02 -0.15524652859E+01  0.13470252374E+02  0.00000000000E+00 0. -1.
</event>
<event>
 7    1  0.5264668E-013  0.5052886E+02  0.7816164E-02  0.1300439E+00
        -11   -1    0    0    0    0  0.00000000000E+00  0.00000000000E+00  0.45593999997E+02  0.45594000000E+02  0.51100000000E-03 0.  1.
         11   -1    0    0    0    0 -0.00000000000E+00 -0.00000000000E+00 -0.45593999997E+02  0.45594000000E+02  0.51100000000E-03 0. -1.
    9900012    2    1    2    0    0 -0.32550504188E+02 -0.22394186133E+02 -0.95984686020E+01  0.50528862097E+02  0.30000006831E+02 0.  0.
         12    1    1    2    0    0  0.32550504188E+02  0.22394186133E+02  0.95984686020E+01  0.40659137903E+02  0.00000000000E+00 0. -1.
         11    1    3    3    0    0 -0.12987534469E+02  0.15415544509E+01 -0.37034796488E+01  0.13592946829E+02  0.51100000000E-03 0. -1.
        -11    1    3    3    0    0 -0.21268331465E+02 -0.19370159534E+02 -0.10110471128E+02  0.30492074878E+02  0.51100000000E-03 0.  1.
        -12    1    3    3    0    0  0.17053617458E+01 -0.45655810501E+01  0.42154821750E+01  0.64438403904E+01  0.00000000000E+00 0.  1.
</event>
<event>
 7    1  0.4971907E-013  0.5052886E+02  0.7816164E-02  0.1300439E+00
        -11   -1    0    0    0    0  0.00000000000E+00  0.00000000000E+00  0.45593999997E+02  0.45594000000E+02  0.51100000000E-03 0.  1.
         11   -1    0    0    0    0 -0.00000000000E+00 -0.00000000000E+00 -0.45593999997E+02  0.45594000000E+02  0.51100000000E-03 0. -1.
    9900012    2    1    2    0    0 -0.44988081404E+01 -0.12934635725E+02  0.38283441240E+02  0.50528856512E+02  0.29999989853E+02 0.  0.
         12    1    1    2    0    0  0.44988081404E+01  0.12934635725E+02 -0.38283441240E+02  0.40659143488E+02  0.00000000000E+00 0. -1.
         11    1    3    3    0    0 -0.19350394805E+00 -0.70754438813E+01  0.23726849099E+01  0.74651847826E+01  0.51100000000E-03 0. -1.
        -11    1    3    3    0    0 -0.22184988369E+00 -0.13341846360E+02  0.29564691951E+02  0.32436477800E+02  0.51100000000E-03 0.  1.
        -12    1    3    3    0    0 -0.40834543087E+01  0.74826545159E+01  0.63460643794E+01  0.10627193929E+02  0.00000000000E+00 0.  1.
</event>
<event>
 7    1  0.4971907E-013  0.5052886E+02  0.7816164E-02  0.1300439E+00
        -11   -1    0    0    0    0  0.00000000000E+00  0.00000000000E+00  0.45593999997E+02  0.45594000000E+02  0.51100000000E-03 0.  1.
         11   -1    0    0    0    0 -0.00000000000E+00 -0.00000000000E+00 -0.45593999997E+02  0.45594000000E+02  0.51100000000E-03 0. -1.
    9900012    2    1    2    0    0 -0.85615607809E+01 -0.22227106275E+02  0.32951802116E+02  0.50528857866E+02  0.29999993969E+02 0.  0.
         12    1    1    2    0    0  0.85615607809E+01  0.22227106275E+02 -0.32951802116E+02  0.40659142134E+02  0.00000000000E+00 0. -1.
         11    1    3    3    0    0  0.72456485309E+01 -0.27572550080E+01  0.60270904974E+01  0.98197605845E+01  0.51100000000E-03 0. -1.
        -11    1    3    3    0    0 -0.87349912216E+01 -0.91460197082E+01  0.25041894948E+02  0.28054344601E+02  0.51100000000E-03 0.  1.
        -12    1    3    3    0    0 -0.70722180902E+01 -0.10323831559E+02  0.18828166706E+01  0.12654752680E+02  0.00000000000E+00 0.  1.
</event>
<event>
 7    1  0.4971907E-013  0.5052886E+02  0.7816164E-02  0.1300439E+00
        -11   -1    0    0    0    0  0.00000000000E+00  0.00000000000E+00  0.45593999997E+02  0.45594000000E+02  0.51100000000E-03 0. -1.
         11   -1    0    0    0    0 -0.00000000000E+00 -0.00000000000E+00 -0.45593999997E+02  0.45594000000E+02  0.51100000000E-03 0.  1.
    9900012    2    1    2    0    0  0.32495233946E+02 -0.11924044068E+02 -0.21331730730E+02  0.50528858444E+02  0.29999995726E+02 0.  0.
         12    1    1    2    0    0 -0.32495233946E+02  0.11924044068E+02  0.21331730730E+02  0.40659141556E+02  0.00000000000E+00 0. -1.
         11    1    3    3    0    0  0.13028664467E+02 -0.94982671986E+01 -0.14594507124E+02  0.21747708293E+02  0.51100000000E-03 0. -1.
        -11    1    3    3    0    0  0.23137794459E+02  0.63249558643E+00 -0.48835071174E+01  0.23655997656E+02  0.51100000000E-03 0.  1.
         12    1    3    3    0    0 -0.36712249798E+01 -0.30582724557E+01 -0.18537164891E+01  0.51251524941E+01  0.00000000000E+00 0. -1.
</event>
<event>
 7    1  0.5679857E-013  0.5052888E+02  0.7816164E-02  0.1300439E+00
        -11   -1    0    0    0    0  0.00000000000E+00  0.00000000000E+00  0.45593999997E+02  0.45594000000E+02  0.51100000000E-03 0.  1.
         11   -1    0    0    0    0 -0.00000000000E+00 -0.00000000000E+00 -0.45593999997E+02  0.45594000000E+02  0.51100000000E-03 0. -1.
    9900012    2    1    2    0    0  0.37483304777E+02 -0.12841284363E+02  0.91250879172E+01  0.50528881090E+02  0.30000064560E+02 0.  0.
         12    1    1    2    0    0 -0.37483304777E+02  0.12841284363E+02 -0.91250879172E+01  0.40659118910E+02  0.00000000000E+00 0. -1.
         11    1    3    3    0    0 -0.10865918427E+01 -0.24380881525E+01  0.63094192795E+01  0.68508194821E+01  0.51100000000E-03 0. -1.
        -11    1    3    3    0    0  0.12309644743E+02  0.18109081450E+01 -0.54150406293E+01  0.13569429144E+02  0.51100000000E-03 0.  1.
        -12    1    3    3    0    0  0.26260251876E+02 -0.12214104355E+02  0.82307092670E+01  0.30108632464E+02  0.00000000000E+00 0.  1.
</event>
<event>
 7    1  0.4971907E-013  0.5052886E+02  0.7816164E-02  0.1300439E+00
        -11   -1    0    0    0    0  0.00000000000E+00  0.00000000000E+00  0.45593999997E+02  0.45594000000E+02  0.51100000000E-03 0.  1.
         11   -1    0    0    0    0 -0.00000000000E+00 -0.00000000000E+00 -0.45593999997E+02  0.45594000000E+02  0.51100000000E-03 0. -1.
    9900012    2    1    2    0    0 -0.32948377647E+02  0.73483460488E+01  0.22662119166E+02  0.50528862967E+02  0.30000009473E+02 0.  0.
         12    1    1    2    0    0  0.32948377647E+02 -0.73483460488E+01 -0.22662119166E+02  0.40659137033E+02  0.00000000000E+00 0. -1.
         11    1    3    3    0    0  0.22810386720E+01  0.84859998895E+00  0.60680659162E+01  0.65379418466E+01  0.51100000000E-03 0. -1.
        -11    1    3    3    0    0 -0.20551630993E+02  0.54930386119E+01  0.19655554986E+02  0.28963491705E+02  0.51100000000E-03 0.  1.
         12    1    3    3    0    0 -0.14677785326E+02  0.10067074479E+01 -0.30615017358E+01  0.15027429415E+02  0.00000000000E+00 0. -1.
</event>
<event>
 7    1  0.4971907E-013  0.5052886E+02  0.7816164E-02  0.1300439E+00
        -11   -1    0    0    0    0  0.00000000000E+00  0.00000000000E+00  0.45593999997E+02  0.45594000000E+02  0.51100000000E-03 0. -1.
         11   -1    0    0    0    0 -0.00000000000E+00 -0.00000000000E+00 -0.45593999997E+02  0.45594000000E+02  0.51100000000E-03 0.  1.
    9900012    2    1    2    0    0  0.16551392344E+02 -0.30743005474E+02 -0.20834701145E+02  0.50528859012E+02  0.29999997453E+02 0.  0.
         12    1    1    2    0    0 -0.16551392344E+02  0.30743005474E+02  0.20834701145E+02  0.40659140988E+02  0.00000000000E+00 0. -1.
         11    1    3    3    0    0  0.12560941319E+02 -0.57515680966E+01  0.25039506373E+01  0.14040211945E+02  0.51100000000E-03 0. -1.
        -11    1    3    3    0    0  0.86118705153E+00 -0.53659299535E+00 -0.66270183737E+01  0.67042485013E+01  0.51100000000E-03 0.  1.
         12    1    3    3    0    0  0.31292639729E+01 -0.24454844382E+02 -0.16711633409E+02  0.29784398566E+02  0.00000000000E+00 0. -1.
</event>
<event>
 7    1  0.4971907E-013  0.5052885E+02  0.7816164E-02  0.1300439E+00
        -11   -1    0    0    0    0  0.00000000000E+00  0.00000000000E+00  0.45593999997E+02  0.45594000000E+02  0.51100000000E-03 0. -1.
         11   -1    0    0    0    0 -0.00000000000E+00 -0.00000000000E+00 -0.45593999997E+02  0.45594000000E+02  0.51100000000E-03 0.  1.
    9900012    2    1    2    0    0  0.37538241259E+02 -0.71044034332E+01 -0.13913090132E+02  0.50528853649E+02  0.29999981152E+02 0.  0.
         12    1    1    2    0    0 -0.37538241259E+02  0.71044034332E+01  0.13913090132E+02  0.40659146351E+02  0.00000000000E+00 0. -1.
         11    1    3    3    0    0  0.58441055256E+00 -0.13949605866E+01 -0.24924768150E+01  0.29154573683E+01  0.51100000000E-03 0.  1.
        -11    1    3    3    0    0 -0.10185039245E+01 -0.81018879528E+01 -0.16391253700E+01  0.83285455443E+01  0.51100000000E-03 0. -1.
         12    1    3    3    0    0  0.37972334631E+02  0.23924451061E+01 -0.97814879467E+01  0.39284850736E+02  0.00000000000E+00 0. -1.
</event>
<event>
 7    1  0.6765885E-013  0.5052882E+02  0.7816164E-02  0.1300439E+00
        -11   -1    0    0    0    0  0.00000000000E+00  0.00000000000E+00  0.45593999997E+02  0.45594000000E+02  0.51100000000E-03 0. -1.
         11   -1    0    0    0    0 -0.00000000000E+00 -0.00000000000E+00 -0.45593999997E+02  0.45594000000E+02  0.51100000000E-03 0.  1.
    9900012    2    1    2    0    0  0.70452984471E+01 -0.13689015969E+02 -0.37631685542E+02  0.50528817210E+02  0.29999870392E+02 0.  0.
         12    1    1    2    0    0 -0.70452984471E+01  0.13689015969E+02  0.37631685542E+02  0.40659182790E+02  0.00000000000E+00 0. -1.
         11    1    3    3    0    0 -0.18545240558E+01  0.62776132601E+01 -0.62024358284E+01  0.90176437157E+01  0.51100000000E-03 0. -1.
        -11    1    3    3    0    0 -0.38349587688E+01 -0.59761139435E+01 -0.14407236692E+02  0.16062045822E+02  0.51100000000E-03 0.  1.
        -12    1    3    3    0    0  0.12734781272E+02 -0.13990515285E+02 -0.17022013022E+02  0.25449127672E+02  0.00000000000E+00 0.  1.
</event>
<event>
 7    1  0.4971907E-013  0.5052885E+02  0.7816164E-02  0.1300439E+00
        -11   -1    0    0    0    0  0.00000000000E+00  0.00000000000E+00  0.45593999997E+02  0.45594000000E+02  0.51100000000E-03 0. -1.
         11   -1    0    0    0    0 -0.00000000000E+00 -0.00000000000E+00 -0.45593999997E+02  0.45594000000E+02  0.51100000000E-03 0.  1.
    9900012    2    1    2    0    0  0.29881850703E+02 -0.27322688811E+02 -0.37029402231E+01  0.50528854761E+02  0.29999984531E+02 0.  0.
         12    1    1    2    0    0 -0.29881850703E+02  0.27322688811E+02  0.37029402231E+01  0.40659145239E+02  0.00000000000E+00 0. -1.
         11    1    3    3    0    0 -0.48117325950E+01 -0.74514932788E+01 -0.32417141061E+01  0.94438463169E+01  0.51100000000E-03 0. -1.
        -11    1    3    3    0    0  0.96204006481E+01 -0.10398547370E+02 -0.16105172312E+01  0.14257477409E+02  0.51100000000E-03 0.  1.
        -12    1    3    3    0    0  0.25073182650E+02 -0.94726481621E+01  0.11492911142E+01  0.26827531035E+02  0.00000000000E+00 0.  1.
</event>
<event>
 7    1  0.4971907E-013  0.5052887E+02  0.7816164E-02  0.1300439E+00
        -11   -1    0    0    0    0  0.00000000000E+00  0.00000000000E+00  0.45593999997E+02  0.45594000000E+02  0.51100000000E-03 0.  1.
         11   -1    0    0    0    0 -0.00000000000E+00 -0.00000000000E+00 -0.45593999997E+02  0.45594000000E+02  0.51100000000E-03 0. -1.
    9900012    2    1    2    0    0  0.18119774593E+01 -0.21844506040E+02  0.34244696379E+02  0.50528868965E+02  0.30000027705E+02 0.  0.
         12    1    1    2    0    0 -0.18119774593E+01  0.21844506040E+02 -0.34244696379E+02  0.40659131035E+02  0.00000000000E+00 0. -1.
         11    1    3    3    0    0 -0.49238849830E+01 -0.60650191306E+01 -0.13042586460E+01  0.79202393434E+01  0.51100000000E-03 0. -1.
        -11    1    3    3    0    0  0.29355177200E+01  0.30745209007E+01  0.60806039252E+01  0.74191433069E+01  0.51100000000E-03 0.  1.
        -12    1    3    3    0    0  0.38003447224E+01 -0.18854007810E+02  0.29468351100E+02  0.35189486314E+02  0.00000000000E+00 0.  1.
</event>
<event>
 7    1  0.4971907E-013  0.5052886E+02  0.7816164E-02  0.1300439E+00
        -11   -1    0    0    0    0  0.00000000000E+00  0.00000000000E+00  0.45593999997E+02  0.45594000000E+02  0.51100000000E-03 0.  1.
         11   -1    0    0    0    0 -0.00000000000E+00 -0.00000000000E+00 -0.45593999997E+02  0.45594000000E+02  0.51100000000E-03 0. -1.
    9900012    2    1    2    0    0  0.24945823838E+02  0.14159374488E+01  0.32075949146E+02  0.50528861796E+02  0.30000005916E+02 0.  0.
         12    1    1    2    0    0 -0.24945823838E+02 -0.14159374488E+01 -0.32075949146E+02  0.40659138204E+02  0.00000000000E+00 0. -1.
         11    1    3    3    0    0 -0.40044011208E+01 -0.12049345123E+01  0.29743092401E+01  0.51316285165E+01  0.51100000000E-03 0. -1.
        -11    1    3    3    0    0  0.25818316858E+02  0.32867637470E+01  0.13211821718E+02  0.29188020397E+02  0.51100000000E-03 0.  1.
         12    1    3    3    0    0  0.31319081006E+01 -0.66589178587E+00  0.15889818189E+02  0.16209212883E+02  0.00000000000E+00 0. -1.
</event>
<event>
 7    1  0.4971907E-013  0.5052886E+02  0.7816164E-02  0.1300439E+00
        -11   -1    0    0    0    0  0.00000000000E+00  0.00000000000E+00  0.45593999997E+02  0.45594000000E+02  0.51100000000E-03 0. -1.
         11   -1    0    0    0    0 -0.00000000000E+00 -0.00000000000E+00 -0.45593999997E+02  0.45594000000E+02  0.51100000000E-03 0.  1.
    9900012    2    1    2    0    0 -0.27125281578E+01  0.37921047181E+02 -0.14415333175E+02  0.50528862541E+02  0.30000008180E+02 0.  0.
         12    1    1    2    0    0  0.27125281578E+01 -0.37921047181E+02  0.14415333175E+02  0.40659137459E+02  0.00000000000E+00 0. -1.
         11    1    3    3    0    0  0.54155805860E+01  0.58936660432E+01  0.86447872492E-01  0.80044541355E+01  0.51100000000E-03 0. -1.
        -11    1    3    3    0    0 -0.38934687098E+01  0.17895950742E+01  0.47748058514E+01  0.64156465226E+01  0.51100000000E-03 0.  1.
        -12    1    3    3    0    0 -0.42346400340E+01  0.30237786064E+02 -0.19276586899E+02  0.36108761883E+02  0.00000000000E+00 0.  1.
</event>
<event>
 7    1  0.4971907E-013  0.5052886E+02  0.7816164E-02  0.1300439E+00
        -11   -1    0    0    0    0  0.00000000000E+00  0.00000000000E+00  0.45593999997E+02  0.45594000000E+02  0.51100000000E-03 0.  1.
         11   -1    0    0    0    0 -0.00000000000E+00 -0.00000000000E+00 -0.45593999997E+02  0.45594000000E+02  0.51100000000E-03 0. -1.
    9900012    2    1    2    0    0 -0.10602507793E+02 -0.10496085903E+02  0.37823069079E+02  0.50528861478E+02  0.30000004948E+02 0.  0.
         12    1    1    2    0    0  0.10602507793E+02  0.10496085903E+02 -0.37823069079E+02  0.40659138522E+02  0.00000000000E+00 0. -1.
         11    1    3    3    0    0 -0.12219915892E+02 -0.28996487784E+00  0.53991762007E+01  0.13362691643E+02  0.51100000000E-03 0. -1.
        -11    1    3    3    0    0 -0.39762364996E+01 -0.10621275608E+02  0.14641527867E+02  0.18520159037E+02  0.51100000000E-03 0.  1.
        -12    1    3    3    0    0  0.55936445992E+01  0.41515458270E+00  0.17782365012E+02  0.18646010797E+02  0.00000000000E+00 0.  1.
</event>
<event>
 7    1  0.4971907E-013  0.5052886E+02  0.7816164E-02  0.1300439E+00
        -11   -1    0    0    0    0  0.00000000000E+00  0.00000000000E+00  0.45593999997E+02  0.45594000000E+02  0.51100000000E-03 0.  1.
         11   -1    0    0    0    0 -0.00000000000E+00 -0.00000000000E+00 -0.45593999997E+02  0.45594000000E+02  0.51100000000E-03 0. -1.
    9900012    2    1    2    0    0  0.24604061619E+00 -0.71894334187E+01  0.40017710208E+02  0.50528860570E+02  0.30000002189E+02 0.  0.
         12    1    1    2    0    0 -0.24604061619E+00  0.71894334187E+01 -0.40017710208E+02  0.40659139430E+02  0.00000000000E+00 0. -1.
         11    1    3    3    0    0 -0.71989466775E+01 -0.15327773779E+02  0.14161158954E+02  0.22074961053E+02  0.51100000000E-03 0. -1.
        -11    1    3    3    0    0  0.19498735202E+00  0.16720417884E+01  0.15922600064E+01  0.23171180373E+01  0.51100000000E-03 0.  1.
        -12    1    3    3    0    0  0.72499999417E+01  0.64662985723E+01  0.24264291248E+02  0.26136781480E+02  0.00000000000E+00 0.  1.
</event>
<event>
 7    1  0.4971907E-013  0.5052886E+02  0.7816164E-02  0.1300439E+00
        -11   -1    0    0    0    0  0.00000000000E+00  0.00000000000E+00  0.45593999997E+02  0.45594000000E+02  0.51100000000E-03 0.  1.
         11   -1    0    0    0    0 -0.00000000000E+00 -0.00000000000E+00 -0.45593999997E+02  0.45594000000E+02  0.51100000000E-03 0. -1.
    9900012    2    1    2    0    0 -0.14030544989E+02  0.61846765215E+01  0.37657132118E+02  0.50528855694E+02  0.29999987366E+02 0.  0.
         12    1    1    2    0    0  0.14030544989E+02 -0.61846765215E+01 -0.37657132118E+02  0.40659144306E+02  0.00000000000E+00 0. -1.
         11    1    3    3    0    0  0.23282615459E+01  0.80900070190E+01  0.18478163867E+02  0.20305456300E+02  0.51100000000E-03 0. -1.
        -11    1    3    3    0    0 -0.67089968462E+01  0.70315979343E+01  0.51719148194E+01  0.11009210296E+02  0.51100000000E-03 0.  1.
         12    1    3    3    0    0 -0.96498096884E+01 -0.89369284319E+01  0.14007053432E+02  0.19214189097E+02  0.00000000000E+00 0. -1.
</event>
<event>
 7    1  0.4971907E-013  0.5052885E+02  0.7816164E-02  0.1300439E+00
        -11   -1    0    0    0    0  0.00000000000E+00  0.00000000000E+00  0.45593999997E+02  0.45594000000E+02  0.51100000000E-03 0. -1.
         11   -1    0    0    0    0 -0.00000000000E+00 -0.00000000000E+00 -0.45593999997E+02  0.45594000000E+02  0.51100000000E-03 0.  1.
    9900012    2    1    2    0    0  0.14842141971E+02  0.30772791071E+02 -0.22043425165E+02  0.50528850457E+02  0.29999971448E+02 0.  0.
         12    1    1    2    0    0 -0.14842141971E+02 -0.30772791071E+02  0.22043425165E+02  0.40659149543E+02  0.00000000000E+00 0. -1.
         11    1    3    3    0    0  0.13759853034E+02  0.15158502534E+02 -0.85119715879E+01  0.22171319653E+02  0.51100000000E-03 0. -1.
        -11    1    3    3    0    0  0.22701211071E+01  0.16851855585E+02 -0.24921285828E+01  0.17185726393E+02  0.51100000000E-03 0.  1.
         12    1    3    3    0    0 -0.11878321698E+01 -0.12375670486E+01 -0.11039324994E+02  0.11171804411E+02  0.00000000000E+00 0. -1.
</event>
<event>
 7    1  0.4971907E-013  0.5052890E+02  0.7816164E-02  0.1300439E+00
        -11   -1    0    0    0    0  0.00000000000E+00  0.00000000000E+00  0.45593999997E+02  0.45594000000E+02  0.51100000000E-03 0.  1.
         11   -1    0    0    0    0 -0.00000000000E+00 -0.00000000000E+00 -0.45593999997E+02  0.45594000000E+02  0.51100000000E-03 0. -1.
    9900012    2    1    2    0    0 -0.12959617052E+02  0.30092632367E+02  0.24075795480E+02  0.50528903540E+02  0.30000132800E+02 0.  0.
         12    1    1    2    0    0  0.12959617052E+02 -0.30092632367E+02 -0.24075795480E+02  0.40659096460E+02  0.00000000000E+00 0. -1.
         11    1    3    3    0    0 -0.29275105542E+01  0.96902195004E+01 -0.10808718909E+01  0.10180322014E+02  0.51100000000E-03 0. -1.
        -11    1    3    3    0    0 -0.64168892670E+01  0.24702882097E+02  0.22913220615E+02  0.34299045628E+02  0.51100000000E-03 0.  1.
         12    1    3    3    0    0 -0.36152172313E+01 -0.43004692304E+01  0.22434467559E+01  0.60495358977E+01  0.00000000000E+00 0. -1.
</event>
<event>
 7    1  0.4971907E-013  0.5052886E+02  0.7816164E-02  0.1300439E+00
        -11   -1    0    0    0    0  0.00000000000E+00  0.00000000000E+00  0.45593999997E+02  0.45594000000E+02  0.51100000000E-03 0.  1.
         11   -1    0    0    0    0 -0.00000000000E+00 -0.00000000000E+00 -0.45593999997E+02  0.45594000000E+02  0.51100000000E-03 0. -1.
    9900012    2    1    2    0    0 -0.25588660785E+02  0.20756151009E+02  0.23823694505E+02  0.50528858527E+02  0.29999995979E+02 0.  0.
         12    1    1    2    0    0  0.25588660785E+02 -0.20756151009E+02 -0.23823694505E+02  0.40659141473E+02  0.00000000000E+00 0. -1.
         11    1    3    3    0    0 -0.15026991827E+02  0.51334316090E+01 -0.12002076069E+01  0.15924920785E+02  0.51100000000E-03 0. -1.
        -11    1    3    3    0    0 -0.50675943114E+01 -0.19927912268E+01  0.54805418239E+01  0.77258053252E+01  0.51100000000E-03 0.  1.
         12    1    3    3    0    0 -0.54940746464E+01  0.17615510627E+02  0.19543360288E+02  0.26878132417E+02  0.00000000000E+00 0. -1.
</event>
<event>
 7    1  0.4971907E-013  0.5052886E+02  0.7816164E-02  0.1300439E+00
        -11   -1    0    0    0    0  0.00000000000E+00  0.00000000000E+00  0.45593999997E+02  0.45594000000E+02  0.51100000000E-03 0.  1.
         11   -1    0    0    0    0 -0.00000000000E+00 -0.00000000000E+00 -0.45593999997E+02  0.45594000000E+02  0.51100000000E-03 0. -1.
    9900012    2    1    2    0    0  0.12621436641E+02  0.28014710070E+02  0.26627822251E+02  0.50528861286E+02  0.30000004364E+02 0.  0.
         12    1    1    2    0    0 -0.12621436641E+02 -0.28014710070E+02 -0.26627822251E+02  0.40659138714E+02  0.00000000000E+00 0. -1.
         11    1    3    3    0    0  0.62283387648E+01  0.25846778968E+02  0.13071433673E+02  0.29626180403E+02  0.51100000000E-03 0. -1.
        -11    1    3    3    0    0 -0.29909631991E+01  0.44515642233E+01  0.83686366173E+01  0.99396360087E+01  0.51100000000E-03 0.  1.
        -12    1    3    3    0    0  0.93840610751E+01 -0.22836331216E+01  0.51877519608E+01  0.10963044874E+02  0.00000000000E+00 0.  1.
</event>
<event>
 7    1  0.4971907E-013  0.5052889E+02  0.7816164E-02  0.1300439E+00
        -11   -1    0    0    0    0  0.00000000000E+00  0.00000000000E+00  0.45593999997E+02  0.45594000000E+02  0.51100000000E-03 0. -1.
         11   -1    0    0    0    0 -0.00000000000E+00 -0.00000000000E+00 -0.45593999997E+02  0.45594000000E+02  0.51100000000E-03 0.  1.
    9900012    2    1    2    0    0 -0.32796839004E+02 -0.23528290803E+02  0.48938897612E+01  0.50528889413E+02  0.30000089859E+02 0.  0.
         12    1    1    2    0    0  0.32796839004E+02  0.23528290803E+02 -0.48938897612E+01  0.40659110587E+02  0.00000000000E+00 0. -1.
         11    1    3    3    0    0 -0.91529036387E+00 -0.69207194920E+01 -0.24792746757E+01  0.74081656242E+01  0.51100000000E-03 0.  1.
        -11    1    3    3    0    0 -0.17374597034E+02  0.21200173925E+01 -0.20563988040E+01  0.17623843853E+02  0.51100000000E-03 0. -1.
         12    1    3    3    0    0 -0.14506951606E+02 -0.18727588704E+02  0.94295632410E+01  0.25496879936E+02  0.00000000000E+00 0. -1.
</event>
<event>
 7    1  0.4971907E-013  0.5052885E+02  0.7816164E-02  0.1300439E+00
        -11   -1    0    0    0    0  0.00000000000E+00  0.00000000000E+00  0.45593999997E+02  0.45594000000E+02  0.51100000000E-03 0. -1.
         11   -1    0    0    0    0 -0.00000000000E+00 -0.00000000000E+00 -0.45593999997E+02  0.45594000000E+02  0.51100000000E-03 0.  1.
    9900012    2    1    2    0    0  0.15077985765E+02 -0.36103827983E+02 -0.11060489016E+02  0.50528850144E+02  0.29999970498E+02 0.  0.
         12    1    1    2    0    0 -0.15077985765E+02  0.36103827983E+02  0.11060489016E+02  0.40659149856E+02  0.00000000000E+00 0. -1.
         11    1    3    3    0    0 -0.48466888950E+01 -0.10285281065E+02  0.19718595157E+01  0.11539741334E+02  0.51100000000E-03 0. -1.
        -11    1    3    3    0    0  0.50486460883E+01 -0.75108415209E+01  0.39987110253E+01  0.98940011018E+01  0.51100000000E-03 0.  1.
        -12    1    3    3    0    0  0.14876028571E+02 -0.18307705397E+02 -0.17031059557E+02  0.29095107709E+02  0.00000000000E+00 0.  1.
</event>
<event>
 7    1  0.4971907E-013  0.5052887E+02  0.7816164E-02  0.1300439E+00
        -11   -1    0    0    0    0  0.00000000000E+00  0.00000000000E+00  0.45593999997E+02  0.45594000000E+02  0.51100000000E-03 0.  1.
         11   -1    0    0    0    0 -0.00000000000E+00 -0.00000000000E+00 -0.45593999997E+02  0.45594000000E+02  0.51100000000E-03 0. -1.
    9900012    2    1    2    0    0  0.41848858940E+01 -0.19356752939E+02  0.35510109615E+02  0.50528867703E+02  0.30000023869E+02 0.  0.
         12    1    1    2    0    0 -0.41848858940E+01  0.19356752939E+02 -0.35510109615E+02  0.40659132297E+02  0.00000000000E+00 0. -1.
         11    1    3    3    0    0  0.60661700952E+01 -0.18748916066E+01  0.25292641630E+02  0.26077410897E+02  0.51100000000E-03 0. -1.
        -11    1    3    3    0    0 -0.36324780935E+01 -0.95459969965E+01  0.12372610071E+02  0.16043766266E+02  0.51100000000E-03 0.  1.
         12    1    3    3    0    0  0.17511938923E+01 -0.79358643362E+01 -0.21551420863E+01  0.84076905404E+01  0.00000000000E+00 0. -1.
</event>
<event>
 7    1  0.4971907E-013  0.5052886E+02  0.7816164E-02  0.1300439E+00
        -11   -1    0    0    0    0  0.00000000000E+00  0.00000000000E+00  0.45593999997E+02  0.45594000000E+02  0.51100000000E-03 0. -1.
         11   -1    0    0    0    0 -0.00000000000E+00 -0.00000000000E+00 -0.45593999997E+02  0.45594000000E+02  0.51100000000E-03 0.  1.
    9900012    2    1    2    0    0 -0.32224135172E+02  0.24427508697E+02  0.42505959095E+01  0.50528860384E+02  0.30000001622E+02 0.  0.
         12    1    1    2    0    0  0.32224135172E+02 -0.24427508697E+02 -0.42505959095E+01  0.40659139616E+02  0.00000000000E+00 0. -1.
         11    1    3    3    0    0 -0.19041504432E+02  0.24713661078E+01  0.11753730056E+02  0.22513034268E+02  0.51100000000E-03 0. -1.
        -11    1    3    3    0    0 -0.36778705108E+01  0.22685571475E+01 -0.39743454184E+01  0.58709883999E+01  0.51100000000E-03 0.  1.
        -12    1    3    3    0    0 -0.95047602296E+01  0.19687585442E+02 -0.35287887285E+01  0.22144837716E+02  0.00000000000E+00 0.  1.
</event>
<event>
 7    1  0.4971907E-013  0.5052886E+02  0.7816164E-02  0.1300439E+00
        -11   -1    0    0    0    0  0.00000000000E+00  0.00000000000E+00  0.45593999997E+02  0.45594000000E+02  0.51100000000E-03 0.  1.
         11   -1    0    0    0    0 -0.00000000000E+00 -0.00000000000E+00 -0.45593999997E+02  0.45594000000E+02  0.51100000000E-03 0. -1.
    9900012    2    1    2    0    0 -0.49379614549E+01  0.20737426973E+02  0.34622840786E+02  0.50528862713E+02  0.30000008703E+02 0.  0.
         12    1    1    2    0    0  0.49379614549E+01 -0.20737426973E+02 -0.34622840786E+02  0.40659137287E+02  0.00000000000E+00 0. -1.
         11    1    3    3    0    0 -0.24956219323E+01  0.14536836890E+02  0.46472123212E+01  0.15464292361E+02  0.51100000000E-03 0. -1.
        -11    1    3    3    0    0 -0.67354971667E+01  0.82374590866E+01  0.27935309425E+02  0.29893212728E+02  0.51100000000E-03 0.  1.
        -12    1    3    3    0    0  0.42931576441E+01 -0.20368690032E+01  0.20403190404E+01  0.51713576244E+01  0.00000000000E+00 0.  1.
</event>
<event>
 7    1  0.4971907E-013  0.5052886E+02  0.7816164E-02  0.1300439E+00
        -11   -1    0    0    0    0  0.00000000000E+00  0.00000000000E+00  0.45593999997E+02  0.45594000000E+02  0.51100000000E-03 0. -1.
         11   -1    0    0    0    0 -0.00000000000E+00 -0.00000000000E+00 -0.45593999997E+02  0.45594000000E+02  0.51100000000E-03 0.  1.
    9900012    2    1    2    0    0  0.28714233682E+02  0.28781977494E+02  0.50586892437E+00  0.50528863908E+02  0.30000012334E+02 0.  0.
         12    1    1    2    0    0 -0.28714233682E+02 -0.28781977494E+02 -0.50586892437E+00  0.40659136092E+02  0.00000000000E+00 0. -1.
         11    1    3    3    0    0  0.30764547867E+01  0.76444593360E+01  0.82382649557E+01  0.11652096049E+02  0.51100000000E-03 0. -1.
        -11    1    3    3    0    0  0.15735991313E+02  0.20567333385E+02  0.62909895487E+00  0.25904292905E+02  0.51100000000E-03 0.  1.
         12    1    3    3    0    0  0.99017875830E+01  0.57018477268E+00 -0.83614949862E+01  0.12972474953E+02  0.00000000000E+00 0. -1.
</event>
<event>
 7    1  0.4971907E-013  0.5052886E+02  0.7816164E-02  0.1300439E+00
        -11   -1    0    0    0    0  0.00000000000E+00  0.00000000000E+00  0.45593999997E+02  0.45594000000E+02  0.51100000000E-03 0. -1.
         11   -1    0    0    0    0 -0.00000000000E+00 -0.00000000000E+00 -0.45593999997E+02  0.45594000000E+02  0.51100000000E-03 0.  1.
    9900012    2    1    2    0    0  0.34289066096E+02  0.19527493503E+02 -0.98032046733E+01  0.50528857386E+02  0.29999992510E+02 0.  0.
         12    1    1    2    0    0 -0.34289066096E+02 -0.19527493503E+02  0.98032046733E+01  0.40659142614E+02  0.00000000000E+00 0. -1.
         11    1    3    3    0    0 -0.45998173286E+01  0.15407721621E+01 -0.68151741770E+00  0.48986492591E+01  0.51100000000E-03 0. -1.
        -11    1    3    3    0    0  0.73702800124E+01  0.77806815004E+00  0.26016207042E+01  0.78546068048E+01  0.51100000000E-03 0.  1.
        -12    1    3    3    0    0  0.31518603412E+02  0.17208653191E+02 -0.11723307960E+02  0.37775601322E+02  0.00000000000E+00 0.  1.
</event>
<event>
 7    1  0.4971907E-013  0.5052886E+02  0.7816164E-02  0.1300439E+00
        -11   -1    0    0    0    0  0.00000000000E+00  0.00000000000E+00  0.45593999997E+02  0.45594000000E+02  0.51100000000E-03 0.  1.
         11   -1    0    0    0    0 -0.00000000000E+00 -0.00000000000E+00 -0.45593999997E+02  0.45594000000E+02  0.51100000000E-03 0. -1.
    9900012    2    1    2    0    0  0.25150944175E+02 -0.17806153235E+02  0.26524260140E+02  0.50528862504E+02  0.30000008069E+02 0.  0.
         12    1    1    2    0    0 -0.25150944175E+02  0.17806153235E+02 -0.26524260140E+02  0.40659137496E+02  0.00000000000E+00 0. -1.
         11    1    3    3    0    0  0.13353504090E+02 -0.11801577437E+01  0.11823347405E+01  0.13457591147E+02  0.51100000000E-03 0. -1.
        -11    1    3    3    0    0 -0.24959413319E+01  0.22525621417E+01  0.27475445961E+01  0.43419766125E+01  0.51100000000E-03 0.  1.
        -12    1    3    3    0    0  0.14293381417E+02 -0.18878557633E+02  0.22594380803E+02  0.32729294745E+02  0.00000000000E+00 0.  1.
</event>
<event>
 7    1  0.4971907E-013  0.5052886E+02  0.7816164E-02  0.1300439E+00
        -11   -1    0    0    0    0  0.00000000000E+00  0.00000000000E+00  0.45593999997E+02  0.45594000000E+02  0.51100000000E-03 0.  1.
         11   -1    0    0    0    0 -0.00000000000E+00 -0.00000000000E+00 -0.45593999997E+02  0.45594000000E+02  0.51100000000E-03 0. -1.
    9900012    2    1    2    0    0  0.34955720757E+02  0.20333242809E+02  0.42216263004E+01  0.50528864429E+02  0.30000013917E+02 0.  0.
         12    1    1    2    0    0 -0.34955720757E+02 -0.20333242809E+02 -0.42216263004E+01  0.40659135571E+02  0.00000000000E+00 0. -1.
         11    1    3    3    0    0  0.13241536386E-01  0.73780187793E+01  0.66683104007E+01  0.99449333988E+01  0.51100000000E-03 0. -1.
        -11    1    3    3    0    0  0.22357202324E+02  0.14778492310E+02 -0.58256282554E+01  0.27426014576E+02  0.51100000000E-03 0.  1.
         12    1    3    3    0    0  0.12585276897E+02 -0.18232682800E+01  0.33789441552E+01  0.13157916454E+02  0.00000000000E+00 0. -1.
</event>
<event>
 7    1  0.4971907E-013  0.5052888E+02  0.7816164E-02  0.1300439E+00
        -11   -1    0    0    0    0  0.00000000000E+00  0.00000000000E+00  0.45593999997E+02  0.45594000000E+02  0.51100000000E-03 0.  1.
         11   -1    0    0    0    0 -0.00000000000E+00 -0.00000000000E+00 -0.45593999997E+02  0.45594000000E+02  0.51100000000E-03 0. -1.
    9900012    2    1    2    0    0 -0.36246080649E+02 -0.56832106957E+01  0.17523900353E+02  0.50528876426E+02  0.30000050383E+02 0.  0.
         12    1    1    2    0    0  0.36246080649E+02  0.56832106957E+01 -0.17523900353E+02  0.40659123574E+02  0.00000000000E+00 0. -1.
         11    1    3    3    0    0 -0.13972429088E+02  0.55158822732E+00 -0.43596585330E+01  0.14647171979E+02  0.51100000000E-03 0. -1.
        -11    1    3    3    0    0 -0.20886830350E+02 -0.62595735571E+01  0.10123475196E+02  0.24040105938E+02  0.51100000000E-03 0.  1.
         12    1    3    3    0    0 -0.13868212117E+01  0.24774634008E-01  0.11760083690E+02  0.11841598509E+02  0.00000000000E+00 0. -1.
</event>
<event>
 7    1  0.4971907E-013  0.5052886E+02  0.7816164E-02  0.1300439E+00
        -11   -1    0    0    0    0  0.00000000000E+00  0.00000000000E+00  0.45593999997E+02  0.45594000000E+02  0.51100000000E-03 0. -1.
         11   -1    0    0    0    0 -0.00000000000E+00 -0.00000000000E+00 -0.45593999997E+02  0.45594000000E+02  0.51100000000E-03 0.  1.
    9900012    2    1    2    0    0  0.12494393185E+02 -0.17927606886E+02 -0.34287847753E+02  0.50528862610E+02  0.30000008390E+02 0.  0.
         12    1    1    2    0    0 -0.12494393185E+02  0.17927606886E+02  0.34287847753E+02  0.40659137390E+02  0.00000000000E+00 0. -1.
         11    1    3    3    0    0  0.87717871671E+01 -0.69899496335E+01 -0.26168419433E+01  0.11517443640E+02  0.51100000000E-03 0. -1.
        -11    1    3    3    0    0  0.59304912238E+01 -0.15464276283E+02 -0.18090660976E+02  0.24527262014E+02  0.51100000000E-03 0.  1.
         12    1    3    3    0    0 -0.22078852054E+01  0.45266190301E+01 -0.13580344833E+02  0.14484156956E+02  0.00000000000E+00 0. -1.
</event>
<event>
 7    1  0.4971907E-013  0.5052886E+02  0.7816164E-02  0.1300439E+00
        -11   -1    0    0    0    0  0.00000000000E+00  0.00000000000E+00  0.45593999997E+02  0.45594000000E+02  0.51100000000E-03 0.  1.
         11   -1    0    0    0    0 -0.00000000000E+00 -0.00000000000E+00 -0.45593999997E+02  0.45594000000E+02  0.51100000000E-03 0. -1.
    9900012    2    1    2    0    0 -0.31951648282E+02 -0.21697125318E+02  0.12707973065E+02  0.50528860137E+02  0.30000000871E+02 0.  0.
         12    1    1    2    0    0  0.31951648282E+02  0.21697125318E+02 -0.12707973065E+02  0.40659139863E+02  0.00000000000E+00 0. -1.
         11    1    3    3    0    0 -0.15662310843E+01  0.43790341802E+01  0.43683325988E+01  0.63805446567E+01  0.51100000000E-03 0.  1.
        -11    1    3    3    0    0 -0.16340615506E+02 -0.14316924031E+02  0.12906582606E+02  0.25269940713E+02  0.51100000000E-03 0. -1.
         12    1    3    3    0    0 -0.14044801692E+02 -0.11759235467E+02 -0.45669421392E+01  0.18878374767E+02  0.00000000000E+00 0. -1.
</event>
<event>
 7    1  0.4971907E-013  0.5052886E+02  0.7816164E-02  0.1300439E+00
        -11   -1    0    0    0    0  0.00000000000E+00  0.00000000000E+00  0.45593999997E+02  0.45594000000E+02  0.51100000000E-03 0.  1.
         11   -1    0    0    0    0 -0.00000000000E+00 -0.00000000000E+00 -0.45593999997E+02  0.45594000000E+02  0.51100000000E-03 0. -1.
    9900012    2    1    2    0    0 -0.19258539795E+02  0.20600119834E+02  0.29290085324E+02  0.50528863382E+02  0.30000010736E+02 0.  0.
         12    1    1    2    0    0  0.19258539795E+02 -0.20600119834E+02 -0.29290085324E+02  0.40659136618E+02  0.00000000000E+00 0. -1.
         11    1    3    3    0    0 -0.91779025750E+01  0.44635442716E+01  0.29170126646E+01  0.10614428213E+02  0.51100000000E-03 0. -1.
        -11    1    3    3    0    0 -0.84681845801E+01  0.10675656844E+01  0.22798114065E+02  0.24343456036E+02  0.51100000000E-03 0.  1.
        -12    1    3    3    0    0 -0.16124526400E+01  0.15069009878E+02  0.35749585946E+01  0.15570979133E+02  0.00000000000E+00 0.  1.
</event>
<event>
 7    1  0.4971907E-013  0.5052885E+02  0.7816164E-02  0.1300439E+00
        -11   -1    0    0    0    0  0.00000000000E+00  0.00000000000E+00  0.45593999997E+02  0.45594000000E+02  0.51100000000E-03 0.  1.
         11   -1    0    0    0    0 -0.00000000000E+00 -0.00000000000E+00 -0.45593999997E+02  0.45594000000E+02  0.51100000000E-03 0. -1.
    9900012    2    1    2    0    0  0.26303127315E+02  0.28315902111E+02  0.12630182968E+02  0.50528851698E+02  0.29999975220E+02 0.  0.
         12    1    1    2    0    0 -0.26303127315E+02 -0.28315902111E+02 -0.12630182968E+02  0.40659148302E+02  0.00000000000E+00 0. -1.
         11    1    3    3    0    0  0.13529859096E+02  0.50059875293E+01  0.54706087465E+01  0.15428692706E+02  0.51100000000E-03 0. -1.
        -11    1    3    3    0    0  0.15383382593E+02  0.26251521101E+02  0.64810774735E+01  0.31109406706E+02  0.51100000000E-03 0.  1.
         12    1    3    3    0    0 -0.26101143748E+01 -0.29416065196E+01  0.67849674807E+00  0.39907522853E+01  0.00000000000E+00 0. -1.
</event>
<event>
 7    1  0.4971907E-013  0.5052884E+02  0.7816164E-02  0.1300439E+00
        -11   -1    0    0    0    0  0.00000000000E+00  0.00000000000E+00  0.45593999997E+02  0.45594000000E+02  0.51100000000E-03 0.  1.
         11   -1    0    0    0    0 -0.00000000000E+00 -0.00000000000E+00 -0.45593999997E+02  0.45594000000E+02  0.51100000000E-03 0. -1.
    9900012    2    1    2    0    0  0.68194936754E+01  0.29678888381E+02  0.26941140970E+02  0.50528843758E+02  0.29999951087E+02 0.  0.
         12    1    1    2    0    0 -0.68194936754E+01 -0.29678888381E+02 -0.26941140970E+02  0.40659156242E+02  0.00000000000E+00 0. -1.
         11    1    3    3    0    0  0.41669861422E+01  0.93104662143E+01  0.17407029724E+02  0.20175560431E+02  0.51100000000E-03 0.  1.
        -11    1    3    3    0    0 -0.15736245610E+01  0.19384576771E+02 -0.46432376250E+00  0.19453886698E+02  0.51100000000E-03 0. -1.
         12    1    3    3    0    0  0.42261320942E+01  0.98384539540E+00  0.99984350086E+01  0.10899396628E+02  0.00000000000E+00 0. -1.
</event>
<event>
 7    1  0.4971907E-013  0.5052885E+02  0.7816164E-02  0.1300439E+00
        -11   -1    0    0    0    0  0.00000000000E+00  0.00000000000E+00  0.45593999997E+02  0.45594000000E+02  0.51100000000E-03 0.  1.
         11   -1    0    0    0    0 -0.00000000000E+00 -0.00000000000E+00 -0.45593999997E+02  0.45594000000E+02  0.51100000000E-03 0. -1.
    9900012    2    1    2    0    0 -0.87059766094E+01 -0.16401757091E+02  0.36171186328E+02  0.50528851155E+02  0.29999973571E+02 0.  0.
         12    1    1    2    0    0  0.87059766094E+01  0.16401757091E+02 -0.36171186328E+02  0.40659148845E+02  0.00000000000E+00 0. -1.
         11    1    3    3    0    0 -0.33833605793E+01  0.49902613776E+01  0.61358989535E+01  0.86022725867E+01  0.51100000000E-03 0. -1.
        -11    1    3    3    0    0  0.66268125707E+01 -0.44535922867E+01  0.49891677999E+01  0.94149309451E+01  0.51100000000E-03 0.  1.
         12    1    3    3    0    0 -0.11949428601E+02 -0.16938426182E+02  0.25046119575E+02  0.32511647623E+02  0.00000000000E+00 0. -1.
</event>
<event>
 7    1  0.4971907E-013  0.5052886E+02  0.7816164E-02  0.1300439E+00
        -11   -1    0    0    0    0  0.00000000000E+00  0.00000000000E+00  0.45593999997E+02  0.45594000000E+02  0.51100000000E-03 0.  1.
         11   -1    0    0    0    0 -0.00000000000E+00 -0.00000000000E+00 -0.45593999997E+02  0.45594000000E+02  0.51100000000E-03 0. -1.
    9900012    2    1    2    0    0  0.17905677049E+02 -0.32430721941E+02  0.16757106168E+02  0.50528860765E+02  0.30000002781E+02 0.  0.
         12    1    1    2    0    0 -0.17905677049E+02  0.32430721941E+02 -0.16757106168E+02  0.40659139235E+02  0.00000000000E+00 0. -1.
         11    1    3    3    0    0 -0.38056766464E+01 -0.96893525141E+01  0.56309822987E+01  0.11835315323E+02  0.51100000000E-03 0. -1.
        -11    1    3    3    0    0  0.55439297781E+01 -0.33854039281E+01  0.11794358395E+02  0.13464880517E+02  0.51100000000E-03 0.  1.
        -12    1    3    3    0    0  0.16167423917E+02 -0.19355965499E+02 -0.66823452480E+00  0.25228664925E+02  0.00000000000E+00 0.  1.
</event>
<event>
 7    1  0.4971907E-013  0.5052886E+02  0.7816164E-02  0.1300439E+00
        -11   -1    0    0    0    0  0.00000000000E+00  0.00000000000E+00  0.45593999997E+02  0.45594000000E+02  0.51100000000E-03 0. -1.
         11   -1    0    0    0    0 -0.00000000000E+00 -0.00000000000E+00 -0.45593999997E+02  0.45594000000E+02  0.51100000000E-03 0.  1.
    9900012    2    1    2    0    0  0.30426880956E+02  0.16778817729E+02 -0.21114958359E+02  0.50528864795E+02  0.30000015031E+02 0.  0.
         12    1    1    2    0    0 -0.30426880956E+02 -0.16778817729E+02  0.21114958359E+02  0.40659135205E+02  0.00000000000E+00 0. -1.
         11    1    3    3    0    0 -0.19749659362E+01 -0.77500122119E+00  0.70780170117E+00  0.22365376928E+01  0.51100000000E-03 0. -1.
        -11    1    3    3    0    0  0.22482784974E+02  0.29852640058E+00 -0.72505171491E+01  0.23624875394E+02  0.51100000000E-03 0.  1.
         12    1    3    3    0    0  0.99190619188E+01  0.17255292550E+02 -0.14572242911E+02  0.24667451708E+02  0.00000000000E+00 0. -1.
</event>
<event>
 7    1  0.4971907E-013  0.5052886E+02  0.7816164E-02  0.1300439E+00
        -11   -1    0    0    0    0  0.00000000000E+00  0.00000000000E+00  0.45593999997E+02  0.45594000000E+02  0.51100000000E-03 0.  1.
         11   -1    0    0    0    0 -0.00000000000E+00 -0.00000000000E+00 -0.45593999997E+02  0.45594000000E+02  0.51100000000E-03 0. -1.
    9900012    2    1    2    0    0  0.88271737555E+01 -0.21166387134E+02  0.33574257268E+02  0.50528859675E+02  0.29999999469E+02 0.  0.
         12    1    1    2    0    0 -0.88271737555E+01  0.21166387134E+02 -0.33574257268E+02  0.40659140325E+02  0.00000000000E+00 0. -1.
         11    1    3    3    0    0 -0.23839967132E+01  0.15538068781E+01  0.60361536760E+01  0.66732981055E+01  0.51100000000E-03 0.  1.
        -11    1    3    3    0    0  0.54314558265E+00 -0.69096840921E+01 -0.32368173619E+01  0.76495573906E+01  0.51100000000E-03 0. -1.
        -12    1    3    3    0    0  0.10668024886E+02 -0.15810509920E+02  0.30774920954E+02  0.36206004179E+02  0.00000000000E+00 0.  1.
</event>
<event>
 7    1  0.4971907E-013  0.5052889E+02  0.7816164E-02  0.1300439E+00
        -11   -1    0    0    0    0  0.00000000000E+00  0.00000000000E+00  0.45593999997E+02  0.45594000000E+02  0.51100000000E-03 0. -1.
         11   -1    0    0    0    0 -0.00000000000E+00 -0.00000000000E+00 -0.45593999997E+02  0.45594000000E+02  0.51100000000E-03 0.  1.
    9900012    2    1    2    0    0 -0.31179605598E+02  0.19495260203E+02  0.17347348112E+02  0.50528887096E+02  0.30000082817E+02 0.  0.
         12    1    1    2    0    0  0.31179605598E+02 -0.19495260203E+02 -0.17347348112E+02  0.40659112904E+02  0.00000000000E+00 0. -1.
         11    1    3    3    0    0  0.41439832646E+00 -0.57457159077E+00 -0.16017852682E+01  0.17514493405E+01  0.51100000000E-03 0. -1.
        -11    1    3    3    0    0 -0.12134852841E+02  0.17628358969E+02 -0.15078745250E+00  0.21401785686E+02  0.51100000000E-03 0.  1.
         12    1    3    3    0    0 -0.19459151084E+02  0.24414728244E+01  0.19099920832E+02  0.27375652070E+02  0.00000000000E+00 0. -1.
</event>
<event>
 7    1  0.4971907E-013  0.5052886E+02  0.7816164E-02  0.1300439E+00
        -11   -1    0    0    0    0  0.00000000000E+00  0.00000000000E+00  0.45593999997E+02  0.45594000000E+02  0.51100000000E-03 0.  1.
         11   -1    0    0    0    0 -0.00000000000E+00 -0.00000000000E+00 -0.45593999997E+02  0.45594000000E+02  0.51100000000E-03 0. -1.
    9900012    2    1    2    0    0 -0.19541626522E+02 -0.42769701734E+01  0.35397714658E+02  0.50528857806E+02  0.29999993787E+02 0.  0.
         12    1    1    2    0    0  0.19541626522E+02  0.42769701734E+01 -0.35397714658E+02  0.40659142194E+02  0.00000000000E+00 0. -1.
         11    1    3    3    0    0 -0.45146746179E+01 -0.32323367564E+01  0.23356784118E+02  0.24007699857E+02  0.51100000000E-03 0. -1.
        -11    1    3    3    0    0  0.34391579792E+01 -0.34656506070E+01  0.36397246827E+01  0.60898388946E+01  0.51100000000E-03 0.  1.
         12    1    3    3    0    0 -0.18466109883E+02  0.24210171900E+01  0.84012058567E+01  0.20431319054E+02  0.00000000000E+00 0. -1.
</event>
<event>
 7    1  0.4971907E-013  0.5052886E+02  0.7816164E-02  0.1300439E+00
        -11   -1    0    0    0    0  0.00000000000E+00  0.00000000000E+00  0.45593999997E+02  0.45594000000E+02  0.51100000000E-03 0.  1.
         11   -1    0    0    0    0 -0.00000000000E+00 -0.00000000000E+00 -0.45593999997E+02  0.45594000000E+02  0.51100000000E-03 0. -1.
    9900012    2    1    2    0    0  0.21364619183E+02  0.15355346827E+02  0.30998900420E+02  0.50528862573E+02  0.30000008277E+02 0.  0.
         12    1    1    2    0    0 -0.21364619183E+02 -0.15355346827E+02 -0.30998900420E+02  0.40659137427E+02  0.00000000000E+00 0. -1.
         11    1    3    3    0    0  0.24225993301E+02  0.12217228847E+02  0.29258255917E+02  0.39902443180E+02  0.51100000000E-03 0.  1.
        -11    1    3    3    0    0 -0.33227316263E+01  0.49683015141E+01  0.43597351188E+01  0.73980981315E+01  0.51100000000E-03 0. -1.
        -12    1    3    3    0    0  0.46135750880E+00 -0.18301835334E+01 -0.26190906158E+01  0.32283212620E+01  0.00000000000E+00 0.  1.
</event>
<event>
 7    1  0.4971907E-013  0.5052880E+02  0.7816164E-02  0.1300439E+00
        -11   -1    0    0    0    0  0.00000000000E+00  0.00000000000E+00  0.45593999997E+02  0.45594000000E+02  0.51100000000E-03 0.  1.
         11   -1    0    0    0    0 -0.00000000000E+00 -0.00000000000E+00 -0.45593999997E+02  0.45594000000E+02  0.51100000000E-03 0. -1.
    9900012    2    1    2    0    0  0.15241627911E+02  0.32600841062E+01  0.37553096325E+02  0.50528801614E+02  0.29999822986E+02 0.  0.
         12    1    1    2    0    0 -0.15241627911E+02 -0.32600841062E+01 -0.37553096325E+02  0.40659198386E+02  0.00000000000E+00 0. -1.
         11    1    3    3    0    0  0.69155365595E+00 -0.76442003876E+01  0.23916715734E+02  0.25118147579E+02  0.51100000000E-03 0. -1.
        -11    1    3    3    0    0  0.48912622804E+00  0.66785261739E+01  0.33818693617E+01  0.75019328818E+01  0.51100000000E-03 0.  1.
        -12    1    3    3    0    0  0.14060948027E+02  0.42257583199E+01  0.10254511229E+02  0.17908721154E+02  0.00000000000E+00 0.  1.
</event>
<event>
 7    1  0.4971907E-013  0.5052887E+02  0.7816164E-02  0.1300439E+00
        -11   -1    0    0    0    0  0.00000000000E+00  0.00000000000E+00  0.45593999997E+02  0.45594000000E+02  0.51100000000E-03 0.  1.
         11   -1    0    0    0    0 -0.00000000000E+00 -0.00000000000E+00 -0.45593999997E+02  0.45594000000E+02  0.51100000000E-03 0. -1.
    9900012    2    1    2    0    0  0.37087490564E+01 -0.15598550086E+02  0.37364362967E+02  0.50528865672E+02  0.30000017696E+02 0.  0.
         12    1    1    2    0    0 -0.37087490564E+01  0.15598550086E+02 -0.37364362967E+02  0.40659134328E+02  0.00000000000E+00 0. -1.
         11    1    3    3    0    0  0.10299458646E+02 -0.11347295013E+02  0.11332751986E+02  0.19059675242E+02  0.51100000000E-03 0.  1.
        -11    1    3    3    0    0  0.46753781119E+01 -0.43761057083E+01  0.88884375217E+01  0.10955080260E+02  0.51100000000E-03 0. -1.
        -12    1    3    3    0    0 -0.11266087702E+02  0.12485063475E+00  0.17143173460E+02  0.20514110170E+02  0.00000000000E+00 0.  1.
</event>
<event>
 7    1  0.4971907E-013  0.5052886E+02  0.7816164E-02  0.1300439E+00
        -11   -1    0    0    0    0  0.00000000000E+00  0.00000000000E+00  0.45593999997E+02  0.45594000000E+02  0.51100000000E-03 0.  1.
         11   -1    0    0    0    0 -0.00000000000E+00 -0.00000000000E+00 -0.45593999997E+02  0.45594000000E+02  0.51100000000E-03 0. -1.
    9900012    2    1    2    0    0 -0.52390222232E+01 -0.15641383361E+02  0.37162683961E+02  0.50528864416E+02  0.30000013878E+02 0.  0.
         12    1    1    2    0    0  0.52390222232E+01  0.15641383361E+02 -0.37162683961E+02  0.40659135584E+02  0.00000000000E+00 0. -1.
         11    1    3    3    0    0  0.64639328867E+01 -0.42728207592E+00  0.89985632402E+01  0.11087792340E+02  0.51100000000E-03 0.  1.
        -11    1    3    3    0    0  0.17248177757E-01 -0.92516359248E+01  0.23882554741E+02  0.25611901257E+02  0.51100000000E-03 0. -1.
         12    1    3    3    0    0 -0.11720203288E+02 -0.59624653605E+01  0.42815659796E+01  0.13829170818E+02  0.00000000000E+00 0. -1.
</event>
<event>
 7    1  0.6579444E-013  0.5052884E+02  0.7816164E-02  0.1300439E+00
        -11   -1    0    0    0    0  0.00000000000E+00  0.00000000000E+00  0.45593999997E+02  0.45594000000E+02  0.51100000000E-03 0. -1.
         11   -1    0    0    0    0 -0.00000000000E+00 -0.00000000000E+00 -0.45593999997E+02  0.45594000000E+02  0.51100000000E-03 0.  1.
    9900012    2    1    2    0    0  0.25275659603E+02  0.21939188051E+02 -0.23086364080E+02  0.50528841781E+02  0.29999945076E+02 0.  0.
         12    1    1    2    0    0 -0.25275659603E+02 -0.21939188051E+02  0.23086364080E+02  0.40659158219E+02  0.00000000000E+00 0. -1.
         11    1    3    3    0    0 -0.28040635676E+01  0.33053766848E+00  0.15567860026E+01  0.32242224738E+01  0.51100000000E-03 0. -1.
        -11    1    3    3    0    0  0.15645648183E+01  0.11044095533E+02 -0.11012270785E+02  0.15674502139E+02  0.51100000000E-03 0.  1.
        -12    1    3    3    0    0  0.26515158352E+02  0.10564554849E+02 -0.13630879298E+02  0.31630117167E+02  0.00000000000E+00 0.  1.
</event>
<event>
 7    1  0.4971907E-013  0.5052888E+02  0.7816164E-02  0.1300439E+00
        -11   -1    0    0    0    0  0.00000000000E+00  0.00000000000E+00  0.45593999997E+02  0.45594000000E+02  0.51100000000E-03 0. -1.
         11   -1    0    0    0    0 -0.00000000000E+00 -0.00000000000E+00 -0.45593999997E+02  0.45594000000E+02  0.51100000000E-03 0.  1.
    9900012    2    1    2    0    0  0.77810778608E+01 -0.33135905535E+02 -0.22240291779E+02  0.50528880645E+02  0.30000063210E+02 0.  0.
         12    1    1    2    0    0 -0.77810778608E+01  0.33135905535E+02  0.22240291779E+02  0.40659119355E+02  0.00000000000E+00 0. -1.
         11    1    3    3    0    0 -0.26873742859E+01 -0.21807924888E+02  0.99704735711E+00  0.21995492087E+02  0.51100000000E-03 0. -1.
        -11    1    3    3    0    0  0.28624208786E+01 -0.51042254340E+01 -0.45258971874E+01  0.73979940646E+01  0.51100000000E-03 0.  1.
         12    1    3    3    0    0  0.76060312680E+01 -0.62237552128E+01 -0.18711441949E+02  0.21135394494E+02  0.00000000000E+00 0. -1.
</event>
<event>
 7    1  0.4971907E-013  0.5052885E+02  0.7816164E-02  0.1300439E+00
        -11   -1    0    0    0    0  0.00000000000E+00  0.00000000000E+00  0.45593999997E+02  0.45594000000E+02  0.51100000000E-03 0.  1.
         11   -1    0    0    0    0 -0.00000000000E+00 -0.00000000000E+00 -0.45593999997E+02  0.45594000000E+02  0.51100000000E-03 0. -1.
    9900012    2    1    2    0    0  0.30548662692E+02 -0.33122131995E+01  0.26626578371E+02  0.50528853129E+02  0.29999979570E+02 0.  0.
         12    1    1    2    0    0 -0.30548662692E+02  0.33122131995E+01 -0.26626578371E+02  0.40659146871E+02  0.00000000000E+00 0. -1.
         11    1    3    3    0    0  0.55292636020E+01  0.13376135177E+00 -0.61673781863E+01  0.82841536703E+01  0.51100000000E-03 0. -1.
        -11    1    3    3    0    0  0.67275553921E+00  0.90180825768E+00  0.46225224597E+01  0.47574754125E+01  0.51100000000E-03 0.  1.
         12    1    3    3    0    0  0.24346643551E+02 -0.43477828090E+01  0.28171434098E+02  0.37487224046E+02  0.00000000000E+00 0. -1.
</event>
<event>
 7    1  0.4971907E-013  0.5052887E+02  0.7816164E-02  0.1300439E+00
        -11   -1    0    0    0    0  0.00000000000E+00  0.00000000000E+00  0.45593999997E+02  0.45594000000E+02  0.51100000000E-03 0.  1.
         11   -1    0    0    0    0 -0.00000000000E+00 -0.00000000000E+00 -0.45593999997E+02  0.45594000000E+02  0.51100000000E-03 0. -1.
    9900012    2    1    2    0    0 -0.23708502584E+02 -0.23716236142E+02  0.22991566702E+02  0.50528867066E+02  0.30000021933E+02 0.  0.
         12    1    1    2    0    0  0.23708502584E+02  0.23716236142E+02 -0.22991566702E+02  0.40659132934E+02  0.00000000000E+00 0. -1.
         11    1    3    3    0    0 -0.18736789521E+01  0.40087359957E+01  0.11143699940E+01  0.45631631401E+01  0.51100000000E-03 0. -1.
        -11    1    3    3    0    0 -0.12683484267E+02 -0.51180204477E+01  0.74888011860E+00  0.13697654111E+02  0.51100000000E-03 0.  1.
        -12    1    3    3    0    0 -0.91513393648E+01 -0.22606951690E+02  0.21128316590E+02  0.32268049814E+02  0.00000000000E+00 0.  1.
</event>
<event>
 7    1  0.4971907E-013  0.5052886E+02  0.7816164E-02  0.1300439E+00
        -11   -1    0    0    0    0  0.00000000000E+00  0.00000000000E+00  0.45593999997E+02  0.45594000000E+02  0.51100000000E-03 0.  1.
         11   -1    0    0    0    0 -0.00000000000E+00 -0.00000000000E+00 -0.45593999997E+02  0.45594000000E+02  0.51100000000E-03 0. -1.
    9900012    2    1    2    0    0  0.14787679021E+02  0.19756081192E+02  0.32313888481E+02  0.50528861007E+02  0.30000003516E+02 0.  0.
         12    1    1    2    0    0 -0.14787679021E+02 -0.19756081192E+02 -0.32313888481E+02  0.40659138993E+02  0.00000000000E+00 0. -1.
         11    1    3    3    0    0 -0.38811104652E+01  0.96572505390E+01  0.55234975285E+01  0.11782806611E+02  0.51100000000E-03 0. -1.
        -11    1    3    3    0    0  0.15033886469E+02  0.15397726096E+02  0.21540538771E+02  0.30448358282E+02  0.51100000000E-03 0.  1.
        -12    1    3    3    0    0  0.36349030180E+01 -0.52988954434E+01  0.52498521814E+01  0.82976961137E+01  0.00000000000E+00 0.  1.
</event>
<event>
 7    1  0.4971907E-013  0.5052886E+02  0.7816164E-02  0.1300439E+00
        -11   -1    0    0    0    0  0.00000000000E+00  0.00000000000E+00  0.45593999997E+02  0.45594000000E+02  0.51100000000E-03 0.  1.
         11   -1    0    0    0    0 -0.00000000000E+00 -0.00000000000E+00 -0.45593999997E+02  0.45594000000E+02  0.51100000000E-03 0. -1.
    9900012    2    1    2    0    0  0.34609233752E+02 -0.18428500588E+02  0.10759059278E+02  0.50528855256E+02  0.29999986035E+02 0.  0.
         12    1    1    2    0    0 -0.34609233752E+02  0.18428500588E+02 -0.10759059278E+02  0.40659144744E+02  0.00000000000E+00 0. -1.
         11    1    3    3    0    0  0.12355977368E+02  0.49299760725E+01  0.23235939951E+01  0.13504589224E+02  0.51100000000E-03 0. -1.
        -11    1    3    3    0    0  0.14554787932E+01 -0.14723229443E+01 -0.38953837360E+01  0.44113680510E+01  0.51100000000E-03 0.  1.
        -12    1    3    3    0    0  0.20797777590E+02 -0.21886153716E+02  0.12330849019E+02  0.32612897981E+02  0.00000000000E+00 0.  1.
</event>
<event>
 7    1  0.4971907E-013  0.5052885E+02  0.7816164E-02  0.1300439E+00
        -11   -1    0    0    0    0  0.00000000000E+00  0.00000000000E+00  0.45593999997E+02  0.45594000000E+02  0.51100000000E-03 0. -1.
         11   -1    0    0    0    0 -0.00000000000E+00 -0.00000000000E+00 -0.45593999997E+02  0.45594000000E+02  0.51100000000E-03 0.  1.
    9900012    2    1    2    0    0 -0.25229014551E+02  0.31866636579E+02 -0.10866357481E+01  0.50528849993E+02  0.29999970038E+02 0.  0.
         12    1    1    2    0    0  0.25229014551E+02 -0.31866636579E+02  0.10866357481E+01  0.40659150007E+02  0.00000000000E+00 0. -1.
         11    1    3    3    0    0  0.47078133143E+01  0.17442187705E+01 -0.16308257617E+01  0.52787686299E+01  0.51100000000E-03 0. -1.
        -11    1    3    3    0    0 -0.18886957082E+02  0.17458266895E+02 -0.72521938171E+01  0.26722697210E+02  0.51100000000E-03 0.  1.
        -12    1    3    3    0    0 -0.11049870783E+02  0.12664150914E+02  0.77963838308E+01  0.18527384153E+02  0.00000000000E+00 0.  1.
</event>
<event>
 7    1  0.4971907E-013  0.5052886E+02  0.7816164E-02  0.1300439E+00
        -11   -1    0    0    0    0  0.00000000000E+00  0.00000000000E+00  0.45593999997E+02  0.45594000000E+02  0.51100000000E-03 0.  1.
         11   -1    0    0    0    0 -0.00000000000E+00 -0.00000000000E+00 -0.45593999997E+02  0.45594000000E+02  0.51100000000E-03 0. -1.
    9900012    2    1    2    0    0 -0.40572539645E+02 -0.26521393483E+01 -0.28300471316E-01  0.50528860594E+02  0.30000002260E+02 0.  0.
         12    1    1    2    0    0  0.40572539645E+02  0.26521393483E+01  0.28300471316E-01  0.40659139406E+02  0.00000000000E+00 0. -1.
         11    1    3    3    0    0 -0.10219874199E+02  0.39001388006E+01  0.10030006918E+02  0.14841089931E+02  0.51100000000E-03 0. -1.
        -11    1    3    3    0    0 -0.12410305506E+02 -0.84270660164E+01  0.65520990699E-01  0.15001180542E+02  0.51100000000E-03 0.  1.
         12    1    3    3    0    0 -0.17942359941E+02  0.18747878674E+01 -0.10123828380E+02  0.20686590121E+02  0.00000000000E+00 0. -1.
</event>
<event>
 7    1  0.4971907E-013  0.5052888E+02  0.7816164E-02  0.1300439E+00
        -11   -1    0    0    0    0  0.00000000000E+00  0.00000000000E+00  0.45593999997E+02  0.45594000000E+02  0.51100000000E-03 0.  1.
         11   -1    0    0    0    0 -0.00000000000E+00 -0.00000000000E+00 -0.45593999997E+02  0.45594000000E+02  0.51100000000E-03 0. -1.
    9900012    2    1    2    0    0 -0.10426870989E+02 -0.37819729198E+02  0.10682356032E+02  0.50528876970E+02  0.30000052037E+02 0.  0.
         12    1    1    2    0    0  0.10426870989E+02  0.37819729198E+02 -0.10682356032E+02  0.40659123030E+02  0.00000000000E+00 0. -1.
         11    1    3    3    0    0  0.43213807097E+01 -0.65129623197E+01  0.41633075592E+01  0.88558534038E+01  0.51100000000E-03 0. -1.
        -11    1    3    3    0    0 -0.95760912073E+01 -0.12314573160E+01  0.55593884153E+01  0.11141131439E+02  0.51100000000E-03 0.  1.
        -12    1    3    3    0    0 -0.51721604909E+01 -0.30075309562E+02  0.95966005757E+00  0.30531892127E+02  0.00000000000E+00 0.  1.
</event>
<event>
 7    1  0.4971907E-013  0.5052885E+02  0.7816164E-02  0.1300439E+00
        -11   -1    0    0    0    0  0.00000000000E+00  0.00000000000E+00  0.45593999997E+02  0.45594000000E+02  0.51100000000E-03 0. -1.
         11   -1    0    0    0    0 -0.00000000000E+00 -0.00000000000E+00 -0.45593999997E+02  0.45594000000E+02  0.51100000000E-03 0.  1.
    9900012    2    1    2    0    0  0.40187413749E+02  0.19232645503E+01 -0.58685110795E+01  0.50528848599E+02  0.29999965801E+02 0.  0.
         12    1    1    2    0    0 -0.40187413749E+02 -0.19232645503E+01  0.58685110795E+01  0.40659151401E+02  0.00000000000E+00 0. -1.
         11    1    3    3    0    0  0.16120439607E+02  0.35316418409E+01  0.53684548584E+01  0.17354001701E+02  0.51100000000E-03 0. -1.
        -11    1    3    3    0    0  0.44885702099E+01  0.81720723055E+01 -0.36228962857E+01  0.10002769919E+02  0.51100000000E-03 0.  1.
         12    1    3    3    0    0  0.19578403932E+02 -0.97804495961E+01 -0.76140696522E+01  0.23172076979E+02  0.00000000000E+00 0. -1.
</event>
<event>
 7    1  0.4971907E-013  0.5052885E+02  0.7816164E-02  0.1300439E+00
        -11   -1    0    0    0    0  0.00000000000E+00  0.00000000000E+00  0.45593999997E+02  0.45594000000E+02  0.51100000000E-03 0.  1.
         11   -1    0    0    0    0 -0.00000000000E+00 -0.00000000000E+00 -0.45593999997E+02  0.45594000000E+02  0.51100000000E-03 0. -1.
    9900012    2    1    2    0    0 -0.20370997759E+02  0.23136192180E+02  0.26512370441E+02  0.50528846976E+02  0.29999960868E+02 0.  0.
         12    1    1    2    0    0  0.20370997759E+02 -0.23136192180E+02 -0.26512370441E+02  0.40659153024E+02  0.00000000000E+00 0. -1.
         11    1    3    3    0    0 -0.26966298943E+01  0.12626485388E+02  0.19544807645E+02  0.23424334616E+02  0.51100000000E-03 0. -1.
        -11    1    3    3    0    0 -0.94555593950E+01  0.13610679092E+02  0.77304402454E+01  0.18287096420E+02  0.51100000000E-03 0.  1.
         12    1    3    3    0    0 -0.82188084693E+01 -0.31009723004E+01 -0.76287744970E+00  0.88174159404E+01  0.00000000000E+00 0. -1.
</event>
<event>
 7    1  0.4971907E-013  0.5052884E+02  0.7816164E-02  0.1300439E+00
        -11   -1    0    0    0    0  0.00000000000E+00  0.00000000000E+00  0.45593999997E+02  0.45594000000E+02  0.51100000000E-03 0. -1.
         11   -1    0    0    0    0 -0.00000000000E+00 -0.00000000000E+00 -0.45593999997E+02  0.45594000000E+02  0.51100000000E-03 0.  1.
    9900012    2    1    2    0    0  0.40436861880E+02 -0.17576979826E+01 -0.38649505549E+01  0.50528841822E+02  0.29999945203E+02 0.  0.
         12    1    1    2    0    0 -0.40436861880E+02  0.17576979826E+01  0.38649505549E+01  0.40659158178E+02  0.00000000000E+00 0. -1.
         11    1    3    3    0    0 -0.21554025902E+01  0.40113783370E+01 -0.13952579566E+01  0.47627367674E+01  0.51100000000E-03 0. -1.
        -11    1    3    3    0    0  0.15122716030E+02 -0.38262769988E-01 -0.80857076313E+01  0.17148663864E+02  0.51100000000E-03 0.  1.
         12    1    3    3    0    0  0.27469548440E+02 -0.57308135496E+01  0.56160150330E+01  0.28617441191E+02  0.00000000000E+00 0. -1.
</event>
<event>
 7    1  0.4971907E-013  0.5052885E+02  0.7816164E-02  0.1300439E+00
        -11   -1    0    0    0    0  0.00000000000E+00  0.00000000000E+00  0.45593999997E+02  0.45594000000E+02  0.51100000000E-03 0.  1.
         11   -1    0    0    0    0 -0.00000000000E+00 -0.00000000000E+00 -0.45593999997E+02  0.45594000000E+02  0.51100000000E-03 0. -1.
    9900012    2    1    2    0    0  0.30033322379E+01 -0.14156370032E+02  0.37996624814E+02  0.50528852022E+02  0.29999976207E+02 0.  0.
         12    1    1    2    0    0 -0.30033322379E+01  0.14156370032E+02 -0.37996624814E+02  0.40659147978E+02  0.00000000000E+00 0. -1.
         11    1    3    3    0    0  0.82099380840E+01 -0.17626501483E+02  0.27346346965E+02  0.33554721433E+02  0.51100000000E-03 0.  1.
        -11    1    3    3    0    0 -0.40111217269E+00 -0.28137117072E+00  0.10862941805E+02  0.10873985729E+02  0.51100000000E-03 0. -1.
         12    1    3    3    0    0 -0.48054936735E+01  0.37515026212E+01 -0.21266395591E+00  0.61001448607E+01  0.00000000000E+00 0. -1.
</event>
<event>
 7    1  0.4971907E-013  0.5052886E+02  0.7816164E-02  0.1300439E+00
        -11   -1    0    0    0    0  0.00000000000E+00  0.00000000000E+00  0.45593999997E+02  0.45594000000E+02  0.51100000000E-03 0.  1.
         11   -1    0    0    0    0 -0.00000000000E+00 -0.00000000000E+00 -0.45593999997E+02  0.45594000000E+02  0.51100000000E-03 0. -1.
    9900012    2    1    2    0    0  0.35715409080E+01 -0.22507460250E+02  0.33672301069E+02  0.50528861659E+02  0.30000005498E+02 0.  0.
         12    1    1    2    0    0 -0.35715409080E+01  0.22507460250E+02 -0.33672301069E+02  0.40659138341E+02  0.00000000000E+00 0. -1.
         11    1    3    3    0    0 -0.34952503773E-01  0.59137362870E+01  0.25843943772E+01  0.64538820184E+01  0.51100000000E-03 0. -1.
        -11    1    3    3    0    0  0.14243275310E+01  0.12357840248E+00 -0.43325512004E+00  0.14938844659E+01  0.51100000000E-03 0.  1.
        -12    1    3    3    0    0  0.21821658807E+01 -0.28544774940E+02  0.31521161812E+02  0.42581095174E+02  0.00000000000E+00 0.  1.
</event>
<event>
 7    1  0.4971907E-013  0.5052886E+02  0.7816164E-02  0.1300439E+00
        -11   -1    0    0    0    0  0.00000000000E+00  0.00000000000E+00  0.45593999997E+02  0.45594000000E+02  0.51100000000E-03 0.  1.
         11   -1    0    0    0    0 -0.00000000000E+00 -0.00000000000E+00 -0.45593999997E+02  0.45594000000E+02  0.51100000000E-03 0. -1.
    9900012    2    1    2    0    0  0.24896374763E+02  0.29971140396E+02  0.11621838812E+02  0.50528857481E+02  0.29999992799E+02 0.  0.
         12    1    1    2    0    0 -0.24896374763E+02 -0.29971140396E+02 -0.11621838812E+02  0.40659142519E+02  0.00000000000E+00 0. -1.
         11    1    3    3    0    0  0.17154055172E+02  0.11004476912E+02  0.66764445978E+01  0.21446096001E+02  0.51100000000E-03 0.  1.
        -11    1    3    3    0    0 -0.39237544090E+01  0.92865582913E+01  0.88652775107E+01  0.13424945406E+02  0.51100000000E-03 0. -1.
         12    1    3    3    0    0  0.11666074000E+02  0.96801051931E+01 -0.39198832966E+01  0.15657816073E+02  0.00000000000E+00 0. -1.
</event>
<event>
 7    1  0.4971907E-013  0.5052886E+02  0.7816164E-02  0.1300439E+00
        -11   -1    0    0    0    0  0.00000000000E+00  0.00000000000E+00  0.45593999997E+02  0.45594000000E+02  0.51100000000E-03 0. -1.
         11   -1    0    0    0    0 -0.00000000000E+00 -0.00000000000E+00 -0.45593999997E+02  0.45594000000E+02  0.51100000000E-03 0.  1.
    9900012    2    1    2    0    0  0.63328611633E+01  0.14900126464E+02 -0.37296736257E+02  0.50528862840E+02  0.30000009088E+02 0.  0.
         12    1    1    2    0    0 -0.63328611633E+01 -0.14900126464E+02  0.37296736257E+02  0.40659137160E+02  0.00000000000E+00 0. -1.
         11    1    3    3    0    0 -0.30484375560E+01  0.32167141519E+01 -0.18976684412E+02  0.19487297735E+02  0.51100000000E-03 0. -1.
        -11    1    3    3    0    0  0.28232221892E+01 -0.55919595852E+01 -0.68988714467E+01  0.93185311627E+01  0.51100000000E-03 0.  1.
         12    1    3    3    0    0  0.65580765301E+01  0.17275371897E+02 -0.11421180399E+02  0.21723033942E+02  0.00000000000E+00 0. -1.
</event>
<event>
 7    1  0.4971907E-013  0.5052886E+02  0.7816164E-02  0.1300439E+00
        -11   -1    0    0    0    0  0.00000000000E+00  0.00000000000E+00  0.45593999997E+02  0.45594000000E+02  0.51100000000E-03 0.  1.
         11   -1    0    0    0    0 -0.00000000000E+00 -0.00000000000E+00 -0.45593999997E+02  0.45594000000E+02  0.51100000000E-03 0. -1.
    9900012    2    1    2    0    0  0.53429673528E+01 -0.40005621469E+02 -0.49161820939E+01  0.50528857171E+02  0.29999991857E+02 0.  0.
         12    1    1    2    0    0 -0.53429673528E+01  0.40005621469E+02  0.49161820939E+01  0.40659142829E+02  0.00000000000E+00 0. -1.
         11    1    3    3    0    0 -0.67698701493E+01 -0.88149569246E+01 -0.68345371059E+01  0.13047816106E+02  0.51100000000E-03 0. -1.
        -11    1    3    3    0    0  0.20692547929E+01 -0.16127062228E+02 -0.65054403411E+01  0.17512415761E+02  0.51100000000E-03 0.  1.
         12    1    3    3    0    0  0.10043582709E+02 -0.15063602316E+02  0.84237953531E+01  0.19968625304E+02  0.00000000000E+00 0. -1.
</event>
<event>
 7    1  0.5326672E-013  0.5052885E+02  0.7816164E-02  0.1300439E+00
        -11   -1    0    0    0    0  0.00000000000E+00  0.00000000000E+00  0.45593999997E+02  0.45594000000E+02  0.51100000000E-03 0.  1.
         11   -1    0    0    0    0 -0.00000000000E+00 -0.00000000000E+00 -0.45593999997E+02  0.45594000000E+02  0.51100000000E-03 0. -1.
    9900012    2    1    2    0    0 -0.65921217897E+01  0.39205035439E+02  0.85249826662E+01  0.50528853391E+02  0.29999980369E+02 0.  0.
         12    1    1    2    0    0  0.65921217897E+01 -0.39205035439E+02 -0.85249826662E+01  0.40659146609E+02  0.00000000000E+00 0. -1.
         11    1    3    3    0    0 -0.45624022929E+01 -0.16888373570E+01 -0.22994522344E+01  0.53810005705E+01  0.51100000000E-03 0. -1.
        -11    1    3    3    0    0  0.21965700317E+01  0.37623763160E+01  0.60754787199E+01  0.74760843617E+01  0.51100000000E-03 0.  1.
        -12    1    3    3    0    0 -0.42262895284E+01  0.37131496480E+02  0.47489561807E+01  0.37671768459E+02  0.00000000000E+00 0.  1.
</event>
<event>
 7    1  0.4971907E-013  0.5052888E+02  0.7816164E-02  0.1300439E+00
        -11   -1    0    0    0    0  0.00000000000E+00  0.00000000000E+00  0.45593999997E+02  0.45594000000E+02  0.51100000000E-03 0.  1.
         11   -1    0    0    0    0 -0.00000000000E+00 -0.00000000000E+00 -0.45593999997E+02  0.45594000000E+02  0.51100000000E-03 0. -1.
    9900012    2    1    2    0    0  0.38886601378E+02 -0.86758481440E+00  0.11842455756E+02  0.50528877672E+02  0.30000054172E+02 0.  0.
         12    1    1    2    0    0 -0.38886601378E+02  0.86758481440E+00 -0.11842455756E+02  0.40659122328E+02  0.00000000000E+00 0. -1.
         11    1    3    3    0    0  0.38309586961E+01  0.37311353525E+01  0.25066039805E+01  0.59059867360E+01  0.51100000000E-03 0. -1.
        -11    1    3    3    0    0  0.21656343792E+02  0.97172936741E+01  0.25482456994E+01  0.23872925652E+02  0.51100000000E-03 0.  1.
        -12    1    3    3    0    0  0.13399298890E+02 -0.14316013841E+02  0.67876060761E+01  0.20749965284E+02  0.00000000000E+00 0.  1.
</event>
<event>
 7    1  0.4971907E-013  0.5052885E+02  0.7816164E-02  0.1300439E+00
        -11   -1    0    0    0    0  0.00000000000E+00  0.00000000000E+00  0.45593999997E+02  0.45594000000E+02  0.51100000000E-03 0.  1.
         11   -1    0    0    0    0 -0.00000000000E+00 -0.00000000000E+00 -0.45593999997E+02  0.45594000000E+02  0.51100000000E-03 0. -1.
    9900012    2    1    2    0    0  0.25126170752E+02  0.31446835447E+02 -0.57391883453E+01  0.50528853438E+02  0.29999980509E+02 0.  0.
         12    1    1    2    0    0 -0.25126170752E+02 -0.31446835447E+02  0.57391883453E+01  0.40659146562E+02  0.00000000000E+00 0. -1.
         11    1    3    3    0    0  0.37191558077E+00  0.57500355829E+01 -0.74250601833E+01  0.93985503877E+01  0.51100000000E-03 0. -1.
        -11    1    3    3    0    0 -0.29525373885E+01  0.65647518351E+01 -0.13484465742E+01  0.73233702700E+01  0.51100000000E-03 0.  1.
        -12    1    3    3    0    0  0.27706792560E+02  0.19132048030E+02  0.30343184123E+01  0.33806932780E+02  0.00000000000E+00 0.  1.
</event>
<event>
 7    1  0.4971907E-013  0.5052886E+02  0.7816164E-02  0.1300439E+00
        -11   -1    0    0    0    0  0.00000000000E+00  0.00000000000E+00  0.45593999997E+02  0.45594000000E+02  0.51100000000E-03 0. -1.
         11   -1    0    0    0    0 -0.00000000000E+00 -0.00000000000E+00 -0.45593999997E+02  0.45594000000E+02  0.51100000000E-03 0.  1.
    9900012    2    1    2    0    0  0.15539073862E+00 -0.40036354602E+02 -0.70874504900E+01  0.50528858463E+02  0.29999995784E+02 0.  0.
         12    1    1    2    0    0 -0.15539073862E+00  0.40036354602E+02  0.70874504900E+01  0.40659141537E+02  0.00000000000E+00 0. -1.
         11    1    3    3    0    0 -0.10919458328E+02 -0.88411799064E+01 -0.22527574082E+01  0.14229404363E+02  0.51100000000E-03 0. -1.
        -11    1    3    3    0    0 -0.71566024389E+00 -0.11333233076E+00  0.22034874687E+01  0.23195626932E+01  0.51100000000E-03 0.  1.
        -12    1    3    3    0    0  0.11790509311E+02 -0.31081842364E+02 -0.70381805505E+01  0.33979891407E+02  0.00000000000E+00 0.  1.
</event>
<event>
 7    1  0.4971907E-013  0.5052888E+02  0.7816164E-02  0.1300439E+00
        -11   -1    0    0    0    0  0.00000000000E+00  0.00000000000E+00  0.45593999997E+02  0.45594000000E+02  0.51100000000E-03 0.  1.
         11   -1    0    0    0    0 -0.00000000000E+00 -0.00000000000E+00 -0.45593999997E+02  0.45594000000E+02  0.51100000000E-03 0. -1.
    9900012    2    1    2    0    0 -0.15074834943E+02  0.35733419471E+02  0.12208047322E+02  0.50528876361E+02  0.30000050187E+02 0.  0.
         12    1    1    2    0    0  0.15074834943E+02 -0.35733419471E+02 -0.12208047322E+02  0.40659123639E+02  0.00000000000E+00 0. -1.
         11    1    3    3    0    0 -0.54122807735E+01  0.24777431899E+02  0.79513543151E+00  0.25374123735E+02  0.51100000000E-03 0. -1.
        -11    1    3    3    0    0 -0.10951404632E+02  0.71743790565E+01  0.31205265280E-01  0.13092209603E+02  0.51100000000E-03 0.  1.
         12    1    3    3    0    0  0.12888504624E+01  0.37816085155E+01  0.11381706625E+02  0.12062543023E+02  0.00000000000E+00 0. -1.
</event>
<event>
 7    1  0.4971907E-013  0.5052888E+02  0.7816164E-02  0.1300439E+00
        -11   -1    0    0    0    0  0.00000000000E+00  0.00000000000E+00  0.45593999997E+02  0.45594000000E+02  0.51100000000E-03 0. -1.
         11   -1    0    0    0    0 -0.00000000000E+00 -0.00000000000E+00 -0.45593999997E+02  0.45594000000E+02  0.51100000000E-03 0.  1.
    9900012    2    1    2    0    0  0.40258190299E+01 -0.38505371224E+02 -0.12421483011E+02  0.50528879595E+02  0.30000060016E+02 0.  0.
         12    1    1    2    0    0 -0.40258190299E+01  0.38505371224E+02  0.12421483011E+02  0.40659120405E+02  0.00000000000E+00 0. -1.
         11    1    3    3    0    0  0.61051761083E+01  0.10962640048E+01  0.71480317765E+00  0.62438701080E+01  0.51100000000E-03 0. -1.
        -11    1    3    3    0    0  0.61620723296E+01 -0.18683740833E+02 -0.43673837923E+01  0.20152601529E+02  0.51100000000E-03 0.  1.
        -12    1    3    3    0    0 -0.82414294080E+01 -0.20917894395E+02 -0.87689023969E+01  0.24132407958E+02  0.00000000000E+00 0.  1.
</event>
<event>
 7    1  0.4971907E-013  0.5052887E+02  0.7816164E-02  0.1300439E+00
        -11   -1    0    0    0    0  0.00000000000E+00  0.00000000000E+00  0.45593999997E+02  0.45594000000E+02  0.51100000000E-03 0. -1.
         11   -1    0    0    0    0 -0.00000000000E+00 -0.00000000000E+00 -0.45593999997E+02  0.45594000000E+02  0.51100000000E-03 0.  1.
    9900012    2    1    2    0    0  0.16745398606E+02  0.32812035336E+02  0.17208335052E+02  0.50528870243E+02  0.30000031591E+02 0.  0.
         12    1    1    2    0    0 -0.16745398606E+02 -0.32812035336E+02 -0.17208335052E+02  0.40659129757E+02  0.00000000000E+00 0. -1.
         11    1    3    3    0    0 -0.19226629223E+01 -0.11563723251E+01  0.99228644730E+01  0.10173350937E+02  0.51100000000E-03 0. -1.
        -11    1    3    3    0    0  0.86052835117E+01  0.21776583870E+02  0.73680671264E+01  0.24547075646E+02  0.51100000000E-03 0.  1.
        -12    1    3    3    0    0  0.10062778016E+02  0.12191823791E+02 -0.82596547771E-01  0.15808443660E+02  0.00000000000E+00 0.  1.
</event>
<event>
 7    1  0.4971907E-013  0.5052873E+02  0.7816164E-02  0.1300439E+00
        -11   -1    0    0    0    0  0.00000000000E+00  0.00000000000E+00  0.45593999997E+02  0.45594000000E+02  0.51100000000E-03 0. -1.
         11   -1    0    0    0    0 -0.00000000000E+00 -0.00000000000E+00 -0.45593999997E+02  0.45594000000E+02  0.51100000000E-03 0.  1.
    9900012    2    1    2    0    0 -0.67409396546E+01  0.38505307620E+02  0.11183789553E+02  0.50528731301E+02  0.29999609261E+02 0.  0.
         12    1    1    2    0    0  0.67409396546E+01 -0.38505307620E+02 -0.11183789553E+02  0.40659268699E+02  0.00000000000E+00 0. -1.
         11    1    3    3    0    0 -0.24018281078E+01  0.15130145127E+02  0.13522269661E+02  0.20433840728E+02  0.51100000000E-03 0. -1.
        -11    1    3    3    0    0  0.12773699098E+01  0.24056043949E+02 -0.33262205322E+00  0.24092230326E+02  0.51100000000E-03 0.  1.
        -12    1    3    3    0    0 -0.56164814566E+01 -0.68088145694E+00 -0.20058580554E+01  0.60026602477E+01  0.00000000000E+00 0.  1.
</event>
<event>
 7    1  0.4971907E-013  0.5052880E+02  0.7816164E-02  0.1300439E+00
        -11   -1    0    0    0    0  0.00000000000E+00  0.00000000000E+00  0.45593999997E+02  0.45594000000E+02  0.51100000000E-03 0.  1.
         11   -1    0    0    0    0 -0.00000000000E+00 -0.00000000000E+00 -0.45593999997E+02  0.45594000000E+02  0.51100000000E-03 0. -1.
    9900012    2    1    2    0    0 -0.30741853020E+02 -0.26538374314E+02 -0.19553856772E+01  0.50528802130E+02  0.29999824553E+02 0.  0.
         12    1    1    2    0    0  0.30741853020E+02  0.26538374314E+02  0.19553856772E+01  0.40659197870E+02  0.00000000000E+00 0. -1.
         11    1    3    3    0    0 -0.95285117253E+01 -0.13167426101E+02  0.48730284627E+01  0.16968207109E+02  0.51100000000E-03 0.  1.
        -11    1    3    3    0    0 -0.37510089190E+01  0.56080793162E+01 -0.33629345512E+01  0.75385642257E+01  0.51100000000E-03 0. -1.
         12    1    3    3    0    0 -0.17462332376E+02 -0.18979027529E+02 -0.34654795887E+01  0.26022030795E+02  0.00000000000E+00 0. -1.
</event>
<event>
 7    1  0.4971907E-013  0.5052887E+02  0.7816164E-02  0.1300439E+00
        -11   -1    0    0    0    0  0.00000000000E+00  0.00000000000E+00  0.45593999997E+02  0.45594000000E+02  0.51100000000E-03 0.  1.
         11   -1    0    0    0    0 -0.00000000000E+00 -0.00000000000E+00 -0.45593999997E+02  0.45594000000E+02  0.51100000000E-03 0. -1.
    9900012    2    1    2    0    0 -0.20765246335E+02 -0.87181684649E+01  0.33852071814E+02  0.50528872084E+02  0.30000037187E+02 0.  0.
         12    1    1    2    0    0  0.20765246335E+02  0.87181684649E+01 -0.33852071814E+02  0.40659127916E+02  0.00000000000E+00 0. -1.
         11    1    3    3    0    0 -0.34130754821E+01 -0.47002154160E+01  0.20102587943E+00  0.58121872706E+01  0.51100000000E-03 0. -1.
        -11    1    3    3    0    0 -0.16825099364E+02 -0.82492585400E+01  0.11128343905E+02  0.21793904501E+02  0.51100000000E-03 0.  1.
         12    1    3    3    0    0 -0.52707148932E+00  0.42313054911E+01  0.22522702030E+02  0.22922780313E+02  0.00000000000E+00 0. -1.
</event>
<event>
 7    1  0.4971907E-013  0.5052876E+02  0.7816164E-02  0.1300439E+00
        -11   -1    0    0    0    0  0.00000000000E+00  0.00000000000E+00  0.45593999997E+02  0.45594000000E+02  0.51100000000E-03 0.  1.
         11   -1    0    0    0    0 -0.00000000000E+00 -0.00000000000E+00 -0.45593999997E+02  0.45594000000E+02  0.51100000000E-03 0. -1.
    9900012    2    1    2    0    0 -0.14611781595E+00  0.65488997754E+01  0.40128098092E+02  0.50528761257E+02  0.29999700315E+02 0.  0.
         12    1    1    2    0    0  0.14611781595E+00 -0.65488997754E+01 -0.40128098092E+02  0.40659238743E+02  0.00000000000E+00 0. -1.
         11    1    3    3    0    0  0.57782777426E+01  0.89436631539E+00  0.43717720111E+01  0.73007380144E+01  0.51100000000E-03 0. -1.
        -11    1    3    3    0    0 -0.29913248631E+01  0.91552163294E+01  0.29040177950E+01  0.10059787776E+02  0.51100000000E-03 0.  1.
        -12    1    3    3    0    0 -0.29330706955E+01 -0.35006828694E+01  0.32852308286E+02  0.33168235467E+02  0.00000000000E+00 0.  1.
</event>
<event>
 7    1  0.4971907E-013  0.5052887E+02  0.7816164E-02  0.1300439E+00
        -11   -1    0    0    0    0  0.00000000000E+00  0.00000000000E+00  0.45593999997E+02  0.45594000000E+02  0.51100000000E-03 0. -1.
         11   -1    0    0    0    0 -0.00000000000E+00 -0.00000000000E+00 -0.45593999997E+02  0.45594000000E+02  0.51100000000E-03 0.  1.
    9900012    2    1    2    0    0 -0.27214656507E+02 -0.27589110374E+02 -0.12303177211E+02  0.50528871757E+02  0.30000036192E+02 0.  0.
         12    1    1    2    0    0  0.27214656507E+02  0.27589110374E+02  0.12303177211E+02  0.40659128243E+02  0.00000000000E+00 0. -1.
         11    1    3    3    0    0 -0.45952898702E+01 -0.22715147697E+02 -0.10085269218E+02  0.25274637077E+02  0.51100000000E-03 0. -1.
        -11    1    3    3    0    0 -0.29910727543E+01 -0.42810692454E+01 -0.20663785874E+01  0.56164037277E+01  0.51100000000E-03 0.  1.
        -12    1    3    3    0    0 -0.19628293883E+02 -0.59289343096E+00 -0.15152940584E+00  0.19637830953E+02  0.00000000000E+00 0.  1.
</event>
<event>
 7    1  0.4971907E-013  0.5052886E+02  0.7816164E-02  0.1300439E+00
        -11   -1    0    0    0    0  0.00000000000E+00  0.00000000000E+00  0.45593999997E+02  0.45594000000E+02  0.51100000000E-03 0.  1.
         11   -1    0    0    0    0 -0.00000000000E+00 -0.00000000000E+00 -0.45593999997E+02  0.45594000000E+02  0.51100000000E-03 0. -1.
    9900012    2    1    2    0    0  0.37823130799E+02  0.15278117698E+01  0.14840571992E+02  0.50528855772E+02  0.29999987606E+02 0.  0.
         12    1    1    2    0    0 -0.37823130799E+02 -0.15278117698E+01 -0.14840571992E+02  0.40659144228E+02  0.00000000000E+00 0. -1.
         11    1    3    3    0    0  0.13077010962E+02 -0.60814610156E+01  0.81424898787E+01  0.16561779055E+02  0.51100000000E-03 0.  1.
        -11    1    3    3    0    0  0.25770232567E+02  0.11174912020E+02  0.22555415328E+01  0.28179265659E+02  0.51100000000E-03 0. -1.
         12    1    3    3    0    0 -0.10241127298E+01 -0.35656392347E+01  0.44425405809E+01  0.57878110584E+01  0.00000000000E+00 0. -1.
</event>
<event>
 7    1  0.4971907E-013  0.5052886E+02  0.7816164E-02  0.1300439E+00
        -11   -1    0    0    0    0  0.00000000000E+00  0.00000000000E+00  0.45593999997E+02  0.45594000000E+02  0.51100000000E-03 0.  1.
         11   -1    0    0    0    0 -0.00000000000E+00 -0.00000000000E+00 -0.45593999997E+02  0.45594000000E+02  0.51100000000E-03 0. -1.
    9900012    2    1    2    0    0  0.28167027695E+02 -0.11745224427E+02  0.26866962330E+02  0.50528863132E+02  0.30000009976E+02 0.  0.
         12    1    1    2    0    0 -0.28167027695E+02  0.11745224427E+02 -0.26866962330E+02  0.40659136868E+02  0.00000000000E+00 0. -1.
         11    1    3    3    0    0  0.94301483831E+01  0.17361833268E+01  0.69464292004E+01  0.11840393151E+02  0.51100000000E-03 0.  1.
        -11    1    3    3    0    0  0.10448885382E+02 -0.78830002207E+01  0.24431375423E+02  0.27716655707E+02  0.51100000000E-03 0. -1.
         12    1    3    3    0    0  0.82879939291E+01 -0.55984075331E+01 -0.45108422936E+01  0.10971814275E+02  0.00000000000E+00 0. -1.
</event>
<event>
 7    1  0.4971907E-013  0.5052883E+02  0.7816164E-02  0.1300439E+00
        -11   -1    0    0    0    0  0.00000000000E+00  0.00000000000E+00  0.45593999997E+02  0.45594000000E+02  0.51100000000E-03 0.  1.
         11   -1    0    0    0    0 -0.00000000000E+00 -0.00000000000E+00 -0.45593999997E+02  0.45594000000E+02  0.51100000000E-03 0. -1.
    9900012    2    1    2    0    0 -0.16731150713E+02  0.24828411711E+02  0.27509750657E+02  0.50528833586E+02  0.29999920169E+02 0.  0.
         12    1    1    2    0    0  0.16731150713E+02 -0.24828411711E+02 -0.27509750657E+02  0.40659166414E+02  0.00000000000E+00 0. -1.
         11    1    3    3    0    0 -0.40446039577E+01  0.67173945390E+01 -0.62539100118E+00  0.78659598736E+01  0.51100000000E-03 0. -1.
        -11    1    3    3    0    0 -0.14572782254E+02  0.14335121692E+01  0.89041215559E+01  0.17137803847E+02  0.51100000000E-03 0.  1.
        -12    1    3    3    0    0  0.18862354993E+01  0.16677505003E+02  0.19231020102E+02  0.25525069866E+02  0.00000000000E+00 0.  1.
</event>
<event>
 7    1  0.4971907E-013  0.5052886E+02  0.7816164E-02  0.1300439E+00
        -11   -1    0    0    0    0  0.00000000000E+00  0.00000000000E+00  0.45593999997E+02  0.45594000000E+02  0.51100000000E-03 0. -1.
         11   -1    0    0    0    0 -0.00000000000E+00 -0.00000000000E+00 -0.45593999997E+02  0.45594000000E+02  0.51100000000E-03 0.  1.
    9900012    2    1    2    0    0 -0.13308933896E+02 -0.28417047324E+02 -0.25855540342E+02  0.50528864908E+02  0.30000015374E+02 0.  0.
         12    1    1    2    0    0  0.13308933896E+02  0.28417047324E+02  0.25855540342E+02  0.40659135092E+02  0.00000000000E+00 0. -1.
         11    1    3    3    0    0  0.15846851790E+01 -0.87370227615E+01 -0.15196042181E+02  0.17600184433E+02  0.51100000000E-03 0. -1.
        -11    1    3    3    0    0 -0.65155569429E+01 -0.21592515456E+02 -0.73856679859E+01  0.23732620964E+02  0.51100000000E-03 0.  1.
         12    1    3    3    0    0 -0.83780621319E+01  0.19124908929E+01 -0.32738301748E+01  0.91960595102E+01  0.00000000000E+00 0. -1.
</event>
<event>
 7    1  0.4971907E-013  0.5052886E+02  0.7816164E-02  0.1300439E+00
        -11   -1    0    0    0    0  0.00000000000E+00  0.00000000000E+00  0.45593999997E+02  0.45594000000E+02  0.51100000000E-03 0. -1.
         11   -1    0    0    0    0 -0.00000000000E+00 -0.00000000000E+00 -0.45593999997E+02  0.45594000000E+02  0.51100000000E-03 0.  1.
    9900012    2    1    2    0    0  0.16867543191E+02  0.36466933245E+02 -0.62301446346E+01  0.50528856677E+02  0.29999990355E+02 0.  0.
         12    1    1    2    0    0 -0.16867543191E+02 -0.36466933245E+02  0.62301446346E+01  0.40659143323E+02  0.00000000000E+00 0. -1.
         11    1    3    3    0    0  0.23124519685E+02  0.30741417152E+02 -0.11611861848E+01  0.38485406231E+02  0.51100000000E-03 0. -1.
        -11    1    3    3    0    0 -0.25332331410E+01 -0.76440144861E+00  0.52949336616E+00  0.26985075889E+01  0.51100000000E-03 0.  1.
        -12    1    3    3    0    0 -0.37237433532E+01  0.64899175417E+01 -0.55984518160E+01  0.93449428567E+01  0.00000000000E+00 0.  1.
</event>
<event>
 7    1  0.4971907E-013  0.5052886E+02  0.7816164E-02  0.1300439E+00
        -11   -1    0    0    0    0  0.00000000000E+00  0.00000000000E+00  0.45593999997E+02  0.45594000000E+02  0.51100000000E-03 0. -1.
         11   -1    0    0    0    0 -0.00000000000E+00 -0.00000000000E+00 -0.45593999997E+02  0.45594000000E+02  0.51100000000E-03 0.  1.
    9900012    2    1    2    0    0 -0.25397279706E+02 -0.18460116250E+02 -0.25833467883E+02  0.50528858699E+02  0.29999996502E+02 0.  0.
         12    1    1    2    0    0  0.25397279706E+02  0.18460116250E+02  0.25833467883E+02  0.40659141301E+02  0.00000000000E+00 0. -1.
         11    1    3    3    0    0 -0.10777053547E+02 -0.95785901695E+01 -0.16769869932E+02  0.22116121057E+02  0.51100000000E-03 0. -1.
        -11    1    3    3    0    0 -0.19393774370E+02 -0.77323998057E+01 -0.10398479994E+02  0.23324598121E+02  0.51100000000E-03 0.  1.
         12    1    3    3    0    0  0.47735482106E+01 -0.11491262753E+01  0.13348820430E+01  0.50881395210E+01  0.00000000000E+00 0. -1.
</event>
<event>
 7    1  0.4971907E-013  0.5052886E+02  0.7816164E-02  0.1300439E+00
        -11   -1    0    0    0    0  0.00000000000E+00  0.00000000000E+00  0.45593999997E+02  0.45594000000E+02  0.51100000000E-03 0. -1.
         11   -1    0    0    0    0 -0.00000000000E+00 -0.00000000000E+00 -0.45593999997E+02  0.45594000000E+02  0.51100000000E-03 0.  1.
    9900012    2    1    2    0    0  0.36037817710E+02 -0.11839625039E+02 -0.14637784417E+02  0.50528858850E+02  0.29999996962E+02 0.  0.
         12    1    1    2    0    0 -0.36037817710E+02  0.11839625039E+02  0.14637784417E+02  0.40659141150E+02  0.00000000000E+00 0. -1.
         11    1    3    3    0    0  0.18297780295E+02 -0.13448862450E+02 -0.27325238606E+01  0.22872414648E+02  0.51100000000E-03 0. -1.
        -11    1    3    3    0    0  0.57380906342E+01 -0.61295366975E+01  0.94004769373E+00  0.84487036982E+01  0.51100000000E-03 0.  1.
         12    1    3    3    0    0  0.12001946781E+02  0.77387741083E+01 -0.12845308250E+02  0.19207740504E+02  0.00000000000E+00 0. -1.
</event>
<event>
 7    1  0.4971907E-013  0.5052881E+02  0.7816164E-02  0.1300439E+00
        -11   -1    0    0    0    0  0.00000000000E+00  0.00000000000E+00  0.45593999997E+02  0.45594000000E+02  0.51100000000E-03 0. -1.
         11   -1    0    0    0    0 -0.00000000000E+00 -0.00000000000E+00 -0.45593999997E+02  0.45594000000E+02  0.51100000000E-03 0.  1.
    9900012    2    1    2    0    0  0.65451747717E+01  0.38794899250E+02 -0.10260900134E+02  0.50528811713E+02  0.29999853682E+02 0.  0.
         12    1    1    2    0    0 -0.65451747717E+01 -0.38794899250E+02  0.10260900134E+02  0.40659188287E+02  0.00000000000E+00 0. -1.
         11    1    3    3    0    0 -0.32014649991E+00  0.13520225972E+01  0.63207734286E+01  0.64716795256E+01  0.51100000000E-03 0. -1.
        -11    1    3    3    0    0  0.59141088451E+01  0.46042700054E+01 -0.58121743214E+01  0.94845851949E+01  0.51100000000E-03 0.  1.
        -12    1    3    3    0    0  0.95121242653E+00  0.32838606647E+02 -0.10769499241E+02  0.34572546992E+02  0.00000000000E+00 0.  1.
</event>
<event>
 7    1  0.4971907E-013  0.5052884E+02  0.7816164E-02  0.1300439E+00
        -11   -1    0    0    0    0  0.00000000000E+00  0.00000000000E+00  0.45593999997E+02  0.45594000000E+02  0.51100000000E-03 0. -1.
         11   -1    0    0    0    0 -0.00000000000E+00 -0.00000000000E+00 -0.45593999997E+02  0.45594000000E+02  0.51100000000E-03 0.  1.
    9900012    2    1    2    0    0 -0.57625465361E+01 -0.26003098042E+02 -0.30721312694E+02  0.50528842311E+02  0.29999946689E+02 0.  0.
         12    1    1    2    0    0  0.57625465361E+01  0.26003098042E+02  0.30721312694E+02  0.40659157689E+02  0.00000000000E+00 0. -1.
         11    1    3    3    0    0  0.55959845964E+01  0.82817511774E+00 -0.69655267527E+01  0.89732647811E+01  0.51100000000E-03 0. -1.
        -11    1    3    3    0    0 -0.70002039184E+01 -0.29170356263E+01 -0.12832619694E+02  0.14905974648E+02  0.51100000000E-03 0.  1.
         12    1    3    3    0    0 -0.43583272141E+01 -0.23914237533E+02 -0.10923166247E+02  0.26649602882E+02  0.00000000000E+00 0. -1.
</event>
<event>
 7    1  0.4971907E-013  0.5052880E+02  0.7816164E-02  0.1300439E+00
        -11   -1    0    0    0    0  0.00000000000E+00  0.00000000000E+00  0.45593999997E+02  0.45594000000E+02  0.51100000000E-03 0. -1.
         11   -1    0    0    0    0 -0.00000000000E+00 -0.00000000000E+00 -0.45593999997E+02  0.45594000000E+02  0.51100000000E-03 0.  1.
    9900012    2    1    2    0    0 -0.36489612422E+02 -0.13930695491E+02 -0.11296667277E+02  0.50528797067E+02  0.29999809164E+02 0.  0.
         12    1    1    2    0    0  0.36489612422E+02  0.13930695491E+02  0.11296667277E+02  0.40659202933E+02  0.00000000000E+00 0. -1.
         11    1    3    3    0    0 -0.16955330128E+00  0.33924519887E+01 -0.16258147553E+01  0.37657340184E+01  0.51100000000E-03 0. -1.
        -11    1    3    3    0    0 -0.16272129453E+02 -0.82902279109E+01  0.65898788601E+01  0.19414854607E+02  0.51100000000E-03 0.  1.
        -12    1    3    3    0    0 -0.20047929667E+02 -0.90329195691E+01 -0.16260731382E+02  0.27348208442E+02  0.00000000000E+00 0.  1.
</event>
<event>
 7    1  0.4971907E-013  0.5052884E+02  0.7816164E-02  0.1300439E+00
        -11   -1    0    0    0    0  0.00000000000E+00  0.00000000000E+00  0.45593999997E+02  0.45594000000E+02  0.51100000000E-03 0.  1.
         11   -1    0    0    0    0 -0.00000000000E+00 -0.00000000000E+00 -0.45593999997E+02  0.45594000000E+02  0.51100000000E-03 0. -1.
    9900012    2    1    2    0    0  0.80714064858E+01 -0.15958369194E+02  0.36515062408E+02  0.50528844417E+02  0.29999953091E+02 0.  0.
         12    1    1    2    0    0 -0.80714064858E+01  0.15958369194E+02 -0.36515062408E+02  0.40659155583E+02  0.00000000000E+00 0. -1.
         11    1    3    3    0    0 -0.41600900253E+01 -0.46533838029E+00  0.14754655760E+01  0.44384555596E+01  0.51100000000E-03 0. -1.
        -11    1    3    3    0    0  0.64926739809E+01 -0.14879409385E+02  0.36661660250E+02  0.40095248741E+02  0.51100000000E-03 0.  1.
         12    1    3    3    0    0  0.57388225302E+01 -0.61362142893E+00 -0.16220634172E+01  0.59951401168E+01  0.00000000000E+00 0. -1.
</event>
<event>
 7    1  0.4971907E-013  0.5052886E+02  0.7816164E-02  0.1300439E+00
        -11   -1    0    0    0    0  0.00000000000E+00  0.00000000000E+00  0.45593999997E+02  0.45594000000E+02  0.51100000000E-03 0.  1.
         11   -1    0    0    0    0 -0.00000000000E+00 -0.00000000000E+00 -0.45593999997E+02  0.45594000000E+02  0.51100000000E-03 0. -1.
    9900012    2    1    2    0    0  0.14989146630E+02  0.34785820839E+02  0.14779648955E+02  0.50528857469E+02  0.29999992762E+02 0.  0.
         12    1    1    2    0    0 -0.14989146630E+02 -0.34785820839E+02 -0.14779648955E+02  0.40659142531E+02  0.00000000000E+00 0. -1.
         11    1    3    3    0    0  0.27207145263E+01  0.12163578175E+02  0.77815488829E+01  0.14693788648E+02  0.51100000000E-03 0. -1.
        -11    1    3    3    0    0  0.63054176853E+01  0.18286168882E+02  0.15350757010E+02  0.24693885997E+02  0.51100000000E-03 0.  1.
         12    1    3    3    0    0  0.59630144179E+01  0.43360737817E+01 -0.83526569377E+01  0.11141182824E+02  0.00000000000E+00 0. -1.
</event>
<event>
 7    1  0.4971907E-013  0.5052885E+02  0.7816164E-02  0.1300439E+00
        -11   -1    0    0    0    0  0.00000000000E+00  0.00000000000E+00  0.45593999997E+02  0.45594000000E+02  0.51100000000E-03 0.  1.
         11   -1    0    0    0    0 -0.00000000000E+00 -0.00000000000E+00 -0.45593999997E+02  0.45594000000E+02  0.51100000000E-03 0. -1.
    9900012    2    1    2    0    0 -0.23489521836E+01 -0.36499364743E+02 -0.17760768164E+02  0.50528854795E+02  0.29999984636E+02 0.  0.
         12    1    1    2    0    0  0.23489521836E+01  0.36499364743E+02  0.17760768164E+02  0.40659145205E+02  0.00000000000E+00 0. -1.
         11    1    3    3    0    0  0.24448399528E+01 -0.56461746950E+01 -0.65145363099E+01  0.89607876147E+01  0.51100000000E-03 0. -1.
        -11    1    3    3    0    0  0.24024724938E+01 -0.62080272640E+01 -0.14240717015E+02  0.15719716853E+02  0.51100000000E-03 0.  1.
        -12    1    3    3    0    0 -0.71962646302E+01 -0.24645162784E+02  0.29944851603E+01  0.25848350327E+02  0.00000000000E+00 0.  1.
</event>
<event>
 7    1  0.4971907E-013  0.5052886E+02  0.7816164E-02  0.1300439E+00
        -11   -1    0    0    0    0  0.00000000000E+00  0.00000000000E+00  0.45593999997E+02  0.45594000000E+02  0.51100000000E-03 0.  1.
         11   -1    0    0    0    0 -0.00000000000E+00 -0.00000000000E+00 -0.45593999997E+02  0.45594000000E+02  0.51100000000E-03 0. -1.
    9900012    2    1    2    0    0 -0.63043129629E+00 -0.11043942158E+02  0.39125429937E+02  0.50528863637E+02  0.30000011511E+02 0.  0.
         12    1    1    2    0    0  0.63043129629E+00  0.11043942158E+02 -0.39125429937E+02  0.40659136363E+02  0.00000000000E+00 0. -1.
         11    1    3    3    0    0 -0.97317167322E+01 -0.54789344212E+01  0.20001095278E+02  0.22907833716E+02  0.51100000000E-03 0. -1.
        -11    1    3    3    0    0  0.25484362675E+01 -0.80262922907E+01  0.18815884124E+02  0.20614397662E+02  0.51100000000E-03 0.  1.
         12    1    3    3    0    0  0.65528491684E+01  0.24612845542E+01  0.30845053470E+00  0.70066322590E+01  0.00000000000E+00 0. -1.
</event>
<event>
 7    1  0.4971907E-013  0.5052886E+02  0.7816164E-02  0.1300439E+00
        -11   -1    0    0    0    0  0.00000000000E+00  0.00000000000E+00  0.45593999997E+02  0.45594000000E+02  0.51100000000E-03 0.  1.
         11   -1    0    0    0    0 -0.00000000000E+00 -0.00000000000E+00 -0.45593999997E+02  0.45594000000E+02  0.51100000000E-03 0. -1.
    9900012    2    1    2    0    0 -0.12957395381E+02  0.17524253167E+02  0.34324510592E+02  0.50528861157E+02  0.30000003972E+02 0.  0.
         12    1    1    2    0    0  0.12957395381E+02 -0.17524253167E+02 -0.34324510592E+02  0.40659138843E+02  0.00000000000E+00 0. -1.
         11    1    3    3    0    0  0.86892537320E+01  0.14207136675E+01  0.41312773201E+01  0.97256881659E+01  0.51100000000E-03 0.  1.
        -11    1    3    3    0    0 -0.10953997936E+02  0.72284412340E+01  0.11100916279E+02  0.17189263392E+02  0.51100000000E-03 0. -1.
        -12    1    3    3    0    0 -0.10692651177E+02  0.88750982656E+01  0.19092316992E+02  0.23613909599E+02  0.00000000000E+00 0.  1.
</event>
<event>
 7    1  0.4971907E-013  0.5052886E+02  0.7816164E-02  0.1300439E+00
        -11   -1    0    0    0    0  0.00000000000E+00  0.00000000000E+00  0.45593999997E+02  0.45594000000E+02  0.51100000000E-03 0. -1.
         11   -1    0    0    0    0 -0.00000000000E+00 -0.00000000000E+00 -0.45593999997E+02  0.45594000000E+02  0.51100000000E-03 0.  1.
    9900012    2    1    2    0    0 -0.37480223756E+02 -0.15473978312E+02 -0.29923635012E+01  0.50528863057E+02  0.30000009749E+02 0.  0.
         12    1    1    2    0    0  0.37480223756E+02  0.15473978312E+02  0.29923635012E+01  0.40659136943E+02  0.00000000000E+00 0. -1.
         11    1    3    3    0    0 -0.19623550006E+02 -0.38636431497E+01 -0.43662782722E+01  0.20471341906E+02  0.51100000000E-03 0.  1.
        -11    1    3    3    0    0 -0.40928310028E+00  0.58631986396E+00 -0.71067607958E+01  0.71426418718E+01  0.51100000000E-03 0. -1.
         12    1    3    3    0    0 -0.17447390650E+02 -0.12196655026E+02  0.84806755667E+01  0.22914879279E+02  0.00000000000E+00 0. -1.
</event>
<event>
 7    1  0.4971907E-013  0.5052885E+02  0.7816164E-02  0.1300439E+00
        -11   -1    0    0    0    0  0.00000000000E+00  0.00000000000E+00  0.45593999997E+02  0.45594000000E+02  0.51100000000E-03 0. -1.
         11   -1    0    0    0    0 -0.00000000000E+00 -0.00000000000E+00 -0.45593999997E+02  0.45594000000E+02  0.51100000000E-03 0.  1.
    9900012    2    1    2    0    0 -0.30704014431E+02  0.17399042430E+02  0.20191673794E+02  0.50528845185E+02  0.29999955425E+02 0.  0.
         12    1    1    2    0    0  0.30704014431E+02 -0.17399042430E+02 -0.20191673794E+02  0.40659154815E+02  0.00000000000E+00 0. -1.
         11    1    3    3    0    0 -0.17769587856E+02  0.10736120197E+02  0.65953143949E+01  0.21783496085E+02  0.51100000000E-03 0. -1.
        -11    1    3    3    0    0 -0.45001362725E+01  0.13342292411E+02  0.48919489271E+01  0.14906346226E+02  0.51100000000E-03 0.  1.
        -12    1    3    3    0    0 -0.84342903022E+01 -0.66793701779E+01  0.87044104724E+01  0.13839002874E+02  0.00000000000E+00 0.  1.
</event>
<event>
 7    1  0.8313868E-013  0.5052884E+02  0.7816164E-02  0.1300439E+00
        -11   -1    0    0    0    0  0.00000000000E+00  0.00000000000E+00  0.45593999997E+02  0.45594000000E+02  0.51100000000E-03 0. -1.
         11   -1    0    0    0    0 -0.00000000000E+00 -0.00000000000E+00 -0.45593999997E+02  0.45594000000E+02  0.51100000000E-03 0.  1.
    9900012    2    1    2    0    0 -0.23523985670E+01  0.25915620826E+01 -0.40508237250E+02  0.50528840415E+02  0.29999940925E+02 0.  0.
         12    1    1    2    0    0  0.23523985670E+01 -0.25915620826E+01  0.40508237250E+02  0.40659159585E+02  0.00000000000E+00 0. -1.
         11    1    3    3    0    0 -0.40427175358E+01 -0.37858367242E+01 -0.11429215392E+01  0.56552979305E+01  0.51100000000E-03 0. -1.
        -11    1    3    3    0    0 -0.19392575331E+01  0.96297795421E+01 -0.68036709392E+01  0.11949197141E+02  0.51100000000E-03 0.  1.
        -12    1    3    3    0    0  0.36295765020E+01 -0.32523807353E+01 -0.32561644772E+02  0.32924345343E+02  0.00000000000E+00 0.  1.
</event>
<event>
 7    1  0.4971907E-013  0.5052888E+02  0.7816164E-02  0.1300439E+00
        -11   -1    0    0    0    0  0.00000000000E+00  0.00000000000E+00  0.45593999997E+02  0.45594000000E+02  0.51100000000E-03 0.  1.
         11   -1    0    0    0    0 -0.00000000000E+00 -0.00000000000E+00 -0.45593999997E+02  0.45594000000E+02  0.51100000000E-03 0. -1.
    9900012    2    1    2    0    0  0.19500130199E+02  0.28199744133E+02  0.21855963423E+02  0.50528883137E+02  0.30000070783E+02 0.  0.
         12    1    1    2    0    0 -0.19500130199E+02 -0.28199744133E+02 -0.21855963423E+02  0.40659116863E+02  0.00000000000E+00 0. -1.
         11    1    3    3    0    0  0.68453898141E+01  0.21710097125E+02  0.11242920480E+02  0.25388795562E+02  0.51100000000E-03 0. -1.
        -11    1    3    3    0    0  0.14637436954E+02  0.77957026130E+01  0.13512962740E+02  0.21392234622E+02  0.51100000000E-03 0.  1.
         12    1    3    3    0    0 -0.19826965695E+01 -0.13060556058E+01 -0.28999197973E+01  0.37478529537E+01  0.00000000000E+00 0. -1.
</event>
<event>
 7    1  0.4971907E-013  0.5052888E+02  0.7816164E-02  0.1300439E+00
        -11   -1    0    0    0    0  0.00000000000E+00  0.00000000000E+00  0.45593999997E+02  0.45594000000E+02  0.51100000000E-03 0.  1.
         11   -1    0    0    0    0 -0.00000000000E+00 -0.00000000000E+00 -0.45593999997E+02  0.45594000000E+02  0.51100000000E-03 0. -1.
    9900012    2    1    2    0    0 -0.70315986722E+00 -0.24155432430E+02  0.32698392694E+02  0.50528877599E+02  0.30000053949E+02 0.  0.
         12    1    1    2    0    0  0.70315986722E+00  0.24155432430E+02 -0.32698392694E+02  0.40659122401E+02  0.00000000000E+00 0. -1.
         11    1    3    3    0    0  0.79688067657E+01 -0.20309891067E+01  0.11309127531E+02  0.13982959765E+02  0.51100000000E-03 0. -1.
        -11    1    3    3    0    0 -0.23420816115E+01 -0.57944785780E+00  0.11943133228E+02  0.12184397304E+02  0.51100000000E-03 0.  1.
         12    1    3    3    0    0 -0.63298850213E+01 -0.21544995465E+02  0.94461319345E+01  0.24361520529E+02  0.00000000000E+00 0. -1.
</event>
<event>
 7    1  0.4971907E-013  0.5052886E+02  0.7816164E-02  0.1300439E+00
        -11   -1    0    0    0    0  0.00000000000E+00  0.00000000000E+00  0.45593999997E+02  0.45594000000E+02  0.51100000000E-03 0. -1.
         11   -1    0    0    0    0 -0.00000000000E+00 -0.00000000000E+00 -0.45593999997E+02  0.45594000000E+02  0.51100000000E-03 0.  1.
    9900012    2    1    2    0    0 -0.63760117673E+01  0.19390597419E+02 -0.35164143274E+02  0.50528858758E+02  0.29999996682E+02 0.  0.
         12    1    1    2    0    0  0.63760117673E+01 -0.19390597419E+02  0.35164143274E+02  0.40659141242E+02  0.00000000000E+00 0. -1.
         11    1    3    3    0    0  0.15664866456E+01  0.91179691377E+01  0.32449098135E+00  0.92572423682E+01  0.51100000000E-03 0. -1.
        -11    1    3    3    0    0  0.44472687274E+01  0.69241024016E+01 -0.13410257654E+02  0.15733925251E+02  0.51100000000E-03 0.  1.
         12    1    3    3    0    0 -0.12389767140E+02  0.33485258794E+01 -0.22078376602E+02  0.25537691139E+02  0.00000000000E+00 0. -1.
</event>
<event>
 7    1  0.4971907E-013  0.5052885E+02  0.7816164E-02  0.1300439E+00
        -11   -1    0    0    0    0  0.00000000000E+00  0.00000000000E+00  0.45593999997E+02  0.45594000000E+02  0.51100000000E-03 0.  1.
         11   -1    0    0    0    0 -0.00000000000E+00 -0.00000000000E+00 -0.45593999997E+02  0.45594000000E+02  0.51100000000E-03 0. -1.
    9900012    2    1    2    0    0  0.27157468792E+02  0.30182121394E+02  0.21628001150E+01  0.50528852599E+02  0.29999977961E+02 0.  0.
         12    1    1    2    0    0 -0.27157468792E+02 -0.30182121394E+02 -0.21628001150E+01  0.40659147401E+02  0.00000000000E+00 0. -1.
         11    1    3    3    0    0  0.15468343912E+02  0.22141703207E+02 -0.47402808006E+01  0.27422526262E+02  0.51100000000E-03 0. -1.
        -11    1    3    3    0    0  0.35291490011E+01 -0.51177187878E+01  0.15977135680E+00  0.62186385496E+01  0.51100000000E-03 0.  1.
         12    1    3    3    0    0  0.81599758787E+01  0.13158136975E+02  0.67433095587E+01  0.16887687787E+02  0.00000000000E+00 0. -1.
</event>
<event>
 7    1  0.4971907E-013  0.5052886E+02  0.7816164E-02  0.1300439E+00
        -11   -1    0    0    0    0  0.00000000000E+00  0.00000000000E+00  0.45593999997E+02  0.45594000000E+02  0.51100000000E-03 0.  1.
         11   -1    0    0    0    0 -0.00000000000E+00 -0.00000000000E+00 -0.45593999997E+02  0.45594000000E+02  0.51100000000E-03 0. -1.
    9900012    2    1    2    0    0 -0.36781164812E+02 -0.15188411685E+02  0.83441079443E+01  0.50528855003E+02  0.29999985268E+02 0.  0.
         12    1    1    2    0    0  0.36781164812E+02  0.15188411685E+02 -0.83441079443E+01  0.40659144997E+02  0.00000000000E+00 0. -1.
         11    1    3    3    0    0  0.18182082343E+01  0.20054482059E+01  0.25553227261E+00  0.27190072993E+01  0.51100000000E-03 0. -1.
        -11    1    3    3    0    0 -0.14915964071E+02 -0.16575724909E+02 -0.12745077450E+01  0.22335286224E+02  0.51100000000E-03 0.  1.
         12    1    3    3    0    0 -0.23683408975E+02 -0.61813498221E+00  0.93630834167E+01  0.25474561480E+02  0.00000000000E+00 0. -1.
</event>
<event>
 7    1  0.4971907E-013  0.5052889E+02  0.7816164E-02  0.1300439E+00
        -11   -1    0    0    0    0  0.00000000000E+00  0.00000000000E+00  0.45593999997E+02  0.45594000000E+02  0.51100000000E-03 0. -1.
         11   -1    0    0    0    0 -0.00000000000E+00 -0.00000000000E+00 -0.45593999997E+02  0.45594000000E+02  0.51100000000E-03 0.  1.
    9900012    2    1    2    0    0  0.18652218236E+02  0.10154542996E+02 -0.34671938748E+02  0.50528888781E+02  0.30000087939E+02 0.  0.
         12    1    1    2    0    0 -0.18652218236E+02 -0.10154542996E+02  0.34671938748E+02  0.40659111219E+02  0.00000000000E+00 0. -1.
         11    1    3    3    0    0  0.76946951543E+01  0.37919780599E+01 -0.18109984131E+02  0.20038936015E+02  0.51100000000E-03 0. -1.
        -11    1    3    3    0    0  0.54482619147E+01  0.14331663927E+02 -0.13210686537E+02  0.20238636018E+02  0.51100000000E-03 0.  1.
         12    1    3    3    0    0  0.55092611670E+01 -0.79690989911E+01 -0.33512680800E+01  0.10251316749E+02  0.00000000000E+00 0. -1.
</event>
<event>
 7    1  0.4971907E-013  0.5052884E+02  0.7816164E-02  0.1300439E+00
        -11   -1    0    0    0    0  0.00000000000E+00  0.00000000000E+00  0.45593999997E+02  0.45594000000E+02  0.51100000000E-03 0.  1.
         11   -1    0    0    0    0 -0.00000000000E+00 -0.00000000000E+00 -0.45593999997E+02  0.45594000000E+02  0.51100000000E-03 0. -1.
    9900012    2    1    2    0    0  0.84521278773E+01 -0.32212699476E+02  0.23325322202E+02  0.50528842003E+02  0.29999945754E+02 0.  0.
         12    1    1    2    0    0 -0.84521278773E+01  0.32212699476E+02 -0.23325322202E+02  0.40659157997E+02  0.00000000000E+00 0. -1.
         11    1    3    3    0    0  0.16501530631E+01  0.14203768765E+01 -0.33462480513E+01  0.39922239272E+01  0.51100000000E-03 0. -1.
        -11    1    3    3    0    0 -0.85413831595E+00 -0.28764319067E+02  0.22605725892E+02  0.36594185973E+02  0.51100000000E-03 0.  1.
         12    1    3    3    0    0  0.76561131301E+01 -0.48687572852E+01  0.40658443613E+01  0.99424321035E+01  0.00000000000E+00 0. -1.
</event>
<event>
 7    1  0.4971907E-013  0.5052886E+02  0.7816164E-02  0.1300439E+00
        -11   -1    0    0    0    0  0.00000000000E+00  0.00000000000E+00  0.45593999997E+02  0.45594000000E+02  0.51100000000E-03 0.  1.
         11   -1    0    0    0    0 -0.00000000000E+00 -0.00000000000E+00 -0.45593999997E+02  0.45594000000E+02  0.51100000000E-03 0. -1.
    9900012    2    1    2    0    0  0.19029716364E+02  0.22357810271E+02  0.28127634781E+02  0.50528860518E+02  0.30000002032E+02 0.  0.
         12    1    1    2    0    0 -0.19029716364E+02 -0.22357810271E+02 -0.28127634781E+02  0.40659139482E+02  0.00000000000E+00 0. -1.
         11    1    3    3    0    0  0.45411309911E+00  0.27757670962E+01  0.35095598878E+01  0.44975674032E+01  0.51100000000E-03 0. -1.
        -11    1    3    3    0    0 -0.18823117935E+00  0.10438115703E+02  0.22803076201E+02  0.25079273811E+02  0.51100000000E-03 0.  1.
         12    1    3    3    0    0  0.18763834444E+02  0.91439274716E+01  0.18149986922E+01  0.20952019304E+02  0.00000000000E+00 0. -1.
</event>
<event>
 7    1  0.4971907E-013  0.5052901E+02  0.7816164E-02  0.1300438E+00
        -11   -1    0    0    0    0  0.00000000000E+00  0.00000000000E+00  0.45593999997E+02  0.45594000000E+02  0.51100000000E-03 0.  1.
         11   -1    0    0    0    0 -0.00000000000E+00 -0.00000000000E+00 -0.45593999997E+02  0.45594000000E+02  0.51100000000E-03 0. -1.
    9900012    2    1    2    0    0 -0.12657455235E+02  0.33667319838E+02  0.18959276745E+02  0.50529006250E+02  0.30000444993E+02 0.  0.
         12    1    1    2    0    0  0.12657455235E+02 -0.33667319838E+02 -0.18959276745E+02  0.40658993750E+02  0.00000000000E+00 0. -1.
         11    1    3    3    0    0 -0.10668122799E+02  0.81015442939E+01 -0.35662527745E+00  0.13400412152E+02  0.51100000000E-03 0. -1.
        -11    1    3    3    0    0 -0.18083285354E+01  0.17929156040E+01  0.11981886607E+02  0.12249498168E+02  0.51100000000E-03 0.  1.
         12    1    3    3    0    0 -0.18100390066E+00  0.23772859940E+02  0.73340154153E+01  0.24879095929E+02  0.00000000000E+00 0. -1.
</event>
<event>
 7    1  0.4971907E-013  0.5052887E+02  0.7816164E-02  0.1300439E+00
        -11   -1    0    0    0    0  0.00000000000E+00  0.00000000000E+00  0.45593999997E+02  0.45594000000E+02  0.51100000000E-03 0.  1.
         11   -1    0    0    0    0 -0.00000000000E+00 -0.00000000000E+00 -0.45593999997E+02  0.45594000000E+02  0.51100000000E-03 0. -1.
    9900012    2    1    2    0    0 -0.52285721993E+01 -0.24428352710E+02  0.32079318609E+02  0.50528867376E+02  0.30000022875E+02 0.  0.
         12    1    1    2    0    0  0.52285721993E+01  0.24428352710E+02 -0.32079318609E+02  0.40659132624E+02  0.00000000000E+00 0. -1.
         11    1    3    3    0    0  0.39484978162E+01 -0.88172196106E+01  0.22190047173E+02  0.24201904687E+02  0.51100000000E-03 0. -1.
        -11    1    3    3    0    0 -0.49777557032E+01  0.11952954242E+01  0.71422332090E+01  0.87873931552E+01  0.51100000000E-03 0.  1.
         12    1    3    3    0    0 -0.41993143124E+01 -0.16806428524E+02  0.27470382268E+01  0.17539569534E+02  0.00000000000E+00 0. -1.
</event>
<event>
 7    1  0.4971907E-013  0.5052886E+02  0.7816164E-02  0.1300439E+00
        -11   -1    0    0    0    0  0.00000000000E+00  0.00000000000E+00  0.45593999997E+02  0.45594000000E+02  0.51100000000E-03 0. -1.
         11   -1    0    0    0    0 -0.00000000000E+00 -0.00000000000E+00 -0.45593999997E+02  0.45594000000E+02  0.51100000000E-03 0.  1.
    9900012    2    1    2    0    0  0.29503115246E+02 -0.21478402298E+02 -0.17927920249E+02  0.50528857130E+02  0.29999991732E+02 0.  0.
         12    1    1    2    0    0 -0.29503115246E+02  0.21478402298E+02  0.17927920249E+02  0.40659142870E+02  0.00000000000E+00 0. -1.
         11    1    3    3    0    0  0.38283703367E+01 -0.85220446503E+00 -0.11637570318E+02  0.12280704990E+02  0.51100000000E-03 0. -1.
        -11    1    3    3    0    0  0.64008171928E+01  0.22190728908E+01  0.22902937447E+01  0.71512370208E+01  0.51100000000E-03 0.  1.
         12    1    3    3    0    0  0.19273927717E+02 -0.22845270723E+02 -0.85806436764E+01  0.31096915119E+02  0.00000000000E+00 0. -1.
</event>
<event>
 7    1  0.4971907E-013  0.5052880E+02  0.7816164E-02  0.1300439E+00
        -11   -1    0    0    0    0  0.00000000000E+00  0.00000000000E+00  0.45593999997E+02  0.45594000000E+02  0.51100000000E-03 0. -1.
         11   -1    0    0    0    0 -0.00000000000E+00 -0.00000000000E+00 -0.45593999997E+02  0.45594000000E+02  0.51100000000E-03 0.  1.
    9900012    2    1    2    0    0  0.32520084002E+02  0.15861957701E+02 -0.18547587911E+02  0.50528799529E+02  0.29999816647E+02 0.  0.
         12    1    1    2    0    0 -0.32520084002E+02 -0.15861957701E+02  0.18547587911E+02  0.40659200471E+02  0.00000000000E+00 0. -1.
         11    1    3    3    0    0  0.46999604058E-01  0.42842017011E+01 -0.10996128354E+02  0.11801331798E+02  0.51100000000E-03 0. -1.
        -11    1    3    3    0    0  0.23029048429E+01  0.16081473357E+01 -0.63346566987E+01  0.69294577219E+01  0.51100000000E-03 0.  1.
         12    1    3    3    0    0  0.30170179555E+02  0.99696086641E+01 -0.12168028591E+01  0.31798010009E+02  0.00000000000E+00 0. -1.
</event>
<event>
 7    1  0.5972070E-013  0.5052886E+02  0.7816164E-02  0.1300439E+00
        -11   -1    0    0    0    0  0.00000000000E+00  0.00000000000E+00  0.45593999997E+02  0.45594000000E+02  0.51100000000E-03 0. -1.
         11   -1    0    0    0    0 -0.00000000000E+00 -0.00000000000E+00 -0.45593999997E+02  0.45594000000E+02  0.51100000000E-03 0.  1.
    9900012    2    1    2    0    0 -0.18748956968E+02 -0.17418717233E+02 -0.31594785985E+02  0.50528860820E+02  0.30000002949E+02 0.  0.
         12    1    1    2    0    0  0.18748956968E+02  0.17418717233E+02  0.31594785985E+02  0.40659139180E+02  0.00000000000E+00 0. -1.
         11    1    3    3    0    0 -0.39157998071E+01 -0.93532622200E+01 -0.15254686821E+02  0.18317272519E+02  0.51100000000E-03 0.  1.
        -11    1    3    3    0    0 -0.10792885764E+02 -0.80884940329E+00 -0.20304058780E+02  0.23008594561E+02  0.51100000000E-03 0. -1.
         12    1    3    3    0    0 -0.40402713964E+01 -0.72566056095E+01  0.39639596163E+01  0.92029937395E+01  0.00000000000E+00 0. -1.
</event>
<event>
 7    1  0.4971907E-013  0.5052887E+02  0.7816164E-02  0.1300439E+00
        -11   -1    0    0    0    0  0.00000000000E+00  0.00000000000E+00  0.45593999997E+02  0.45594000000E+02  0.51100000000E-03 0.  1.
         11   -1    0    0    0    0 -0.00000000000E+00 -0.00000000000E+00 -0.45593999997E+02  0.45594000000E+02  0.51100000000E-03 0. -1.
    9900012    2    1    2    0    0 -0.54396765842E+00 -0.39212887827E+02  0.10733980970E+02  0.50528870398E+02  0.30000032061E+02 0.  0.
         12    1    1    2    0    0  0.54396765842E+00  0.39212887827E+02 -0.10733980970E+02  0.40659129602E+02  0.00000000000E+00 0. -1.
         11    1    3    3    0    0 -0.54932074854E+01 -0.26380108119E+02  0.23521543924E+01  0.27048439205E+02  0.51100000000E-03 0. -1.
        -11    1    3    3    0    0 -0.14142407433E+01 -0.13899614972E+02  0.95497790967E+01  0.16923287338E+02  0.51100000000E-03 0.  1.
         12    1    3    3    0    0  0.63634805703E+01  0.10668352650E+01 -0.11679525187E+01  0.65571438551E+01  0.00000000000E+00 0. -1.
</event>
<event>
 7    1  0.4971907E-013  0.5052876E+02  0.7816164E-02  0.1300439E+00
        -11   -1    0    0    0    0  0.00000000000E+00  0.00000000000E+00  0.45593999997E+02  0.45594000000E+02  0.51100000000E-03 0.  1.
         11   -1    0    0    0    0 -0.00000000000E+00 -0.00000000000E+00 -0.45593999997E+02  0.45594000000E+02  0.51100000000E-03 0. -1.
    9900012    2    1    2    0    0 -0.94097506585E+00 -0.17925953364E+02  0.36482167842E+02  0.50528759863E+02  0.29999696077E+02 0.  0.
         12    1    1    2    0    0  0.94097506585E+00  0.17925953364E+02 -0.36482167842E+02  0.40659240137E+02  0.00000000000E+00 0. -1.
         11    1    3    3    0    0  0.35170513499E+01 -0.14653076126E+02  0.11459345458E+02  0.18931425956E+02  0.51100000000E-03 0. -1.
        -11    1    3    3    0    0  0.63474709707E+01 -0.12924407155E+01  0.33346358834E+01  0.72856425566E+01  0.51100000000E-03 0.  1.
         12    1    3    3    0    0 -0.10805497386E+02 -0.19804365229E+01  0.21688186501E+02  0.24311691349E+02  0.00000000000E+00 0. -1.
</event>
<event>
 7    1  0.4971907E-013  0.5052887E+02  0.7816164E-02  0.1300439E+00
        -11   -1    0    0    0    0  0.00000000000E+00  0.00000000000E+00  0.45593999997E+02  0.45594000000E+02  0.51100000000E-03 0. -1.
         11   -1    0    0    0    0 -0.00000000000E+00 -0.00000000000E+00 -0.45593999997E+02  0.45594000000E+02  0.51100000000E-03 0.  1.
    9900012    2    1    2    0    0  0.23890686593E+02 -0.32454501053E+02  0.53948967408E+01  0.50528874882E+02  0.30000045691E+02 0.  0.
         12    1    1    2    0    0 -0.23890686593E+02  0.32454501053E+02 -0.53948967408E+01  0.40659125118E+02  0.00000000000E+00 0. -1.
         11    1    3    3    0    0 -0.76077862707E-01 -0.18106384043E+02  0.79993720300E+01  0.19794870146E+02  0.51100000000E-03 0. -1.
        -11    1    3    3    0    0  0.53631472223E+01 -0.97153676690E+01 -0.32111700942E+01  0.11552633064E+02  0.51100000000E-03 0.  1.
         12    1    3    3    0    0  0.18603617234E+02 -0.46327493413E+01  0.60669480498E+00  0.19181371672E+02  0.00000000000E+00 0. -1.
</event>
<event>
 7    1  0.4971907E-013  0.5052886E+02  0.7816164E-02  0.1300439E+00
        -11   -1    0    0    0    0  0.00000000000E+00  0.00000000000E+00  0.45593999997E+02  0.45594000000E+02  0.51100000000E-03 0. -1.
         11   -1    0    0    0    0 -0.00000000000E+00 -0.00000000000E+00 -0.45593999997E+02  0.45594000000E+02  0.51100000000E-03 0.  1.
    9900012    2    1    2    0    0 -0.99678987503E+01 -0.35079085111E+02 -0.17979549986E+02  0.50528862830E+02  0.30000009058E+02 0.  0.
         12    1    1    2    0    0  0.99678987503E+01  0.35079085111E+02  0.17979549986E+02  0.40659137170E+02  0.00000000000E+00 0. -1.
         11    1    3    3    0    0  0.31661502656E+01 -0.11390026117E+02 -0.38905376945E+01  0.12445621168E+02  0.51100000000E-03 0.  1.
        -11    1    3    3    0    0 -0.44920190459E+01 -0.38469499096E+01  0.60927144708E+01  0.84910793542E+01  0.51100000000E-03 0. -1.
         12    1    3    3    0    0 -0.86420299700E+01 -0.19842109085E+02 -0.20181726763E+02  0.29592162308E+02  0.00000000000E+00 0. -1.
</event>
<event>
 7    1  0.4971907E-013  0.5052886E+02  0.7816164E-02  0.1300439E+00
        -11   -1    0    0    0    0  0.00000000000E+00  0.00000000000E+00  0.45593999997E+02  0.45594000000E+02  0.51100000000E-03 0.  1.
         11   -1    0    0    0    0 -0.00000000000E+00 -0.00000000000E+00 -0.45593999997E+02  0.45594000000E+02  0.51100000000E-03 0. -1.
    9900012    2    1    2    0    0 -0.34313843046E+02  0.78922725907E+01  0.20333174745E+02  0.50528858514E+02  0.29999995938E+02 0.  0.
         12    1    1    2    0    0  0.34313843046E+02 -0.78922725907E+01 -0.20333174745E+02  0.40659141486E+02  0.00000000000E+00 0. -1.
         11    1    3    3    0    0 -0.13590185008E+02  0.53648140644E+01 -0.32899045861E+01  0.14976576075E+02  0.51100000000E-03 0.  1.
        -11    1    3    3    0    0 -0.40886876494E+01  0.73977976454E+01  0.39418358030E+01  0.93264594813E+01  0.51100000000E-03 0. -1.
        -12    1    3    3    0    0 -0.16634970388E+02 -0.48703391191E+01  0.19681243528E+02  0.26225822957E+02  0.00000000000E+00 0.  1.
</event>
<event>
 7    1  0.4971907E-013  0.5052888E+02  0.7816164E-02  0.1300439E+00
        -11   -1    0    0    0    0  0.00000000000E+00  0.00000000000E+00  0.45593999997E+02  0.45594000000E+02  0.51100000000E-03 0.  1.
         11   -1    0    0    0    0 -0.00000000000E+00 -0.00000000000E+00 -0.45593999997E+02  0.45594000000E+02  0.51100000000E-03 0. -1.
    9900012    2    1    2    0    0 -0.31133799570E+02  0.18930687422E+02  0.18041064270E+02  0.50528875539E+02  0.30000047689E+02 0.  0.
         12    1    1    2    0    0  0.31133799570E+02 -0.18930687422E+02 -0.18041064270E+02  0.40659124461E+02  0.00000000000E+00 0. -1.
         11    1    3    3    0    0 -0.54947193484E+01  0.10664238455E+02 -0.70767318291E+00  0.12017434174E+02  0.51100000000E-03 0. -1.
        -11    1    3    3    0    0 -0.22913704861E+02  0.10643259975E+02  0.69970340667E+01  0.26215936744E+02  0.51100000000E-03 0.  1.
         12    1    3    3    0    0 -0.27253753605E+01 -0.23768110079E+01  0.11751703386E+02  0.12295504621E+02  0.00000000000E+00 0. -1.
</event>
<event>
 7    1  0.4971907E-013  0.5052886E+02  0.7816164E-02  0.1300439E+00
        -11   -1    0    0    0    0  0.00000000000E+00  0.00000000000E+00  0.45593999997E+02  0.45594000000E+02  0.51100000000E-03 0.  1.
         11   -1    0    0    0    0 -0.00000000000E+00 -0.00000000000E+00 -0.45593999997E+02  0.45594000000E+02  0.51100000000E-03 0. -1.
    9900012    2    1    2    0    0 -0.29939183137E+02 -0.17519725977E+02  0.21210137643E+02  0.50528862969E+02  0.30000009481E+02 0.  0.
         12    1    1    2    0    0  0.29939183137E+02  0.17519725977E+02 -0.21210137643E+02  0.40659137031E+02  0.00000000000E+00 0. -1.
         11    1    3    3    0    0  0.22867470761E+01  0.26221582777E+01  0.18061518548E+00  0.34838984385E+01  0.51100000000E-03 0. -1.
        -11    1    3    3    0    0 -0.22123845182E+02 -0.43082820468E+01  0.69987003375E+01  0.23601009015E+02  0.51100000000E-03 0.  1.
        -12    1    3    3    0    0 -0.10102085031E+02 -0.15833602208E+02  0.14030822120E+02  0.23443955516E+02  0.00000000000E+00 0.  1.
</event>
<event>
 7    1  0.4971907E-013  0.5052885E+02  0.7816164E-02  0.1300439E+00
        -11   -1    0    0    0    0  0.00000000000E+00  0.00000000000E+00  0.45593999997E+02  0.45594000000E+02  0.51100000000E-03 0.  1.
         11   -1    0    0    0    0 -0.00000000000E+00 -0.00000000000E+00 -0.45593999997E+02  0.45594000000E+02  0.51100000000E-03 0. -1.
    9900012    2    1    2    0    0 -0.90078334567E+01 -0.24913544419E+02  0.30843811297E+02  0.50528850299E+02  0.29999970970E+02 0.  0.
         12    1    1    2    0    0  0.90078334567E+01  0.24913544419E+02 -0.30843811297E+02  0.40659149701E+02  0.00000000000E+00 0. -1.
         11    1    3    3    0    0 -0.47822888598E+01 -0.13982775773E+02  0.41098032834E+01  0.15338800094E+02  0.51100000000E-03 0. -1.
        -11    1    3    3    0    0 -0.10063409118E+02 -0.12755096838E+02  0.22493839194E+02  0.27747747663E+02  0.51100000000E-03 0.  1.
        -12    1    3    3    0    0  0.58378645209E+01  0.18243281918E+01  0.42401688195E+01  0.74423025425E+01  0.00000000000E+00 0.  1.
</event>
<event>
 7    1  0.4971907E-013  0.5052886E+02  0.7816164E-02  0.1300439E+00
        -11   -1    0    0    0    0  0.00000000000E+00  0.00000000000E+00  0.45593999997E+02  0.45594000000E+02  0.51100000000E-03 0. -1.
         11   -1    0    0    0    0 -0.00000000000E+00 -0.00000000000E+00 -0.45593999997E+02  0.45594000000E+02  0.51100000000E-03 0.  1.
    9900012    2    1    2    0    0 -0.20001285513E+02  0.27004441824E+02 -0.22888295985E+02  0.50528863345E+02  0.30000010625E+02 0.  0.
         12    1    1    2    0    0  0.20001285513E+02 -0.27004441824E+02  0.22888295985E+02  0.40659136655E+02  0.00000000000E+00 0. -1.
         11    1    3    3    0    0  0.14604974094E+01 -0.12341968984E+01 -0.76783973734E+01  0.79129059865E+01  0.51100000000E-03 0. -1.
        -11    1    3    3    0    0 -0.16401375895E+02  0.70544436569E+01 -0.88438190327E+01  0.19924443327E+02  0.51100000000E-03 0.  1.
        -12    1    3    3    0    0 -0.50604070275E+01  0.21184195065E+02 -0.63660795793E+01  0.22691514032E+02  0.00000000000E+00 0.  1.
</event>
<event>
 7    1  0.4971907E-013  0.5052885E+02  0.7816164E-02  0.1300439E+00
        -11   -1    0    0    0    0  0.00000000000E+00  0.00000000000E+00  0.45593999997E+02  0.45594000000E+02  0.51100000000E-03 0.  1.
         11   -1    0    0    0    0 -0.00000000000E+00 -0.00000000000E+00 -0.45593999997E+02  0.45594000000E+02  0.51100000000E-03 0. -1.
    9900012    2    1    2    0    0 -0.30152054183E+02  0.26799145253E+02  0.50818912654E+01  0.50528853716E+02  0.29999981354E+02 0.  0.
         12    1    1    2    0    0  0.30152054183E+02 -0.26799145253E+02 -0.50818912654E+01  0.40659146284E+02  0.00000000000E+00 0. -1.
         11    1    3    3    0    0 -0.22652465642E+01  0.21445787545E+01 -0.52179784057E+01  0.60792975691E+01  0.51100000000E-03 0. -1.
        -11    1    3    3    0    0  0.71610932800E+00  0.11898476196E+02  0.26855567917E+01  0.12218787333E+02  0.51100000000E-03 0.  1.
        -12    1    3    3    0    0 -0.28602916947E+02  0.12756090303E+02  0.76143128794E+01  0.32230768813E+02  0.00000000000E+00 0.  1.
</event>
<event>
 7    1  0.4971907E-013  0.5052886E+02  0.7816164E-02  0.1300439E+00
        -11   -1    0    0    0    0  0.00000000000E+00  0.00000000000E+00  0.45593999997E+02  0.45594000000E+02  0.51100000000E-03 0. -1.
         11   -1    0    0    0    0 -0.00000000000E+00 -0.00000000000E+00 -0.45593999997E+02  0.45594000000E+02  0.51100000000E-03 0.  1.
    9900012    2    1    2    0    0 -0.24336278214E+02  0.32482281352E+02  0.24109443332E+01  0.50528859678E+02  0.29999999477E+02 0.  0.
         12    1    1    2    0    0  0.24336278214E+02 -0.32482281352E+02 -0.24109443332E+01  0.40659140322E+02  0.00000000000E+00 0. -1.
         11    1    3    3    0    0 -0.11262212825E+02  0.12215453934E+02  0.12133478578E+02  0.20573673838E+02  0.51100000000E-03 0.  1.
        -11    1    3    3    0    0 -0.11384645131E+02  0.42715029364E+01 -0.30114744473E+01  0.12526965343E+02  0.51100000000E-03 0. -1.
        -12    1    3    3    0    0 -0.16894202579E+01  0.15995324482E+02 -0.67110597973E+01  0.17428220497E+02  0.00000000000E+00 0.  1.
</event>
<event>
 7    1  0.4971907E-013  0.5052886E+02  0.7816164E-02  0.1300439E+00
        -11   -1    0    0    0    0  0.00000000000E+00  0.00000000000E+00  0.45593999997E+02  0.45594000000E+02  0.51100000000E-03 0.  1.
         11   -1    0    0    0    0 -0.00000000000E+00 -0.00000000000E+00 -0.45593999997E+02  0.45594000000E+02  0.51100000000E-03 0. -1.
    9900012    2    1    2    0    0  0.22058421299E+02 -0.33216662150E+02 -0.79526993198E+01  0.50528855628E+02  0.29999987166E+02 0.  0.
         12    1    1    2    0    0 -0.22058421299E+02  0.33216662150E+02  0.79526993198E+01  0.40659144372E+02  0.00000000000E+00 0. -1.
         11    1    3    3    0    0  0.13249563786E+02 -0.86762914369E+01 -0.52664223099E+01  0.16690241994E+02  0.51100000000E-03 0. -1.
        -11    1    3    3    0    0  0.14434740131E+02 -0.23538981945E+02 -0.21611516958E+00  0.27613259490E+02  0.51100000000E-03 0.  1.
        -12    1    3    3    0    0 -0.56258826178E+01 -0.10013887683E+01 -0.24701618402E+01  0.62253541435E+01  0.00000000000E+00 0.  1.
</event>
<event>
 7    1  0.4971907E-013  0.5052886E+02  0.7816164E-02  0.1300439E+00
        -11   -1    0    0    0    0  0.00000000000E+00  0.00000000000E+00  0.45593999997E+02  0.45594000000E+02  0.51100000000E-03 0. -1.
         11   -1    0    0    0    0 -0.00000000000E+00 -0.00000000000E+00 -0.45593999997E+02  0.45594000000E+02  0.51100000000E-03 0.  1.
    9900012    2    1    2    0    0  0.12104997257E+02 -0.20358575018E+02 -0.33047893143E+02  0.50528858635E+02  0.29999996306E+02 0.  0.
         12    1    1    2    0    0 -0.12104997257E+02  0.20358575018E+02  0.33047893143E+02  0.40659141365E+02  0.00000000000E+00 0. -1.
         11    1    3    3    0    0 -0.62052306517E+01  0.16581226245E+01 -0.53631645421E+01  0.83676634879E+01  0.51100000000E-03 0. -1.
        -11    1    3    3    0    0  0.33034345740E+01 -0.14352873876E+01 -0.11335897630E+02  0.11894339209E+02  0.51100000000E-03 0.  1.
         12    1    3    3    0    0  0.15006793335E+02 -0.20581410255E+02 -0.16348830971E+02  0.30266855938E+02  0.00000000000E+00 0. -1.
</event>
<event>
 7    1  0.4971907E-013  0.5052886E+02  0.7816164E-02  0.1300439E+00
        -11   -1    0    0    0    0  0.00000000000E+00  0.00000000000E+00  0.45593999997E+02  0.45594000000E+02  0.51100000000E-03 0. -1.
         11   -1    0    0    0    0 -0.00000000000E+00 -0.00000000000E+00 -0.45593999997E+02  0.45594000000E+02  0.51100000000E-03 0.  1.
    9900012    2    1    2    0    0 -0.19951159618E+01  0.32678285615E+01 -0.40478471677E+02  0.50528857602E+02  0.29999993168E+02 0.  0.
         12    1    1    2    0    0  0.19951159618E+01 -0.32678285615E+01  0.40478471677E+02  0.40659142398E+02  0.00000000000E+00 0. -1.
         11    1    3    3    0    0 -0.57072542340E+01 -0.11603279302E+02 -0.14507476162E+02  0.19433880372E+02  0.51100000000E-03 0. -1.
        -11    1    3    3    0    0 -0.18100372072E+01  0.81670373806E+01 -0.13919860682E+02  0.16240050983E+02  0.51100000000E-03 0.  1.
        -12    1    3    3    0    0  0.55221754795E+01  0.67040704826E+01 -0.12051134833E+02  0.14854926248E+02  0.00000000000E+00 0.  1.
</event>
<event>
 7    1  0.4971907E-013  0.5052886E+02  0.7816164E-02  0.1300439E+00
        -11   -1    0    0    0    0  0.00000000000E+00  0.00000000000E+00  0.45593999997E+02  0.45594000000E+02  0.51100000000E-03 0.  1.
         11   -1    0    0    0    0 -0.00000000000E+00 -0.00000000000E+00 -0.45593999997E+02  0.45594000000E+02  0.51100000000E-03 0. -1.
    9900012    2    1    2    0    0  0.14011369055E+02  0.31878746172E+02  0.20990306779E+02  0.50528857129E+02  0.29999991730E+02 0.  0.
         12    1    1    2    0    0 -0.14011369055E+02 -0.31878746172E+02 -0.20990306779E+02  0.40659142871E+02  0.00000000000E+00 0. -1.
         11    1    3    3    0    0 -0.38384444505E+01  0.10420587143E+02  0.72421149441E+01  0.13257847537E+02  0.51100000000E-03 0. -1.
        -11    1    3    3    0    0  0.50788939147E+01 -0.37944472068E+01  0.22814741432E+01  0.67378125181E+01  0.51100000000E-03 0.  1.
        -12    1    3    3    0    0  0.12770919591E+02  0.25252606236E+02  0.11466717692E+02  0.30533197074E+02  0.00000000000E+00 0.  1.
</event>
<event>
 7    1  0.4971907E-013  0.5052884E+02  0.7816164E-02  0.1300439E+00
        -11   -1    0    0    0    0  0.00000000000E+00  0.00000000000E+00  0.45593999997E+02  0.45594000000E+02  0.51100000000E-03 0.  1.
         11   -1    0    0    0    0 -0.00000000000E+00 -0.00000000000E+00 -0.45593999997E+02  0.45594000000E+02  0.51100000000E-03 0. -1.
    9900012    2    1    2    0    0 -0.23413250364E+02  0.10660879303E+02  0.31485432523E+02  0.50528842344E+02  0.29999946790E+02 0.  0.
         12    1    1    2    0    0  0.23413250364E+02 -0.10660879303E+02 -0.31485432523E+02  0.40659157656E+02  0.00000000000E+00 0. -1.
         11    1    3    3    0    0 -0.22268931451E+02  0.13491557892E+02  0.26863542577E+02  0.37410925709E+02  0.51100000000E-03 0.  1.
        -11    1    3    3    0    0 -0.58659156157E+01  0.93764012596E+00  0.86249502934E+00  0.60026688192E+01  0.51100000000E-03 0. -1.
        -12    1    3    3    0    0  0.47215967021E+01 -0.37683187151E+01  0.37593949160E+01  0.71152478165E+01  0.00000000000E+00 0.  1.
</event>
<event>
 7    1  0.4971907E-013  0.5052886E+02  0.7816164E-02  0.1300439E+00
        -11   -1    0    0    0    0  0.00000000000E+00  0.00000000000E+00  0.45593999997E+02  0.45594000000E+02  0.51100000000E-03 0.  1.
         11   -1    0    0    0    0 -0.00000000000E+00 -0.00000000000E+00 -0.45593999997E+02  0.45594000000E+02  0.51100000000E-03 0. -1.
    9900012    2    1    2    0    0  0.12799623623E+02  0.22774523489E+02  0.31155360022E+02  0.50528859046E+02  0.29999997556E+02 0.  0.
         12    1    1    2    0    0 -0.12799623623E+02 -0.22774523489E+02 -0.31155360022E+02  0.40659140954E+02  0.00000000000E+00 0. -1.
         11    1    3    3    0    0  0.11328015933E+02  0.64459214133E+01 -0.10340898661E+01  0.13074524464E+02  0.51100000000E-03 0. -1.
        -11    1    3    3    0    0  0.36138338816E+01  0.76965516650E+01  0.79722891038E+01  0.11655646557E+02  0.51100000000E-03 0.  1.
        -12    1    3    3    0    0 -0.21422261915E+01  0.86320504106E+01  0.24217160784E+02  0.25798688025E+02  0.00000000000E+00 0.  1.
</event>
<event>
 7    1  0.4971907E-013  0.5052886E+02  0.7816164E-02  0.1300439E+00
        -11   -1    0    0    0    0  0.00000000000E+00  0.00000000000E+00  0.45593999997E+02  0.45594000000E+02  0.51100000000E-03 0. -1.
         11   -1    0    0    0    0 -0.00000000000E+00 -0.00000000000E+00 -0.45593999997E+02  0.45594000000E+02  0.51100000000E-03 0.  1.
    9900012    2    1    2    0    0  0.25987970025E+02 -0.31084218366E+02 -0.34003692818E+01  0.50528859224E+02  0.29999998096E+02 0.  0.
         12    1    1    2    0    0 -0.25987970025E+02  0.31084218366E+02  0.34003692818E+01  0.40659140776E+02  0.00000000000E+00 0. -1.
         11    1    3    3    0    0 -0.47670722133E+01 -0.43972034032E+01  0.25343979869E+01  0.69630129020E+01  0.51100000000E-03 0. -1.
        -11    1    3    3    0    0  0.66277092713E+01 -0.11259062078E+02  0.33003520169E+01  0.13475360209E+02  0.51100000000E-03 0.  1.
         12    1    3    3    0    0  0.24127332967E+02 -0.15427952884E+02 -0.92351192856E+01  0.30090486113E+02  0.00000000000E+00 0. -1.
</event>
<event>
 7    1  0.4971907E-013  0.5052886E+02  0.7816164E-02  0.1300439E+00
        -11   -1    0    0    0    0  0.00000000000E+00  0.00000000000E+00  0.45593999997E+02  0.45594000000E+02  0.51100000000E-03 0.  1.
         11   -1    0    0    0    0 -0.00000000000E+00 -0.00000000000E+00 -0.45593999997E+02  0.45594000000E+02  0.51100000000E-03 0. -1.
    9900012    2    1    2    0    0  0.31263382862E+02 -0.34951457296E+01  0.25759478119E+02  0.50528857552E+02  0.29999993014E+02 0.  0.
         12    1    1    2    0    0 -0.31263382862E+02  0.34951457296E+01 -0.25759478119E+02  0.40659142448E+02  0.00000000000E+00 0. -1.
         11    1    3    3    0    0  0.91323337552E+01 -0.65365290231E+01  0.86758476036E+01  0.14191408083E+02  0.51100000000E-03 0. -1.
        -11    1    3    3    0    0  0.24058568375E+02  0.79108220607E+01  0.17932877375E+02  0.31031982037E+02  0.51100000000E-03 0.  1.
         12    1    3    3    0    0 -0.19275192680E+01 -0.48694387672E+01 -0.84924685923E+00  0.53054674313E+01  0.00000000000E+00 0. -1.
</event>
<event>
 7    1  0.4971907E-013  0.5052886E+02  0.7816164E-02  0.1300439E+00
        -11   -1    0    0    0    0  0.00000000000E+00  0.00000000000E+00  0.45593999997E+02  0.45594000000E+02  0.51100000000E-03 0. -1.
         11   -1    0    0    0    0 -0.00000000000E+00 -0.00000000000E+00 -0.45593999997E+02  0.45594000000E+02  0.51100000000E-03 0.  1.
    9900012    2    1    2    0    0 -0.57530962353E+01  0.16836736424E+02 -0.36559423775E+02  0.50528864785E+02  0.30000014999E+02 0.  0.
         12    1    1    2    0    0  0.57530962353E+01 -0.16836736424E+02  0.36559423775E+02  0.40659135215E+02  0.00000000000E+00 0. -1.
         11    1    3    3    0    0 -0.34599814438E+01  0.11739285680E+02  0.11947977227E+01  0.12296741102E+02  0.51100000000E-03 0. -1.
        -11    1    3    3    0    0  0.44943153561E+00  0.54396910310E+00 -0.49433522182E+01  0.49934579707E+01  0.51100000000E-03 0.  1.
         12    1    3    3    0    0 -0.27425463271E+01  0.45534816401E+01 -0.32810869280E+02  0.33238665712E+02  0.00000000000E+00 0. -1.
</event>
<event>
 7    1  0.4971907E-013  0.5052885E+02  0.7816164E-02  0.1300439E+00
        -11   -1    0    0    0    0  0.00000000000E+00  0.00000000000E+00  0.45593999997E+02  0.45594000000E+02  0.51100000000E-03 0.  1.
         11   -1    0    0    0    0 -0.00000000000E+00 -0.00000000000E+00 -0.45593999997E+02  0.45594000000E+02  0.51100000000E-03 0. -1.
    9900012    2    1    2    0    0 -0.39178022245E+02 -0.10747337509E+02  0.16565603634E+01  0.50528845031E+02  0.29999954956E+02 0.  0.
         12    1    1    2    0    0  0.39178022245E+02  0.10747337509E+02 -0.16565603634E+01  0.40659154969E+02  0.00000000000E+00 0. -1.
         11    1    3    3    0    0 -0.20575343618E+02 -0.86988792871E+01  0.30067992988E+01  0.22540100003E+02  0.51100000000E-03 0.  1.
        -11    1    3    3    0    0 -0.19076936801E+02  0.55308591143E+01  0.14003310929E+01  0.19911826830E+02  0.51100000000E-03 0. -1.
        -12    1    3    3    0    0  0.47425817450E+00 -0.75793173361E+01 -0.27505700283E+01  0.80769181980E+01  0.00000000000E+00 0.  1.
</event>
<event>
 7    1  0.4971907E-013  0.5052886E+02  0.7816164E-02  0.1300439E+00
        -11   -1    0    0    0    0  0.00000000000E+00  0.00000000000E+00  0.45593999997E+02  0.45594000000E+02  0.51100000000E-03 0.  1.
         11   -1    0    0    0    0 -0.00000000000E+00 -0.00000000000E+00 -0.45593999997E+02  0.45594000000E+02  0.51100000000E-03 0. -1.
    9900012    2    1    2    0    0  0.10565459144E+02 -0.20831970274E+01  0.39207102436E+02  0.50528861812E+02  0.30000005963E+02 0.  0.
         12    1    1    2    0    0 -0.10565459144E+02  0.20831970274E+01 -0.39207102436E+02  0.40659138188E+02  0.00000000000E+00 0. -1.
         11    1    3    3    0    0  0.18317629015E+01  0.58804444417E+01  0.29915097315E+01  0.68471974481E+01  0.51100000000E-03 0. -1.
        -11    1    3    3    0    0 -0.29793020395E+01  0.52431638803E+01  0.50577308595E+01  0.78706829327E+01  0.51100000000E-03 0.  1.
        -12    1    3    3    0    0  0.11712998282E+02 -0.13206805349E+02  0.31157861845E+02  0.35810981431E+02  0.00000000000E+00 0.  1.
</event>
<event>
 7    1  0.4971907E-013  0.5052887E+02  0.7816164E-02  0.1300439E+00
        -11   -1    0    0    0    0  0.00000000000E+00  0.00000000000E+00  0.45593999997E+02  0.45594000000E+02  0.51100000000E-03 0.  1.
         11   -1    0    0    0    0 -0.00000000000E+00 -0.00000000000E+00 -0.45593999997E+02  0.45594000000E+02  0.51100000000E-03 0. -1.
    9900012    2    1    2    0    0 -0.20797793115E+01  0.28572640292E+02  0.28852103703E+02  0.50528866422E+02  0.30000019977E+02 0.  0.
         12    1    1    2    0    0  0.20797793115E+01 -0.28572640292E+02 -0.28852103703E+02  0.40659133578E+02  0.00000000000E+00 0. -1.
         11    1    3    3    0    0  0.48632267645E+01 -0.23057439413E+01  0.33280560822E+01  0.63279844527E+01  0.51100000000E-03 0. -1.
        -11    1    3    3    0    0  0.12579153318E+00  0.83346538746E+01  0.17266729871E+02  0.19173477499E+02  0.51100000000E-03 0.  1.
         12    1    3    3    0    0 -0.70687976092E+01  0.22543730358E+02  0.82573177497E+01  0.25027404471E+02  0.00000000000E+00 0. -1.
</event>
<event>
 7    1  0.5417613E-013  0.5052886E+02  0.7816164E-02  0.1300439E+00
        -11   -1    0    0    0    0  0.00000000000E+00  0.00000000000E+00  0.45593999997E+02  0.45594000000E+02  0.51100000000E-03 0. -1.
         11   -1    0    0    0    0 -0.00000000000E+00 -0.00000000000E+00 -0.45593999997E+02  0.45594000000E+02  0.51100000000E-03 0.  1.
    9900012    2    1    2    0    0 -0.14961857107E+02  0.79865091851E+01 -0.36953002334E+02  0.50528857380E+02  0.29999992493E+02 0.  0.
         12    1    1    2    0    0  0.14961857107E+02 -0.79865091851E+01  0.36953002334E+02  0.40659142620E+02  0.00000000000E+00 0. -1.
         11    1    3    3    0    0 -0.48825438306E+01 -0.10378833676E+01 -0.59041093791E-01  0.49919858027E+01  0.51100000000E-03 0. -1.
        -11    1    3    3    0    0 -0.65523331193E+01  0.12908284404E+02 -0.87649685996E+01  0.16922811539E+02  0.51100000000E-03 0.  1.
        -12    1    3    3    0    0 -0.35269801575E+01 -0.38838918513E+01 -0.28128992641E+02  0.28614060039E+02  0.00000000000E+00 0.  1.
</event>
<event>
 7    1  0.4971907E-013  0.5052887E+02  0.7816164E-02  0.1300439E+00
        -11   -1    0    0    0    0  0.00000000000E+00  0.00000000000E+00  0.45593999997E+02  0.45594000000E+02  0.51100000000E-03 0.  1.
         11   -1    0    0    0    0 -0.00000000000E+00 -0.00000000000E+00 -0.45593999997E+02  0.45594000000E+02  0.51100000000E-03 0. -1.
    9900012    2    1    2    0    0  0.41383528470E+01  0.14321547770E+02  0.37827663644E+02  0.50528870256E+02  0.30000031629E+02 0.  0.
         12    1    1    2    0    0 -0.41383528470E+01 -0.14321547770E+02 -0.37827663644E+02  0.40659129744E+02  0.00000000000E+00 0. -1.
         11    1    3    3    0    0 -0.63940668327E+01 -0.55654610773E-01  0.50296863165E+01  0.81354122699E+01  0.51100000000E-03 0. -1.
        -11    1    3    3    0    0  0.21395297900E+01  0.17623395070E+02  0.23526271909E+02  0.29472819880E+02  0.51100000000E-03 0.  1.
        -12    1    3    3    0    0  0.83928898898E+01 -0.32461926893E+01  0.92717054191E+01  0.12920638106E+02  0.00000000000E+00 0.  1.
</event>
<event>
 7    1  0.4971907E-013  0.5052885E+02  0.7816164E-02  0.1300439E+00
        -11   -1    0    0    0    0  0.00000000000E+00  0.00000000000E+00  0.45593999997E+02  0.45594000000E+02  0.51100000000E-03 0. -1.
         11   -1    0    0    0    0 -0.00000000000E+00 -0.00000000000E+00 -0.45593999997E+02  0.45594000000E+02  0.51100000000E-03 0.  1.
    9900012    2    1    2    0    0  0.22180013582E+02 -0.33467787939E+02 -0.64125364047E+01  0.50528850290E+02  0.29999970941E+02 0.  0.
         12    1    1    2    0    0 -0.22180013582E+02  0.33467787939E+02  0.64125364047E+01  0.40659149710E+02  0.00000000000E+00 0. -1.
         11    1    3    3    0    0  0.29071204598E+01 -0.24995477783E+02  0.39723140836E+01  0.25475567479E+02  0.51100000000E-03 0. -1.
        -11    1    3    3    0    0  0.62551919200E+01  0.14583097763E+01 -0.31266345391E+01  0.71435241416E+01  0.51100000000E-03 0.  1.
        -12    1    3    3    0    0  0.13017701202E+02 -0.99306199326E+01 -0.72582159491E+01  0.17909758669E+02  0.00000000000E+00 0.  1.
</event>
<event>
 7    1  0.4971907E-013  0.5052886E+02  0.7816164E-02  0.1300439E+00
        -11   -1    0    0    0    0  0.00000000000E+00  0.00000000000E+00  0.45593999997E+02  0.45594000000E+02  0.51100000000E-03 0.  1.
         11   -1    0    0    0    0 -0.00000000000E+00 -0.00000000000E+00 -0.45593999997E+02  0.45594000000E+02  0.51100000000E-03 0. -1.
    9900012    2    1    2    0    0 -0.11738825286E+02  0.13569435164E+02  0.36486107909E+02  0.50528860067E+02  0.30000000659E+02 0.  0.
         12    1    1    2    0    0  0.11738825286E+02 -0.13569435164E+02 -0.36486107909E+02  0.40659139933E+02  0.00000000000E+00 0. -1.
         11    1    3    3    0    0 -0.70607277271E+01  0.89794165636E+01 -0.10029897473E+01  0.11466899605E+02  0.51100000000E-03 0. -1.
        -11    1    3    3    0    0 -0.29971465452E+01  0.70478219964E+01  0.22153848059E+02  0.23440300049E+02  0.51100000000E-03 0.  1.
        -12    1    3    3    0    0 -0.16809510133E+01 -0.24578033956E+01  0.15335249597E+02  0.15621660413E+02  0.00000000000E+00 0.  1.
</event>
<event>
 7    1  0.4971907E-013  0.5052886E+02  0.7816164E-02  0.1300439E+00
        -11   -1    0    0    0    0  0.00000000000E+00  0.00000000000E+00  0.45593999997E+02  0.45594000000E+02  0.51100000000E-03 0. -1.
         11   -1    0    0    0    0 -0.00000000000E+00 -0.00000000000E+00 -0.45593999997E+02  0.45594000000E+02  0.51100000000E-03 0.  1.
    9900012    2    1    2    0    0 -0.27349615108E+02  0.28919670873E+02 -0.82956064130E+01  0.50528857169E+02  0.29999991852E+02 0.  0.
         12    1    1    2    0    0  0.27349615108E+02 -0.28919670873E+02  0.82956064130E+01  0.40659142831E+02  0.00000000000E+00 0. -1.
         11    1    3    3    0    0 -0.10704598423E+02  0.11977512596E+02 -0.21759948559E+01  0.16210619644E+02  0.51100000000E-03 0. -1.
        -11    1    3    3    0    0  0.11341585940E+01  0.13303753026E+02  0.34660396977E+01  0.13794549349E+02  0.51100000000E-03 0.  1.
         12    1    3    3    0    0 -0.17779175279E+02  0.36384052511E+01 -0.95856512548E+01  0.20523688176E+02  0.00000000000E+00 0. -1.
</event>
<event>
 7    1  0.4971907E-013  0.5052887E+02  0.7816164E-02  0.1300439E+00
        -11   -1    0    0    0    0  0.00000000000E+00  0.00000000000E+00  0.45593999997E+02  0.45594000000E+02  0.51100000000E-03 0.  1.
         11   -1    0    0    0    0 -0.00000000000E+00 -0.00000000000E+00 -0.45593999997E+02  0.45594000000E+02  0.51100000000E-03 0. -1.
    9900012    2    1    2    0    0 -0.12151635152E+02 -0.37804157711E+02  0.87377718182E+01  0.50528865313E+02  0.30000016606E+02 0.  0.
         12    1    1    2    0    0  0.12151635152E+02  0.37804157711E+02 -0.87377718182E+01  0.40659134687E+02  0.00000000000E+00 0. -1.
         11    1    3    3    0    0 -0.11300903733E+02 -0.17768049238E+02 -0.52056271089E+00  0.21063831197E+02  0.51100000000E-03 0.  1.
        -11    1    3    3    0    0  0.89346501947E+01 -0.64207079643E+01  0.54168136092E+01  0.12263577569E+02  0.51100000000E-03 0. -1.
         12    1    3    3    0    0 -0.97853816141E+01 -0.13615400509E+02  0.38415209199E+01  0.17201456547E+02  0.00000000000E+00 0. -1.
</event>
<event>
 7    1  0.4971907E-013  0.5052886E+02  0.7816164E-02  0.1300439E+00
        -11   -1    0    0    0    0  0.00000000000E+00  0.00000000000E+00  0.45593999997E+02  0.45594000000E+02  0.51100000000E-03 0.  1.
         11   -1    0    0    0    0 -0.00000000000E+00 -0.00000000000E+00 -0.45593999997E+02  0.45594000000E+02  0.51100000000E-03 0. -1.
    9900012    2    1    2    0    0 -0.22465962575E+02 -0.22751988447E+02  0.25115592025E+02  0.50528863075E+02  0.30000009803E+02 0.  0.
         12    1    1    2    0    0  0.22465962575E+02  0.22751988447E+02 -0.25115592025E+02  0.40659136925E+02  0.00000000000E+00 0. -1.
         11    1    3    3    0    0 -0.12309430226E+02 -0.56302896379E+01  0.10863511470E+02  0.17356212594E+02  0.51100000000E-03 0. -1.
        -11    1    3    3    0    0 -0.10357373254E+01  0.96896256883E+00  0.12781023300E+02  0.12859478882E+02  0.51100000000E-03 0.  1.
         12    1    3    3    0    0 -0.91207950237E+01 -0.18090661378E+02  0.14710572555E+01  0.20313171599E+02  0.00000000000E+00 0. -1.
</event>
<event>
 7    1  0.4971907E-013  0.5052886E+02  0.7816164E-02  0.1300439E+00
        -11   -1    0    0    0    0  0.00000000000E+00  0.00000000000E+00  0.45593999997E+02  0.45594000000E+02  0.51100000000E-03 0. -1.
         11   -1    0    0    0    0 -0.00000000000E+00 -0.00000000000E+00 -0.45593999997E+02  0.45594000000E+02  0.51100000000E-03 0.  1.
    9900012    2    1    2    0    0 -0.24028733729E+01  0.34124490617E+02  0.21975235586E+02  0.50528860322E+02  0.30000001436E+02 0.  0.
         12    1    1    2    0    0  0.24028733729E+01 -0.34124490617E+02 -0.21975235586E+02  0.40659139678E+02  0.00000000000E+00 0. -1.
         11    1    3    3    0    0 -0.64410184401E+01 -0.22133048634E+01  0.19598893266E+01  0.70870729781E+01  0.51100000000E-03 0. -1.
        -11    1    3    3    0    0 -0.36475875066E+01  0.12584045707E+02  0.36897414494E+01  0.13611660193E+02  0.51100000000E-03 0.  1.
        -12    1    3    3    0    0  0.76857325738E+01  0.23753749773E+02  0.16325604810E+02  0.29830127152E+02  0.00000000000E+00 0.  1.
</event>
<event>
 7    1  0.4971907E-013  0.5052886E+02  0.7816164E-02  0.1300439E+00
        -11   -1    0    0    0    0  0.00000000000E+00  0.00000000000E+00  0.45593999997E+02  0.45594000000E+02  0.51100000000E-03 0.  1.
         11   -1    0    0    0    0 -0.00000000000E+00 -0.00000000000E+00 -0.45593999997E+02  0.45594000000E+02  0.51100000000E-03 0. -1.
    9900012    2    1    2    0    0  0.27915199502E+02 -0.15975240903E+02  0.24873655007E+02  0.50528863284E+02  0.30000010437E+02 0.  0.
         12    1    1    2    0    0 -0.27915199502E+02  0.15975240903E+02 -0.24873655007E+02  0.40659136716E+02  0.00000000000E+00 0. -1.
         11    1    3    3    0    0 -0.18184758470E+01  0.32565018485E+01  0.63097258760E+01  0.73296861862E+01  0.51100000000E-03 0. -1.
        -11    1    3    3    0    0  0.12680617552E+02 -0.18092085806E+01  0.12882220760E+02  0.18166532667E+02  0.51100000000E-03 0.  1.
         12    1    3    3    0    0  0.17053057797E+02 -0.17422534171E+02  0.56817083708E+01  0.25032644430E+02  0.00000000000E+00 0. -1.
</event>
<event>
 7    1  0.4971907E-013  0.5052886E+02  0.7816164E-02  0.1300439E+00
        -11   -1    0    0    0    0  0.00000000000E+00  0.00000000000E+00  0.45593999997E+02  0.45594000000E+02  0.51100000000E-03 0.  1.
         11   -1    0    0    0    0 -0.00000000000E+00 -0.00000000000E+00 -0.45593999997E+02  0.45594000000E+02  0.51100000000E-03 0. -1.
    9900012    2    1    2    0    0 -0.35915716560E+02 -0.14583349593E+02  0.12269989079E+02  0.50528863101E+02  0.30000009883E+02 0.  0.
         12    1    1    2    0    0  0.35915716560E+02  0.14583349593E+02 -0.12269989079E+02  0.40659136899E+02  0.00000000000E+00 0. -1.
         11    1    3    3    0    0 -0.29321059495E+01 -0.15876858063E+01  0.13106048627E+02  0.13523553616E+02  0.51100000000E-03 0. -1.
        -11    1    3    3    0    0 -0.22988418497E+01 -0.24110224835E+01  0.27887182827E+01  0.43444968854E+01  0.51100000000E-03 0.  1.
        -12    1    3    3    0    0 -0.30684768760E+02 -0.10584641303E+02 -0.36247778308E+01  0.32660812600E+02  0.00000000000E+00 0.  1.
</event>
<event>
 7    1  0.4971907E-013  0.5052885E+02  0.7816164E-02  0.1300439E+00
        -11   -1    0    0    0    0  0.00000000000E+00  0.00000000000E+00  0.45593999997E+02  0.45594000000E+02  0.51100000000E-03 0. -1.
         11   -1    0    0    0    0 -0.00000000000E+00 -0.00000000000E+00 -0.45593999997E+02  0.45594000000E+02  0.51100000000E-03 0.  1.
    9900012    2    1    2    0    0 -0.26515800275E+02  0.12745044691E+02 -0.28064965069E+02  0.50528854747E+02  0.29999984489E+02 0.  0.
         12    1    1    2    0    0  0.26515800275E+02 -0.12745044691E+02  0.28064965069E+02  0.40659145253E+02  0.00000000000E+00 0. -1.
         11    1    3    3    0    0  0.33721601018E+01 -0.28225055293E+01 -0.63237822278E+01  0.77024816222E+01  0.51100000000E-03 0. -1.
        -11    1    3    3    0    0 -0.30898135815E+01  0.74674178411E+01 -0.89142441848E+01  0.12032166340E+02  0.51100000000E-03 0.  1.
        -12    1    3    3    0    0 -0.26798146795E+02  0.81001323793E+01 -0.12826938656E+02  0.30794206785E+02  0.00000000000E+00 0.  1.
</event>
<event>
 7    1  0.4971907E-013  0.5052888E+02  0.7816164E-02  0.1300439E+00
        -11   -1    0    0    0    0  0.00000000000E+00  0.00000000000E+00  0.45593999997E+02  0.45594000000E+02  0.51100000000E-03 0.  1.
         11   -1    0    0    0    0 -0.00000000000E+00 -0.00000000000E+00 -0.45593999997E+02  0.45594000000E+02  0.51100000000E-03 0. -1.
    9900012    2    1    2    0    0 -0.17227291353E+02 -0.16414770581E+02  0.32968771516E+02  0.50528878566E+02  0.30000056888E+02 0.  0.
         12    1    1    2    0    0  0.17227291353E+02  0.16414770581E+02 -0.32968771516E+02  0.40659121434E+02  0.00000000000E+00 0. -1.
         11    1    3    3    0    0 -0.43877739843E+01  0.40130145530E+01  0.67298219854E+01  0.89803869937E+01  0.51100000000E-03 0. -1.
        -11    1    3    3    0    0 -0.14114560456E+01 -0.17390599061E+02  0.66597591682E+01  0.18675586639E+02  0.51100000000E-03 0.  1.
         12    1    3    3    0    0 -0.11428061323E+02 -0.30371860732E+01  0.19579190362E+02  0.22872904933E+02  0.00000000000E+00 0. -1.
</event>
<event>
 7    1  0.4971907E-013  0.5052886E+02  0.7816164E-02  0.1300439E+00
        -11   -1    0    0    0    0  0.00000000000E+00  0.00000000000E+00  0.45593999997E+02  0.45594000000E+02  0.51100000000E-03 0.  1.
         11   -1    0    0    0    0 -0.00000000000E+00 -0.00000000000E+00 -0.45593999997E+02  0.45594000000E+02  0.51100000000E-03 0. -1.
    9900012    2    1    2    0    0 -0.26764077297E+02 -0.17271830909E+02  0.25269229068E+02  0.50528856942E+02  0.29999991161E+02 0.  0.
         12    1    1    2    0    0  0.26764077297E+02  0.17271830909E+02 -0.25269229068E+02  0.40659143058E+02  0.00000000000E+00 0. -1.
         11    1    3    3    0    0 -0.18140594190E+02 -0.71214221636E+01  0.41122614716E+01  0.19917492460E+02  0.51100000000E-03 0. -1.
        -11    1    3    3    0    0 -0.72531292783E+01  0.37260089745E+01  0.71092691023E+01  0.10818166880E+02  0.51100000000E-03 0.  1.
        -12    1    3    3    0    0 -0.13703538280E+01 -0.13876417720E+02  0.14047698494E+02  0.19793197603E+02  0.00000000000E+00 0.  1.
</event>
<event>
 7    1  0.4971907E-013  0.5052894E+02  0.7816164E-02  0.1300438E+00
        -11   -1    0    0    0    0  0.00000000000E+00  0.00000000000E+00  0.45593999997E+02  0.45594000000E+02  0.51100000000E-03 0. -1.
         11   -1    0    0    0    0 -0.00000000000E+00 -0.00000000000E+00 -0.45593999997E+02  0.45594000000E+02  0.51100000000E-03 0.  1.
    9900012    2    1    2    0    0  0.19726659424E+02  0.10702053653E+02  0.33904037578E+02  0.50528944323E+02  0.30000256763E+02 0.  0.
         12    1    1    2    0    0 -0.19726659424E+02 -0.10702053653E+02 -0.33904037578E+02  0.40659055677E+02  0.00000000000E+00 0. -1.
         11    1    3    3    0    0  0.54579651261E+01 -0.33446472429E+01  0.12564030734E+02  0.14100741720E+02  0.51100000000E-03 0. -1.
        -11    1    3    3    0    0  0.19614072173E+02  0.87813024033E+01  0.18659831772E+02  0.28460717157E+02  0.51100000000E-03 0.  1.
        -12    1    3    3    0    0 -0.53453778744E+01  0.52653984930E+01  0.26801750723E+01  0.79674854457E+01  0.00000000000E+00 0.  1.
</event>
<event>
 7    1  0.4971907E-013  0.5052886E+02  0.7816164E-02  0.1300439E+00
        -11   -1    0    0    0    0  0.00000000000E+00  0.00000000000E+00  0.45593999997E+02  0.45594000000E+02  0.51100000000E-03 0.  1.
         11   -1    0    0    0    0 -0.00000000000E+00 -0.00000000000E+00 -0.45593999997E+02  0.45594000000E+02  0.51100000000E-03 0. -1.
    9900012    2    1    2    0    0 -0.50716409320E+01 -0.40136124399E+02 -0.40664269842E+01  0.50528857708E+02  0.29999993489E+02 0.  0.
         12    1    1    2    0    0  0.50716409320E+01  0.40136124399E+02  0.40664269842E+01  0.40659142292E+02  0.00000000000E+00 0. -1.
         11    1    3    3    0    0 -0.81942709429E+01 -0.10462861697E+02 -0.96509655066E+01  0.16424332153E+02  0.51100000000E-03 0. -1.
        -11    1    3    3    0    0  0.33060513105E+01 -0.21717174819E+02 -0.32585625627E+01  0.22207743866E+02  0.51100000000E-03 0.  1.
         12    1    3    3    0    0 -0.18342129961E+00 -0.79560878826E+01  0.88431010851E+01  0.11896781690E+02  0.00000000000E+00 0. -1.
</event>
<event>
 7    1  0.4971907E-013  0.5052885E+02  0.7816164E-02  0.1300439E+00
        -11   -1    0    0    0    0  0.00000000000E+00  0.00000000000E+00  0.45593999997E+02  0.45594000000E+02  0.51100000000E-03 0. -1.
         11   -1    0    0    0    0 -0.00000000000E+00 -0.00000000000E+00 -0.45593999997E+02  0.45594000000E+02  0.51100000000E-03 0.  1.
    9900012    2    1    2    0    0 -0.29628410564E+02 -0.83074918986E+01 -0.26576475052E+02  0.50528853915E+02  0.29999981959E+02 0.  0.
         12    1    1    2    0    0  0.29628410564E+02  0.83074918986E+01  0.26576475052E+02  0.40659146085E+02  0.00000000000E+00 0. -1.
         11    1    3    3    0    0 -0.18922481653E+02 -0.44465256113E+01 -0.10535601890E+02  0.22109518524E+02  0.51100000000E-03 0. -1.
        -11    1    3    3    0    0 -0.70314941926E+01 -0.12271716134E+02 -0.11210590405E+02  0.18047555650E+02  0.51100000000E-03 0.  1.
         12    1    3    3    0    0 -0.36744347180E+01  0.84107498463E+01 -0.48302827575E+01  0.10371779741E+02  0.00000000000E+00 0. -1.
</event>
<event>
 7    1  0.4971907E-013  0.5052886E+02  0.7816164E-02  0.1300439E+00
        -11   -1    0    0    0    0  0.00000000000E+00  0.00000000000E+00  0.45593999997E+02  0.45594000000E+02  0.51100000000E-03 0.  1.
         11   -1    0    0    0    0 -0.00000000000E+00 -0.00000000000E+00 -0.45593999997E+02  0.45594000000E+02  0.51100000000E-03 0. -1.
    9900012    2    1    2    0    0  0.29022318915E+02 -0.27507052054E+02 -0.73643011983E+01  0.50528857854E+02  0.29999993934E+02 0.  0.
         12    1    1    2    0    0 -0.29022318915E+02  0.27507052054E+02  0.73643011983E+01  0.40659142146E+02  0.00000000000E+00 0. -1.
         11    1    3    3    0    0 -0.31811191082E+01 -0.98444645024E+01 -0.41034606232E+01  0.11129752444E+02  0.51100000000E-03 0. -1.
        -11    1    3    3    0    0  0.12722123800E+02 -0.89392063360E+01 -0.80709320782E+01  0.17518612638E+02  0.51100000000E-03 0.  1.
        -12    1    3    3    0    0  0.19481314223E+02 -0.87233812155E+01  0.48100915031E+01  0.21880492772E+02  0.00000000000E+00 0.  1.
</event>
<event>
 7    1  0.4971907E-013  0.5052886E+02  0.7816164E-02  0.1300439E+00
        -11   -1    0    0    0    0  0.00000000000E+00  0.00000000000E+00  0.45593999997E+02  0.45594000000E+02  0.51100000000E-03 0.  1.
         11   -1    0    0    0    0 -0.00000000000E+00 -0.00000000000E+00 -0.45593999997E+02  0.45594000000E+02  0.51100000000E-03 0. -1.
    9900012    2    1    2    0    0 -0.34458629173E+02 -0.21072137767E+02  0.46619421250E+01  0.50528858114E+02  0.29999994722E+02 0.  0.
         12    1    1    2    0    0  0.34458629173E+02  0.21072137767E+02 -0.46619421250E+01  0.40659141886E+02  0.00000000000E+00 0. -1.
         11    1    3    3    0    0 -0.19936011880E+02 -0.14033260020E+02  0.15474416042E+02  0.28876192765E+02  0.51100000000E-03 0.  1.
        -11    1    3    3    0    0 -0.11349262791E+02 -0.82356354139E+00 -0.44799438359E+01  0.12229224008E+02  0.51100000000E-03 0. -1.
        -12    1    3    3    0    0 -0.31733545018E+01 -0.62153142058E+01 -0.63325300814E+01  0.94234413408E+01  0.00000000000E+00 0.  1.
</event>
<event>
 7    1  0.4971907E-013  0.5052886E+02  0.7816164E-02  0.1300439E+00
        -11   -1    0    0    0    0  0.00000000000E+00  0.00000000000E+00  0.45593999997E+02  0.45594000000E+02  0.51100000000E-03 0.  1.
         11   -1    0    0    0    0 -0.00000000000E+00 -0.00000000000E+00 -0.45593999997E+02  0.45594000000E+02  0.51100000000E-03 0. -1.
    9900012    2    1    2    0    0  0.13799012533E+02  0.38510237449E+01  0.38051574944E+02  0.50528862201E+02  0.30000007148E+02 0.  0.
         12    1    1    2    0    0 -0.13799012533E+02 -0.38510237449E+01 -0.38051574944E+02  0.40659137799E+02  0.00000000000E+00 0. -1.
         11    1    3    3    0    0  0.17496955051E+02  0.73709217768E+01  0.17736356226E+02  0.25981767767E+02  0.51100000000E-03 0. -1.
        -11    1    3    3    0    0  0.43786305784E+01 -0.32741851220E+01  0.10460775817E+02  0.11803411579E+02  0.51100000000E-03 0.  1.
         12    1    3    3    0    0 -0.80765730959E+01 -0.24571290990E+00  0.98544429018E+01  0.12743682855E+02  0.00000000000E+00 0. -1.
</event>
<event>
 7    1  0.4971907E-013  0.5052886E+02  0.7816164E-02  0.1300439E+00
        -11   -1    0    0    0    0  0.00000000000E+00  0.00000000000E+00  0.45593999997E+02  0.45594000000E+02  0.51100000000E-03 0. -1.
         11   -1    0    0    0    0 -0.00000000000E+00 -0.00000000000E+00 -0.45593999997E+02  0.45594000000E+02  0.51100000000E-03 0.  1.
    9900012    2    1    2    0    0 -0.96611421406E+00  0.28182294425E+02 -0.29291471076E+02  0.50528863591E+02  0.30000011370E+02 0.  0.
         12    1    1    2    0    0  0.96611421406E+00 -0.28182294425E+02  0.29291471076E+02  0.40659136409E+02  0.00000000000E+00 0. -1.
         11    1    3    3    0    0  0.54331694945E+01  0.29250442163E+01  0.21749490852E+01  0.65426002635E+01  0.51100000000E-03 0. -1.
        -11    1    3    3    0    0 -0.65534023416E+01  0.92963992127E+01 -0.37032108875E+01  0.11961767917E+02  0.51100000000E-03 0.  1.
         12    1    3    3    0    0  0.15411863304E+00  0.15960850996E+02 -0.27763209274E+02  0.32024495410E+02  0.00000000000E+00 0. -1.
</event>
<event>
 7    1  0.4971907E-013  0.5052887E+02  0.7816164E-02  0.1300439E+00
        -11   -1    0    0    0    0  0.00000000000E+00  0.00000000000E+00  0.45593999997E+02  0.45594000000E+02  0.51100000000E-03 0. -1.
         11   -1    0    0    0    0 -0.00000000000E+00 -0.00000000000E+00 -0.45593999997E+02  0.45594000000E+02  0.51100000000E-03 0.  1.
    9900012    2    1    2    0    0 -0.12092145212E+02  0.30402896225E+02 -0.24137290303E+02  0.50528869932E+02  0.30000030645E+02 0.  0.
         12    1    1    2    0    0  0.12092145212E+02 -0.30402896225E+02  0.24137290303E+02  0.40659130068E+02  0.00000000000E+00 0. -1.
         11    1    3    3    0    0 -0.12340087089E+02  0.96147769446E+01 -0.87030712849E+01  0.17901540021E+02  0.51100000000E-03 0.  1.
        -11    1    3    3    0    0  0.43264689446E+01 -0.29643075608E-01 -0.97478687657E+01  0.10664903093E+02  0.51100000000E-03 0. -1.
         12    1    3    3    0    0 -0.40785270673E+01  0.20817762356E+02 -0.56863502527E+01  0.21962426818E+02  0.00000000000E+00 0. -1.
</event>
<event>
 7    1  0.4971907E-013  0.5052886E+02  0.7816164E-02  0.1300439E+00
        -11   -1    0    0    0    0  0.00000000000E+00  0.00000000000E+00  0.45593999997E+02  0.45594000000E+02  0.51100000000E-03 0. -1.
         11   -1    0    0    0    0 -0.00000000000E+00 -0.00000000000E+00 -0.45593999997E+02  0.45594000000E+02  0.51100000000E-03 0.  1.
    9900012    2    1    2    0    0 -0.16060433584E+02 -0.28384229221E+02 -0.24280929451E+02  0.50528861662E+02  0.30000005508E+02 0.  0.
         12    1    1    2    0    0  0.16060433584E+02  0.28384229221E+02  0.24280929451E+02  0.40659138338E+02  0.00000000000E+00 0. -1.
         11    1    3    3    0    0 -0.17587495439E+02 -0.14013345257E+02 -0.16025923919E+02  0.27613838538E+02  0.51100000000E-03 0. -1.
        -11    1    3    3    0    0 -0.25545948779E+01 -0.15834751874E+02 -0.91807078080E+01  0.18481090823E+02  0.51100000000E-03 0.  1.
         12    1    3    3    0    0  0.40816567326E+01  0.14638679100E+01  0.92570227589E+00  0.44339323004E+01  0.00000000000E+00 0. -1.
</event>
<event>
 7    1  0.4971907E-013  0.5052885E+02  0.7816164E-02  0.1300439E+00
        -11   -1    0    0    0    0  0.00000000000E+00  0.00000000000E+00  0.45593999997E+02  0.45594000000E+02  0.51100000000E-03 0.  1.
         11   -1    0    0    0    0 -0.00000000000E+00 -0.00000000000E+00 -0.45593999997E+02  0.45594000000E+02  0.51100000000E-03 0. -1.
    9900012    2    1    2    0    0 -0.37260441774E+02 -0.16269495991E+02  0.35932160140E+00  0.50528854251E+02  0.29999982982E+02 0.  0.
         12    1    1    2    0    0  0.37260441774E+02  0.16269495991E+02 -0.35932160140E+00  0.40659145749E+02  0.00000000000E+00 0. -1.
         11    1    3    3    0    0 -0.24138316322E+01 -0.89187697240E+01 -0.74286037173E+01  0.11855597412E+02  0.51100000000E-03 0. -1.
        -11    1    3    3    0    0 -0.27069887115E+02 -0.64178507567E+01  0.27729392360E+00  0.27821655036E+02  0.51100000000E-03 0.  1.
        -12    1    3    3    0    0 -0.77767230266E+01 -0.93287551011E+00  0.75106313951E+01  0.10851601804E+02  0.00000000000E+00 0.  1.
</event>
<event>
 7    1  0.4971907E-013  0.5052887E+02  0.7816164E-02  0.1300439E+00
        -11   -1    0    0    0    0  0.00000000000E+00  0.00000000000E+00  0.45593999997E+02  0.45594000000E+02  0.51100000000E-03 0.  1.
         11   -1    0    0    0    0 -0.00000000000E+00 -0.00000000000E+00 -0.45593999997E+02  0.45594000000E+02  0.51100000000E-03 0. -1.
    9900012    2    1    2    0    0  0.89696322555E+00 -0.10667336505E+02  0.39224583219E+02  0.50528873843E+02  0.30000042533E+02 0.  0.
         12    1    1    2    0    0 -0.89696322555E+00  0.10667336505E+02 -0.39224583219E+02  0.40659126157E+02  0.00000000000E+00 0. -1.
         11    1    3    3    0    0 -0.91986111598E+01 -0.55022720603E+01  0.63977063927E+01  0.12482791853E+02  0.51100000000E-03 0. -1.
        -11    1    3    3    0    0  0.80227859619E+01 -0.10526517962E+02  0.19907842935E+02  0.23905959206E+02  0.51100000000E-03 0.  1.
        -12    1    3    3    0    0  0.20727884235E+01  0.53614535167E+01  0.12919033892E+02  0.14140122784E+02  0.00000000000E+00 0.  1.
</event>
<event>
 7    1  0.4971907E-013  0.5052884E+02  0.7816164E-02  0.1300439E+00
        -11   -1    0    0    0    0  0.00000000000E+00  0.00000000000E+00  0.45593999997E+02  0.45594000000E+02  0.51100000000E-03 0.  1.
         11   -1    0    0    0    0 -0.00000000000E+00 -0.00000000000E+00 -0.45593999997E+02  0.45594000000E+02  0.51100000000E-03 0. -1.
    9900012    2    1    2    0    0  0.55597822776E+01  0.34218779387E+02  0.21244563079E+02  0.50528837415E+02  0.29999931805E+02 0.  0.
         12    1    1    2    0    0 -0.55597822776E+01 -0.34218779387E+02 -0.21244563079E+02  0.40659162585E+02  0.00000000000E+00 0. -1.
         11    1    3    3    0    0 -0.15238465747E+01  0.67660456586E+01 -0.13506055328E+01  0.70658062388E+01  0.51100000000E-03 0. -1.
        -11    1    3    3    0    0 -0.27136484591E+01  0.13158725351E+02 -0.17827311900E+01  0.13553378604E+02  0.51100000000E-03 0.  1.
         12    1    3    3    0    0  0.97972773113E+01  0.14294008377E+02  0.24377899802E+02  0.29909652572E+02  0.00000000000E+00 0. -1.
</event>
<event>
 7    1  0.6213934E-013  0.5052884E+02  0.7816164E-02  0.1300439E+00
        -11   -1    0    0    0    0  0.00000000000E+00  0.00000000000E+00  0.45593999997E+02  0.45594000000E+02  0.51100000000E-03 0.  1.
         11   -1    0    0    0    0 -0.00000000000E+00 -0.00000000000E+00 -0.45593999997E+02  0.45594000000E+02  0.51100000000E-03 0. -1.
    9900012    2    1    2    0    0 -0.37738658956E+02 -0.13839867993E+02 -0.61171035497E+01  0.50528840125E+02  0.29999940044E+02 0.  0.
         12    1    1    2    0    0  0.37738658956E+02  0.13839867993E+02  0.61171035497E+01  0.40659159875E+02  0.00000000000E+00 0. -1.
         11    1    3    3    0    0  0.18558179459E+00 -0.23873835226E+01  0.37710245539E+01  0.44670647112E+01  0.51100000000E-03 0. -1.
        -11    1    3    3    0    0 -0.89085721107E+01  0.27420543033E+01 -0.10121142543E+02  0.13759325764E+02  0.51100000000E-03 0.  1.
        -12    1    3    3    0    0 -0.29015668640E+02 -0.14194538774E+02  0.23301443900E+00  0.32302449650E+02  0.00000000000E+00 0.  1.
</event>
<event>
 7    1  0.4971907E-013  0.5052887E+02  0.7816164E-02  0.1300439E+00
        -11   -1    0    0    0    0  0.00000000000E+00  0.00000000000E+00  0.45593999997E+02  0.45594000000E+02  0.51100000000E-03 0.  1.
         11   -1    0    0    0    0 -0.00000000000E+00 -0.00000000000E+00 -0.45593999997E+02  0.45594000000E+02  0.51100000000E-03 0. -1.
    9900012    2    1    2    0    0  0.40612843086E+02 -0.14949859061E+01 -0.12356483430E+01  0.50528870235E+02  0.30000031567E+02 0.  0.
         12    1    1    2    0    0 -0.40612843086E+02  0.14949859061E+01  0.12356483430E+01  0.40659129765E+02  0.00000000000E+00 0. -1.
         11    1    3    3    0    0  0.17989498994E+00 -0.67057360838E+01  0.23697827655E+01  0.71144310559E+01  0.51100000000E-03 0. -1.
        -11    1    3    3    0    0  0.16376282360E+02 -0.24452435827E+01  0.40267607654E+01  0.17040441386E+02  0.51100000000E-03 0.  1.
        -12    1    3    3    0    0  0.24056665736E+02  0.76559937603E+01 -0.76321918739E+01  0.26373997793E+02  0.00000000000E+00 0.  1.
</event>
<event>
 7    1  0.4971907E-013  0.5052886E+02  0.7816164E-02  0.1300439E+00
        -11   -1    0    0    0    0  0.00000000000E+00  0.00000000000E+00  0.45593999997E+02  0.45594000000E+02  0.51100000000E-03 0. -1.
         11   -1    0    0    0    0 -0.00000000000E+00 -0.00000000000E+00 -0.45593999997E+02  0.45594000000E+02  0.51100000000E-03 0.  1.
    9900012    2    1    2    0    0 -0.22034974808E+02  0.23589563151E+02 -0.24721604334E+02  0.50528864184E+02  0.30000013175E+02 0.  0.
         12    1    1    2    0    0  0.22034974808E+02 -0.23589563151E+02  0.24721604334E+02  0.40659135816E+02  0.00000000000E+00 0. -1.
         11    1    3    3    0    0 -0.22118878068E+01  0.53141031554E+01  0.38420692379E+01  0.69205228347E+01  0.51100000000E-03 0. -1.
        -11    1    3    3    0    0 -0.61643012687E+00 -0.49512922531E+00 -0.12062106977E+02  0.12087992556E+02  0.51100000000E-03 0.  1.
        -12    1    3    3    0    0 -0.19206656874E+02  0.18770589221E+02 -0.16501566594E+02  0.31520348793E+02  0.00000000000E+00 0.  1.
</event>
<event>
 7    1  0.4971907E-013  0.5052886E+02  0.7816164E-02  0.1300439E+00
        -11   -1    0    0    0    0  0.00000000000E+00  0.00000000000E+00  0.45593999997E+02  0.45594000000E+02  0.51100000000E-03 0.  1.
         11   -1    0    0    0    0 -0.00000000000E+00 -0.00000000000E+00 -0.45593999997E+02  0.45594000000E+02  0.51100000000E-03 0. -1.
    9900012    2    1    2    0    0 -0.12630848686E+02  0.27600270067E+02  0.27052767837E+02  0.50528862110E+02  0.30000006869E+02 0.  0.
         12    1    1    2    0    0  0.12630848686E+02 -0.27600270067E+02 -0.27052767837E+02  0.40659137890E+02  0.00000000000E+00 0. -1.
         11    1    3    3    0    0 -0.13886564315E+02  0.40282189477E+01  0.10879382683E+02  0.18094866239E+02  0.51100000000E-03 0. -1.
        -11    1    3    3    0    0 -0.35267412128E+01  0.40651290448E+00 -0.36927747777E+00  0.35692467609E+01  0.51100000000E-03 0.  1.
        -12    1    3    3    0    0  0.47824568421E+01  0.23165538215E+02  0.16542662632E+02  0.28864749110E+02  0.00000000000E+00 0.  1.
</event>
<event>
 7    1  0.4971907E-013  0.5052887E+02  0.7816164E-02  0.1300439E+00
        -11   -1    0    0    0    0  0.00000000000E+00  0.00000000000E+00  0.45593999997E+02  0.45594000000E+02  0.51100000000E-03 0. -1.
         11   -1    0    0    0    0 -0.00000000000E+00 -0.00000000000E+00 -0.45593999997E+02  0.45594000000E+02  0.51100000000E-03 0.  1.
    9900012    2    1    2    0    0  0.17577888066E+02 -0.27571347651E+02 -0.24166172508E+02  0.50528865062E+02  0.30000015844E+02 0.  0.
         12    1    1    2    0    0 -0.17577888066E+02  0.27571347651E+02  0.24166172508E+02  0.40659134938E+02  0.00000000000E+00 0. -1.
         11    1    3    3    0    0 -0.13555657593E+00 -0.63873515478E+00 -0.83207010783E+01  0.83462820992E+01  0.51100000000E-03 0. -1.
        -11    1    3    3    0    0  0.40515909366E+01 -0.18481758815E+02  0.94605778046E+00  0.18944282082E+02  0.51100000000E-03 0.  1.
         12    1    3    3    0    0  0.13661853706E+02 -0.84508536811E+01 -0.16791529211E+02  0.23238300881E+02  0.00000000000E+00 0. -1.
</event>
<event>
 7    1  0.4971907E-013  0.5052886E+02  0.7816164E-02  0.1300439E+00
        -11   -1    0    0    0    0  0.00000000000E+00  0.00000000000E+00  0.45593999997E+02  0.45594000000E+02  0.51100000000E-03 0. -1.
         11   -1    0    0    0    0 -0.00000000000E+00 -0.00000000000E+00 -0.45593999997E+02  0.45594000000E+02  0.51100000000E-03 0.  1.
    9900012    2    1    2    0    0  0.14377399878E+02  0.20832955058E+02 -0.31818922572E+02  0.50528862314E+02  0.30000007491E+02 0.  0.
         12    1    1    2    0    0 -0.14377399878E+02 -0.20832955058E+02  0.31818922572E+02  0.40659137686E+02  0.00000000000E+00 0. -1.
         11    1    3    3    0    0 -0.27825363527E+01  0.39854888521E+01 -0.12386913495E+01  0.50160728130E+01  0.51100000000E-03 0. -1.
        -11    1    3    3    0    0  0.44340053236E+01 -0.60173629603E+01 -0.56411617092E+01  0.93643881752E+01  0.51100000000E-03 0.  1.
        -12    1    3    3    0    0  0.12725930907E+02  0.22864829166E+02 -0.24939069513E+02  0.36148401326E+02  0.00000000000E+00 0.  1.
</event>
<event>
 7    1  0.4971907E-013  0.5052887E+02  0.7816164E-02  0.1300439E+00
        -11   -1    0    0    0    0  0.00000000000E+00  0.00000000000E+00  0.45593999997E+02  0.45594000000E+02  0.51100000000E-03 0. -1.
         11   -1    0    0    0    0 -0.00000000000E+00 -0.00000000000E+00 -0.45593999997E+02  0.45594000000E+02  0.51100000000E-03 0.  1.
    9900012    2    1    2    0    0 -0.31696774579E+02 -0.25301803629E+02 -0.28806193591E+01  0.50528871216E+02  0.30000034548E+02 0.  0.
         12    1    1    2    0    0  0.31696774579E+02  0.25301803629E+02  0.28806193591E+01  0.40659128784E+02  0.00000000000E+00 0. -1.
         11    1    3    3    0    0  0.31257431916E+00  0.26287552419E+01  0.34386218174E+01  0.43396056378E+01  0.51100000000E-03 0. -1.
        -11    1    3    3    0    0 -0.90075336352E+01 -0.38752373209E+01 -0.83010030767E+01  0.12847559255E+02  0.51100000000E-03 0.  1.
         12    1    3    3    0    0 -0.23001815263E+02 -0.24055321550E+02  0.19817619002E+01  0.33341706323E+02  0.00000000000E+00 0. -1.
</event>
<event>
 7    1  0.4971907E-013  0.5052885E+02  0.7816164E-02  0.1300439E+00
        -11   -1    0    0    0    0  0.00000000000E+00  0.00000000000E+00  0.45593999997E+02  0.45594000000E+02  0.51100000000E-03 0.  1.
         11   -1    0    0    0    0 -0.00000000000E+00 -0.00000000000E+00 -0.45593999997E+02  0.45594000000E+02  0.51100000000E-03 0. -1.
    9900012    2    1    2    0    0  0.24493144323E+02 -0.21613896027E+02  0.24209338221E+02  0.50528847557E+02  0.29999962634E+02 0.  0.
         12    1    1    2    0    0 -0.24493144323E+02  0.21613896027E+02 -0.24209338221E+02  0.40659152443E+02  0.00000000000E+00 0. -1.
         11    1    3    3    0    0  0.53710956916E+01  0.12375886885E+00  0.13539995875E+02  0.14566930828E+02  0.51100000000E-03 0. -1.
        -11    1    3    3    0    0  0.13258304796E+01 -0.13737144419E+02  0.87837574636E+01  0.16359136856E+02  0.51100000000E-03 0.  1.
         12    1    3    3    0    0  0.17796218152E+02 -0.80005104770E+01  0.18855848826E+01  0.19602779873E+02  0.00000000000E+00 0. -1.
</event>
<event>
 7    1  0.4971907E-013  0.5052885E+02  0.7816164E-02  0.1300439E+00
        -11   -1    0    0    0    0  0.00000000000E+00  0.00000000000E+00  0.45593999997E+02  0.45594000000E+02  0.51100000000E-03 0. -1.
         11   -1    0    0    0    0 -0.00000000000E+00 -0.00000000000E+00 -0.45593999997E+02  0.45594000000E+02  0.51100000000E-03 0.  1.
    9900012    2    1    2    0    0 -0.38013558776E+01 -0.36103019556E+02 -0.18310871767E+02  0.50528851553E+02  0.29999974780E+02 0.  0.
         12    1    1    2    0    0  0.38013558776E+01  0.36103019556E+02  0.18310871767E+02  0.40659148447E+02  0.00000000000E+00 0. -1.
         11    1    3    3    0    0 -0.19122986579E+01 -0.23422846895E+02 -0.25467202887E+01  0.23638367695E+02  0.51100000000E-03 0. -1.
        -11    1    3    3    0    0  0.62790630021E+01 -0.44411610762E+01 -0.48556310869E+00  0.77062517272E+01  0.51100000000E-03 0.  1.
        -12    1    3    3    0    0 -0.81681202217E+01 -0.82390115855E+01 -0.15278588369E+02  0.19184232130E+02  0.00000000000E+00 0.  1.
</event>
<event>
 7    1  0.4971907E-013  0.5052886E+02  0.7816164E-02  0.1300439E+00
        -11   -1    0    0    0    0  0.00000000000E+00  0.00000000000E+00  0.45593999997E+02  0.45594000000E+02  0.51100000000E-03 0.  1.
         11   -1    0    0    0    0 -0.00000000000E+00 -0.00000000000E+00 -0.45593999997E+02  0.45594000000E+02  0.51100000000E-03 0. -1.
    9900012    2    1    2    0    0  0.12773433269E+01 -0.36717386162E+02  0.17417449748E+02  0.50528860705E+02  0.30000002598E+02 0.  0.
         12    1    1    2    0    0 -0.12773433269E+01  0.36717386162E+02 -0.17417449748E+02  0.40659139295E+02  0.00000000000E+00 0. -1.
         11    1    3    3    0    0 -0.56684890317E+00 -0.83346947396E+01  0.38174117292E+01  0.91848291576E+01  0.51100000000E-03 0. -1.
        -11    1    3    3    0    0 -0.27035291860E+01 -0.29558680346E+02  0.18160601185E+02  0.34797012652E+02  0.51100000000E-03 0.  1.
         12    1    3    3    0    0  0.45477214161E+01  0.11759889236E+01 -0.45605631660E+01  0.65470188955E+01  0.00000000000E+00 0. -1.
</event>
<event>
 7    1  0.4971907E-013  0.5052886E+02  0.7816164E-02  0.1300439E+00
        -11   -1    0    0    0    0  0.00000000000E+00  0.00000000000E+00  0.45593999997E+02  0.45594000000E+02  0.51100000000E-03 0.  1.
         11   -1    0    0    0    0 -0.00000000000E+00 -0.00000000000E+00 -0.45593999997E+02  0.45594000000E+02  0.51100000000E-03 0. -1.
    9900012    2    1    2    0    0  0.18737399351E+02 -0.33665678364E+02  0.12988376099E+02  0.50528856529E+02  0.29999989905E+02 0.  0.
         12    1    1    2    0    0 -0.18737399351E+02  0.33665678364E+02 -0.12988376099E+02  0.40659143471E+02  0.00000000000E+00 0. -1.
         11    1    3    3    0    0 -0.56457207811E+00  0.19317506151E+01 -0.12979467372E+01  0.23948002137E+01  0.51100000000E-03 0. -1.
        -11    1    3    3    0    0  0.83571042890E+01 -0.29760980957E+02  0.24828031387E+01  0.31011634773E+02  0.51100000000E-03 0.  1.
         12    1    3    3    0    0  0.10944867140E+02 -0.58364480222E+01  0.11803519697E+02  0.17122421542E+02  0.00000000000E+00 0. -1.
</event>
<event>
 7    1  0.4971907E-013  0.5052887E+02  0.7816164E-02  0.1300439E+00
        -11   -1    0    0    0    0  0.00000000000E+00  0.00000000000E+00  0.45593999997E+02  0.45594000000E+02  0.51100000000E-03 0.  1.
         11   -1    0    0    0    0 -0.00000000000E+00 -0.00000000000E+00 -0.45593999997E+02  0.45594000000E+02  0.51100000000E-03 0. -1.
    9900012    2    1    2    0    0  0.23628246626E+02 -0.95048034672E+01  0.31694320139E+02  0.50528865029E+02  0.30000015741E+02 0.  0.
         12    1    1    2    0    0 -0.23628246626E+02  0.95048034672E+01 -0.31694320139E+02  0.40659134971E+02  0.00000000000E+00 0. -1.
         11    1    3    3    0    0 -0.66429389594E+00 -0.70592769624E+01  0.87613766252E+01  0.11271042465E+02  0.51100000000E-03 0. -1.
        -11    1    3    3    0    0  0.16738449726E+02 -0.10653309234E+02  0.18883080141E+02  0.27390498585E+02  0.51100000000E-03 0.  1.
         12    1    3    3    0    0  0.75540907961E+01  0.82077827292E+01  0.40498633724E+01  0.11867323979E+02  0.00000000000E+00 0. -1.
</event>
<event>
 7    1  0.5254505E-013  0.5052887E+02  0.7816164E-02  0.1300439E+00
        -11   -1    0    0    0    0  0.00000000000E+00  0.00000000000E+00  0.45593999997E+02  0.45594000000E+02  0.51100000000E-03 0. -1.
         11   -1    0    0    0    0 -0.00000000000E+00 -0.00000000000E+00 -0.45593999997E+02  0.45594000000E+02  0.51100000000E-03 0.  1.
    9900012    2    1    2    0    0  0.19071302557E+02  0.66738982113E+01 -0.35283275452E+02  0.50528867875E+02  0.30000024392E+02 0.  0.
         12    1    1    2    0    0 -0.19071302557E+02 -0.66738982113E+01  0.35283275452E+02  0.40659132125E+02  0.00000000000E+00 0. -1.
         11    1    3    3    0    0  0.31101198385E+00 -0.75420557351E+01 -0.53995425979E+01  0.92808616891E+01  0.51100000000E-03 0. -1.
        -11    1    3    3    0    0  0.78070622440E+01  0.17907923696E+01 -0.20949183331E+02  0.22428228657E+02  0.51100000000E-03 0.  1.
         12    1    3    3    0    0  0.10953228329E+02  0.12425161577E+02 -0.89345495232E+01  0.18819777528E+02  0.00000000000E+00 0. -1.
</event>
<event>
 7    1  0.4971907E-013  0.5052886E+02  0.7816164E-02  0.1300439E+00
        -11   -1    0    0    0    0  0.00000000000E+00  0.00000000000E+00  0.45593999997E+02  0.45594000000E+02  0.51100000000E-03 0. -1.
         11   -1    0    0    0    0 -0.00000000000E+00 -0.00000000000E+00 -0.45593999997E+02  0.45594000000E+02  0.51100000000E-03 0.  1.
    9900012    2    1    2    0    0 -0.35144184734E+02 -0.65693702230E+01 -0.19362220644E+02  0.50528856699E+02  0.29999990422E+02 0.  0.
         12    1    1    2    0    0  0.35144184734E+02  0.65693702230E+01  0.19362220644E+02  0.40659143301E+02  0.00000000000E+00 0. -1.
         11    1    3    3    0    0  0.15433175863E+01  0.10901686644E+01  0.19462489856E+01  0.27125969594E+01  0.51100000000E-03 0. -1.
        -11    1    3    3    0    0 -0.17277413260E+02 -0.13710264542E+02 -0.14410689828E+02  0.26346695132E+02  0.51100000000E-03 0.  1.
        -12    1    3    3    0    0 -0.19410089060E+02  0.60507256547E+01 -0.68977798016E+01  0.21469564608E+02  0.00000000000E+00 0.  1.
</event>
<event>
 7    1  0.4971907E-013  0.5052886E+02  0.7816164E-02  0.1300439E+00
        -11   -1    0    0    0    0  0.00000000000E+00  0.00000000000E+00  0.45593999997E+02  0.45594000000E+02  0.51100000000E-03 0. -1.
         11   -1    0    0    0    0 -0.00000000000E+00 -0.00000000000E+00 -0.45593999997E+02  0.45594000000E+02  0.51100000000E-03 0.  1.
    9900012    2    1    2    0    0  0.35264492649E+02 -0.19169581001E+02 -0.64891069945E+01  0.50528858504E+02  0.29999995910E+02 0.  0.
         12    1    1    2    0    0 -0.35264492649E+02  0.19169581001E+02  0.64891069945E+01  0.40659141496E+02  0.00000000000E+00 0. -1.
         11    1    3    3    0    0  0.62082011172E+01 -0.44441935031E+01  0.81612313081E+01  0.11175791414E+02  0.51100000000E-03 0. -1.
        -11    1    3    3    0    0  0.13939223671E+02 -0.10635643607E+02  0.53175414742E+00  0.17541426231E+02  0.51100000000E-03 0.  1.
         12    1    3    3    0    0  0.15117067861E+02 -0.40897438910E+01 -0.15182092450E+02  0.21811640859E+02  0.00000000000E+00 0. -1.
</event>
<event>
 7    1  0.4971907E-013  0.5052886E+02  0.7816164E-02  0.1300439E+00
        -11   -1    0    0    0    0  0.00000000000E+00  0.00000000000E+00  0.45593999997E+02  0.45594000000E+02  0.51100000000E-03 0.  1.
         11   -1    0    0    0    0 -0.00000000000E+00 -0.00000000000E+00 -0.45593999997E+02  0.45594000000E+02  0.51100000000E-03 0. -1.
    9900012    2    1    2    0    0 -0.34347029986E+02  0.21713350269E+02 -0.14064110330E+01  0.50528855386E+02  0.29999986430E+02 0.  0.
         12    1    1    2    0    0  0.34347029986E+02 -0.21713350269E+02  0.14064110330E+01  0.40659144614E+02  0.00000000000E+00 0. -1.
         11    1    3    3    0    0 -0.11741695852E+02  0.68873340639E+00 -0.64100261711E+01  0.13395156250E+02  0.51100000000E-03 0. -1.
        -11    1    3    3    0    0 -0.17754412338E+02  0.17825774941E+02 -0.49185239878E+01  0.25635313304E+02  0.51100000000E-03 0.  1.
         12    1    3    3    0    0 -0.48509217968E+01  0.31988419217E+01  0.99221391259E+01  0.11498385832E+02  0.00000000000E+00 0. -1.
</event>
<event>
 7    1  0.4971907E-013  0.5052885E+02  0.7816164E-02  0.1300439E+00
        -11   -1    0    0    0    0  0.00000000000E+00  0.00000000000E+00  0.45593999997E+02  0.45594000000E+02  0.51100000000E-03 0.  1.
         11   -1    0    0    0    0 -0.00000000000E+00 -0.00000000000E+00 -0.45593999997E+02  0.45594000000E+02  0.51100000000E-03 0. -1.
    9900012    2    1    2    0    0 -0.12156619389E+02  0.10906774412E+02  0.37234728994E+02  0.50528853842E+02  0.29999981739E+02 0.  0.
         12    1    1    2    0    0  0.12156619389E+02 -0.10906774412E+02 -0.37234728994E+02  0.40659146158E+02  0.00000000000E+00 0. -1.
         11    1    3    3    0    0 -0.12816872766E+02  0.45693909797E+01  0.10213219043E+02  0.17013565320E+02  0.51100000000E-03 0.  1.
        -11    1    3    3    0    0  0.25226502070E+00  0.11352686392E+02  0.81317979644E+01  0.13966863082E+02  0.51100000000E-03 0. -1.
        -12    1    3    3    0    0  0.40798835633E+00 -0.50153029594E+01  0.18889711986E+02  0.19548425441E+02  0.00000000000E+00 0.  1.
</event>
<event>
 7    1  0.4971907E-013  0.5052885E+02  0.7816164E-02  0.1300439E+00
        -11   -1    0    0    0    0  0.00000000000E+00  0.00000000000E+00  0.45593999997E+02  0.45594000000E+02  0.51100000000E-03 0.  1.
         11   -1    0    0    0    0 -0.00000000000E+00 -0.00000000000E+00 -0.45593999997E+02  0.45594000000E+02  0.51100000000E-03 0. -1.
    9900012    2    1    2    0    0  0.37762096136E+02 -0.30470190595E+01  0.14761644026E+02  0.50528851410E+02  0.29999974346E+02 0.  0.
         12    1    1    2    0    0 -0.37762096136E+02  0.30470190595E+01 -0.14761644026E+02  0.40659148590E+02  0.00000000000E+00 0. -1.
         11    1    3    3    0    0  0.10722289626E+02  0.10927659578E+02  0.51401493425E+01  0.16149376898E+02  0.51100000000E-03 0. -1.
        -11    1    3    3    0    0  0.16058825862E+02 -0.19519436665E+01  0.79090586376E+01  0.18006920363E+02  0.51100000000E-03 0.  1.
         12    1    3    3    0    0  0.10980980647E+02 -0.12022734971E+02  0.17124360455E+01  0.16372554149E+02  0.00000000000E+00 0. -1.
</event>
<event>
 7    1  0.4971907E-013  0.5052886E+02  0.7816164E-02  0.1300439E+00
        -11   -1    0    0    0    0  0.00000000000E+00  0.00000000000E+00  0.45593999997E+02  0.45594000000E+02  0.51100000000E-03 0. -1.
         11   -1    0    0    0    0 -0.00000000000E+00 -0.00000000000E+00 -0.45593999997E+02  0.45594000000E+02  0.51100000000E-03 0.  1.
    9900012    2    1    2    0    0  0.28040193143E+01  0.63578332151E+01 -0.40060969202E+02  0.50528858090E+02  0.29999994649E+02 0.  0.
         12    1    1    2    0    0 -0.28040193143E+01 -0.63578332151E+01  0.40060969202E+02  0.40659141910E+02  0.00000000000E+00 0. -1.
         11    1    3    3    0    0  0.12390715256E+02 -0.14424061573E+01 -0.14211037307E+02  0.18909361218E+02  0.51100000000E-03 0. -1.
        -11    1    3    3    0    0 -0.10614389657E+01 -0.34122545786E+01 -0.88383155753E+01  0.95334126343E+01  0.51100000000E-03 0.  1.
         12    1    3    3    0    0 -0.85252569763E+01  0.11212493951E+02 -0.17011616320E+02  0.22086084237E+02  0.00000000000E+00 0. -1.
</event>
<event>
 7    1  0.4971907E-013  0.5052884E+02  0.7816164E-02  0.1300439E+00
        -11   -1    0    0    0    0  0.00000000000E+00  0.00000000000E+00  0.45593999997E+02  0.45594000000E+02  0.51100000000E-03 0.  1.
         11   -1    0    0    0    0 -0.00000000000E+00 -0.00000000000E+00 -0.45593999997E+02  0.45594000000E+02  0.51100000000E-03 0. -1.
    9900012    2    1    2    0    0 -0.14524219797E+02  0.32379616428E+02  0.19843750146E+02  0.50528844320E+02  0.29999952796E+02 0.  0.
         12    1    1    2    0    0  0.14524219797E+02 -0.32379616428E+02 -0.19843750146E+02  0.40659155680E+02  0.00000000000E+00 0. -1.
         11    1    3    3    0    0 -0.62898279150E+01  0.70872270496E+01  0.14095167026E+02  0.16984241408E+02  0.51100000000E-03 0. -1.
        -11    1    3    3    0    0 -0.10760455084E+02  0.93221419602E+01  0.92803970320E+01  0.16994572477E+02  0.51100000000E-03 0.  1.
         12    1    3    3    0    0  0.25260632015E+01  0.15970247418E+02 -0.35318139122E+01  0.16550030435E+02  0.00000000000E+00 0. -1.
</event>
<event>
 7    1  0.4971907E-013  0.5052886E+02  0.7816164E-02  0.1300439E+00
        -11   -1    0    0    0    0  0.00000000000E+00  0.00000000000E+00  0.45593999997E+02  0.45594000000E+02  0.51100000000E-03 0.  1.
         11   -1    0    0    0    0 -0.00000000000E+00 -0.00000000000E+00 -0.45593999997E+02  0.45594000000E+02  0.51100000000E-03 0. -1.
    9900012    2    1    2    0    0  0.25272523077E+02  0.25175023845E+02  0.19511114874E+02  0.50528857708E+02  0.29999993489E+02 0.  0.
         12    1    1    2    0    0 -0.25272523077E+02 -0.25175023845E+02 -0.19511114874E+02  0.40659142292E+02  0.00000000000E+00 0. -1.
         11    1    3    3    0    0  0.96401745754E+01  0.13772226678E+02 -0.34121818493E+01  0.17153722009E+02  0.51100000000E-03 0. -1.
        -11    1    3    3    0    0  0.16844958662E+02  0.52860868836E+01  0.14225069872E+02  0.22672625785E+02  0.51100000000E-03 0.  1.
         12    1    3    3    0    0 -0.12126101603E+01  0.61167102834E+01  0.86982268517E+01  0.10702509914E+02  0.00000000000E+00 0. -1.
</event>
<event>
 7    1  0.4971907E-013  0.5052890E+02  0.7816164E-02  0.1300439E+00
        -11   -1    0    0    0    0  0.00000000000E+00  0.00000000000E+00  0.45593999997E+02  0.45594000000E+02  0.51100000000E-03 0. -1.
         11   -1    0    0    0    0 -0.00000000000E+00 -0.00000000000E+00 -0.45593999997E+02  0.45594000000E+02  0.51100000000E-03 0.  1.
    9900012    2    1    2    0    0  0.37326888339E+02 -0.13531136686E+02 -0.87620809952E+01  0.50528901185E+02  0.30000125641E+02 0.  0.
         12    1    1    2    0    0 -0.37326888339E+02  0.13531136686E+02  0.87620809952E+01  0.40659098815E+02  0.00000000000E+00 0. -1.
         11    1    3    3    0    0  0.39684122694E+01  0.53900611551E+01 -0.72776567336E+01  0.98876358645E+01  0.51100000000E-03 0. -1.
        -11    1    3    3    0    0  0.13131906564E+02 -0.16167522775E+01 -0.42066287057E+01  0.13883680465E+02  0.51100000000E-03 0.  1.
        -12    1    3    3    0    0  0.20226569506E+02 -0.17304445563E+02  0.27222044442E+01  0.26757584855E+02  0.00000000000E+00 0.  1.
</event>
<event>
 7    1  0.4971907E-013  0.5052887E+02  0.7816164E-02  0.1300439E+00
        -11   -1    0    0    0    0  0.00000000000E+00  0.00000000000E+00  0.45593999997E+02  0.45594000000E+02  0.51100000000E-03 0.  1.
         11   -1    0    0    0    0 -0.00000000000E+00 -0.00000000000E+00 -0.45593999997E+02  0.45594000000E+02  0.51100000000E-03 0. -1.
    9900012    2    1    2    0    0  0.34762380209E+02 -0.37660421119E+01  0.20749915220E+02  0.50528866553E+02  0.30000020376E+02 0.  0.
         12    1    1    2    0    0 -0.34762380209E+02  0.37660421119E+01 -0.20749915220E+02  0.40659133447E+02  0.00000000000E+00 0. -1.
         11    1    3    3    0    0  0.20665868693E+02  0.10893301971E+02  0.58183229610E+01  0.24074780145E+02  0.51100000000E-03 0. -1.
        -11    1    3    3    0    0  0.10730233433E+02 -0.54778635959E+01  0.78325601782E+01  0.14369895557E+02  0.51100000000E-03 0.  1.
        -12    1    3    3    0    0  0.33662780829E+01 -0.91814804870E+01  0.70990320807E+01  0.12084190852E+02  0.00000000000E+00 0.  1.
</event>
<event>
 7    1  0.4971907E-013  0.5052886E+02  0.7816164E-02  0.1300439E+00
        -11   -1    0    0    0    0  0.00000000000E+00  0.00000000000E+00  0.45593999997E+02  0.45594000000E+02  0.51100000000E-03 0.  1.
         11   -1    0    0    0    0 -0.00000000000E+00 -0.00000000000E+00 -0.45593999997E+02  0.45594000000E+02  0.51100000000E-03 0. -1.
    9900012    2    1    2    0    0  0.34416097615E+02 -0.21398955936E+01  0.21543411549E+02  0.50528861921E+02  0.30000006295E+02 0.  0.
         12    1    1    2    0    0 -0.34416097615E+02  0.21398955936E+01 -0.21543411549E+02  0.40659138079E+02  0.00000000000E+00 0. -1.
         11    1    3    3    0    0  0.13675974730E+01 -0.53152428682E+01 -0.53110381859E+01  0.76373592601E+01  0.51100000000E-03 0. -1.
        -11    1    3    3    0    0  0.52699948626E+01  0.73413139946E+00  0.25480072411E+01  0.58995030236E+01  0.51100000000E-03 0.  1.
         12    1    3    3    0    0  0.27778505279E+02  0.24412158751E+01  0.24306442493E+02  0.36991999637E+02  0.00000000000E+00 0. -1.
</event>
<event>
 7    1  0.5503578E-013  0.5052885E+02  0.7816164E-02  0.1300439E+00
        -11   -1    0    0    0    0  0.00000000000E+00  0.00000000000E+00  0.45593999997E+02  0.45594000000E+02  0.51100000000E-03 0.  1.
         11   -1    0    0    0    0 -0.00000000000E+00 -0.00000000000E+00 -0.45593999997E+02  0.45594000000E+02  0.51100000000E-03 0. -1.
    9900012    2    1    2    0    0 -0.73110530386E+01 -0.39405260156E+02  0.68513219121E+01  0.50528848061E+02  0.29999964166E+02 0.  0.
         12    1    1    2    0    0  0.73110530386E+01  0.39405260156E+02 -0.68513219121E+01  0.40659151939E+02  0.00000000000E+00 0. -1.
         11    1    3    3    0    0  0.43665389458E+01 -0.17027617430E+01  0.42516138415E+01  0.63278969996E+01  0.51100000000E-03 0. -1.
        -11    1    3    3    0    0 -0.83120622464E+01 -0.23898183639E+01  0.30698260771E+00  0.86542387986E+01  0.51100000000E-03 0.  1.
        -12    1    3    3    0    0 -0.33655297379E+01 -0.35312680049E+02  0.22927254630E+01  0.35546712263E+02  0.00000000000E+00 0.  1.
</event>
<event>
 7    1  0.4971907E-013  0.5052877E+02  0.7816164E-02  0.1300439E+00
        -11   -1    0    0    0    0  0.00000000000E+00  0.00000000000E+00  0.45593999997E+02  0.45594000000E+02  0.51100000000E-03 0. -1.
         11   -1    0    0    0    0 -0.00000000000E+00 -0.00000000000E+00 -0.45593999997E+02  0.45594000000E+02  0.51100000000E-03 0.  1.
    9900012    2    1    2    0    0  0.30890801533E+02  0.24158964887E+02 -0.10736673946E+02  0.50528765242E+02  0.29999712427E+02 0.  0.
         12    1    1    2    0    0 -0.30890801533E+02 -0.24158964887E+02  0.10736673946E+02  0.40659234758E+02  0.00000000000E+00 0. -1.
         11    1    3    3    0    0  0.14776901594E+02  0.15502988695E+02 -0.96754935853E+01  0.23501375610E+02  0.51100000000E-03 0. -1.
        -11    1    3    3    0    0  0.12211635058E+02  0.14470229354E+02  0.26225813780E+01  0.19115164182E+02  0.51100000000E-03 0.  1.
        -12    1    3    3    0    0  0.39022648807E+01 -0.58142531617E+01 -0.36837617384E+01  0.79122254501E+01  0.00000000000E+00 0.  1.
</event>
<event>
 7    1  0.4971907E-013  0.5052884E+02  0.7816164E-02  0.1300439E+00
        -11   -1    0    0    0    0  0.00000000000E+00  0.00000000000E+00  0.45593999997E+02  0.45594000000E+02  0.51100000000E-03 0.  1.
         11   -1    0    0    0    0 -0.00000000000E+00 -0.00000000000E+00 -0.45593999997E+02  0.45594000000E+02  0.51100000000E-03 0. -1.
    9900012    2    1    2    0    0  0.17542422009E+02  0.12775296257E+02  0.34383468683E+02  0.50528835190E+02  0.29999925043E+02 0.  0.
         12    1    1    2    0    0 -0.17542422009E+02 -0.12775296257E+02 -0.34383468683E+02  0.40659164810E+02  0.00000000000E+00 0. -1.
         11    1    3    3    0    0 -0.20052816229E+01  0.10766654883E+02  0.57714385011E+01  0.12379479569E+02  0.51100000000E-03 0. -1.
        -11    1    3    3    0    0  0.28612467940E+01 -0.12470251320E+01 -0.15810769584E+01  0.34988011527E+01  0.51100000000E-03 0.  1.
         12    1    3    3    0    0  0.16686456838E+02  0.32556665059E+01  0.30193107140E+02  0.34650554468E+02  0.00000000000E+00 0. -1.
</event>
<event>
 7    1  0.4971907E-013  0.5052885E+02  0.7816164E-02  0.1300439E+00
        -11   -1    0    0    0    0  0.00000000000E+00  0.00000000000E+00  0.45593999997E+02  0.45594000000E+02  0.51100000000E-03 0.  1.
         11   -1    0    0    0    0 -0.00000000000E+00 -0.00000000000E+00 -0.45593999997E+02  0.45594000000E+02  0.51100000000E-03 0. -1.
    9900012    2    1    2    0    0  0.76677637806E+01  0.39583843601E+02  0.52431733741E+01  0.50528854133E+02  0.29999982622E+02 0.  0.
         12    1    1    2    0    0 -0.76677637806E+01 -0.39583843601E+02 -0.52431733741E+01  0.40659145867E+02  0.00000000000E+00 0. -1.
         11    1    3    3    0    0  0.78872640393E+01  0.30946574544E+02  0.15250604441E+01  0.31972257031E+02  0.51100000000E-03 0.  1.
        -11    1    3    3    0    0  0.42351740239E+01  0.59473836016E+01  0.86964200342E+01  0.11354989757E+02  0.51100000000E-03 0. -1.
        -12    1    3    3    0    0 -0.44546742826E+01  0.26898854557E+01 -0.49783071041E+01  0.72016073450E+01  0.00000000000E+00 0.  1.
</event>
<event>
 7    1  0.4971907E-013  0.5052886E+02  0.7816164E-02  0.1300439E+00
        -11   -1    0    0    0    0  0.00000000000E+00  0.00000000000E+00  0.45593999997E+02  0.45594000000E+02  0.51100000000E-03 0.  1.
         11   -1    0    0    0    0 -0.00000000000E+00 -0.00000000000E+00 -0.45593999997E+02  0.45594000000E+02  0.51100000000E-03 0. -1.
    9900012    2    1    2    0    0  0.37399415624E+02  0.14954566747E+02 -0.55506876471E+01  0.50528862171E+02  0.30000007056E+02 0.  0.
         12    1    1    2    0    0 -0.37399415624E+02 -0.14954566747E+02  0.55506876471E+01  0.40659137829E+02  0.00000000000E+00 0. -1.
         11    1    3    3    0    0 -0.35683267134E+00  0.49260813245E+01 -0.39290757787E+01  0.63111998469E+01  0.51100000000E-03 0. -1.
        -11    1    3    3    0    0  0.15474970975E+02  0.14780308917E+02 -0.41459152925E+00  0.21403367603E+02  0.51100000000E-03 0.  1.
         12    1    3    3    0    0  0.22281277320E+02 -0.47518234940E+01 -0.12070203392E+01  0.22814294721E+02  0.00000000000E+00 0. -1.
</event>
<event>
 7    1  0.4971907E-013  0.5052885E+02  0.7816164E-02  0.1300439E+00
        -11   -1    0    0    0    0  0.00000000000E+00  0.00000000000E+00  0.45593999997E+02  0.45594000000E+02  0.51100000000E-03 0.  1.
         11   -1    0    0    0    0 -0.00000000000E+00 -0.00000000000E+00 -0.45593999997E+02  0.45594000000E+02  0.51100000000E-03 0. -1.
    9900012    2    1    2    0    0  0.84946083421E+01  0.27261939361E+02  0.28944679143E+02  0.50528853928E+02  0.29999982000E+02 0.  0.
         12    1    1    2    0    0 -0.84946083421E+01 -0.27261939361E+02 -0.28944679143E+02  0.40659146072E+02  0.00000000000E+00 0. -1.
         11    1    3    3    0    0  0.57379678736E+01  0.81924321371E+01  0.32426456341E+00  0.10007265731E+02  0.51100000000E-03 0. -1.
        -11    1    3    3    0    0 -0.68288913416E+01  0.13993927472E+02  0.86926763885E+01  0.17833294314E+02  0.51100000000E-03 0.  1.
        -12    1    3    3    0    0  0.95855318101E+01  0.50755797515E+01  0.19927738191E+02  0.22688293883E+02  0.00000000000E+00 0.  1.
</event>
<event>
 7    1  0.4971907E-013  0.5052885E+02  0.7816164E-02  0.1300439E+00
        -11   -1    0    0    0    0  0.00000000000E+00  0.00000000000E+00  0.45593999997E+02  0.45594000000E+02  0.51100000000E-03 0. -1.
         11   -1    0    0    0    0 -0.00000000000E+00 -0.00000000000E+00 -0.45593999997E+02  0.45594000000E+02  0.51100000000E-03 0.  1.
    9900012    2    1    2    0    0 -0.33513308983E+02 -0.51033379686E+01 -0.22449512260E+02  0.50528849270E+02  0.29999967840E+02 0.  0.
         12    1    1    2    0    0  0.33513308983E+02  0.51033379686E+01  0.22449512260E+02  0.40659150730E+02  0.00000000000E+00 0. -1.
         11    1    3    3    0    0 -0.36217326402E+01 -0.10199663423E+02 -0.23455467503E+01  0.11074821492E+02  0.51100000000E-03 0. -1.
        -11    1    3    3    0    0 -0.80191153691E+01 -0.53997955734E+01 -0.51289176229E+01  0.10943938952E+02  0.51100000000E-03 0.  1.
        -12    1    3    3    0    0 -0.21872460973E+02  0.10496121028E+02 -0.14975047887E+02  0.28510088826E+02  0.00000000000E+00 0.  1.
</event>
<event>
 7    1  0.4971907E-013  0.5052886E+02  0.7816164E-02  0.1300439E+00
        -11   -1    0    0    0    0  0.00000000000E+00  0.00000000000E+00  0.45593999997E+02  0.45594000000E+02  0.51100000000E-03 0.  1.
         11   -1    0    0    0    0 -0.00000000000E+00 -0.00000000000E+00 -0.45593999997E+02  0.45594000000E+02  0.51100000000E-03 0. -1.
    9900012    2    1    2    0    0  0.13418221160E+01 -0.37817730907E+02 -0.14872269856E+02  0.50528859967E+02  0.30000000355E+02 0.  0.
         12    1    1    2    0    0 -0.13418221160E+01  0.37817730907E+02  0.14872269856E+02  0.40659140033E+02  0.00000000000E+00 0. -1.
         11    1    3    3    0    0  0.30921546215E+00 -0.10736216320E+01 -0.51751408479E+01  0.52943706583E+01  0.51100000000E-03 0. -1.
        -11    1    3    3    0    0  0.86351983994E+01 -0.24520682072E+01 -0.30917385770E+01  0.94941106787E+01  0.51100000000E-03 0.  1.
        -12    1    3    3    0    0 -0.76025917456E+01 -0.34292041068E+02 -0.66053904313E+01  0.35740378630E+02  0.00000000000E+00 0.  1.
</event>
<event>
 7    1  0.4971907E-013  0.5052886E+02  0.7816164E-02  0.1300439E+00
        -11   -1    0    0    0    0  0.00000000000E+00  0.00000000000E+00  0.45593999997E+02  0.45594000000E+02  0.51100000000E-03 0.  1.
         11   -1    0    0    0    0 -0.00000000000E+00 -0.00000000000E+00 -0.45593999997E+02  0.45594000000E+02  0.51100000000E-03 0. -1.
    9900012    2    1    2    0    0 -0.23766213542E+02 -0.21418230677E+02  0.25091674574E+02  0.50528860260E+02  0.30000001247E+02 0.  0.
         12    1    1    2    0    0  0.23766213542E+02  0.21418230677E+02 -0.25091674574E+02  0.40659139740E+02  0.00000000000E+00 0. -1.
         11    1    3    3    0    0 -0.31833123510E+00 -0.92081793625E+01  0.69782609595E+01  0.11558028734E+02  0.51100000000E-03 0. -1.
        -11    1    3    3    0    0  0.28967649786E+01 -0.66285861800E+01  0.61861057504E+01  0.95182617480E+01  0.51100000000E-03 0.  1.
         12    1    3    3    0    0 -0.26344647285E+02 -0.55814651349E+01  0.11927307864E+02  0.29452569778E+02  0.00000000000E+00 0. -1.
</event>
<event>
 7    1  0.4971907E-013  0.5052887E+02  0.7816164E-02  0.1300439E+00
        -11   -1    0    0    0    0  0.00000000000E+00  0.00000000000E+00  0.45593999997E+02  0.45594000000E+02  0.51100000000E-03 0.  1.
         11   -1    0    0    0    0 -0.00000000000E+00 -0.00000000000E+00 -0.45593999997E+02  0.45594000000E+02  0.51100000000E-03 0. -1.
    9900012    2    1    2    0    0  0.14209263650E+02 -0.27658822051E+01  0.37994893577E+02  0.50528865530E+02  0.30000017266E+02 0.  0.
         12    1    1    2    0    0 -0.14209263650E+02  0.27658822051E+01 -0.37994893577E+02  0.40659134470E+02  0.00000000000E+00 0. -1.
         11    1    3    3    0    0 -0.60987034956E+01  0.34533362817E+01  0.22069725131E+01  0.73478189782E+01  0.51100000000E-03 0. -1.
        -11    1    3    3    0    0  0.19873656592E+01 -0.52745877283E+01  0.63095418105E+01  0.84605683075E+01  0.51100000000E-03 0.  1.
        -12    1    3    3    0    0  0.18320601487E+02 -0.94463075851E+00  0.29478379254E+02  0.34720478245E+02  0.00000000000E+00 0.  1.
</event>
<event>
 7    1  0.4971907E-013  0.5052883E+02  0.7816164E-02  0.1300439E+00
        -11   -1    0    0    0    0  0.00000000000E+00  0.00000000000E+00  0.45593999997E+02  0.45594000000E+02  0.51100000000E-03 0. -1.
         11   -1    0    0    0    0 -0.00000000000E+00 -0.00000000000E+00 -0.45593999997E+02  0.45594000000E+02  0.51100000000E-03 0.  1.
    9900012    2    1    2    0    0 -0.22367171936E+02 -0.24623588168E+02 -0.23378552506E+02  0.50528828932E+02  0.29999906021E+02 0.  0.
         12    1    1    2    0    0  0.22367171936E+02  0.24623588168E+02  0.23378552506E+02  0.40659171068E+02  0.00000000000E+00 0. -1.
         11    1    3    3    0    0  0.42261720084E+01 -0.15068855760E+01 -0.82201088775E+01  0.93649038544E+01  0.51100000000E-03 0. -1.
        -11    1    3    3    0    0 -0.10152928203E+01 -0.60839723030E+01  0.13002194767E+01  0.63036584174E+01  0.51100000000E-03 0.  1.
        -12    1    3    3    0    0 -0.25578051124E+02 -0.17032730289E+02 -0.16458663105E+02  0.34860266660E+02  0.00000000000E+00 0.  1.
</event>
<event>
 7    1  0.4971907E-013  0.5052887E+02  0.7816164E-02  0.1300439E+00
        -11   -1    0    0    0    0  0.00000000000E+00  0.00000000000E+00  0.45593999997E+02  0.45594000000E+02  0.51100000000E-03 0.  1.
         11   -1    0    0    0    0 -0.00000000000E+00 -0.00000000000E+00 -0.45593999997E+02  0.45594000000E+02  0.51100000000E-03 0. -1.
    9900012    2    1    2    0    0  0.38542222638E+02 -0.85588502911E+01  0.97163677676E+01  0.50528872528E+02  0.30000038537E+02 0.  0.
         12    1    1    2    0    0 -0.38542222638E+02  0.85588502911E+01 -0.97163677676E+01  0.40659127472E+02  0.00000000000E+00 0. -1.
         11    1    3    3    0    0  0.29079683138E+02 -0.22381090886E+01  0.74072927430E+01  0.30091611618E+02  0.51100000000E-03 0.  1.
        -11    1    3    3    0    0  0.78451091551E+01 -0.79137150114E+01  0.83885389984E+01  0.13947767195E+02  0.51100000000E-03 0. -1.
        -12    1    3    3    0    0  0.16174303442E+01  0.15929738090E+01 -0.60794639738E+01  0.64894937155E+01  0.00000000000E+00 0.  1.
</event>
<event>
 7    1  0.4971907E-013  0.5052887E+02  0.7816164E-02  0.1300439E+00
        -11   -1    0    0    0    0  0.00000000000E+00  0.00000000000E+00  0.45593999997E+02  0.45594000000E+02  0.51100000000E-03 0. -1.
         11   -1    0    0    0    0 -0.00000000000E+00 -0.00000000000E+00 -0.45593999997E+02  0.45594000000E+02  0.51100000000E-03 0.  1.
    9900012    2    1    2    0    0 -0.30608330433E+02 -0.26611263007E+02  0.28523513833E+01  0.50528866719E+02  0.30000020880E+02 0.  0.
         12    1    1    2    0    0  0.30608330433E+02  0.26611263007E+02 -0.28523513833E+01  0.40659133281E+02  0.00000000000E+00 0. -1.
         11    1    3    3    0    0 -0.78892254504E+01 -0.99848908078E+01  0.64832404415E+01  0.14281818145E+02  0.51100000000E-03 0. -1.
        -11    1    3    3    0    0 -0.25780974769E+02 -0.18569423722E+02 -0.53737933926E+01  0.32223590941E+02  0.51100000000E-03 0.  1.
         12    1    3    3    0    0  0.30618697867E+01  0.19430515228E+01  0.17429043343E+01  0.40234576336E+01  0.00000000000E+00 0. -1.
</event>
<event>
 7    1  0.4971907E-013  0.5052886E+02  0.7816164E-02  0.1300439E+00
        -11   -1    0    0    0    0  0.00000000000E+00  0.00000000000E+00  0.45593999997E+02  0.45594000000E+02  0.51100000000E-03 0.  1.
         11   -1    0    0    0    0 -0.00000000000E+00 -0.00000000000E+00 -0.45593999997E+02  0.45594000000E+02  0.51100000000E-03 0. -1.
    9900012    2    1    2    0    0  0.97714982025E+01 -0.29538183468E+02  0.26175923159E+02  0.50528863106E+02  0.30000009898E+02 0.  0.
         12    1    1    2    0    0 -0.97714982025E+01  0.29538183468E+02 -0.26175923159E+02  0.40659136894E+02  0.00000000000E+00 0. -1.
         11    1    3    3    0    0 -0.36604435528E+01 -0.58682808257E+01  0.10228129692E+02  0.12347072694E+02  0.51100000000E-03 0. -1.
        -11    1    3    3    0    0  0.10332944579E+02 -0.19616566266E+01  0.11902307966E+02  0.15883411962E+02  0.51100000000E-03 0.  1.
        -12    1    3    3    0    0  0.30989971758E+01 -0.21708246015E+02  0.40454855021E+01  0.22298378450E+02  0.00000000000E+00 0.  1.
</event>
<event>
 7    1  0.4971907E-013  0.5052886E+02  0.7816164E-02  0.1300439E+00
        -11   -1    0    0    0    0  0.00000000000E+00  0.00000000000E+00  0.45593999997E+02  0.45594000000E+02  0.51100000000E-03 0. -1.
         11   -1    0    0    0    0 -0.00000000000E+00 -0.00000000000E+00 -0.45593999997E+02  0.45594000000E+02  0.51100000000E-03 0.  1.
    9900012    2    1    2    0    0 -0.11157060031E+02 -0.18580907538E+02 -0.34401094421E+02  0.50528863132E+02  0.30000009976E+02 0.  0.
         12    1    1    2    0    0  0.11157060031E+02  0.18580907538E+02  0.34401094421E+02  0.40659136868E+02  0.00000000000E+00 0. -1.
         11    1    3    3    0    0 -0.44442241166E+01 -0.10915613879E+01  0.22190913144E+01  0.50859611466E+01  0.51100000000E-03 0. -1.
        -11    1    3    3    0    0 -0.61586088043E+01 -0.58195743453E+01 -0.31618804907E+02  0.32734457869E+02  0.51100000000E-03 0.  1.
         12    1    3    3    0    0 -0.55422710997E+00 -0.11669771805E+02 -0.50013808287E+01  0.12708444117E+02  0.00000000000E+00 0. -1.
</event>
<event>
 7    1  0.4971907E-013  0.5052886E+02  0.7816164E-02  0.1300439E+00
        -11   -1    0    0    0    0  0.00000000000E+00  0.00000000000E+00  0.45593999997E+02  0.45594000000E+02  0.51100000000E-03 0.  1.
         11   -1    0    0    0    0 -0.00000000000E+00 -0.00000000000E+00 -0.45593999997E+02  0.45594000000E+02  0.51100000000E-03 0. -1.
    9900012    2    1    2    0    0 -0.32407127766E+01  0.32323772867E+02  0.24450712725E+02  0.50528857554E+02  0.29999993021E+02 0.  0.
         12    1    1    2    0    0  0.32407127766E+01 -0.32323772867E+02 -0.24450712725E+02  0.40659142446E+02  0.00000000000E+00 0. -1.
         11    1    3    3    0    0  0.11218008142E+02  0.12995560340E+02  0.30366176368E+01  0.17434143001E+02  0.51100000000E-03 0. -1.
        -11    1    3    3    0    0 -0.27410182685E+01  0.82499887255E+01  0.10457678904E+02  0.13599211133E+02  0.51100000000E-03 0.  1.
        -12    1    3    3    0    0 -0.11717702651E+02  0.11078223801E+02  0.10956416184E+02  0.19495503420E+02  0.00000000000E+00 0.  1.
</event>
<event>
 7    1  0.4971907E-013  0.5052886E+02  0.7816164E-02  0.1300439E+00
        -11   -1    0    0    0    0  0.00000000000E+00  0.00000000000E+00  0.45593999997E+02  0.45594000000E+02  0.51100000000E-03 0. -1.
         11   -1    0    0    0    0 -0.00000000000E+00 -0.00000000000E+00 -0.45593999997E+02  0.45594000000E+02  0.51100000000E-03 0.  1.
    9900012    2    1    2    0    0  0.29950658835E+02 -0.19297010000E+02  0.19589509291E+02  0.50528862849E+02  0.30000009117E+02 0.  0.
         12    1    1    2    0    0 -0.29950658835E+02  0.19297010000E+02 -0.19589509291E+02  0.40659137151E+02  0.00000000000E+00 0. -1.
         11    1    3    3    0    0  0.24670347442E+02 -0.15784716081E+02  0.19681197327E+02  0.35286439791E+02  0.51100000000E-03 0. -1.
        -11    1    3    3    0    0 -0.36424422581E+01 -0.24655265562E+01  0.34454404205E+01  0.55872414263E+01  0.51100000000E-03 0.  1.
        -12    1    3    3    0    0  0.89227536512E+01 -0.10467673620E+01 -0.35371284558E+01  0.96551816318E+01  0.00000000000E+00 0.  1.
</event>
<event>
 7    1  0.4971907E-013  0.5052888E+02  0.7816164E-02  0.1300439E+00
        -11   -1    0    0    0    0  0.00000000000E+00  0.00000000000E+00  0.45593999997E+02  0.45594000000E+02  0.51100000000E-03 0. -1.
         11   -1    0    0    0    0 -0.00000000000E+00 -0.00000000000E+00 -0.45593999997E+02  0.45594000000E+02  0.51100000000E-03 0.  1.
    9900012    2    1    2    0    0  0.31294122220E+02 -0.17008613235E+02 -0.19609924933E+02  0.50528878445E+02  0.30000056522E+02 0.  0.
         12    1    1    2    0    0 -0.31294122220E+02  0.17008613235E+02  0.19609924933E+02  0.40659121555E+02  0.00000000000E+00 0. -1.
         11    1    3    3    0    0  0.23656081030E+01 -0.71829645974E+01  0.11773031452E+01  0.76535694327E+01  0.51100000000E-03 0. -1.
        -11    1    3    3    0    0  0.15479322154E+02 -0.29232652633E+01  0.16302437798E+01  0.15837063781E+02  0.51100000000E-03 0.  1.
        -12    1    3    3    0    0  0.13449191963E+02 -0.69023833741E+01 -0.22417471858E+02  0.27038245232E+02  0.00000000000E+00 0.  1.
</event>
<event>
 7    1  0.4971907E-013  0.5052886E+02  0.7816164E-02  0.1300439E+00
        -11   -1    0    0    0    0  0.00000000000E+00  0.00000000000E+00  0.45593999997E+02  0.45594000000E+02  0.51100000000E-03 0.  1.
         11   -1    0    0    0    0 -0.00000000000E+00 -0.00000000000E+00 -0.45593999997E+02  0.45594000000E+02  0.51100000000E-03 0. -1.
    9900012    2    1    2    0    0  0.14902357703E+02 -0.74477858885E+01  0.37089299268E+02  0.50528857118E+02  0.29999991696E+02 0.  0.
         12    1    1    2    0    0 -0.14902357703E+02  0.74477858885E+01 -0.37089299268E+02  0.40659142882E+02  0.00000000000E+00 0. -1.
         11    1    3    3    0    0 -0.12020619956E+01 -0.41200192555E+01 -0.18916004229E+01  0.46901667485E+01  0.51100000000E-03 0. -1.
        -11    1    3    3    0    0  0.10683176136E+02 -0.16106096693E+01  0.59741350031E+01  0.12345631015E+02  0.51100000000E-03 0.  1.
        -12    1    3    3    0    0  0.54212435627E+01 -0.17171569637E+01  0.33006764687E+02  0.33493059355E+02  0.00000000000E+00 0.  1.
</event>
<event>
 7    1  0.4971907E-013  0.5052886E+02  0.7816164E-02  0.1300439E+00
        -11   -1    0    0    0    0  0.00000000000E+00  0.00000000000E+00  0.45593999997E+02  0.45594000000E+02  0.51100000000E-03 0.  1.
         11   -1    0    0    0    0 -0.00000000000E+00 -0.00000000000E+00 -0.45593999997E+02  0.45594000000E+02  0.51100000000E-03 0. -1.
    9900012    2    1    2    0    0 -0.25922136696E+02 -0.30078174605E+02  0.87471052890E+01  0.50528860691E+02  0.30000002556E+02 0.  0.
         12    1    1    2    0    0  0.25922136696E+02  0.30078174605E+02 -0.87471052890E+01  0.40659139309E+02  0.00000000000E+00 0. -1.
         11    1    3    3    0    0 -0.15773991471E+02 -0.16229500869E+02  0.24646497550E+01  0.22765983486E+02  0.51100000000E-03 0. -1.
        -11    1    3    3    0    0 -0.79032846282E+01 -0.13874935741E+02  0.13056574839E+02  0.20626436835E+02  0.51100000000E-03 0.  1.
         12    1    3    3    0    0 -0.22448605962E+01  0.26262004928E-01 -0.67741193054E+01  0.71364403699E+01  0.00000000000E+00 0. -1.
</event>
<event>
 7    1  0.4971907E-013  0.5052897E+02  0.7816164E-02  0.1300438E+00
        -11   -1    0    0    0    0  0.00000000000E+00  0.00000000000E+00  0.45593999997E+02  0.45594000000E+02  0.51100000000E-03 0.  1.
         11   -1    0    0    0    0 -0.00000000000E+00 -0.00000000000E+00 -0.45593999997E+02  0.45594000000E+02  0.51100000000E-03 0. -1.
    9900012    2    1    2    0    0 -0.17506316183E+02  0.32733797450E+02  0.16588667159E+02  0.50528972959E+02  0.30000343805E+02 0.  0.
         12    1    1    2    0    0  0.17506316183E+02 -0.32733797450E+02 -0.16588667159E+02  0.40659027041E+02  0.00000000000E+00 0. -1.
         11    1    3    3    0    0 -0.10416736113E+02  0.84674852075E+01  0.16375746644E+01  0.13523621853E+02  0.51100000000E-03 0. -1.
        -11    1    3    3    0    0 -0.73886745456E+01  0.27440707847E+02  0.17094577036E+02  0.33163376231E+02  0.51100000000E-03 0.  1.
         12    1    3    3    0    0  0.29909447611E+00 -0.31743956050E+01 -0.21434845413E+01  0.38419748752E+01  0.00000000000E+00 0. -1.
</event>
<event>
 7    1  0.4971907E-013  0.5052886E+02  0.7816164E-02  0.1300439E+00
        -11   -1    0    0    0    0  0.00000000000E+00  0.00000000000E+00  0.45593999997E+02  0.45594000000E+02  0.51100000000E-03 0.  1.
         11   -1    0    0    0    0 -0.00000000000E+00 -0.00000000000E+00 -0.45593999997E+02  0.45594000000E+02  0.51100000000E-03 0. -1.
    9900012    2    1    2    0    0  0.42706294757E+01 -0.39126362294E+02  0.10200758499E+02  0.50528856177E+02  0.29999988836E+02 0.  0.
         12    1    1    2    0    0 -0.42706294757E+01  0.39126362294E+02 -0.10200758499E+02  0.40659143823E+02  0.00000000000E+00 0. -1.
         11    1    3    3    0    0 -0.20007137677E+01 -0.14515353390E+02  0.13096738144E+02  0.19652554284E+02  0.51100000000E-03 0. -1.
        -11    1    3    3    0    0  0.11229807481E+02 -0.91162745301E+01 -0.10307617269E+01  0.14500948499E+02  0.51100000000E-03 0.  1.
        -12    1    3    3    0    0 -0.49584642373E+01 -0.15494734374E+02 -0.18652179181E+01  0.16375353394E+02  0.00000000000E+00 0.  1.
</event>
<event>
 7    1  0.4971907E-013  0.5052886E+02  0.7816164E-02  0.1300439E+00
        -11   -1    0    0    0    0  0.00000000000E+00  0.00000000000E+00  0.45593999997E+02  0.45594000000E+02  0.51100000000E-03 0. -1.
         11   -1    0    0    0    0 -0.00000000000E+00 -0.00000000000E+00 -0.45593999997E+02  0.45594000000E+02  0.51100000000E-03 0.  1.
    9900012    2    1    2    0    0  0.60147140080E+01  0.38161223262E+02 -0.12677148339E+02  0.50528857911E+02  0.29999994105E+02 0.  0.
         12    1    1    2    0    0 -0.60147140080E+01 -0.38161223262E+02  0.12677148339E+02  0.40659142089E+02  0.00000000000E+00 0. -1.
         11    1    3    3    0    0 -0.14678901220E+01  0.11992649239E+02  0.90270126827E+01  0.15081952639E+02  0.51100000000E-03 0. -1.
        -11    1    3    3    0    0  0.25788900082E+01  0.10537677351E+02 -0.46623986528E+01  0.11808102265E+02  0.51100000000E-03 0.  1.
        -12    1    3    3    0    0  0.49037141218E+01  0.15630896672E+02 -0.17041762369E+02  0.23638803007E+02  0.00000000000E+00 0.  1.
</event>
<event>
 7    1  0.4971907E-013  0.5052886E+02  0.7816164E-02  0.1300439E+00
        -11   -1    0    0    0    0  0.00000000000E+00  0.00000000000E+00  0.45593999997E+02  0.45594000000E+02  0.51100000000E-03 0.  1.
         11   -1    0    0    0    0 -0.00000000000E+00 -0.00000000000E+00 -0.45593999997E+02  0.45594000000E+02  0.51100000000E-03 0. -1.
    9900012    2    1    2    0    0 -0.27217655898E+02 -0.28703309649E+02  0.94066310468E+01  0.50528862219E+02  0.30000007201E+02 0.  0.
         12    1    1    2    0    0  0.27217655898E+02  0.28703309649E+02 -0.94066310468E+01  0.40659137781E+02  0.00000000000E+00 0. -1.
         11    1    3    3    0    0  0.14281666476E+01 -0.15085192703E+02  0.24502651306E+01  0.15349478764E+02  0.51100000000E-03 0. -1.
        -11    1    3    3    0    0 -0.51354504827E+01 -0.10999118349E+01  0.67381148097E+01  0.85431170631E+01  0.51100000000E-03 0.  1.
         12    1    3    3    0    0 -0.23510372063E+02 -0.12518205112E+02  0.21825110658E+00  0.26636266392E+02  0.00000000000E+00 0. -1.
</event>
<event>
 7    1  0.4971907E-013  0.5052886E+02  0.7816164E-02  0.1300439E+00
        -11   -1    0    0    0    0  0.00000000000E+00  0.00000000000E+00  0.45593999997E+02  0.45594000000E+02  0.51100000000E-03 0.  1.
         11   -1    0    0    0    0 -0.00000000000E+00 -0.00000000000E+00 -0.45593999997E+02  0.45594000000E+02  0.51100000000E-03 0. -1.
    9900012    2    1    2    0    0  0.44127158127E+01  0.18010404365E+02  0.36184508935E+02  0.50528863104E+02  0.30000009892E+02 0.  0.
         12    1    1    2    0    0 -0.44127158127E+01 -0.18010404365E+02 -0.36184508935E+02  0.40659136896E+02  0.00000000000E+00 0. -1.
         11    1    3    3    0    0 -0.10555806823E+01  0.14177116075E+02  0.11732793998E+02  0.18432670074E+02  0.51100000000E-03 0. -1.
        -11    1    3    3    0    0  0.11007294359E+02  0.76412408237E+01  0.12198897110E+02  0.18120766579E+02  0.51100000000E-03 0.  1.
         12    1    3    3    0    0 -0.55389978640E+01 -0.38079525332E+01  0.12252817826E+02  0.13975426452E+02  0.00000000000E+00 0. -1.
</event>
<event>
 7    1  0.4971907E-013  0.5052886E+02  0.7816164E-02  0.1300439E+00
        -11   -1    0    0    0    0  0.00000000000E+00  0.00000000000E+00  0.45593999997E+02  0.45594000000E+02  0.51100000000E-03 0.  1.
         11   -1    0    0    0    0 -0.00000000000E+00 -0.00000000000E+00 -0.45593999997E+02  0.45594000000E+02  0.51100000000E-03 0. -1.
    9900012    2    1    2    0    0 -0.98531879845E+01  0.22099080962E+02  0.32675847270E+02  0.50528859728E+02  0.29999999629E+02 0.  0.
         12    1    1    2    0    0  0.98531879845E+01 -0.22099080962E+02 -0.32675847270E+02  0.40659140272E+02  0.00000000000E+00 0. -1.
         11    1    3    3    0    0 -0.14439089441E+02  0.69247303663E+01  0.11540394656E+02  0.19738791848E+02  0.51100000000E-03 0. -1.
        -11    1    3    3    0    0 -0.44224794674E+00  0.31938781062E+01 -0.23228448458E+01  0.39739211168E+01  0.51100000000E-03 0.  1.
        -12    1    3    3    0    0  0.50281494033E+01  0.11980472490E+02  0.23458297460E+02  0.26816146763E+02  0.00000000000E+00 0.  1.
</event>
<event>
 7    1  0.4971907E-013  0.5052886E+02  0.7816164E-02  0.1300439E+00
        -11   -1    0    0    0    0  0.00000000000E+00  0.00000000000E+00  0.45593999997E+02  0.45594000000E+02  0.51100000000E-03 0. -1.
         11   -1    0    0    0    0 -0.00000000000E+00 -0.00000000000E+00 -0.45593999997E+02  0.45594000000E+02  0.51100000000E-03 0.  1.
    9900012    2    1    2    0    0  0.28550209814E+02  0.22821038990E+02 -0.17811546319E+02  0.50528862242E+02  0.30000007269E+02 0.  0.
         12    1    1    2    0    0 -0.28550209814E+02 -0.22821038990E+02  0.17811546319E+02  0.40659137758E+02  0.00000000000E+00 0. -1.
         11    1    3    3    0    0 -0.37145310470E+01  0.16634915123E+01 -0.57070074135E+00  0.41098229290E+01  0.51100000000E-03 0. -1.
        -11    1    3    3    0    0  0.13827227631E+02  0.17180268672E+01  0.10584326968E+01  0.13973693868E+02  0.51100000000E-03 0.  1.
        -12    1    3    3    0    0  0.18437513230E+02  0.19439520610E+02 -0.18299278275E+02  0.32445345445E+02  0.00000000000E+00 0.  1.
</event>
<event>
 7    1  0.4971907E-013  0.5052886E+02  0.7816164E-02  0.1300439E+00
        -11   -1    0    0    0    0  0.00000000000E+00  0.00000000000E+00  0.45593999997E+02  0.45594000000E+02  0.51100000000E-03 0. -1.
         11   -1    0    0    0    0 -0.00000000000E+00 -0.00000000000E+00 -0.45593999997E+02  0.45594000000E+02  0.51100000000E-03 0.  1.
    9900012    2    1    2    0    0  0.12490498622E+02  0.16592917047E+02 -0.34954656326E+02  0.50528862640E+02  0.30000008481E+02 0.  0.
         12    1    1    2    0    0 -0.12490498622E+02 -0.16592917047E+02  0.34954656326E+02  0.40659137360E+02  0.00000000000E+00 0. -1.
         11    1    3    3    0    0  0.68204339169E+01 -0.39055895665E+01 -0.70181616480E+01  0.10536913298E+02  0.51100000000E-03 0. -1.
        -11    1    3    3    0    0  0.29953046861E+01  0.57916149616E+01  0.17528720838E+01  0.67518304799E+01  0.51100000000E-03 0.  1.
        -12    1    3    3    0    0  0.26747600190E+01  0.14706891652E+02 -0.29689366762E+02  0.33240118862E+02  0.00000000000E+00 0.  1.
</event>
<event>
 7    1  0.4971907E-013  0.5052885E+02  0.7816164E-02  0.1300439E+00
        -11   -1    0    0    0    0  0.00000000000E+00  0.00000000000E+00  0.45593999997E+02  0.45594000000E+02  0.51100000000E-03 0.  1.
         11   -1    0    0    0    0 -0.00000000000E+00 -0.00000000000E+00 -0.45593999997E+02  0.45594000000E+02  0.51100000000E-03 0. -1.
    9900012    2    1    2    0    0  0.32791180690E+02 -0.15918872778E+02  0.18013719580E+02  0.50528854231E+02  0.29999982919E+02 0.  0.
         12    1    1    2    0    0 -0.32791180690E+02  0.15918872778E+02 -0.18013719580E+02  0.40659145769E+02  0.00000000000E+00 0. -1.
         11    1    3    3    0    0  0.11384320687E+02 -0.17698481205E+02  0.70668761077E+01  0.22198642586E+02  0.51100000000E-03 0. -1.
        -11    1    3    3    0    0  0.14330182278E+02 -0.58425843585E+01  0.45951100656E+01  0.16143263390E+02  0.51100000000E-03 0.  1.
         12    1    3    3    0    0  0.70766777259E+01  0.76221927857E+01  0.63517334071E+01  0.12186948255E+02  0.00000000000E+00 0. -1.
</event>
<event>
 7    1  0.4971907E-013  0.5052886E+02  0.7816164E-02  0.1300439E+00
        -11   -1    0    0    0    0  0.00000000000E+00  0.00000000000E+00  0.45593999997E+02  0.45594000000E+02  0.51100000000E-03 0. -1.
         11   -1    0    0    0    0 -0.00000000000E+00 -0.00000000000E+00 -0.45593999997E+02  0.45594000000E+02  0.51100000000E-03 0.  1.
    9900012    2    1    2    0    0 -0.12719862055E+02 -0.34091774190E+02 -0.18141713150E+02  0.50528859403E+02  0.29999998640E+02 0.  0.
         12    1    1    2    0    0  0.12719862055E+02  0.34091774190E+02  0.18141713150E+02  0.40659140597E+02  0.00000000000E+00 0. -1.
         11    1    3    3    0    0 -0.12623753246E+02 -0.26687442764E+01 -0.51095916433E+01  0.13877653586E+02  0.51100000000E-03 0. -1.
        -11    1    3    3    0    0 -0.47058500210E+01 -0.13719437157E+02 -0.11082940525E+02  0.18253754443E+02  0.51100000000E-03 0.  1.
        -12    1    3    3    0    0  0.46097412119E+01 -0.17703592757E+02 -0.19491809810E+01  0.18397451373E+02  0.00000000000E+00 0.  1.
</event>
<event>
 7    1  0.4971907E-013  0.5052886E+02  0.7816164E-02  0.1300439E+00
        -11   -1    0    0    0    0  0.00000000000E+00  0.00000000000E+00  0.45593999997E+02  0.45594000000E+02  0.51100000000E-03 0.  1.
         11   -1    0    0    0    0 -0.00000000000E+00 -0.00000000000E+00 -0.45593999997E+02  0.45594000000E+02  0.51100000000E-03 0. -1.
    9900012    2    1    2    0    0  0.28424336389E+01 -0.28706353611E+02  0.28653643108E+02  0.50528862896E+02  0.30000009259E+02 0.  0.
         12    1    1    2    0    0 -0.28424336389E+01  0.28706353611E+02 -0.28653643108E+02  0.40659137104E+02  0.00000000000E+00 0. -1.
         11    1    3    3    0    0 -0.68601288924E+01 -0.33417391514E+01  0.48724455828E+01  0.90536906947E+01  0.51100000000E-03 0. -1.
        -11    1    3    3    0    0 -0.18643780258E+01 -0.15153116249E+02  0.29462653006E+01  0.15549061610E+02  0.51100000000E-03 0.  1.
         12    1    3    3    0    0  0.11566940557E+02 -0.10211498211E+02  0.20834932225E+02  0.25926110591E+02  0.00000000000E+00 0. -1.
</event>
<event>
 7    1  0.4971907E-013  0.5052886E+02  0.7816164E-02  0.1300439E+00
        -11   -1    0    0    0    0  0.00000000000E+00  0.00000000000E+00  0.45593999997E+02  0.45594000000E+02  0.51100000000E-03 0.  1.
         11   -1    0    0    0    0 -0.00000000000E+00 -0.00000000000E+00 -0.45593999997E+02  0.45594000000E+02  0.51100000000E-03 0. -1.
    9900012    2    1    2    0    0 -0.23771378952E+02  0.31084323267E+02 -0.11038669372E+02  0.50528857956E+02  0.29999994243E+02 0.  0.
         12    1    1    2    0    0  0.23771378952E+02 -0.31084323267E+02  0.11038669372E+02  0.40659142044E+02  0.00000000000E+00 0. -1.
         11    1    3    3    0    0 -0.78729074549E+01  0.11849759835E+02 -0.83317532040E+01  0.16486891510E+02  0.51100000000E-03 0. -1.
        -11    1    3    3    0    0  0.33963750074E+01  0.35387426497E+01 -0.72544382875E+01  0.87569936542E+01  0.51100000000E-03 0.  1.
        -12    1    3    3    0    0 -0.19294846504E+02  0.15695820783E+02  0.45475221194E+01  0.25284972792E+02  0.00000000000E+00 0.  1.
</event>
<event>
 7    1  0.4971907E-013  0.5052887E+02  0.7816164E-02  0.1300439E+00
        -11   -1    0    0    0    0  0.00000000000E+00  0.00000000000E+00  0.45593999997E+02  0.45594000000E+02  0.51100000000E-03 0. -1.
         11   -1    0    0    0    0 -0.00000000000E+00 -0.00000000000E+00 -0.45593999997E+02  0.45594000000E+02  0.51100000000E-03 0.  1.
    9900012    2    1    2    0    0  0.17940194756E+02 -0.32254899784E+02 -0.17056836830E+02  0.50528870268E+02  0.30000031666E+02 0.  0.
         12    1    1    2    0    0 -0.17940194756E+02  0.32254899784E+02  0.17056836830E+02  0.40659129732E+02  0.00000000000E+00 0. -1.
         11    1    3    3    0    0  0.30330715304E+01 -0.26424671843E+01 -0.10599967340E+02  0.11337612782E+02  0.51100000000E-03 0. -1.
        -11    1    3    3    0    0  0.71373395380E+01 -0.17572257568E+02  0.63210368698E+01  0.19992032390E+02  0.51100000000E-03 0.  1.
         12    1    3    3    0    0  0.77697836871E+01 -0.12040175031E+02 -0.12777906359E+02  0.19199225095E+02  0.00000000000E+00 0. -1.
</event>
<event>
 7    1  0.4971907E-013  0.5052886E+02  0.7816164E-02  0.1300439E+00
        -11   -1    0    0    0    0  0.00000000000E+00  0.00000000000E+00  0.45593999997E+02  0.45594000000E+02  0.51100000000E-03 0.  1.
         11   -1    0    0    0    0 -0.00000000000E+00 -0.00000000000E+00 -0.45593999997E+02  0.45594000000E+02  0.51100000000E-03 0. -1.
    9900012    2    1    2    0    0  0.13282629577E+02  0.38139073642E+02  0.47062248499E+01  0.50528859096E+02  0.29999997708E+02 0.  0.
         12    1    1    2    0    0 -0.13282629577E+02 -0.38139073642E+02 -0.47062248499E+01  0.40659140904E+02  0.00000000000E+00 0. -1.
         11    1    3    3    0    0 -0.48732728717E+01  0.72124077409E+01  0.60906496734E+01  0.10623729459E+02  0.51100000000E-03 0. -1.
        -11    1    3    3    0    0  0.14015646208E+02  0.17990744481E+02  0.71062088851E+01  0.23887306893E+02  0.51100000000E-03 0.  1.
        -12    1    3    3    0    0  0.41402562406E+01  0.12935921420E+02 -0.84906337086E+01  0.16017822745E+02  0.00000000000E+00 0.  1.
</event>
<event>
 7    1  0.4971907E-013  0.5052883E+02  0.7816164E-02  0.1300439E+00
        -11   -1    0    0    0    0  0.00000000000E+00  0.00000000000E+00  0.45593999997E+02  0.45594000000E+02  0.51100000000E-03 0.  1.
         11   -1    0    0    0    0 -0.00000000000E+00 -0.00000000000E+00 -0.45593999997E+02  0.45594000000E+02  0.51100000000E-03 0. -1.
    9900012    2    1    2    0    0  0.41901697671E+01  0.36927075436E+02  0.16492461452E+02  0.50528834887E+02  0.29999924123E+02 0.  0.
         12    1    1    2    0    0 -0.41901697671E+01 -0.36927075436E+02 -0.16492461452E+02  0.40659165113E+02  0.00000000000E+00 0. -1.
         11    1    3    3    0    0  0.94502578181E+01  0.28885376460E+02  0.10684964341E+02  0.32215536769E+02  0.51100000000E-03 0. -1.
        -11    1    3    3    0    0  0.40894308053E+01  0.28154754376E+01  0.57568900310E+01  0.76021134786E+01  0.51100000000E-03 0.  1.
         12    1    3    3    0    0 -0.93495188562E+01  0.52262235384E+01  0.50607080181E-01  0.10711184640E+02  0.00000000000E+00 0. -1.
</event>
<event>
 7    1  0.4971907E-013  0.5052885E+02  0.7816164E-02  0.1300439E+00
        -11   -1    0    0    0    0  0.00000000000E+00  0.00000000000E+00  0.45593999997E+02  0.45594000000E+02  0.51100000000E-03 0.  1.
         11   -1    0    0    0    0 -0.00000000000E+00 -0.00000000000E+00 -0.45593999997E+02  0.45594000000E+02  0.51100000000E-03 0. -1.
    9900012    2    1    2    0    0 -0.16467258704E+02 -0.46609865908E+00  0.37172281063E+02  0.50528851748E+02  0.29999975372E+02 0.  0.
         12    1    1    2    0    0  0.16467258704E+02  0.46609865908E+00 -0.37172281063E+02  0.40659148252E+02  0.00000000000E+00 0. -1.
         11    1    3    3    0    0 -0.59654854181E+01 -0.43294965815E+01 -0.33203178423E+01  0.80843099741E+01  0.51100000000E-03 0. -1.
        -11    1    3    3    0    0 -0.43129837891E+01  0.45923275303E+01  0.16682088942E+02  0.17832088858E+02  0.51100000000E-03 0.  1.
        -12    1    3    3    0    0 -0.61887894965E+01 -0.72892960788E+00  0.23810509963E+02  0.24612452916E+02  0.00000000000E+00 0.  1.
</event>
<event>
 7    1  0.4971907E-013  0.5052886E+02  0.7816164E-02  0.1300439E+00
        -11   -1    0    0    0    0  0.00000000000E+00  0.00000000000E+00  0.45593999997E+02  0.45594000000E+02  0.51100000000E-03 0. -1.
         11   -1    0    0    0    0 -0.00000000000E+00 -0.00000000000E+00 -0.45593999997E+02  0.45594000000E+02  0.51100000000E-03 0.  1.
    9900012    2    1    2    0    0 -0.32306630612E+02  0.13397046330E+02 -0.20735627314E+02  0.50528862380E+02  0.30000007691E+02 0.  0.
         12    1    1    2    0    0  0.32306630612E+02 -0.13397046330E+02  0.20735627314E+02  0.40659137620E+02  0.00000000000E+00 0. -1.
         11    1    3    3    0    0 -0.21859480428E+02  0.23190050568E+01 -0.43333083538E+01  0.22405183119E+02  0.51100000000E-03 0. -1.
        -11    1    3    3    0    0 -0.15106553828E+01 -0.35331115859E+01 -0.83627356499E+01  0.92032768607E+01  0.51100000000E-03 0.  1.
         12    1    3    3    0    0 -0.89364948011E+01  0.14611152859E+02 -0.80395833105E+01  0.18920402401E+02  0.00000000000E+00 0. -1.
</event>
<event>
 7    1  0.4971907E-013  0.5052886E+02  0.7816164E-02  0.1300439E+00
        -11   -1    0    0    0    0  0.00000000000E+00  0.00000000000E+00  0.45593999997E+02  0.45594000000E+02  0.51100000000E-03 0.  1.
         11   -1    0    0    0    0 -0.00000000000E+00 -0.00000000000E+00 -0.45593999997E+02  0.45594000000E+02  0.51100000000E-03 0. -1.
    9900012    2    1    2    0    0  0.26013284537E+01 -0.19182285886E+01  0.40530475592E+02  0.50528856350E+02  0.29999989361E+02 0.  0.
         12    1    1    2    0    0 -0.26013284537E+01  0.19182285886E+01 -0.40530475592E+02  0.40659143650E+02  0.00000000000E+00 0. -1.
         11    1    3    3    0    0 -0.61882547223E+01 -0.44571621135E+01  0.22794051706E+02  0.24036005992E+02  0.51100000000E-03 0. -1.
        -11    1    3    3    0    0  0.10006608931E+02 -0.55566488370E+01  0.11238110118E+02  0.16040688510E+02  0.51100000000E-03 0.  1.
         12    1    3    3    0    0 -0.12170257550E+01  0.80955823619E+01  0.64983137687E+01  0.10452161848E+02  0.00000000000E+00 0. -1.
</event>
<event>
 7    1  0.4971907E-013  0.5052886E+02  0.7816164E-02  0.1300439E+00
        -11   -1    0    0    0    0  0.00000000000E+00  0.00000000000E+00  0.45593999997E+02  0.45594000000E+02  0.51100000000E-03 0.  1.
         11   -1    0    0    0    0 -0.00000000000E+00 -0.00000000000E+00 -0.45593999997E+02  0.45594000000E+02  0.51100000000E-03 0. -1.
    9900012    2    1    2    0    0  0.17804000062E+02 -0.15445967757E+01  0.36521195170E+02  0.50528857190E+02  0.29999991914E+02 0.  0.
         12    1    1    2    0    0 -0.17804000062E+02  0.15445967757E+01 -0.36521195170E+02  0.40659142810E+02  0.00000000000E+00 0. -1.
         11    1    3    3    0    0  0.13769988288E+02  0.51116908766E+01  0.14050152515E+02  0.20326060785E+02  0.51100000000E-03 0. -1.
        -11    1    3    3    0    0  0.77138126791E+01 -0.58828012942E+01  0.26893856382E+01  0.10066928652E+02  0.51100000000E-03 0.  1.
        -12    1    3    3    0    0 -0.36798009046E+01 -0.77348635814E+00  0.19781657017E+02  0.20135867753E+02  0.00000000000E+00 0.  1.
</event>
<event>
 7    1  0.4971907E-013  0.5052885E+02  0.7816164E-02  0.1300439E+00
        -11   -1    0    0    0    0  0.00000000000E+00  0.00000000000E+00  0.45593999997E+02  0.45594000000E+02  0.51100000000E-03 0.  1.
         11   -1    0    0    0    0 -0.00000000000E+00 -0.00000000000E+00 -0.45593999997E+02  0.45594000000E+02  0.51100000000E-03 0. -1.
    9900012    2    1    2    0    0 -0.33475350972E+02  0.63844141428E+01  0.22176705649E+02  0.50528854164E+02  0.29999982718E+02 0.  0.
         12    1    1    2    0    0  0.33475350972E+02 -0.63844141428E+01 -0.22176705649E+02  0.40659145836E+02  0.00000000000E+00 0. -1.
         11    1    3    3    0    0 -0.19752422489E+01 -0.41610765911E+01 -0.23268242198E-01  0.46061569677E+01  0.51100000000E-03 0. -1.
        -11    1    3    3    0    0 -0.16127244261E+02 -0.18363965115E+01  0.20420492176E-01  0.16231474882E+02  0.51100000000E-03 0.  1.
         12    1    3    3    0    0 -0.15372864463E+02  0.12381887245E+02  0.22179553399E+02  0.29691222314E+02  0.00000000000E+00 0. -1.
</event>
<event>
 7    1  0.4971907E-013  0.5052886E+02  0.7816164E-02  0.1300439E+00
        -11   -1    0    0    0    0  0.00000000000E+00  0.00000000000E+00  0.45593999997E+02  0.45594000000E+02  0.51100000000E-03 0. -1.
         11   -1    0    0    0    0 -0.00000000000E+00 -0.00000000000E+00 -0.45593999997E+02  0.45594000000E+02  0.51100000000E-03 0.  1.
    9900012    2    1    2    0    0 -0.11537531461E+02  0.29933503504E+02 -0.24980726479E+02  0.50528856383E+02  0.29999989463E+02 0.  0.
         12    1    1    2    0    0  0.11537531461E+02 -0.29933503504E+02  0.24980726479E+02  0.40659143617E+02  0.00000000000E+00 0. -1.
         11    1    3    3    0    0 -0.79630337099E+01  0.33833296480E+01 -0.16714669796E+02  0.18821185191E+02  0.51100000000E-03 0.  1.
        -11    1    3    3    0    0 -0.31478410975E+01  0.67837555617E+00  0.20878096489E+01  0.38377136893E+01  0.51100000000E-03 0. -1.
         12    1    3    3    0    0 -0.42665665364E+00  0.25871798300E+02 -0.10353866332E+02  0.27869957503E+02  0.00000000000E+00 0. -1.
</event>
<event>
 7    1  0.4971907E-013  0.5052890E+02  0.7816164E-02  0.1300439E+00
        -11   -1    0    0    0    0  0.00000000000E+00  0.00000000000E+00  0.45593999997E+02  0.45594000000E+02  0.51100000000E-03 0.  1.
         11   -1    0    0    0    0 -0.00000000000E+00 -0.00000000000E+00 -0.45593999997E+02  0.45594000000E+02  0.51100000000E-03 0. -1.
    9900012    2    1    2    0    0 -0.14659792080E+01 -0.47463137364E+01  0.40354506206E+02  0.50528895727E+02  0.30000109052E+02 0.  0.
         12    1    1    2    0    0  0.14659792080E+01  0.47463137364E+01 -0.40354506206E+02  0.40659104273E+02  0.00000000000E+00 0. -1.
         11    1    3    3    0    0  0.84132192652E+01 -0.85369513929E+00  0.14453802691E+02  0.16745849225E+02  0.51100000000E-03 0.  1.
        -11    1    3    3    0    0 -0.47835604517E+01  0.64877649542E+01  0.18157681945E+02  0.19866427927E+02  0.51100000000E-03 0. -1.
         12    1    3    3    0    0 -0.50956380215E+01 -0.10380383551E+02  0.77430215698E+01  0.13916618575E+02  0.00000000000E+00 0. -1.
</event>
<event>
 7    1  0.4971907E-013  0.5052888E+02  0.7816164E-02  0.1300439E+00
        -11   -1    0    0    0    0  0.00000000000E+00  0.00000000000E+00  0.45593999997E+02  0.45594000000E+02  0.51100000000E-03 0. -1.
         11   -1    0    0    0    0 -0.00000000000E+00 -0.00000000000E+00 -0.45593999997E+02  0.45594000000E+02  0.51100000000E-03 0.  1.
    9900012    2    1    2    0    0 -0.18618769599E+02  0.16119581797E+02 -0.32352193314E+02  0.50528881577E+02  0.30000066042E+02 0.  0.
         12    1    1    2    0    0  0.18618769599E+02 -0.16119581797E+02  0.32352193314E+02  0.40659118423E+02  0.00000000000E+00 0. -1.
         11    1    3    3    0    0 -0.16337100912E+02  0.49145784649E+01 -0.14887559177E+02  0.22642733188E+02  0.51100000000E-03 0. -1.
        -11    1    3    3    0    0 -0.39227989573E+01  0.13441813159E+01 -0.17402269441E+02  0.17889498513E+02  0.51100000000E-03 0.  1.
         12    1    3    3    0    0  0.16411302703E+01  0.98608220161E+01 -0.62364694994E-01  0.99966498765E+01  0.00000000000E+00 0. -1.
</event>
<event>
 7    1  0.5386981E-013  0.5052885E+02  0.7816164E-02  0.1300439E+00
        -11   -1    0    0    0    0  0.00000000000E+00  0.00000000000E+00  0.45593999997E+02  0.45594000000E+02  0.51100000000E-03 0.  1.
         11   -1    0    0    0    0 -0.00000000000E+00 -0.00000000000E+00 -0.45593999997E+02  0.45594000000E+02  0.51100000000E-03 0. -1.
    9900012    2    1    2    0    0 -0.51515120345E+01 -0.25120510548E+02  0.31552939080E+02  0.50528854768E+02  0.29999984553E+02 0.  0.
         12    1    1    2    0    0  0.51515120345E+01  0.25120510548E+02 -0.31552939080E+02  0.40659145232E+02  0.00000000000E+00 0. -1.
         11    1    3    3    0    0 -0.32010383927E+01  0.27847427620E+01  0.11896989179E+01  0.44064524073E+01  0.51100000000E-03 0.  1.
        -11    1    3    3    0    0 -0.10067859345E+02 -0.14114573498E+02  0.93132123343E+01  0.19680419230E+02  0.51100000000E-03 0. -1.
        -12    1    3    3    0    0  0.81173857035E+01 -0.13790679812E+02  0.21050027828E+02  0.26441983131E+02  0.00000000000E+00 0.  1.
</event>
<event>
 7    1  0.4971907E-013  0.5052886E+02  0.7816164E-02  0.1300439E+00
        -11   -1    0    0    0    0  0.00000000000E+00  0.00000000000E+00  0.45593999997E+02  0.45594000000E+02  0.51100000000E-03 0. -1.
         11   -1    0    0    0    0 -0.00000000000E+00 -0.00000000000E+00 -0.45593999997E+02  0.45594000000E+02  0.51100000000E-03 0.  1.
    9900012    2    1    2    0    0  0.20028838646E+02  0.24050803811E+02 -0.25953224835E+02  0.50528863010E+02  0.30000009605E+02 0.  0.
         12    1    1    2    0    0 -0.20028838646E+02 -0.24050803811E+02  0.25953224835E+02  0.40659136990E+02  0.00000000000E+00 0. -1.
         11    1    3    3    0    0  0.38181226601E+01  0.12135076435E+02 -0.63499529057E+01  0.14218299578E+02  0.51100000000E-03 0.  1.
        -11    1    3    3    0    0  0.14047326138E+02  0.68530024704E+01  0.32761029776E+00  0.15633244809E+02  0.51100000000E-03 0. -1.
         12    1    3    3    0    0  0.21633898473E+01  0.50627249061E+01 -0.19930882227E+02  0.20677318623E+02  0.00000000000E+00 0. -1.
</event>
<event>
 7    1  0.4971907E-013  0.5052885E+02  0.7816164E-02  0.1300439E+00
        -11   -1    0    0    0    0  0.00000000000E+00  0.00000000000E+00  0.45593999997E+02  0.45594000000E+02  0.51100000000E-03 0. -1.
         11   -1    0    0    0    0 -0.00000000000E+00 -0.00000000000E+00 -0.45593999997E+02  0.45594000000E+02  0.51100000000E-03 0.  1.
    9900012    2    1    2    0    0 -0.34729258362E+02 -0.31789538202E+01 -0.20903093679E+02  0.50528850241E+02  0.29999970792E+02 0.  0.
         12    1    1    2    0    0  0.34729258362E+02  0.31789538202E+01  0.20903093679E+02  0.40659149759E+02  0.00000000000E+00 0. -1.
         11    1    3    3    0    0 -0.43082101790E+00  0.29250297572E+01 -0.18869649273E+01  0.35074267958E+01  0.51100000000E-03 0. -1.
        -11    1    3    3    0    0 -0.16193350887E+02 -0.22865852283E+01 -0.22875436217E+02  0.28120075877E+02  0.51100000000E-03 0.  1.
        -12    1    3    3    0    0 -0.18105086457E+02 -0.38173983491E+01  0.38593074654E+01  0.18901347568E+02  0.00000000000E+00 0.  1.
</event>
<event>
 7    1  0.4971907E-013  0.5052886E+02  0.7816164E-02  0.1300439E+00
        -11   -1    0    0    0    0  0.00000000000E+00  0.00000000000E+00  0.45593999997E+02  0.45594000000E+02  0.51100000000E-03 0.  1.
         11   -1    0    0    0    0 -0.00000000000E+00 -0.00000000000E+00 -0.45593999997E+02  0.45594000000E+02  0.51100000000E-03 0. -1.
    9900012    2    1    2    0    0  0.17717451591E+02 -0.16620295421E+02  0.32604042423E+02  0.50528857202E+02  0.29999991951E+02 0.  0.
         12    1    1    2    0    0 -0.17717451591E+02  0.16620295421E+02 -0.32604042423E+02  0.40659142798E+02  0.00000000000E+00 0. -1.
         11    1    3    3    0    0  0.10941262595E+02 -0.15842754393E+02  0.22159258840E+02  0.29355354649E+02  0.51100000000E-03 0. -1.
        -11    1    3    3    0    0  0.10212305352E+02 -0.59981629020E+01  0.86657299954E+01  0.14675285872E+02  0.51100000000E-03 0.  1.
         12    1    3    3    0    0 -0.34361163563E+01  0.52206218745E+01  0.17790535871E+01  0.64982166812E+01  0.00000000000E+00 0. -1.
</event>
<event>
 7    1  0.4971907E-013  0.5052886E+02  0.7816164E-02  0.1300439E+00
        -11   -1    0    0    0    0  0.00000000000E+00  0.00000000000E+00  0.45593999997E+02  0.45594000000E+02  0.51100000000E-03 0.  1.
         11   -1    0    0    0    0 -0.00000000000E+00 -0.00000000000E+00 -0.45593999997E+02  0.45594000000E+02  0.51100000000E-03 0. -1.
    9900012    2    1    2    0    0  0.18208403432E+02 -0.73289535680E+01  0.35607670966E+02  0.50528858991E+02  0.29999997389E+02 0.  0.
         12    1    1    2    0    0 -0.18208403432E+02  0.73289535680E+01 -0.35607670966E+02  0.40659141009E+02  0.00000000000E+00 0. -1.
         11    1    3    3    0    0  0.20083023431E+02 -0.12582440768E+02  0.22413618664E+02  0.32619257313E+02  0.51100000000E-03 0. -1.
        -11    1    3    3    0    0  0.15796316702E+01 -0.47755361417E+00 -0.11971679968E+01  0.20387508777E+01  0.51100000000E-03 0.  1.
        -12    1    3    3    0    0 -0.34542516694E+01  0.57310408142E+01  0.14391220299E+02  0.15870850800E+02  0.00000000000E+00 0.  1.
</event>
<event>
 7    1  0.4971907E-013  0.5052887E+02  0.7816164E-02  0.1300439E+00
        -11   -1    0    0    0    0  0.00000000000E+00  0.00000000000E+00  0.45593999997E+02  0.45594000000E+02  0.51100000000E-03 0. -1.
         11   -1    0    0    0    0 -0.00000000000E+00 -0.00000000000E+00 -0.45593999997E+02  0.45594000000E+02  0.51100000000E-03 0.  1.
    9900012    2    1    2    0    0 -0.89948299442E+01  0.20638569190E+02 -0.33857166404E+02  0.50528865469E+02  0.30000017078E+02 0.  0.
         12    1    1    2    0    0  0.89948299442E+01 -0.20638569190E+02  0.33857166404E+02  0.40659134531E+02  0.00000000000E+00 0. -1.
         11    1    3    3    0    0 -0.81058767615E+01  0.64040175540E+01 -0.16007712660E+02  0.19051602131E+02  0.51100000000E-03 0. -1.
        -11    1    3    3    0    0 -0.53606172832E+01 -0.42824550037E+01 -0.42341378660E+01  0.80624786663E+01  0.51100000000E-03 0.  1.
        -12    1    3    3    0    0  0.44716641004E+01  0.18517006640E+02 -0.13615315878E+02  0.23414784671E+02  0.00000000000E+00 0.  1.
</event>
<event>
 7    1  0.4971907E-013  0.5052895E+02  0.7816164E-02  0.1300438E+00
        -11   -1    0    0    0    0  0.00000000000E+00  0.00000000000E+00  0.45593999997E+02  0.45594000000E+02  0.51100000000E-03 0.  1.
         11   -1    0    0    0    0 -0.00000000000E+00 -0.00000000000E+00 -0.45593999997E+02  0.45594000000E+02  0.51100000000E-03 0. -1.
    9900012    2    1    2    0    0  0.23218538166E+02  0.32884588326E+02  0.57150256758E+01  0.50528952022E+02  0.30000280166E+02 0.  0.
         12    1    1    2    0    0 -0.23218538166E+02 -0.32884588326E+02 -0.57150256758E+01  0.40659047978E+02  0.00000000000E+00 0. -1.
         11    1    3    3    0    0  0.35328015865E+01  0.70675929175E+01 -0.64187016120E+01  0.10179945351E+02  0.51100000000E-03 0. -1.
        -11    1    3    3    0    0 -0.31133434556E+00  0.15023791621E+02  0.10433637002E+01  0.15063195273E+02  0.51100000000E-03 0.  1.
        -12    1    3    3    0    0  0.19997070925E+02  0.10793203788E+02  0.11090363588E+02  0.25285811399E+02  0.00000000000E+00 0.  1.
</event>
<event>
 7    1  0.4971907E-013  0.5052886E+02  0.7816164E-02  0.1300439E+00
        -11   -1    0    0    0    0  0.00000000000E+00  0.00000000000E+00  0.45593999997E+02  0.45594000000E+02  0.51100000000E-03 0. -1.
         11   -1    0    0    0    0 -0.00000000000E+00 -0.00000000000E+00 -0.45593999997E+02  0.45594000000E+02  0.51100000000E-03 0.  1.
    9900012    2    1    2    0    0  0.30699365592E+02 -0.26659208836E+02 -0.28387374638E-01  0.50528864872E+02  0.30000015266E+02 0.  0.
         12    1    1    2    0    0 -0.30699365592E+02  0.26659208836E+02  0.28387374638E-01  0.40659135128E+02  0.00000000000E+00 0. -1.
         11    1    3    3    0    0  0.95322993099E+01 -0.19752724645E+02 -0.15573111634E+01  0.21987725652E+02  0.51100000000E-03 0. -1.
        -11    1    3    3    0    0  0.18581236154E+02 -0.10443024016E+02 -0.37912052962E+01  0.21649303117E+02  0.51100000000E-03 0.  1.
         12    1    3    3    0    0  0.25858301282E+01  0.35365398254E+01  0.53201290850E+01  0.68918361030E+01  0.00000000000E+00 0. -1.
</event>
<event>
 7    1  0.6691729E-013  0.5052887E+02  0.7816164E-02  0.1300439E+00
        -11   -1    0    0    0    0  0.00000000000E+00  0.00000000000E+00  0.45593999997E+02  0.45594000000E+02  0.51100000000E-03 0. -1.
         11   -1    0    0    0    0 -0.00000000000E+00 -0.00000000000E+00 -0.45593999997E+02  0.45594000000E+02  0.51100000000E-03 0.  1.
    9900012    2    1    2    0    0  0.21696814453E+02 -0.30272871855E+02 -0.16308485289E+02  0.50528865477E+02  0.30000017103E+02 0.  0.
         12    1    1    2    0    0 -0.21696814453E+02  0.30272871855E+02  0.16308485289E+02  0.40659134523E+02  0.00000000000E+00 0. -1.
         11    1    3    3    0    0 -0.19005825780E+01 -0.21232247886E+01  0.51825694750E+01  0.59143321062E+01  0.51100000000E-03 0. -1.
        -11    1    3    3    0    0  0.43232357667E+01 -0.15205150039E+02 -0.10040202821E+02  0.18726789051E+02  0.51100000000E-03 0.  1.
        -12    1    3    3    0    0  0.19274161264E+02 -0.12944497028E+02 -0.11450851943E+02  0.25887744320E+02  0.00000000000E+00 0.  1.
</event>
<event>
 7    1  0.4971907E-013  0.5052887E+02  0.7816164E-02  0.1300439E+00
        -11   -1    0    0    0    0  0.00000000000E+00  0.00000000000E+00  0.45593999997E+02  0.45594000000E+02  0.51100000000E-03 0.  1.
         11   -1    0    0    0    0 -0.00000000000E+00 -0.00000000000E+00 -0.45593999997E+02  0.45594000000E+02  0.51100000000E-03 0. -1.
    9900012    2    1    2    0    0 -0.38959557658E+02 -0.29449201621E+01 -0.11253683628E+02  0.50528867166E+02  0.30000022237E+02 0.  0.
         12    1    1    2    0    0  0.38959557658E+02  0.29449201621E+01  0.11253683628E+02  0.40659132834E+02  0.00000000000E+00 0. -1.
         11    1    3    3    0    0 -0.15751071391E+01  0.16614189305E+01  0.19300583535E+01  0.29943949091E+01  0.51100000000E-03 0. -1.
        -11    1    3    3    0    0 -0.40306001680E+01 -0.29599553376E+01 -0.13226191045E+02  0.14139985967E+02  0.51100000000E-03 0.  1.
        -12    1    3    3    0    0 -0.33353850350E+02 -0.16463837550E+01  0.42449063408E-01  0.33394486290E+02  0.00000000000E+00 0.  1.
</event>
<event>
 7    1  0.4971907E-013  0.5052886E+02  0.7816164E-02  0.1300439E+00
        -11   -1    0    0    0    0  0.00000000000E+00  0.00000000000E+00  0.45593999997E+02  0.45594000000E+02  0.51100000000E-03 0.  1.
         11   -1    0    0    0    0 -0.00000000000E+00 -0.00000000000E+00 -0.45593999997E+02  0.45594000000E+02  0.51100000000E-03 0. -1.
    9900012    2    1    2    0    0 -0.65042387295E+01  0.39365023559E+02 -0.78265883475E+01  0.50528859743E+02  0.29999999675E+02 0.  0.
         12    1    1    2    0    0  0.65042387295E+01 -0.39365023559E+02  0.78265883475E+01  0.40659140257E+02  0.00000000000E+00 0. -1.
         11    1    3    3    0    0 -0.44998604225E+01  0.12852075603E+02 -0.74914952340E+01  0.15541785361E+02  0.51100000000E-03 0. -1.
        -11    1    3    3    0    0  0.63570172931E+01  0.25644918189E+02 -0.16772871538E+01  0.26474266566E+02  0.51100000000E-03 0.  1.
         12    1    3    3    0    0 -0.83613956001E+01  0.86802976812E+00  0.13421940404E+01  0.85128078154E+01  0.00000000000E+00 0. -1.
</event>
<event>
 7    1  0.4971907E-013  0.5052885E+02  0.7816164E-02  0.1300439E+00
        -11   -1    0    0    0    0  0.00000000000E+00  0.00000000000E+00  0.45593999997E+02  0.45594000000E+02  0.51100000000E-03 0.  1.
         11   -1    0    0    0    0 -0.00000000000E+00 -0.00000000000E+00 -0.45593999997E+02  0.45594000000E+02  0.51100000000E-03 0. -1.
    9900012    2    1    2    0    0  0.24591378515E+02 -0.25896081904E+02  0.19437680804E+02  0.50528851088E+02  0.29999973366E+02 0.  0.
         12    1    1    2    0    0 -0.24591378515E+02  0.25896081904E+02 -0.19437680804E+02  0.40659148912E+02  0.00000000000E+00 0. -1.
         11    1    3    3    0    0  0.12483654852E+02 -0.18684270065E+02  0.30860714321E+00  0.22473068882E+02  0.51100000000E-03 0. -1.
        -11    1    3    3    0    0  0.99404029369E+01 -0.11342763269E+02  0.10943077974E+02  0.18633862856E+02  0.51100000000E-03 0.  1.
        -12    1    3    3    0    0  0.21673207266E+01  0.41309514308E+01  0.81859956866E+01  0.94219193499E+01  0.00000000000E+00 0.  1.
</event>
<event>
 7    1  0.4971907E-013  0.5052886E+02  0.7816164E-02  0.1300439E+00
        -11   -1    0    0    0    0  0.00000000000E+00  0.00000000000E+00  0.45593999997E+02  0.45594000000E+02  0.51100000000E-03 0.  1.
         11   -1    0    0    0    0 -0.00000000000E+00 -0.00000000000E+00 -0.45593999997E+02  0.45594000000E+02  0.51100000000E-03 0. -1.
    9900012    2    1    2    0    0  0.19019775149E+02 -0.27934568763E+02  0.22606932714E+02  0.50528863444E+02  0.30000010925E+02 0.  0.
         12    1    1    2    0    0 -0.19019775149E+02  0.27934568763E+02 -0.22606932714E+02  0.40659136556E+02  0.00000000000E+00 0. -1.
         11    1    3    3    0    0  0.77439807802E+01 -0.27987091280E+01  0.55849701610E+01  0.99495679840E+01  0.51100000000E-03 0. -1.
        -11    1    3    3    0    0  0.13678513863E+02 -0.26420831449E+02  0.20522537746E+02  0.36143279206E+02  0.51100000000E-03 0.  1.
        -12    1    3    3    0    0 -0.24027194938E+01  0.12849718136E+01 -0.35005751931E+01  0.44360162545E+01  0.00000000000E+00 0.  1.
</event>
<event>
 7    1  0.6666402E-013  0.5052886E+02  0.7816164E-02  0.1300439E+00
        -11   -1    0    0    0    0  0.00000000000E+00  0.00000000000E+00  0.45593999997E+02  0.45594000000E+02  0.51100000000E-03 0. -1.
         11   -1    0    0    0    0 -0.00000000000E+00 -0.00000000000E+00 -0.45593999997E+02  0.45594000000E+02  0.51100000000E-03 0.  1.
    9900012    2    1    2    0    0 -0.85937095784E+01 -0.39055247541E+02 -0.73485570855E+01  0.50528862084E+02  0.30000006791E+02 0.  0.
         12    1    1    2    0    0  0.85937095784E+01  0.39055247541E+02  0.73485570855E+01  0.40659137916E+02  0.00000000000E+00 0. -1.
         11    1    3    3    0    0  0.26207709261E+01  0.21647744281E+01 -0.28512724875E+01  0.44367154102E+01  0.51100000000E-03 0. -1.
        -11    1    3    3    0    0 -0.36189285658E+01 -0.90237077914E+01 -0.83141578349E+01  0.12792543415E+02  0.51100000000E-03 0.  1.
        -12    1    3    3    0    0 -0.75955519388E+01 -0.32196314178E+02  0.38168732369E+01  0.33299603259E+02  0.00000000000E+00 0.  1.
</event>
<event>
 7    1  0.4971907E-013  0.5052885E+02  0.7816164E-02  0.1300439E+00
        -11   -1    0    0    0    0  0.00000000000E+00  0.00000000000E+00  0.45593999997E+02  0.45594000000E+02  0.51100000000E-03 0.  1.
         11   -1    0    0    0    0 -0.00000000000E+00 -0.00000000000E+00 -0.45593999997E+02  0.45594000000E+02  0.51100000000E-03 0. -1.
    9900012    2    1    2    0    0 -0.38520325818E+02 -0.23497178987E+01  0.12799600111E+02  0.50528850497E+02  0.29999971570E+02 0.  0.
         12    1    1    2    0    0  0.38520325818E+02  0.23497178987E+01 -0.12799600111E+02  0.40659149503E+02  0.00000000000E+00 0. -1.
         11    1    3    3    0    0  0.22026274300E+01 -0.26942698143E+00 -0.35348632310E+00  0.22470227715E+01  0.51100000000E-03 0. -1.
        -11    1    3    3    0    0 -0.14586802922E+02  0.22527110577E+01  0.15842736564E+02  0.21652755684E+02  0.51100000000E-03 0.  1.
        -12    1    3    3    0    0 -0.26136150326E+02 -0.43330019750E+01 -0.26896501298E+01  0.26629072042E+02  0.00000000000E+00 0.  1.
</event>
<event>
 7    1  0.4971907E-013  0.5052886E+02  0.7816164E-02  0.1300439E+00
        -11   -1    0    0    0    0  0.00000000000E+00  0.00000000000E+00  0.45593999997E+02  0.45594000000E+02  0.51100000000E-03 0.  1.
         11   -1    0    0    0    0 -0.00000000000E+00 -0.00000000000E+00 -0.45593999997E+02  0.45594000000E+02  0.51100000000E-03 0. -1.
    9900012    2    1    2    0    0  0.10519375422E+02  0.34023807463E+02  0.19618586877E+02  0.50528859766E+02  0.29999999743E+02 0.  0.
         12    1    1    2    0    0 -0.10519375422E+02 -0.34023807463E+02 -0.19618586877E+02  0.40659140234E+02  0.00000000000E+00 0. -1.
         11    1    3    3    0    0 -0.47971879861E+01  0.47454828156E+01 -0.22485351050E+01  0.71125614308E+01  0.51100000000E-03 0. -1.
        -11    1    3    3    0    0 -0.62548246422E+00  0.36485318567E+01  0.10550753009E+02  0.11181296988E+02  0.51100000000E-03 0.  1.
        -12    1    3    3    0    0  0.15942045872E+02  0.25629792791E+02  0.11316368974E+02  0.32235001347E+02  0.00000000000E+00 0.  1.
</event>
<event>
 7    1  0.4971907E-013  0.5052885E+02  0.7816164E-02  0.1300439E+00
        -11   -1    0    0    0    0  0.00000000000E+00  0.00000000000E+00  0.45593999997E+02  0.45594000000E+02  0.51100000000E-03 0.  1.
         11   -1    0    0    0    0 -0.00000000000E+00 -0.00000000000E+00 -0.45593999997E+02  0.45594000000E+02  0.51100000000E-03 0. -1.
    9900012    2    1    2    0    0 -0.38919062185E+01 -0.23071517711E+02  0.33252434616E+02  0.50528852549E+02  0.29999977809E+02 0.  0.
         12    1    1    2    0    0  0.38919062185E+01  0.23071517711E+02 -0.33252434616E+02  0.40659147451E+02  0.00000000000E+00 0. -1.
         11    1    3    3    0    0  0.85474776138E+01 -0.99218113024E+01  0.27326439835E+02  0.30302409597E+02  0.51100000000E-03 0. -1.
        -11    1    3    3    0    0 -0.50619886487E+01 -0.18931788004E+01 -0.26759064436E+00  0.54110498116E+01  0.51100000000E-03 0.  1.
        -12    1    3    3    0    0 -0.73773951837E+01 -0.11256527609E+02  0.61935854256E+01  0.14815393141E+02  0.00000000000E+00 0.  1.
</event>
<event>
 7    1  0.4971907E-013  0.5052884E+02  0.7816164E-02  0.1300439E+00
        -11   -1    0    0    0    0  0.00000000000E+00  0.00000000000E+00  0.45593999997E+02  0.45594000000E+02  0.51100000000E-03 0.  1.
         11   -1    0    0    0    0 -0.00000000000E+00 -0.00000000000E+00 -0.45593999997E+02  0.45594000000E+02  0.51100000000E-03 0. -1.
    9900012    2    1    2    0    0  0.14572341978E+01 -0.18265222140E+02  0.36296352097E+02  0.50528843013E+02  0.29999948823E+02 0.  0.
         12    1    1    2    0    0 -0.14572341978E+01  0.18265222140E+02 -0.36296352097E+02  0.40659156987E+02  0.00000000000E+00 0. -1.
         11    1    3    3    0    0 -0.23163432582E+01 -0.53768025131E+01 -0.12114117602E+01  0.59785424703E+01  0.51100000000E-03 0. -1.
        -11    1    3    3    0    0 -0.61611812603E+01 -0.99861876040E+01  0.28531357618E+02  0.30849999435E+02  0.51100000000E-03 0.  1.
         12    1    3    3    0    0  0.99347587163E+01 -0.29022320223E+01  0.89764062393E+01  0.13700301108E+02  0.00000000000E+00 0. -1.
</event>
<event>
 7    1  0.4971907E-013  0.5052887E+02  0.7816164E-02  0.1300439E+00
        -11   -1    0    0    0    0  0.00000000000E+00  0.00000000000E+00  0.45593999997E+02  0.45594000000E+02  0.51100000000E-03 0.  1.
         11   -1    0    0    0    0 -0.00000000000E+00 -0.00000000000E+00 -0.45593999997E+02  0.45594000000E+02  0.51100000000E-03 0. -1.
    9900012    2    1    2    0    0 -0.29693759069E+02  0.48428007114E+01  0.27349456307E+02  0.50528870562E+02  0.30000032562E+02 0.  0.
         12    1    1    2    0    0  0.29693759069E+02 -0.48428007114E+01 -0.27349456307E+02  0.40659129438E+02  0.00000000000E+00 0. -1.
         11    1    3    3    0    0 -0.11605213595E+02  0.79817026765E+01  0.36157370953E+01  0.14541737008E+02  0.51100000000E-03 0. -1.
        -11    1    3    3    0    0 -0.38371504959E+01  0.13790493094E+01  0.20223151692E+02  0.20630108229E+02  0.51100000000E-03 0.  1.
         12    1    3    3    0    0 -0.14251394978E+02 -0.45179512746E+01  0.35105675188E+01  0.15357025325E+02  0.00000000000E+00 0. -1.
</event>
<event>
 7    1  0.4971907E-013  0.5052887E+02  0.7816164E-02  0.1300439E+00
        -11   -1    0    0    0    0  0.00000000000E+00  0.00000000000E+00  0.45593999997E+02  0.45594000000E+02  0.51100000000E-03 0.  1.
         11   -1    0    0    0    0 -0.00000000000E+00 -0.00000000000E+00 -0.45593999997E+02  0.45594000000E+02  0.51100000000E-03 0. -1.
    9900012    2    1    2    0    0  0.90343686108E+01  0.37353620393E+02  0.13275998227E+02  0.50528869394E+02  0.30000029011E+02 0.  0.
         12    1    1    2    0    0 -0.90343686108E+01 -0.37353620393E+02 -0.13275998227E+02  0.40659130606E+02  0.00000000000E+00 0. -1.
         11    1    3    3    0    0  0.14288707296E+01  0.13442863172E+02 -0.17153196923E+01  0.13626979259E+02  0.51100000000E-03 0. -1.
        -11    1    3    3    0    0 -0.58690962908E+01 -0.42290346735E+00  0.31054478232E+01  0.66534911931E+01  0.51100000000E-03 0.  1.
        -12    1    3    3    0    0  0.13474594172E+02  0.24333660689E+02  0.11885870096E+02  0.30248398942E+02  0.00000000000E+00 0.  1.
</event>
<event>
 7    1  0.4971907E-013  0.5052886E+02  0.7816164E-02  0.1300439E+00
        -11   -1    0    0    0    0  0.00000000000E+00  0.00000000000E+00  0.45593999997E+02  0.45594000000E+02  0.51100000000E-03 0.  1.
         11   -1    0    0    0    0 -0.00000000000E+00 -0.00000000000E+00 -0.45593999997E+02  0.45594000000E+02  0.51100000000E-03 0. -1.
    9900012    2    1    2    0    0  0.11161730004E+02 -0.18505507970E+02  0.34440201450E+02  0.50528861817E+02  0.30000005979E+02 0.  0.
         12    1    1    2    0    0 -0.11161730004E+02  0.18505507970E+02 -0.34440201450E+02  0.40659138183E+02  0.00000000000E+00 0. -1.
         11    1    3    3    0    0  0.40244913935E+01 -0.17878720376E+02  0.11295688494E+02  0.21527604420E+02  0.51100000000E-03 0. -1.
        -11    1    3    3    0    0 -0.11644140923E+01  0.17639186528E+01 -0.16905519409E+01  0.27065171934E+01  0.51100000000E-03 0.  1.
        -12    1    3    3    0    0  0.83016527029E+01 -0.23907062464E+01  0.24835064896E+02  0.26294740203E+02  0.00000000000E+00 0.  1.
</event>
<event>
 7    1  0.4971907E-013  0.5052886E+02  0.7816164E-02  0.1300439E+00
        -11   -1    0    0    0    0  0.00000000000E+00  0.00000000000E+00  0.45593999997E+02  0.45594000000E+02  0.51100000000E-03 0.  1.
         11   -1    0    0    0    0 -0.00000000000E+00 -0.00000000000E+00 -0.45593999997E+02  0.45594000000E+02  0.51100000000E-03 0. -1.
    9900012    2    1    2    0    0  0.25545312665E+02  0.22509705974E+02  0.22224214866E+02  0.50528860946E+02  0.30000003331E+02 0.  0.
         12    1    1    2    0    0 -0.25545312665E+02 -0.22509705974E+02 -0.22224214866E+02  0.40659139054E+02  0.00000000000E+00 0. -1.
         11    1    3    3    0    0  0.15059847008E+02  0.54961941554E+01  0.92105124651E+01  0.18488934048E+02  0.51100000000E-03 0. -1.
        -11    1    3    3    0    0 -0.30515435604E-01 -0.47818416305E+01  0.53335966412E+00  0.48115915624E+01  0.51100000000E-03 0.  1.
        -12    1    3    3    0    0  0.10515981093E+02  0.21795353449E+02  0.12480342737E+02  0.27228335336E+02  0.00000000000E+00 0.  1.
</event>
<event>
 7    1  0.4971907E-013  0.5052885E+02  0.7816164E-02  0.1300439E+00
        -11   -1    0    0    0    0  0.00000000000E+00  0.00000000000E+00  0.45593999997E+02  0.45594000000E+02  0.51100000000E-03 0.  1.
         11   -1    0    0    0    0 -0.00000000000E+00 -0.00000000000E+00 -0.45593999997E+02  0.45594000000E+02  0.51100000000E-03 0. -1.
    9900012    2    1    2    0    0  0.20616741615E+02  0.13099887217E+02  0.32503987499E+02  0.50528852404E+02  0.29999977368E+02 0.  0.
         12    1    1    2    0    0 -0.20616741615E+02 -0.13099887217E+02 -0.32503987499E+02  0.40659147596E+02  0.00000000000E+00 0. -1.
         11    1    3    3    0    0  0.75913992718E+01  0.16403114063E+02  0.12681289816E+02  0.22079551752E+02  0.51100000000E-03 0. -1.
        -11    1    3    3    0    0  0.96884914603E+01  0.23317791635E+01  0.30156722222E+01  0.10411452351E+02  0.51100000000E-03 0.  1.
        -12    1    3    3    0    0  0.33368508823E+01 -0.56350060102E+01  0.16807025460E+02  0.18037848302E+02  0.00000000000E+00 0.  1.
</event>
<event>
 7    1  0.4971907E-013  0.5052886E+02  0.7816164E-02  0.1300439E+00
        -11   -1    0    0    0    0  0.00000000000E+00  0.00000000000E+00  0.45593999997E+02  0.45594000000E+02  0.51100000000E-03 0.  1.
         11   -1    0    0    0    0 -0.00000000000E+00 -0.00000000000E+00 -0.45593999997E+02  0.45594000000E+02  0.51100000000E-03 0. -1.
    9900012    2    1    2    0    0 -0.22103628554E+02  0.32387639307E+02  0.10753412930E+02  0.50528862469E+02  0.30000007960E+02 0.  0.
         12    1    1    2    0    0  0.22103628554E+02 -0.32387639307E+02 -0.10753412930E+02  0.40659137531E+02  0.00000000000E+00 0. -1.
         11    1    3    3    0    0 -0.56403785226E+01  0.11117019104E+02 -0.74769993610E+01  0.14536419894E+02  0.51100000000E-03 0. -1.
        -11    1    3    3    0    0 -0.10608477786E+02  0.13966040131E+02  0.25394932966E+01  0.17721148505E+02  0.51100000000E-03 0.  1.
        -12    1    3    3    0    0 -0.58547722457E+01  0.73045800726E+01  0.15690918995E+02  0.18271294070E+02  0.00000000000E+00 0.  1.
</event>
<event>
 7    1  0.4971907E-013  0.5052894E+02  0.7816164E-02  0.1300439E+00
        -11   -1    0    0    0    0  0.00000000000E+00  0.00000000000E+00  0.45593999997E+02  0.45594000000E+02  0.51100000000E-03 0.  1.
         11   -1    0    0    0    0 -0.00000000000E+00 -0.00000000000E+00 -0.45593999997E+02  0.45594000000E+02  0.51100000000E-03 0. -1.
    9900012    2    1    2    0    0  0.28205929411E+02 -0.20828345470E+02  0.20585556035E+02  0.50528935252E+02  0.30000229190E+02 0.  0.
         12    1    1    2    0    0 -0.28205929411E+02  0.20828345470E+02 -0.20585556035E+02  0.40659064748E+02  0.00000000000E+00 0. -1.
         11    1    3    3    0    0  0.45340214555E+01 -0.95606390987E+01 -0.27344384198E+01  0.10928875709E+02  0.51100000000E-03 0.  1.
        -11    1    3    3    0    0 -0.20922583883E+01 -0.27969718014E+01  0.73214535775E+01  0.81119836766E+01  0.51100000000E-03 0. -1.
        -12    1    3    3    0    0  0.25764166344E+02 -0.84707345700E+01  0.15998540877E+02  0.31488075866E+02  0.00000000000E+00 0.  1.
</event>
<event>
 7    1  0.4971907E-013  0.5052886E+02  0.7816164E-02  0.1300439E+00
        -11   -1    0    0    0    0  0.00000000000E+00  0.00000000000E+00  0.45593999997E+02  0.45594000000E+02  0.51100000000E-03 0.  1.
         11   -1    0    0    0    0 -0.00000000000E+00 -0.00000000000E+00 -0.45593999997E+02  0.45594000000E+02  0.51100000000E-03 0. -1.
    9900012    2    1    2    0    0 -0.31444911816E+02 -0.16907584937E+02  0.19455512938E+02  0.50528857225E+02  0.29999992021E+02 0.  0.
         12    1    1    2    0    0  0.31444911816E+02  0.16907584937E+02 -0.19455512938E+02  0.40659142775E+02  0.00000000000E+00 0. -1.
         11    1    3    3    0    0  0.21485699626E+01 -0.10626938065E+01  0.23931059047E+01  0.33871266795E+01  0.51100000000E-03 0. -1.
        -11    1    3    3    0    0 -0.16954005844E+02 -0.14029146409E+02  0.20476341410E+02  0.30058872582E+02  0.51100000000E-03 0.  1.
         12    1    3    3    0    0 -0.16639475935E+02 -0.18157447217E+01 -0.34139343762E+01  0.17082857964E+02  0.00000000000E+00 0. -1.
</event>
<event>
 7    1  0.4971907E-013  0.5052886E+02  0.7816164E-02  0.1300439E+00
        -11   -1    0    0    0    0  0.00000000000E+00  0.00000000000E+00  0.45593999997E+02  0.45594000000E+02  0.51100000000E-03 0. -1.
         11   -1    0    0    0    0 -0.00000000000E+00 -0.00000000000E+00 -0.45593999997E+02  0.45594000000E+02  0.51100000000E-03 0.  1.
    9900012    2    1    2    0    0  0.26965875333E+02  0.18994901005E+02 -0.23773960335E+02  0.50528857281E+02  0.29999992190E+02 0.  0.
         12    1    1    2    0    0 -0.26965875333E+02 -0.18994901005E+02  0.23773960335E+02  0.40659142719E+02  0.00000000000E+00 0. -1.
         11    1    3    3    0    0  0.77762689787E+01  0.88809685314E+01  0.37597312445E+01  0.12388605272E+02  0.51100000000E-03 0. -1.
        -11    1    3    3    0    0  0.68711228599E+01  0.12008818534E+02 -0.16083594105E+02  0.21215702947E+02  0.51100000000E-03 0.  1.
         12    1    3    3    0    0  0.12318483494E+02 -0.18948860603E+01 -0.11450097474E+02  0.16924549062E+02  0.00000000000E+00 0. -1.
</event>
<event>
 7    1  0.4971907E-013  0.5052886E+02  0.7816164E-02  0.1300439E+00
        -11   -1    0    0    0    0  0.00000000000E+00  0.00000000000E+00  0.45593999997E+02  0.45594000000E+02  0.51100000000E-03 0. -1.
         11   -1    0    0    0    0 -0.00000000000E+00 -0.00000000000E+00 -0.45593999997E+02  0.45594000000E+02  0.51100000000E-03 0.  1.
    9900012    2    1    2    0    0  0.40199424043E+02  0.60566781351E+01 -0.69920667287E+00  0.50528856706E+02  0.29999990443E+02 0.  0.
         12    1    1    2    0    0 -0.40199424043E+02 -0.60566781351E+01  0.69920667287E+00  0.40659143294E+02  0.00000000000E+00 0. -1.
         11    1    3    3    0    0  0.22711407128E+02 -0.33922230236E+00  0.10991210691E+02  0.25233505468E+02  0.51100000000E-03 0. -1.
        -11    1    3    3    0    0  0.22111044648E+01 -0.23717257685E+01 -0.59382140334E+01  0.67658297527E+01  0.51100000000E-03 0.  1.
        -12    1    3    3    0    0  0.15276912451E+02  0.87676262060E+01 -0.57522033301E+01  0.18529521485E+02  0.00000000000E+00 0.  1.
</event>
<event>
 7    1  0.4971907E-013  0.5052886E+02  0.7816164E-02  0.1300439E+00
        -11   -1    0    0    0    0  0.00000000000E+00  0.00000000000E+00  0.45593999997E+02  0.45594000000E+02  0.51100000000E-03 0.  1.
         11   -1    0    0    0    0 -0.00000000000E+00 -0.00000000000E+00 -0.45593999997E+02  0.45594000000E+02  0.51100000000E-03 0. -1.
    9900012    2    1    2    0    0 -0.19281066791E+02  0.35646978044E+02  0.32709509422E+01  0.50528859572E+02  0.29999999156E+02 0.  0.
         12    1    1    2    0    0  0.19281066791E+02 -0.35646978044E+02 -0.32709509422E+01  0.40659140428E+02  0.00000000000E+00 0. -1.
         11    1    3    3    0    0  0.75808472722E-01  0.19522304620E+02 -0.34505191879E+01  0.19825039912E+02  0.51100000000E-03 0. -1.
        -11    1    3    3    0    0 -0.95124164200E+01  0.15025925222E+02 -0.14776624219E+01  0.17845110854E+02  0.51100000000E-03 0.  1.
         12    1    3    3    0    0 -0.98444588439E+01  0.10987482019E+01  0.81991325520E+01  0.12858708806E+02  0.00000000000E+00 0. -1.
</event>
<event>
 7    1  0.4971907E-013  0.5052887E+02  0.7816164E-02  0.1300439E+00
        -11   -1    0    0    0    0  0.00000000000E+00  0.00000000000E+00  0.45593999997E+02  0.45594000000E+02  0.51100000000E-03 0. -1.
         11   -1    0    0    0    0 -0.00000000000E+00 -0.00000000000E+00 -0.45593999997E+02  0.45594000000E+02  0.51100000000E-03 0.  1.
    9900012    2    1    2    0    0  0.17301833038E+02  0.15188811902E+02 -0.33512852336E+02  0.50528871810E+02  0.30000036353E+02 0.  0.
         12    1    1    2    0    0 -0.17301833038E+02 -0.15188811902E+02  0.33512852336E+02  0.40659128190E+02  0.00000000000E+00 0. -1.
         11    1    3    3    0    0  0.47659244232E+01  0.11828846468E+00 -0.18295350323E+02  0.18906291848E+02  0.51100000000E-03 0. -1.
        -11    1    3    3    0    0  0.17756204888E+02  0.11545639849E+02 -0.13415009675E+02  0.25070841557E+02  0.51100000000E-03 0.  1.
         12    1    3    3    0    0 -0.52202962728E+01  0.35248835886E+01 -0.18024923391E+01  0.65517384046E+01  0.00000000000E+00 0. -1.
</event>
<event>
 7    1  0.4971907E-013  0.5052886E+02  0.7816164E-02  0.1300439E+00
        -11   -1    0    0    0    0  0.00000000000E+00  0.00000000000E+00  0.45593999997E+02  0.45594000000E+02  0.51100000000E-03 0. -1.
         11   -1    0    0    0    0 -0.00000000000E+00 -0.00000000000E+00 -0.45593999997E+02  0.45594000000E+02  0.51100000000E-03 0.  1.
    9900012    2    1    2    0    0  0.28489681226E+02 -0.28899676128E+02  0.25124744161E+01  0.50528859031E+02  0.29999997510E+02 0.  0.
         12    1    1    2    0    0 -0.28489681226E+02  0.28899676128E+02 -0.25124744161E+01  0.40659140969E+02  0.00000000000E+00 0. -1.
         11    1    3    3    0    0  0.75470088105E+01  0.14171779372E+01 -0.51535099277E+01  0.92479403182E+01  0.51100000000E-03 0. -1.
        -11    1    3    3    0    0  0.21482450487E+02 -0.17428224593E+02  0.52242355655E+01  0.28151932951E+02  0.51100000000E-03 0.  1.
         12    1    3    3    0    0 -0.53977807099E+00 -0.12888629472E+02  0.24417487783E+01  0.13128985761E+02  0.00000000000E+00 0. -1.
</event>
<event>
 7    1  0.4971907E-013  0.5052885E+02  0.7816164E-02  0.1300439E+00
        -11   -1    0    0    0    0  0.00000000000E+00  0.00000000000E+00  0.45593999997E+02  0.45594000000E+02  0.51100000000E-03 0.  1.
         11   -1    0    0    0    0 -0.00000000000E+00 -0.00000000000E+00 -0.45593999997E+02  0.45594000000E+02  0.51100000000E-03 0. -1.
    9900012    2    1    2    0    0  0.16957842026E+02  0.20589835694E+02  0.30686422486E+02  0.50528852627E+02  0.29999978045E+02 0.  0.
         12    1    1    2    0    0 -0.16957842026E+02 -0.20589835694E+02 -0.30686422486E+02  0.40659147373E+02  0.00000000000E+00 0. -1.
         11    1    3    3    0    0 -0.12742236666E+01  0.10891465077E+01  0.51677856561E+01  0.54328532943E+01  0.51100000000E-03 0. -1.
        -11    1    3    3    0    0 -0.26515448969E+01  0.15678958287E+02  0.12081638939E+02  0.19970639024E+02  0.51100000000E-03 0.  1.
        -12    1    3    3    0    0  0.20883610590E+02  0.38217308992E+01  0.13436997891E+02  0.25125360309E+02  0.00000000000E+00 0.  1.
</event>
<event>
 7    1  0.4971907E-013  0.5052884E+02  0.7816164E-02  0.1300439E+00
        -11   -1    0    0    0    0  0.00000000000E+00  0.00000000000E+00  0.45593999997E+02  0.45594000000E+02  0.51100000000E-03 0.  1.
         11   -1    0    0    0    0 -0.00000000000E+00 -0.00000000000E+00 -0.45593999997E+02  0.45594000000E+02  0.51100000000E-03 0. -1.
    9900012    2    1    2    0    0  0.20491276499E+01  0.39733159538E+02  0.83811859833E+01  0.50528841506E+02  0.29999944241E+02 0.  0.
         12    1    1    2    0    0 -0.20491276499E+01 -0.39733159538E+02 -0.83811859833E+01  0.40659158494E+02  0.00000000000E+00 0. -1.
         11    1    3    3    0    0  0.25283038823E+01 -0.17975436420E+01  0.58933577494E+01  0.66599661778E+01  0.51100000000E-03 0. -1.
        -11    1    3    3    0    0  0.31913724567E+01  0.14289912694E+02  0.66273080619E+01  0.16071953067E+02  0.51100000000E-03 0.  1.
         12    1    3    3    0    0 -0.36705486891E+01  0.27240790486E+02 -0.41394798280E+01  0.27796922261E+02  0.00000000000E+00 0. -1.
</event>
<event>
 7    1  0.4971907E-013  0.5052887E+02  0.7816164E-02  0.1300439E+00
        -11   -1    0    0    0    0  0.00000000000E+00  0.00000000000E+00  0.45593999997E+02  0.45594000000E+02  0.51100000000E-03 0.  1.
         11   -1    0    0    0    0 -0.00000000000E+00 -0.00000000000E+00 -0.45593999997E+02  0.45594000000E+02  0.51100000000E-03 0. -1.
    9900012    2    1    2    0    0 -0.28394693056E+02  0.25580420050E+01  0.28989015458E+02  0.50528865849E+02  0.30000018236E+02 0.  0.
         12    1    1    2    0    0  0.28394693056E+02 -0.25580420050E+01 -0.28989015458E+02  0.40659134151E+02  0.00000000000E+00 0. -1.
         11    1    3    3    0    0 -0.87514365216E+01 -0.93889721073E+01  0.16196152150E+02  0.20665328044E+02  0.51100000000E-03 0. -1.
        -11    1    3    3    0    0 -0.69778655634E+01 -0.12803717437E+01  0.84670328713E+01  0.11046293746E+02  0.51100000000E-03 0.  1.
         12    1    3    3    0    0 -0.12665390971E+02  0.13227385856E+02  0.43258304369E+01  0.18817244060E+02  0.00000000000E+00 0. -1.
</event>
<event>
 7    1  0.4971907E-013  0.5052886E+02  0.7816164E-02  0.1300439E+00
        -11   -1    0    0    0    0  0.00000000000E+00  0.00000000000E+00  0.45593999997E+02  0.45594000000E+02  0.51100000000E-03 0.  1.
         11   -1    0    0    0    0 -0.00000000000E+00 -0.00000000000E+00 -0.45593999997E+02  0.45594000000E+02  0.51100000000E-03 0. -1.
    9900012    2    1    2    0    0  0.34753310330E+02  0.21075567620E+02 -0.10924153276E+01  0.50528862027E+02  0.30000006618E+02 0.  0.
         12    1    1    2    0    0 -0.34753310330E+02 -0.21075567620E+02  0.10924153276E+01  0.40659137973E+02  0.00000000000E+00 0. -1.
         11    1    3    3    0    0  0.62955209648E+01  0.31770480573E+01 -0.94982646896E+01  0.11829803504E+02  0.51100000000E-03 0. -1.
        -11    1    3    3    0    0  0.14372256768E+02 -0.74735057654E+00  0.26700822321E+01  0.14637268765E+02  0.51100000000E-03 0.  1.
        -12    1    3    3    0    0  0.14085532597E+02  0.18645870140E+02  0.57357671299E+01  0.24061789758E+02  0.00000000000E+00 0.  1.
</event>
<event>
 7    1  0.4971907E-013  0.5052886E+02  0.7816164E-02  0.1300439E+00
        -11   -1    0    0    0    0  0.00000000000E+00  0.00000000000E+00  0.45593999997E+02  0.45594000000E+02  0.51100000000E-03 0.  1.
         11   -1    0    0    0    0 -0.00000000000E+00 -0.00000000000E+00 -0.45593999997E+02  0.45594000000E+02  0.51100000000E-03 0. -1.
    9900012    2    1    2    0    0  0.39803699500E+02  0.13141034046E+00 -0.82954249551E+01  0.50528857882E+02  0.29999994018E+02 0.  0.
         12    1    1    2    0    0 -0.39803699500E+02 -0.13141034046E+00  0.82954249551E+01  0.40659142118E+02  0.00000000000E+00 0. -1.
         11    1    3    3    0    0  0.19791880531E+02  0.91381641429E+01 -0.11878610192E+02  0.24825913059E+02  0.51100000000E-03 0. -1.
        -11    1    3    3    0    0  0.44849632120E+01  0.17178676562E+01 -0.30627975431E+01  0.56961999042E+01  0.51100000000E-03 0.  1.
         12    1    3    3    0    0  0.15526855757E+02 -0.10724621459E+02  0.66459827801E+01  0.20006744919E+02  0.00000000000E+00 0. -1.
</event>
<event>
 7    1  0.4971907E-013  0.5052886E+02  0.7816164E-02  0.1300439E+00
        -11   -1    0    0    0    0  0.00000000000E+00  0.00000000000E+00  0.45593999997E+02  0.45594000000E+02  0.51100000000E-03 0. -1.
         11   -1    0    0    0    0 -0.00000000000E+00 -0.00000000000E+00 -0.45593999997E+02  0.45594000000E+02  0.51100000000E-03 0.  1.
    9900012    2    1    2    0    0  0.32271022551E+02 -0.12927104318E+02 -0.21086420533E+02  0.50528855231E+02  0.29999985959E+02 0.  0.
         12    1    1    2    0    0 -0.32271022551E+02  0.12927104318E+02  0.21086420533E+02  0.40659144769E+02  0.00000000000E+00 0. -1.
         11    1    3    3    0    0  0.32159694723E+02 -0.69242706922E+01 -0.85542198634E+01  0.33990677649E+02  0.51100000000E-03 0. -1.
        -11    1    3    3    0    0 -0.19135420059E+01 -0.26742970372E+01  0.12917448139E+00  0.32909260033E+01  0.51100000000E-03 0.  1.
        -12    1    3    3    0    0  0.20248698330E+01 -0.33285365886E+01 -0.12661375151E+02  0.13247251578E+02  0.00000000000E+00 0.  1.
</event>
<event>
 7    1  0.4971907E-013  0.5052885E+02  0.7816164E-02  0.1300439E+00
        -11   -1    0    0    0    0  0.00000000000E+00  0.00000000000E+00  0.45593999997E+02  0.45594000000E+02  0.51100000000E-03 0.  1.
         11   -1    0    0    0    0 -0.00000000000E+00 -0.00000000000E+00 -0.45593999997E+02  0.45594000000E+02  0.51100000000E-03 0. -1.
    9900012    2    1    2    0    0 -0.70656358990E+00 -0.33600489055E+02 -0.22883927925E+02  0.50528852762E+02  0.29999978456E+02 0.  0.
         12    1    1    2    0    0  0.70656358990E+00  0.33600489055E+02  0.22883927925E+02  0.40659147238E+02  0.00000000000E+00 0. -1.
         11    1    3    3    0    0 -0.44688516028E+01  0.99260817558E+00 -0.87135765183E+01  0.98428817752E+01  0.51100000000E-03 0. -1.
        -11    1    3    3    0    0 -0.18443028545E+01 -0.67879635477E+01  0.28690756345E+01  0.75966767340E+01  0.51100000000E-03 0.  1.
        -12    1    3    3    0    0  0.56065908674E+01 -0.27805133683E+02 -0.17039427041E+02  0.33089294253E+02  0.00000000000E+00 0.  1.
</event>
<event>
 7    1  0.4971907E-013  0.5052886E+02  0.7816164E-02  0.1300439E+00
        -11   -1    0    0    0    0  0.00000000000E+00  0.00000000000E+00  0.45593999997E+02  0.45594000000E+02  0.51100000000E-03 0. -1.
         11   -1    0    0    0    0 -0.00000000000E+00 -0.00000000000E+00 -0.45593999997E+02  0.45594000000E+02  0.51100000000E-03 0.  1.
    9900012    2    1    2    0    0 -0.68774154399E+01  0.35074709894E+02 -0.19381208775E+02  0.50528863624E+02  0.30000011472E+02 0.  0.
         12    1    1    2    0    0  0.68774154399E+01 -0.35074709894E+02  0.19381208775E+02  0.40659136376E+02  0.00000000000E+00 0. -1.
         11    1    3    3    0    0 -0.12841368654E+02  0.11467463561E+02 -0.85474244542E+01  0.19221392626E+02  0.51100000000E-03 0. -1.
        -11    1    3    3    0    0  0.14517029552E+01 -0.14267607867E+00 -0.66068345113E+01  0.67659485997E+01  0.51100000000E-03 0.  1.
         12    1    3    3    0    0  0.45122502586E+01  0.23749922411E+02 -0.42269498092E+01  0.24541522398E+02  0.00000000000E+00 0. -1.
</event>
<event>
 7    1  0.4971907E-013  0.5052886E+02  0.7816164E-02  0.1300439E+00
        -11   -1    0    0    0    0  0.00000000000E+00  0.00000000000E+00  0.45593999997E+02  0.45594000000E+02  0.51100000000E-03 0.  1.
         11   -1    0    0    0    0 -0.00000000000E+00 -0.00000000000E+00 -0.45593999997E+02  0.45594000000E+02  0.51100000000E-03 0. -1.
    9900012    2    1    2    0    0  0.12928596317E+02  0.27956652046E+02  0.26541341458E+02  0.50528858313E+02  0.29999995329E+02 0.  0.
         12    1    1    2    0    0 -0.12928596317E+02 -0.27956652046E+02 -0.26541341458E+02  0.40659141687E+02  0.00000000000E+00 0. -1.
         11    1    3    3    0    0 -0.85353183465E+01  0.11924357237E+02  0.88999493668E+01  0.17153747514E+02  0.51100000000E-03 0. -1.
        -11    1    3    3    0    0  0.16163058860E+01 -0.11189271191E+01  0.21392707356E+01  0.29053265146E+01  0.51100000000E-03 0.  1.
        -12    1    3    3    0    0  0.19847608778E+02  0.17151221928E+02  0.15502121356E+02  0.30469784284E+02  0.00000000000E+00 0.  1.
</event>
<event>
 7    1  0.4971907E-013  0.5052886E+02  0.7816164E-02  0.1300439E+00
        -11   -1    0    0    0    0  0.00000000000E+00  0.00000000000E+00  0.45593999997E+02  0.45594000000E+02  0.51100000000E-03 0. -1.
         11   -1    0    0    0    0 -0.00000000000E+00 -0.00000000000E+00 -0.45593999997E+02  0.45594000000E+02  0.51100000000E-03 0.  1.
    9900012    2    1    2    0    0 -0.35520200334E+02  0.17888092615E+02 -0.84556000349E+01  0.50528860055E+02  0.30000000622E+02 0.  0.
         12    1    1    2    0    0  0.35520200334E+02 -0.17888092615E+02  0.84556000349E+01  0.40659139945E+02  0.00000000000E+00 0. -1.
         11    1    3    3    0    0 -0.55120331485E+01  0.14731842149E+02  0.48472649029E+00  0.15736729093E+02  0.51100000000E-03 0. -1.
        -11    1    3    3    0    0 -0.91333062930E+01  0.67002832907E+01 -0.74674775156E+01  0.13567398451E+02  0.51100000000E-03 0.  1.
         12    1    3    3    0    0 -0.20874860892E+02 -0.35440328243E+01 -0.14728490096E+01  0.21224732510E+02  0.00000000000E+00 0. -1.
</event>
<event>
 7    1  0.4971907E-013  0.5052886E+02  0.7816164E-02  0.1300439E+00
        -11   -1    0    0    0    0  0.00000000000E+00  0.00000000000E+00  0.45593999997E+02  0.45594000000E+02  0.51100000000E-03 0. -1.
         11   -1    0    0    0    0 -0.00000000000E+00 -0.00000000000E+00 -0.45593999997E+02  0.45594000000E+02  0.51100000000E-03 0.  1.
    9900012    2    1    2    0    0  0.23901495040E+02 -0.32607255473E+02 -0.43186782006E+01  0.50528861347E+02  0.30000004549E+02 0.  0.
         12    1    1    2    0    0 -0.23901495040E+02  0.32607255473E+02  0.43186782006E+01  0.40659138653E+02  0.00000000000E+00 0. -1.
         11    1    3    3    0    0  0.14025453362E+02 -0.84262210133E+01  0.36932094381E+01  0.16773620324E+02  0.51100000000E-03 0. -1.
        -11    1    3    3    0    0  0.50269099424E+01  0.24216097421E+01 -0.26948681604E+01  0.61964773844E+01  0.51100000000E-03 0.  1.
        -12    1    3    3    0    0  0.48491317358E+01 -0.26602644202E+02 -0.53170194782E+01  0.27558763638E+02  0.00000000000E+00 0.  1.
</event>
<event>
 7    1  0.4971907E-013  0.5052886E+02  0.7816164E-02  0.1300439E+00
        -11   -1    0    0    0    0  0.00000000000E+00  0.00000000000E+00  0.45593999997E+02  0.45594000000E+02  0.51100000000E-03 0.  1.
         11   -1    0    0    0    0 -0.00000000000E+00 -0.00000000000E+00 -0.45593999997E+02  0.45594000000E+02  0.51100000000E-03 0. -1.
    9900012    2    1    2    0    0 -0.36838447491E+02 -0.12726744760E+02  0.11581196119E+02  0.50528863889E+02  0.30000012278E+02 0.  0.
         12    1    1    2    0    0  0.36838447491E+02  0.12726744760E+02 -0.11581196119E+02  0.40659136111E+02  0.00000000000E+00 0. -1.
         11    1    3    3    0    0 -0.21922641942E+01 -0.21660611448E+01 -0.48832655504E+01  0.57744372780E+01  0.51100000000E-03 0. -1.
        -11    1    3    3    0    0 -0.40881468791E+01 -0.92851318858E+01  0.82757209574E+01  0.13092523694E+02  0.51100000000E-03 0.  1.
        -12    1    3    3    0    0 -0.30558036418E+02 -0.12755517291E+01  0.81887407122E+01  0.31661902918E+02  0.00000000000E+00 0.  1.
</event>
<event>
 7    1  0.4971907E-013  0.5052885E+02  0.7816164E-02  0.1300439E+00
        -11   -1    0    0    0    0  0.00000000000E+00  0.00000000000E+00  0.45593999997E+02  0.45594000000E+02  0.51100000000E-03 0.  1.
         11   -1    0    0    0    0 -0.00000000000E+00 -0.00000000000E+00 -0.45593999997E+02  0.45594000000E+02  0.51100000000E-03 0. -1.
    9900012    2    1    2    0    0  0.25471182357E+02  0.24662266944E+02  0.19903707313E+02  0.50528854580E+02  0.29999983981E+02 0.  0.
         12    1    1    2    0    0 -0.25471182357E+02 -0.24662266944E+02 -0.19903707313E+02  0.40659145420E+02  0.00000000000E+00 0. -1.
         11    1    3    3    0    0  0.34737900710E+01  0.11388166003E+02  0.92214425403E+01  0.15059632969E+02  0.51100000000E-03 0. -1.
        -11    1    3    3    0    0  0.99042576085E+01  0.49610469987E+01  0.16340544471E+02  0.19741319610E+02  0.51100000000E-03 0.  1.
         12    1    3    3    0    0  0.12093134678E+02  0.83130539424E+01 -0.56582796985E+01  0.15727902000E+02  0.00000000000E+00 0. -1.
</event>
<event>
 7    1  0.4971907E-013  0.5052887E+02  0.7816164E-02  0.1300439E+00
        -11   -1    0    0    0    0  0.00000000000E+00  0.00000000000E+00  0.45593999997E+02  0.45594000000E+02  0.51100000000E-03 0. -1.
         11   -1    0    0    0    0 -0.00000000000E+00 -0.00000000000E+00 -0.45593999997E+02  0.45594000000E+02  0.51100000000E-03 0.  1.
    9900012    2    1    2    0    0  0.28532584081E+02 -0.26385674604E+02 -0.11952110940E+02  0.50528866530E+02  0.30000020304E+02 0.  0.
         12    1    1    2    0    0 -0.28532584081E+02  0.26385674604E+02  0.11952110940E+02  0.40659133470E+02  0.00000000000E+00 0. -1.
         11    1    3    3    0    0  0.15907929618E+02 -0.15178436239E+02  0.33447323854E+01  0.22240377389E+02  0.51100000000E-03 0. -1.
        -11    1    3    3    0    0  0.16276073937E+02 -0.88253476330E+01 -0.88885873610E+01  0.20537875479E+02  0.51100000000E-03 0.  1.
        -12    1    3    3    0    0 -0.36514194742E+01 -0.23818907317E+01 -0.64082559646E+01  0.77506136623E+01  0.00000000000E+00 0.  1.
</event>
<event>
 7    1  0.4971907E-013  0.5052886E+02  0.7816164E-02  0.1300439E+00
        -11   -1    0    0    0    0  0.00000000000E+00  0.00000000000E+00  0.45593999997E+02  0.45594000000E+02  0.51100000000E-03 0.  1.
         11   -1    0    0    0    0 -0.00000000000E+00 -0.00000000000E+00 -0.45593999997E+02  0.45594000000E+02  0.51100000000E-03 0. -1.
    9900012    2    1    2    0    0  0.19981535299E+02 -0.26019056686E+02  0.24019004025E+02  0.50528860584E+02  0.30000002230E+02 0.  0.
         12    1    1    2    0    0 -0.19981535299E+02  0.26019056686E+02 -0.24019004025E+02  0.40659139416E+02  0.00000000000E+00 0. -1.
         11    1    3    3    0    0 -0.27207205655E+01 -0.76287894392E+01  0.36393431984E+01  0.88795026820E+01  0.51100000000E-03 0. -1.
        -11    1    3    3    0    0  0.21023738307E+02 -0.23105425955E+02  0.16584170920E+02  0.35367965821E+02  0.51100000000E-03 0.  1.
         12    1    3    3    0    0  0.16785175582E+01  0.47151587085E+01  0.37954899065E+01  0.62813920805E+01  0.00000000000E+00 0. -1.
</event>
<event>
 7    1  0.4971907E-013  0.5052879E+02  0.7816164E-02  0.1300439E+00
        -11   -1    0    0    0    0  0.00000000000E+00  0.00000000000E+00  0.45593999997E+02  0.45594000000E+02  0.51100000000E-03 0. -1.
         11   -1    0    0    0    0 -0.00000000000E+00 -0.00000000000E+00 -0.45593999997E+02  0.45594000000E+02  0.51100000000E-03 0.  1.
    9900012    2    1    2    0    0  0.11946012220E+02  0.37659510180E+02 -0.96033899336E+01  0.50528794238E+02  0.29999800566E+02 0.  0.
         12    1    1    2    0    0 -0.11946012220E+02 -0.37659510180E+02  0.96033899336E+01  0.40659205762E+02  0.00000000000E+00 0. -1.
         11    1    3    3    0    0 -0.27868488548E+01  0.50233777269E+00 -0.49864175111E+01  0.57343900838E+01  0.51100000000E-03 0. -1.
        -11    1    3    3    0    0  0.96422681203E+01  0.37959938562E+02 -0.25713035271E+01  0.39249737225E+02  0.51100000000E-03 0.  1.
         12    1    3    3    0    0  0.50905929542E+01 -0.80276615504E+00 -0.20456688954E+01  0.55446669291E+01  0.00000000000E+00 0. -1.
</event>
<event>
 7    1  0.4998243E-013  0.5052890E+02  0.7816164E-02  0.1300439E+00
        -11   -1    0    0    0    0  0.00000000000E+00  0.00000000000E+00  0.45593999997E+02  0.45594000000E+02  0.51100000000E-03 0. -1.
         11   -1    0    0    0    0 -0.00000000000E+00 -0.00000000000E+00 -0.45593999997E+02  0.45594000000E+02  0.51100000000E-03 0.  1.
    9900012    2    1    2    0    0 -0.25177090629E+02 -0.22634659822E+02  0.22515522027E+02  0.50528899544E+02  0.30000120652E+02 0.  0.
         12    1    1    2    0    0  0.25177090629E+02  0.22634659822E+02 -0.22515522027E+02  0.40659100456E+02  0.00000000000E+00 0. -1.
         11    1    3    3    0    0  0.40959589185E+01 -0.51185211133E+01 -0.15832312034E+01  0.67440906840E+01  0.51100000000E-03 0. -1.
        -11    1    3    3    0    0 -0.17488764159E+02 -0.41607490503E+01  0.76383087264E+01  0.19532344071E+02  0.51100000000E-03 0.  1.
        -12    1    3    3    0    0 -0.11784285389E+02 -0.13355389658E+02  0.16460444504E+02  0.24252464788E+02  0.00000000000E+00 0.  1.
</event>
<event>
 7    1  0.4971907E-013  0.5052884E+02  0.7816164E-02  0.1300439E+00
        -11   -1    0    0    0    0  0.00000000000E+00  0.00000000000E+00  0.45593999997E+02  0.45594000000E+02  0.51100000000E-03 0.  1.
         11   -1    0    0    0    0 -0.00000000000E+00 -0.00000000000E+00 -0.45593999997E+02  0.45594000000E+02  0.51100000000E-03 0. -1.
    9900012    2    1    2    0    0  0.81598304019E+01 -0.39225996802E+02  0.69213673460E+01  0.50528843796E+02  0.29999951203E+02 0.  0.
         12    1    1    2    0    0 -0.81598304019E+01  0.39225996802E+02 -0.69213673460E+01  0.40659156204E+02  0.00000000000E+00 0. -1.
         11    1    3    3    0    0 -0.31154634751E+01  0.70291371742E+00  0.80885070131E+01  0.86962144822E+01  0.51100000000E-03 0. -1.
        -11    1    3    3    0    0  0.27218393716E+01 -0.55143132938E+01  0.12996809435E+01  0.62853187257E+01  0.51100000000E-03 0.  1.
         12    1    3    3    0    0  0.85534545055E+01 -0.34414597225E+02 -0.24668206106E+01  0.35547310588E+02  0.00000000000E+00 0. -1.
</event>
<event>
 7    1  0.4971907E-013  0.5052885E+02  0.7816164E-02  0.1300439E+00
        -11   -1    0    0    0    0  0.00000000000E+00  0.00000000000E+00  0.45593999997E+02  0.45594000000E+02  0.51100000000E-03 0. -1.
         11   -1    0    0    0    0 -0.00000000000E+00 -0.00000000000E+00 -0.45593999997E+02  0.45594000000E+02  0.51100000000E-03 0.  1.
    9900012    2    1    2    0    0 -0.26532416211E+02  0.22742158230E+02 -0.20784398257E+02  0.50528854880E+02  0.29999984894E+02 0.  0.
         12    1    1    2    0    0  0.26532416211E+02 -0.22742158230E+02  0.20784398257E+02  0.40659145120E+02  0.00000000000E+00 0. -1.
         11    1    3    3    0    0 -0.67624518873E+01 -0.14853980471E+01  0.31959568207E+01  0.76257001742E+01  0.51100000000E-03 0. -1.
        -11    1    3    3    0    0 -0.14541295897E+02  0.86421351715E+01 -0.19600775039E+02  0.25890657950E+02  0.51100000000E-03 0.  1.
         12    1    3    3    0    0 -0.52286684272E+01  0.15585421106E+02 -0.43795800382E+01  0.17012496756E+02  0.00000000000E+00 0. -1.
</event>
<event>
 7    1  0.4971907E-013  0.5052886E+02  0.7816164E-02  0.1300439E+00
        -11   -1    0    0    0    0  0.00000000000E+00  0.00000000000E+00  0.45593999997E+02  0.45594000000E+02  0.51100000000E-03 0. -1.
         11   -1    0    0    0    0 -0.00000000000E+00 -0.00000000000E+00 -0.45593999997E+02  0.45594000000E+02  0.51100000000E-03 0.  1.
    9900012    2    1    2    0    0  0.14966991460E+02 -0.95504579996E+01 -0.36577907945E+02  0.50528862884E+02  0.30000009222E+02 0.  0.
         12    1    1    2    0    0 -0.14966991460E+02  0.95504579996E+01  0.36577907945E+02  0.40659137116E+02  0.00000000000E+00 0. -1.
         11    1    3    3    0    0  0.46442510443E+01  0.58554663561E+01 -0.12005051420E+02  0.14141315847E+02  0.51100000000E-03 0. -1.
        -11    1    3    3    0    0  0.11225069815E+02 -0.18599947718E+02 -0.24908742191E+02  0.33051561011E+02  0.51100000000E-03 0.  1.
         12    1    3    3    0    0 -0.90232939857E+00  0.31940233626E+01  0.33588566666E+00  0.33359860259E+01  0.00000000000E+00 0. -1.
</event>
<event>
 7    1  0.4971907E-013  0.5052887E+02  0.7816164E-02  0.1300439E+00
        -11   -1    0    0    0    0  0.00000000000E+00  0.00000000000E+00  0.45593999997E+02  0.45594000000E+02  0.51100000000E-03 0. -1.
         11   -1    0    0    0    0 -0.00000000000E+00 -0.00000000000E+00 -0.45593999997E+02  0.45594000000E+02  0.51100000000E-03 0.  1.
    9900012    2    1    2    0    0  0.38440803908E+01 -0.40274469504E+02 -0.40441339952E+01  0.50528869812E+02  0.30000030281E+02 0.  0.
         12    1    1    2    0    0 -0.38440803908E+01  0.40274469504E+02  0.40441339952E+01  0.40659130188E+02  0.00000000000E+00 0. -1.
         11    1    3    3    0    0  0.10395977940E+02 -0.66523689528E+01 -0.28888524466E+01  0.12675797361E+02  0.51100000000E-03 0. -1.
        -11    1    3    3    0    0  0.31908911098E+01 -0.16177197013E+02 -0.55433586370E+01  0.17395755646E+02  0.51100000000E-03 0.  1.
        -12    1    3    3    0    0 -0.97427886595E+01 -0.17444903538E+02  0.43880770884E+01  0.20457316805E+02  0.00000000000E+00 0.  1.
</event>
<event>
 7    1  0.4971907E-013  0.5052885E+02  0.7816164E-02  0.1300439E+00
        -11   -1    0    0    0    0  0.00000000000E+00  0.00000000000E+00  0.45593999997E+02  0.45594000000E+02  0.51100000000E-03 0. -1.
         11   -1    0    0    0    0 -0.00000000000E+00 -0.00000000000E+00 -0.45593999997E+02  0.45594000000E+02  0.51100000000E-03 0.  1.
    9900012    2    1    2    0    0 -0.24093294732E+02  0.29417340549E+02 -0.14397895986E+02  0.50528853614E+02  0.29999981046E+02 0.  0.
         12    1    1    2    0    0  0.24093294732E+02 -0.29417340549E+02  0.14397895986E+02  0.40659146386E+02  0.00000000000E+00 0. -1.
         11    1    3    3    0    0 -0.15281719034E+02  0.23685851045E+02 -0.11431159263E+02  0.30417460096E+02  0.51100000000E-03 0. -1.
        -11    1    3    3    0    0 -0.46912573375E+01  0.50570561761E+01 -0.98713188522E+01  0.12042618018E+02  0.51100000000E-03 0.  1.
         12    1    3    3    0    0 -0.41203183597E+01  0.67443332779E+00  0.69045821289E+01  0.80687755002E+01  0.00000000000E+00 0. -1.
</event>
<event>
 7    1  0.4971907E-013  0.5052880E+02  0.7816164E-02  0.1300439E+00
        -11   -1    0    0    0    0  0.00000000000E+00  0.00000000000E+00  0.45593999997E+02  0.45594000000E+02  0.51100000000E-03 0.  1.
         11   -1    0    0    0    0 -0.00000000000E+00 -0.00000000000E+00 -0.45593999997E+02  0.45594000000E+02  0.51100000000E-03 0. -1.
    9900012    2    1    2    0    0  0.21932396660E+02 -0.19411365118E+02  0.28201761265E+02  0.50528801072E+02  0.29999821339E+02 0.  0.
         12    1    1    2    0    0 -0.21932396660E+02  0.19411365118E+02 -0.28201761265E+02  0.40659198928E+02  0.00000000000E+00 0. -1.
         11    1    3    3    0    0 -0.11437225387E+01 -0.33823383882E+01  0.10589390551E+02  0.11175128935E+02  0.51100000000E-03 0.  1.
        -11    1    3    3    0    0 -0.42627891689E+00  0.89408784961E+00 -0.34202936434E+01  0.35608307550E+01  0.51100000000E-03 0. -1.
         12    1    3    3    0    0  0.23502398116E+02 -0.16923114580E+02  0.21032664357E+02  0.35792841382E+02  0.00000000000E+00 0. -1.
</event>
<event>
 7    1  0.4971907E-013  0.5052886E+02  0.7816164E-02  0.1300439E+00
        -11   -1    0    0    0    0  0.00000000000E+00  0.00000000000E+00  0.45593999997E+02  0.45594000000E+02  0.51100000000E-03 0.  1.
         11   -1    0    0    0    0 -0.00000000000E+00 -0.00000000000E+00 -0.45593999997E+02  0.45594000000E+02  0.51100000000E-03 0. -1.
    9900012    2    1    2    0    0  0.12752210786E+02 -0.28178386803E+02  0.26391771715E+02  0.50528856170E+02  0.29999988814E+02 0.  0.
         12    1    1    2    0    0 -0.12752210786E+02  0.28178386803E+02 -0.26391771715E+02  0.40659143830E+02  0.00000000000E+00 0. -1.
         11    1    3    3    0    0  0.16646046091E+01 -0.19232061710E+02  0.21932915265E+02  0.29218074515E+02  0.51100000000E-03 0.  1.
        -11    1    3    3    0    0  0.45234956481E+01 -0.12555165723E+02  0.30336902168E+01  0.13685666802E+02  0.51100000000E-03 0. -1.
         12    1    3    3    0    0  0.65641105283E+01  0.36088406302E+01  0.14251662333E+01  0.76251148526E+01  0.00000000000E+00 0. -1.
</event>
<event>
 7    1  0.4971907E-013  0.5052891E+02  0.7816164E-02  0.1300439E+00
        -11   -1    0    0    0    0  0.00000000000E+00  0.00000000000E+00  0.45593999997E+02  0.45594000000E+02  0.51100000000E-03 0.  1.
         11   -1    0    0    0    0 -0.00000000000E+00 -0.00000000000E+00 -0.45593999997E+02  0.45594000000E+02  0.51100000000E-03 0. -1.
    9900012    2    1    2    0    0 -0.29441685116E+02 -0.16698720780E+02  0.22527790980E+02  0.50528911660E+02  0.30000157482E+02 0.  0.
         12    1    1    2    0    0  0.29441685116E+02  0.16698720780E+02 -0.22527790980E+02  0.40659088340E+02  0.00000000000E+00 0. -1.
         11    1    3    3    0    0 -0.19009927849E+02  0.27891856689E+01  0.99028401482E+01  0.21615345400E+02  0.51100000000E-03 0. -1.
        -11    1    3    3    0    0 -0.13190058236E+02 -0.13693505353E+02  0.66416069274E+01  0.20139529984E+02  0.51100000000E-03 0.  1.
        -12    1    3    3    0    0  0.27583009685E+01 -0.57944010965E+01  0.59833439044E+01  0.87740362763E+01  0.00000000000E+00 0.  1.
</event>
<event>
 7    1  0.4971907E-013  0.5052885E+02  0.7816164E-02  0.1300439E+00
        -11   -1    0    0    0    0  0.00000000000E+00  0.00000000000E+00  0.45593999997E+02  0.45594000000E+02  0.51100000000E-03 0. -1.
         11   -1    0    0    0    0 -0.00000000000E+00 -0.00000000000E+00 -0.45593999997E+02  0.45594000000E+02  0.51100000000E-03 0.  1.
    9900012    2    1    2    0    0 -0.14941142442E+02 -0.28276019909E+02 -0.25107673210E+02  0.50528852280E+02  0.29999976989E+02 0.  0.
         12    1    1    2    0    0  0.14941142442E+02  0.28276019909E+02  0.25107673210E+02  0.40659147720E+02  0.00000000000E+00 0. -1.
         11    1    3    3    0    0 -0.31381914842E+01 -0.34772085208E+01 -0.84442468524E+01  0.96563207307E+01  0.51100000000E-03 0. -1.
        -11    1    3    3    0    0  0.66084794323E+01 -0.23202129997E+00 -0.26194642424E+01  0.71124839170E+01  0.51100000000E-03 0.  1.
         12    1    3    3    0    0 -0.18411430390E+02 -0.24566790088E+02 -0.14043962115E+02  0.33760047632E+02  0.00000000000E+00 0. -1.
</event>
<event>
 7    1  0.4971907E-013  0.5052886E+02  0.7816164E-02  0.1300439E+00
        -11   -1    0    0    0    0  0.00000000000E+00  0.00000000000E+00  0.45593999997E+02  0.45594000000E+02  0.51100000000E-03 0.  1.
         11   -1    0    0    0    0 -0.00000000000E+00 -0.00000000000E+00 -0.45593999997E+02  0.45594000000E+02  0.51100000000E-03 0. -1.
    9900012    2    1    2    0    0  0.30934219094E+02  0.11344818204E+02  0.23822990774E+02  0.50528859571E+02  0.29999999151E+02 0.  0.
         12    1    1    2    0    0 -0.30934219094E+02 -0.11344818204E+02 -0.23822990774E+02  0.40659140429E+02  0.00000000000E+00 0. -1.
         11    1    3    3    0    0  0.92937135559E+01 -0.28316983704E+01  0.12953870940E+01  0.98015129089E+01  0.51100000000E-03 0. -1.
        -11    1    3    3    0    0  0.19780864294E+02  0.16047918075E+02  0.91087076707E+01  0.27051558596E+02  0.51100000000E-03 0.  1.
        -12    1    3    3    0    0  0.18596412440E+01 -0.18714015000E+01  0.13418896009E+02  0.13675788066E+02  0.00000000000E+00 0.  1.
</event>
<event>
 7    1  0.4971907E-013  0.5052885E+02  0.7816164E-02  0.1300439E+00
        -11   -1    0    0    0    0  0.00000000000E+00  0.00000000000E+00  0.45593999997E+02  0.45594000000E+02  0.51100000000E-03 0.  1.
         11   -1    0    0    0    0 -0.00000000000E+00 -0.00000000000E+00 -0.45593999997E+02  0.45594000000E+02  0.51100000000E-03 0. -1.
    9900012    2    1    2    0    0 -0.23009587265E+02  0.23459944092E+02  0.23944855282E+02  0.50528853705E+02  0.29999981323E+02 0.  0.
         12    1    1    2    0    0  0.23009587265E+02 -0.23459944092E+02 -0.23944855282E+02  0.40659146295E+02  0.00000000000E+00 0. -1.
         11    1    3    3    0    0  0.18870661801E+01 -0.10437283051E+01 -0.13450935694E+01  0.25415870071E+01  0.51100000000E-03 0. -1.
        -11    1    3    3    0    0 -0.12055789586E+02 -0.10894714862E+01  0.65121112656E+01  0.13745421203E+02  0.51100000000E-03 0.  1.
         12    1    3    3    0    0 -0.12840863859E+02  0.25593143883E+02  0.18777837586E+02  0.34241845495E+02  0.00000000000E+00 0. -1.
</event>
<event>
 7    1  0.4971907E-013  0.5052887E+02  0.7816164E-02  0.1300439E+00
        -11   -1    0    0    0    0  0.00000000000E+00  0.00000000000E+00  0.45593999997E+02  0.45594000000E+02  0.51100000000E-03 0. -1.
         11   -1    0    0    0    0 -0.00000000000E+00 -0.00000000000E+00 -0.45593999997E+02  0.45594000000E+02  0.51100000000E-03 0.  1.
    9900012    2    1    2    0    0 -0.21187149790E+02  0.24115927066E+02 -0.24953791040E+02  0.50528868901E+02  0.30000027510E+02 0.  0.
         12    1    1    2    0    0  0.21187149790E+02 -0.24115927066E+02  0.24953791040E+02  0.40659131099E+02  0.00000000000E+00 0. -1.
         11    1    3    3    0    0  0.34447202073E+01  0.11126379568E+02  0.87208910906E+00  0.11680023941E+02  0.51100000000E-03 0. -1.
        -11    1    3    3    0    0 -0.36013684073E+01  0.40009349160E+01 -0.17957292080E+01  0.56746786919E+01  0.51100000000E-03 0.  1.
        -12    1    3    3    0    0 -0.21030501590E+02  0.89886125826E+01 -0.24030150941E+02  0.33174166267E+02  0.00000000000E+00 0.  1.
</event>
<event>
 7    1  0.4971907E-013  0.5052885E+02  0.7816164E-02  0.1300439E+00
        -11   -1    0    0    0    0  0.00000000000E+00  0.00000000000E+00  0.45593999997E+02  0.45594000000E+02  0.51100000000E-03 0.  1.
         11   -1    0    0    0    0 -0.00000000000E+00 -0.00000000000E+00 -0.45593999997E+02  0.45594000000E+02  0.51100000000E-03 0. -1.
    9900012    2    1    2    0    0  0.63013469047E+01 -0.20521702983E+02  0.34529971695E+02  0.50528853288E+02  0.29999980054E+02 0.  0.
         12    1    1    2    0    0 -0.63013469047E+01  0.20521702983E+02 -0.34529971695E+02  0.40659146712E+02  0.00000000000E+00 0. -1.
         11    1    3    3    0    0 -0.47757371663E+01 -0.31647186643E+01  0.13585038597E+01  0.58880083817E+01  0.51100000000E-03 0. -1.
        -11    1    3    3    0    0  0.67519391036E+01 -0.70951427398E+01  0.15358707233E+00  0.97955766245E+01  0.51100000000E-03 0.  1.
        -12    1    3    3    0    0  0.43251449674E+01 -0.10261841579E+02  0.33017880763E+02  0.34845268282E+02  0.00000000000E+00 0.  1.
</event>
<event>
 7    1  0.4971907E-013  0.5052885E+02  0.7816164E-02  0.1300439E+00
        -11   -1    0    0    0    0  0.00000000000E+00  0.00000000000E+00  0.45593999997E+02  0.45594000000E+02  0.51100000000E-03 0. -1.
         11   -1    0    0    0    0 -0.00000000000E+00 -0.00000000000E+00 -0.45593999997E+02  0.45594000000E+02  0.51100000000E-03 0.  1.
    9900012    2    1    2    0    0  0.33033318870E+02  0.21733012025E+02 -0.94679906197E+01  0.50528845882E+02  0.29999957542E+02 0.  0.
         12    1    1    2    0    0 -0.33033318870E+02 -0.21733012025E+02  0.94679906197E+01  0.40659154118E+02  0.00000000000E+00 0. -1.
         11    1    3    3    0    0  0.16351750812E+01  0.17546500910E+01  0.25770776420E+01  0.35205005215E+01  0.51100000000E-03 0. -1.
        -11    1    3    3    0    0  0.13013989179E+02  0.21784816922E+02 -0.12997724162E+02  0.28511103036E+02  0.51100000000E-03 0.  1.
         12    1    3    3    0    0  0.18384154609E+02 -0.18064549881E+01  0.95265590036E+00  0.18497242324E+02  0.00000000000E+00 0. -1.
</event>
<event>
 7    1  0.4971907E-013  0.5052885E+02  0.7816164E-02  0.1300439E+00
        -11   -1    0    0    0    0  0.00000000000E+00  0.00000000000E+00  0.45593999997E+02  0.45594000000E+02  0.51100000000E-03 0. -1.
         11   -1    0    0    0    0 -0.00000000000E+00 -0.00000000000E+00 -0.45593999997E+02  0.45594000000E+02  0.51100000000E-03 0.  1.
    9900012    2    1    2    0    0  0.86219449003E+01 -0.33625984057E+02 -0.21168882547E+02  0.50528851878E+02  0.29999975768E+02 0.  0.
         12    1    1    2    0    0 -0.86219449003E+01  0.33625984057E+02  0.21168882547E+02  0.40659148122E+02  0.00000000000E+00 0. -1.
         11    1    3    3    0    0  0.37660109060E+01 -0.27296023164E+01  0.17300229110E+01  0.49625141293E+01  0.51100000000E-03 0. -1.
        -11    1    3    3    0    0 -0.53017068704E+01 -0.16561412090E+02 -0.89969909467E+00  0.17412579501E+02  0.51100000000E-03 0.  1.
        -12    1    3    3    0    0  0.10157640865E+02 -0.14334969651E+02 -0.21999206364E+02  0.28153758248E+02  0.00000000000E+00 0.  1.
</event>
<event>
 7    1  0.4971907E-013  0.5052885E+02  0.7816164E-02  0.1300439E+00
        -11   -1    0    0    0    0  0.00000000000E+00  0.00000000000E+00  0.45593999997E+02  0.45594000000E+02  0.51100000000E-03 0. -1.
         11   -1    0    0    0    0 -0.00000000000E+00 -0.00000000000E+00 -0.45593999997E+02  0.45594000000E+02  0.51100000000E-03 0.  1.
    9900012    2    1    2    0    0  0.17805666172E+02  0.36395032356E+02  0.33949997014E+01  0.50528854030E+02  0.29999982310E+02 0.  0.
         12    1    1    2    0    0 -0.17805666172E+02 -0.36395032356E+02 -0.33949997014E+01  0.40659145970E+02  0.00000000000E+00 0. -1.
         11    1    3    3    0    0  0.14143840015E+02  0.13346606467E+02  0.74338604220E+00  0.19461056950E+02  0.51100000000E-03 0. -1.
        -11    1    3    3    0    0  0.38241951670E+01  0.72766517369E+01 -0.84431235176E+01  0.11783906999E+02  0.51100000000E-03 0.  1.
        -12    1    3    3    0    0 -0.16236900998E+00  0.15771774152E+02  0.11094737177E+02  0.19283890080E+02  0.00000000000E+00 0.  1.
</event>
<event>
 7    1  0.4971907E-013  0.5052886E+02  0.7816164E-02  0.1300439E+00
        -11   -1    0    0    0    0  0.00000000000E+00  0.00000000000E+00  0.45593999997E+02  0.45594000000E+02  0.51100000000E-03 0. -1.
         11   -1    0    0    0    0 -0.00000000000E+00 -0.00000000000E+00 -0.45593999997E+02  0.45594000000E+02  0.51100000000E-03 0.  1.
    9900012    2    1    2    0    0 -0.31258857653E+02  0.13486531864E+02 -0.22229780484E+02  0.50528857562E+02  0.29999993044E+02 0.  0.
         12    1    1    2    0    0  0.31258857653E+02 -0.13486531864E+02  0.22229780484E+02  0.40659142438E+02  0.00000000000E+00 0. -1.
         11    1    3    3    0    0 -0.12390897709E+02 -0.39857839583E+01 -0.93356496118E+01  0.16017964094E+02  0.51100000000E-03 0. -1.
        -11    1    3    3    0    0  0.37029512756E+01  0.77078078281E+00 -0.26672046810E+01  0.46281672653E+01  0.51100000000E-03 0.  1.
        -12    1    3    3    0    0 -0.22570911220E+02  0.16701535039E+02 -0.10226926191E+02  0.29882726202E+02  0.00000000000E+00 0.  1.
</event>
<event>
 7    1  0.4971907E-013  0.5052885E+02  0.7816164E-02  0.1300439E+00
        -11   -1    0    0    0    0  0.00000000000E+00  0.00000000000E+00  0.45593999997E+02  0.45594000000E+02  0.51100000000E-03 0.  1.
         11   -1    0    0    0    0 -0.00000000000E+00 -0.00000000000E+00 -0.45593999997E+02  0.45594000000E+02  0.51100000000E-03 0. -1.
    9900012    2    1    2    0    0 -0.23526666093E+02  0.31022755473E+02  0.11715411099E+02  0.50528853036E+02  0.29999979287E+02 0.  0.
         12    1    1    2    0    0  0.23526666093E+02 -0.31022755473E+02 -0.11715411099E+02  0.40659146964E+02  0.00000000000E+00 0. -1.
         11    1    3    3    0    0 -0.52492800275E+01 -0.19068043078E+01 -0.48431997975E+00  0.56058370989E+01  0.51100000000E-03 0. -1.
        -11    1    3    3    0    0 -0.18532199421E+02  0.18517341257E+02  0.24961252076E+00  0.26199172683E+02  0.51100000000E-03 0.  1.
        -12    1    3    3    0    0  0.25481335488E+00  0.14412218525E+02  0.11950118558E+02  0.18723843254E+02  0.00000000000E+00 0.  1.
</event>
<event>
 7    1  0.4971907E-013  0.5052886E+02  0.7816164E-02  0.1300439E+00
        -11   -1    0    0    0    0  0.00000000000E+00  0.00000000000E+00  0.45593999997E+02  0.45594000000E+02  0.51100000000E-03 0.  1.
         11   -1    0    0    0    0 -0.00000000000E+00 -0.00000000000E+00 -0.45593999997E+02  0.45594000000E+02  0.51100000000E-03 0. -1.
    9900012    2    1    2    0    0  0.24111004518E+01  0.10855673652E+02  0.39108911114E+02  0.50528856079E+02  0.29999988539E+02 0.  0.
         12    1    1    2    0    0 -0.24111004518E+01 -0.10855673652E+02 -0.39108911114E+02  0.40659143921E+02  0.00000000000E+00 0. -1.
         11    1    3    3    0    0 -0.61961583468E+00  0.14347177449E+02  0.12373645523E+02  0.18956068377E+02  0.51100000000E-03 0. -1.
        -11    1    3    3    0    0  0.24346587238E+01  0.27036651745E+01  0.24784969384E+02  0.25050590335E+02  0.51100000000E-03 0.  1.
        -12    1    3    3    0    0  0.59605756267E+00 -0.61951689717E+01  0.19502962073E+01  0.65221973676E+01  0.00000000000E+00 0.  1.
</event>
<event>
 7    1  0.4971907E-013  0.5052888E+02  0.7816164E-02  0.1300439E+00
        -11   -1    0    0    0    0  0.00000000000E+00  0.00000000000E+00  0.45593999997E+02  0.45594000000E+02  0.51100000000E-03 0.  1.
         11   -1    0    0    0    0 -0.00000000000E+00 -0.00000000000E+00 -0.45593999997E+02  0.45594000000E+02  0.51100000000E-03 0. -1.
    9900012    2    1    2    0    0  0.26196954923E+02  0.30912235843E+02  0.33640595374E+01  0.50528884557E+02  0.30000075098E+02 0.  0.
         12    1    1    2    0    0 -0.26196954923E+02 -0.30912235843E+02 -0.33640595374E+01  0.40659115443E+02  0.00000000000E+00 0. -1.
         11    1    3    3    0    0  0.58556116985E+01  0.50963001275E+01  0.65236719971E+01  0.10139958577E+02  0.51100000000E-03 0.  1.
        -11    1    3    3    0    0  0.22623720216E+02  0.26404259867E+02  0.18838128182E+01  0.34821924222E+02  0.51100000000E-03 0. -1.
         12    1    3    3    0    0 -0.22823769907E+01 -0.58832415196E+00 -0.50434252778E+01  0.55670017575E+01  0.00000000000E+00 0. -1.
</event>
<event>
 7    1  0.4971907E-013  0.5052886E+02  0.7816164E-02  0.1300439E+00
        -11   -1    0    0    0    0  0.00000000000E+00  0.00000000000E+00  0.45593999997E+02  0.45594000000E+02  0.51100000000E-03 0.  1.
         11   -1    0    0    0    0 -0.00000000000E+00 -0.00000000000E+00 -0.45593999997E+02  0.45594000000E+02  0.51100000000E-03 0. -1.
    9900012    2    1    2    0    0 -0.29360233096E+02 -0.26972838589E+02  0.79754933354E+01  0.50528858310E+02  0.29999995320E+02 0.  0.
         12    1    1    2    0    0  0.29360233096E+02  0.26972838589E+02 -0.79754933354E+01  0.40659141690E+02  0.00000000000E+00 0. -1.
         11    1    3    3    0    0 -0.11049188799E+02 -0.15997978520E+02  0.67598105704E+01  0.20584336983E+02  0.51100000000E-03 0.  1.
        -11    1    3    3    0    0 -0.61576966786E+01 -0.11229094550E+02 -0.76331531899E+01  0.14908883952E+02  0.51100000000E-03 0. -1.
         12    1    3    3    0    0 -0.12153347619E+02  0.25423448168E+00  0.88488359549E+01  0.15035637375E+02  0.00000000000E+00 0. -1.
</event>
<event>
 7    1  0.4971907E-013  0.5052887E+02  0.7816164E-02  0.1300439E+00
        -11   -1    0    0    0    0  0.00000000000E+00  0.00000000000E+00  0.45593999997E+02  0.45594000000E+02  0.51100000000E-03 0. -1.
         11   -1    0    0    0    0 -0.00000000000E+00 -0.00000000000E+00 -0.45593999997E+02  0.45594000000E+02  0.51100000000E-03 0.  1.
    9900012    2    1    2    0    0  0.22862299194E+02 -0.33599414897E+02  0.12488858613E+01  0.50528866688E+02  0.30000020783E+02 0.  0.
         12    1    1    2    0    0 -0.22862299194E+02  0.33599414897E+02 -0.12488858613E+01  0.40659133312E+02  0.00000000000E+00 0. -1.
         11    1    3    3    0    0  0.11246999175E+02 -0.10368549327E+02  0.12254702057E+02  0.19600498166E+02  0.51100000000E-03 0. -1.
        -11    1    3    3    0    0  0.44209517833E+00  0.12905184546E+01 -0.21823246991E+01  0.25736020248E+01  0.51100000000E-03 0.  1.
         12    1    3    3    0    0  0.11173204840E+02 -0.24521384024E+02 -0.88234914969E+01  0.28354766496E+02  0.00000000000E+00 0. -1.
</event>
<event>
 7    1  0.4971907E-013  0.5052887E+02  0.7816164E-02  0.1300439E+00
        -11   -1    0    0    0    0  0.00000000000E+00  0.00000000000E+00  0.45593999997E+02  0.45594000000E+02  0.51100000000E-03 0.  1.
         11   -1    0    0    0    0 -0.00000000000E+00 -0.00000000000E+00 -0.45593999997E+02  0.45594000000E+02  0.51100000000E-03 0. -1.
    9900012    2    1    2    0    0  0.22793565180E+02 -0.25864044795E+01  0.33569755978E+02  0.50528872880E+02  0.30000039606E+02 0.  0.
         12    1    1    2    0    0 -0.22793565180E+02  0.25864044795E+01 -0.33569755978E+02  0.40659127120E+02  0.00000000000E+00 0. -1.
         11    1    3    3    0    0  0.10705552814E+02  0.16927050306E+01  0.33741978909E+01  0.11351622044E+02  0.51100000000E-03 0. -1.
        -11    1    3    3    0    0  0.12902890030E+02  0.55692364550E+00  0.55644174059E+01  0.14062626938E+02  0.51100000000E-03 0.  1.
         12    1    3    3    0    0 -0.81487766303E+00 -0.48360331555E+01  0.24631140681E+02  0.25114623898E+02  0.00000000000E+00 0. -1.
</event>
<event>
 7    1  0.4971907E-013  0.5052884E+02  0.7816164E-02  0.1300439E+00
        -11   -1    0    0    0    0  0.00000000000E+00  0.00000000000E+00  0.45593999997E+02  0.45594000000E+02  0.51100000000E-03 0.  1.
         11   -1    0    0    0    0 -0.00000000000E+00 -0.00000000000E+00 -0.45593999997E+02  0.45594000000E+02  0.51100000000E-03 0. -1.
    9900012    2    1    2    0    0 -0.20520388960E+02  0.65492033893E+01  0.34484618383E+02  0.50528839493E+02  0.29999938123E+02 0.  0.
         12    1    1    2    0    0  0.20520388960E+02 -0.65492033893E+01 -0.34484618383E+02  0.40659160507E+02  0.00000000000E+00 0. -1.
         11    1    3    3    0    0 -0.38615538929E+00  0.55582243152E+01  0.98693201125E+01  0.11333421958E+02  0.51100000000E-03 0. -1.
        -11    1    3    3    0    0 -0.13451452572E+02  0.78229523660E+01  0.25203687950E+02  0.29620365403E+02  0.51100000000E-03 0.  1.
        -12    1    3    3    0    0 -0.66827809982E+01 -0.68319732919E+01 -0.58838967987E+00  0.95750521328E+01  0.00000000000E+00 0.  1.
</event>
<event>
 7    1  0.4971907E-013  0.5052886E+02  0.7816164E-02  0.1300439E+00
        -11   -1    0    0    0    0  0.00000000000E+00  0.00000000000E+00  0.45593999997E+02  0.45594000000E+02  0.51100000000E-03 0.  1.
         11   -1    0    0    0    0 -0.00000000000E+00 -0.00000000000E+00 -0.45593999997E+02  0.45594000000E+02  0.51100000000E-03 0. -1.
    9900012    2    1    2    0    0 -0.16768739057E+02  0.75252582881E+01  0.36267687762E+02  0.50528864526E+02  0.30000014215E+02 0.  0.
         12    1    1    2    0    0  0.16768739057E+02 -0.75252582881E+01 -0.36267687762E+02  0.40659135474E+02  0.00000000000E+00 0. -1.
         11    1    3    3    0    0 -0.75659124505E+01  0.74846295831E+01  0.35180778360E+00  0.10648308794E+02  0.51100000000E-03 0. -1.
        -11    1    3    3    0    0  0.36722884680E+01  0.14712167752E+01  0.51148636800E+01  0.64662208529E+01  0.51100000000E-03 0.  1.
        -12    1    3    3    0    0 -0.12875115074E+02 -0.14305880702E+01  0.30801016298E+02  0.33414334879E+02  0.00000000000E+00 0.  1.
</event>
<event>
 7    1  0.4971907E-013  0.5052889E+02  0.7816164E-02  0.1300439E+00
        -11   -1    0    0    0    0  0.00000000000E+00  0.00000000000E+00  0.45593999997E+02  0.45594000000E+02  0.51100000000E-03 0.  1.
         11   -1    0    0    0    0 -0.00000000000E+00 -0.00000000000E+00 -0.45593999997E+02  0.45594000000E+02  0.51100000000E-03 0. -1.
    9900012    2    1    2    0    0 -0.22358362340E+02 -0.13599244033E+02  0.31117965502E+02  0.50528885625E+02  0.30000078346E+02 0.  0.
         12    1    1    2    0    0  0.22358362340E+02  0.13599244033E+02 -0.31117965502E+02  0.40659114375E+02  0.00000000000E+00 0. -1.
         11    1    3    3    0    0 -0.18797044807E+02 -0.12156538956E+02  0.24795058551E+02  0.33405168188E+02  0.51100000000E-03 0. -1.
        -11    1    3    3    0    0 -0.16308804785E+01 -0.84622433052E+00  0.11458544676E+02  0.11604917626E+02  0.51100000000E-03 0.  1.
         12    1    3    3    0    0 -0.19304370546E+01 -0.59648074631E+00 -0.51356377259E+01  0.55187998110E+01  0.00000000000E+00 0. -1.
</event>
<event>
 7    1  0.4971907E-013  0.5052887E+02  0.7816164E-02  0.1300439E+00
        -11   -1    0    0    0    0  0.00000000000E+00  0.00000000000E+00  0.45593999997E+02  0.45594000000E+02  0.51100000000E-03 0. -1.
         11   -1    0    0    0    0 -0.00000000000E+00 -0.00000000000E+00 -0.45593999997E+02  0.45594000000E+02  0.51100000000E-03 0.  1.
    9900012    2    1    2    0    0 -0.39682797147E+01  0.27138702894E+02 -0.30015142291E+02  0.50528865658E+02  0.30000017655E+02 0.  0.
         12    1    1    2    0    0  0.39682797147E+01 -0.27138702894E+02  0.30015142291E+02  0.40659134342E+02  0.00000000000E+00 0. -1.
         11    1    3    3    0    0  0.33154585619E+01  0.24585671838E+02 -0.11220342154E+02  0.27227625741E+02  0.51100000000E-03 0. -1.
        -11    1    3    3    0    0 -0.19212580935E+01  0.67031164418E+01 -0.10147241617E+02  0.12312169403E+02  0.51100000000E-03 0.  1.
         12    1    3    3    0    0 -0.53624801830E+01 -0.41500853858E+01 -0.86475585193E+01  0.10989070514E+02  0.00000000000E+00 0. -1.
</event>
<event>
 7    1  0.4971907E-013  0.5052885E+02  0.7816164E-02  0.1300439E+00
        -11   -1    0    0    0    0  0.00000000000E+00  0.00000000000E+00  0.45593999997E+02  0.45594000000E+02  0.51100000000E-03 0.  1.
         11   -1    0    0    0    0 -0.00000000000E+00 -0.00000000000E+00 -0.45593999997E+02  0.45594000000E+02  0.51100000000E-03 0. -1.
    9900012    2    1    2    0    0  0.37951435721E+02 -0.31248410966E+01  0.14250971389E+02  0.50528852312E+02  0.29999977089E+02 0.  0.
         12    1    1    2    0    0 -0.37951435721E+02  0.31248410966E+01 -0.14250971389E+02  0.40659147688E+02  0.00000000000E+00 0. -1.
         11    1    3    3    0    0  0.13492450365E+02  0.39788521888E+01  0.90436060243E+01  0.16723166320E+02  0.51100000000E-03 0. -1.
        -11    1    3    3    0    0  0.90836184541E+01  0.49840008057E+01 -0.52632439200E+01  0.11621278977E+02  0.51100000000E-03 0.  1.
         12    1    3    3    0    0  0.15375366902E+02 -0.12087694091E+02  0.10470609284E+02  0.22184407015E+02  0.00000000000E+00 0. -1.
</event>
<event>
 7    1  0.4971907E-013  0.5052886E+02  0.7816164E-02  0.1300439E+00
        -11   -1    0    0    0    0  0.00000000000E+00  0.00000000000E+00  0.45593999997E+02  0.45594000000E+02  0.51100000000E-03 0. -1.
         11   -1    0    0    0    0 -0.00000000000E+00 -0.00000000000E+00 -0.45593999997E+02  0.45594000000E+02  0.51100000000E-03 0.  1.
    9900012    2    1    2    0    0  0.11486741899E+02 -0.28726678411E+02 -0.26381775062E+02  0.50528863912E+02  0.30000012348E+02 0.  0.
         12    1    1    2    0    0 -0.11486741899E+02  0.28726678411E+02  0.26381775062E+02  0.40659136088E+02  0.00000000000E+00 0. -1.
         11    1    3    3    0    0 -0.18739738574E+01 -0.37224976455E+01 -0.20456212968E+02  0.20876432070E+02  0.51100000000E-03 0. -1.
        -11    1    3    3    0    0  0.67493732389E+01 -0.75749141638E+01 -0.40245594497E+01  0.10914689310E+02  0.51100000000E-03 0.  1.
        -12    1    3    3    0    0  0.66113425175E+01 -0.17429266601E+02 -0.19010026448E+01  0.18737742532E+02  0.00000000000E+00 0.  1.
</event>
<event>
 7    1  0.4971907E-013  0.5052886E+02  0.7816164E-02  0.1300439E+00
        -11   -1    0    0    0    0  0.00000000000E+00  0.00000000000E+00  0.45593999997E+02  0.45594000000E+02  0.51100000000E-03 0.  1.
         11   -1    0    0    0    0 -0.00000000000E+00 -0.00000000000E+00 -0.45593999997E+02  0.45594000000E+02  0.51100000000E-03 0. -1.
    9900012    2    1    2    0    0  0.14280308135E+02 -0.17092027073E+01  0.38030471183E+02  0.50528864339E+02  0.30000013644E+02 0.  0.
         12    1    1    2    0    0 -0.14280308135E+02  0.17092027073E+01 -0.38030471183E+02  0.40659135661E+02  0.00000000000E+00 0. -1.
         11    1    3    3    0    0 -0.34144091196E+00 -0.19322517758E+01  0.14007952278E+01  0.24108932687E+01  0.51100000000E-03 0. -1.
        -11    1    3    3    0    0  0.19642133270E+02  0.56799750916E+01  0.15303918855E+02  0.25539879581E+02  0.51100000000E-03 0.  1.
        -12    1    3    3    0    0 -0.50203842236E+01 -0.54569260230E+01  0.21325757100E+02  0.22578091489E+02  0.00000000000E+00 0.  1.
</event>
<event>
 7    1  0.4971907E-013  0.5052884E+02  0.7816164E-02  0.1300439E+00
        -11   -1    0    0    0    0  0.00000000000E+00  0.00000000000E+00  0.45593999997E+02  0.45594000000E+02  0.51100000000E-03 0.  1.
         11   -1    0    0    0    0 -0.00000000000E+00 -0.00000000000E+00 -0.45593999997E+02  0.45594000000E+02  0.51100000000E-03 0. -1.
    9900012    2    1    2    0    0 -0.56238361619E+01 -0.49680166827E+01  0.39960710138E+02  0.50528842635E+02  0.29999947673E+02 0.  0.
         12    1    1    2    0    0  0.56238361619E+01  0.49680166827E+01 -0.39960710138E+02  0.40659157365E+02  0.00000000000E+00 0. -1.
         11    1    3    3    0    0  0.37472239564E+01  0.52820104204E+01  0.15005244635E+01  0.66477737166E+01  0.51100000000E-03 0. -1.
        -11    1    3    3    0    0  0.38129245468E+01 -0.12080410015E+01  0.14765422254E+02  0.15297563573E+02  0.51100000000E-03 0.  1.
         12    1    3    3    0    0 -0.13183984665E+02 -0.90419861015E+01  0.23694763420E+02  0.28583505345E+02  0.00000000000E+00 0. -1.
</event>
<event>
 7    1  0.4971907E-013  0.5052884E+02  0.7816164E-02  0.1300439E+00
        -11   -1    0    0    0    0  0.00000000000E+00  0.00000000000E+00  0.45593999997E+02  0.45594000000E+02  0.51100000000E-03 0. -1.
         11   -1    0    0    0    0 -0.00000000000E+00 -0.00000000000E+00 -0.45593999997E+02  0.45594000000E+02  0.51100000000E-03 0.  1.
    9900012    2    1    2    0    0  0.39116825090E+02  0.10902552284E+02 -0.20434868868E+01  0.50528837563E+02  0.29999932257E+02 0.  0.
         12    1    1    2    0    0 -0.39116825090E+02 -0.10902552284E+02  0.20434868868E+01  0.40659162437E+02  0.00000000000E+00 0. -1.
         11    1    3    3    0    0  0.30792129179E+01  0.98871263521E+01  0.34732651970E+01  0.10922471840E+02  0.51100000000E-03 0. -1.
        -11    1    3    3    0    0  0.69607144244E+01  0.85158247685E+00 -0.77397441869E+01  0.10444155224E+02  0.51100000000E-03 0.  1.
        -12    1    3    3    0    0  0.29076897748E+02  0.16384345476E+00  0.22229921032E+01  0.29162210499E+02  0.00000000000E+00 0.  1.
</event>
<event>
 7    1  0.4971907E-013  0.5052886E+02  0.7816164E-02  0.1300439E+00
        -11   -1    0    0    0    0  0.00000000000E+00  0.00000000000E+00  0.45593999997E+02  0.45594000000E+02  0.51100000000E-03 0.  1.
         11   -1    0    0    0    0 -0.00000000000E+00 -0.00000000000E+00 -0.45593999997E+02  0.45594000000E+02  0.51100000000E-03 0. -1.
    9900012    2    1    2    0    0  0.64135509005E+01  0.37757118933E+02 -0.13654019966E+02  0.50528856791E+02  0.29999990700E+02 0.  0.
         12    1    1    2    0    0 -0.64135509005E+01 -0.37757118933E+02  0.13654019966E+02  0.40659143209E+02  0.00000000000E+00 0. -1.
         11    1    3    3    0    0  0.24370692312E+01  0.15863534261E+02 -0.70054991723E+01  0.17511940058E+02  0.51100000000E-03 0. -1.
        -11    1    3    3    0    0  0.38364371561E+00  0.11696695206E+02  0.84585844276E+01  0.14439789196E+02  0.51100000000E-03 0.  1.
         12    1    3    3    0    0  0.35928379537E+01  0.10196889467E+02 -0.15107105221E+02  0.18577127537E+02  0.00000000000E+00 0. -1.
</event>
<event>
 7    1  0.4971907E-013  0.5052886E+02  0.7816164E-02  0.1300439E+00
        -11   -1    0    0    0    0  0.00000000000E+00  0.00000000000E+00  0.45593999997E+02  0.45594000000E+02  0.51100000000E-03 0.  1.
         11   -1    0    0    0    0 -0.00000000000E+00 -0.00000000000E+00 -0.45593999997E+02  0.45594000000E+02  0.51100000000E-03 0. -1.
    9900012    2    1    2    0    0  0.25070917274E+02  0.94390711363E+01  0.30586252701E+02  0.50528858209E+02  0.29999995013E+02 0.  0.
         12    1    1    2    0    0 -0.25070917274E+02 -0.94390711363E+01 -0.30586252701E+02  0.40659141791E+02  0.00000000000E+00 0. -1.
         11    1    3    3    0    0  0.75708777208E+00 -0.14916434302E+01 -0.24260999895E+01  0.29468870758E+01  0.51100000000E-03 0. -1.
        -11    1    3    3    0    0  0.16813936938E+02 -0.34363841211E+01  0.11543263053E+02  0.20682459557E+02  0.51100000000E-03 0.  1.
        -12    1    3    3    0    0  0.74998925639E+01  0.14367098688E+02  0.21469089638E+02  0.26899511576E+02  0.00000000000E+00 0.  1.
</event>
<event>
 7    1  0.4971907E-013  0.5052888E+02  0.7816164E-02  0.1300439E+00
        -11   -1    0    0    0    0  0.00000000000E+00  0.00000000000E+00  0.45593999997E+02  0.45594000000E+02  0.51100000000E-03 0.  1.
         11   -1    0    0    0    0 -0.00000000000E+00 -0.00000000000E+00 -0.45593999997E+02  0.45594000000E+02  0.51100000000E-03 0. -1.
    9900012    2    1    2    0    0 -0.35884762264E+02  0.17319337310E+02  0.80924961640E+01  0.50528879230E+02  0.30000058907E+02 0.  0.
         12    1    1    2    0    0  0.35884762264E+02 -0.17319337310E+02 -0.80924961640E+01  0.40659120770E+02  0.00000000000E+00 0. -1.
         11    1    3    3    0    0 -0.49311867975E+01 -0.62753250812E+01  0.24593578202E+01  0.83513321845E+01  0.51100000000E-03 0. -1.
        -11    1    3    3    0    0 -0.60832620534E+01  0.12630025305E+02 -0.14393711262E+01  0.14092388226E+02  0.51100000000E-03 0.  1.
        -12    1    3    3    0    0 -0.24870313413E+02  0.10964637087E+02  0.70725094700E+01  0.28085158820E+02  0.00000000000E+00 0.  1.
</event>
<event>
 7    1  0.4971907E-013  0.5052885E+02  0.7816164E-02  0.1300439E+00
        -11   -1    0    0    0    0  0.00000000000E+00  0.00000000000E+00  0.45593999997E+02  0.45594000000E+02  0.51100000000E-03 0. -1.
         11   -1    0    0    0    0 -0.00000000000E+00 -0.00000000000E+00 -0.45593999997E+02  0.45594000000E+02  0.51100000000E-03 0.  1.
    9900012    2    1    2    0    0 -0.19383228302E+02 -0.35326426140E+02  0.54314121354E+01  0.50528853907E+02  0.29999981937E+02 0.  0.
         12    1    1    2    0    0  0.19383228302E+02  0.35326426140E+02 -0.54314121354E+01  0.40659146093E+02  0.00000000000E+00 0. -1.
         11    1    3    3    0    0 -0.14957906821E+02 -0.31468265102E+02  0.15099440339E+02  0.37973461572E+02  0.51100000000E-03 0. -1.
        -11    1    3    3    0    0 -0.23037249154E+01 -0.34623624668E+01 -0.20480734799E+01  0.46356992544E+01  0.51100000000E-03 0.  1.
         12    1    3    3    0    0 -0.21215965657E+01 -0.39579857103E+00 -0.76199547237E+01  0.79196930804E+01  0.00000000000E+00 0. -1.
</event>
<event>
 7    1  0.4971907E-013  0.5052886E+02  0.7816164E-02  0.1300439E+00
        -11   -1    0    0    0    0  0.00000000000E+00  0.00000000000E+00  0.45593999997E+02  0.45594000000E+02  0.51100000000E-03 0.  1.
         11   -1    0    0    0    0 -0.00000000000E+00 -0.00000000000E+00 -0.45593999997E+02  0.45594000000E+02  0.51100000000E-03 0. -1.
    9900012    2    1    2    0    0 -0.60451778551E+01  0.21995000591E+01  0.40147028653E+02  0.50528857296E+02  0.29999992236E+02 0.  0.
         12    1    1    2    0    0  0.60451778551E+01 -0.21995000591E+01 -0.40147028653E+02  0.40659142704E+02  0.00000000000E+00 0. -1.
         11    1    3    3    0    0 -0.79772069256E+00 -0.10318949276E+01  0.16900389940E+02  0.16950644408E+02  0.51100000000E-03 0. -1.
        -11    1    3    3    0    0 -0.25523188976E+01  0.36505581810E+01  0.27862723151E+02  0.28216524386E+02  0.51100000000E-03 0.  1.
         12    1    3    3    0    0 -0.26951382649E+01 -0.41916319427E+00 -0.46160844385E+01  0.53616885021E+01  0.00000000000E+00 0. -1.
</event>
<event>
 7    1  0.4971907E-013  0.5052886E+02  0.7816164E-02  0.1300439E+00
        -11   -1    0    0    0    0  0.00000000000E+00  0.00000000000E+00  0.45593999997E+02  0.45594000000E+02  0.51100000000E-03 0.  1.
         11   -1    0    0    0    0 -0.00000000000E+00 -0.00000000000E+00 -0.45593999997E+02  0.45594000000E+02  0.51100000000E-03 0. -1.
    9900012    2    1    2    0    0 -0.24301491375E+02  0.43762848053E+01  0.32302502177E+02  0.50528855903E+02  0.29999988004E+02 0.  0.
         12    1    1    2    0    0  0.24301491375E+02 -0.43762848053E+01 -0.32302502177E+02  0.40659144097E+02  0.00000000000E+00 0. -1.
         11    1    3    3    0    0 -0.28417217177E+01 -0.12558386110E+01  0.12222061597E+01  0.33386076582E+01  0.51100000000E-03 0. -1.
        -11    1    3    3    0    0 -0.12626824840E+02  0.16932774172E+02  0.19657356764E+02  0.28854240969E+02  0.51100000000E-03 0.  1.
        -12    1    3    3    0    0 -0.88329448179E+01 -0.11300650755E+02  0.11422939253E+02  0.18336007276E+02  0.00000000000E+00 0.  1.
</event>
<event>
 7    1  0.4971907E-013  0.5052886E+02  0.7816164E-02  0.1300439E+00
        -11   -1    0    0    0    0  0.00000000000E+00  0.00000000000E+00  0.45593999997E+02  0.45594000000E+02  0.51100000000E-03 0.  1.
         11   -1    0    0    0    0 -0.00000000000E+00 -0.00000000000E+00 -0.45593999997E+02  0.45594000000E+02  0.51100000000E-03 0. -1.
    9900012    2    1    2    0    0  0.31179212720E+02  0.25936491893E+02  0.28845395228E+01  0.50528862210E+02  0.30000007174E+02 0.  0.
         12    1    1    2    0    0 -0.31179212720E+02 -0.25936491893E+02 -0.28845395228E+01  0.40659137790E+02  0.00000000000E+00 0. -1.
         11    1    3    3    0    0  0.90028432466E+01  0.68141868660E+01  0.55889014779E+01  0.12598418518E+02  0.51100000000E-03 0. -1.
        -11    1    3    3    0    0  0.15836812547E+02 -0.18260189558E+01 -0.81753008773E+00  0.15962685632E+02  0.51100000000E-03 0.  1.
         12    1    3    3    0    0  0.63395569265E+01  0.20948323983E+02 -0.18868318674E+01  0.21967758061E+02  0.00000000000E+00 0. -1.
</event>
<event>
 7    1  0.4971907E-013  0.5052885E+02  0.7816164E-02  0.1300439E+00
        -11   -1    0    0    0    0  0.00000000000E+00  0.00000000000E+00  0.45593999997E+02  0.45594000000E+02  0.51100000000E-03 0. -1.
         11   -1    0    0    0    0 -0.00000000000E+00 -0.00000000000E+00 -0.45593999997E+02  0.45594000000E+02  0.51100000000E-03 0.  1.
    9900012    2    1    2    0    0  0.13590908777E+02  0.16651479296E+02  0.34513500428E+02  0.50528852494E+02  0.29999977640E+02 0.  0.
         12    1    1    2    0    0 -0.13590908777E+02 -0.16651479296E+02 -0.34513500428E+02  0.40659147506E+02  0.00000000000E+00 0. -1.
         11    1    3    3    0    0  0.43865777749E+01  0.86392005729E+01  0.18948868036E+02  0.21282327204E+02  0.51100000000E-03 0. -1.
        -11    1    3    3    0    0  0.14203978399E+02  0.11764084519E+02  0.10668162403E+02  0.21306252046E+02  0.51100000000E-03 0.  1.
        -12    1    3    3    0    0 -0.49996473967E+01 -0.37518057963E+01  0.48964699898E+01  0.79402732437E+01  0.00000000000E+00 0.  1.
</event>
<event>
 7    1  0.4971907E-013  0.5052885E+02  0.7816164E-02  0.1300439E+00
        -11   -1    0    0    0    0  0.00000000000E+00  0.00000000000E+00  0.45593999997E+02  0.45594000000E+02  0.51100000000E-03 0.  1.
         11   -1    0    0    0    0 -0.00000000000E+00 -0.00000000000E+00 -0.45593999997E+02  0.45594000000E+02  0.51100000000E-03 0. -1.
    9900012    2    1    2    0    0 -0.21950552158E+02 -0.13317245480E+02  0.31527617404E+02  0.50528850644E+02  0.29999972017E+02 0.  0.
         12    1    1    2    0    0  0.21950552158E+02  0.13317245480E+02 -0.31527617404E+02  0.40659149356E+02  0.00000000000E+00 0. -1.
         11    1    3    3    0    0  0.45027604304E+01  0.88913796483E+00  0.13708501831E+02  0.14456432497E+02  0.51100000000E-03 0. -1.
        -11    1    3    3    0    0 -0.63776269835E+01 -0.42743788879E+01  0.38201140941E+00  0.76870263299E+01  0.51100000000E-03 0.  1.
        -12    1    3    3    0    0 -0.20075685605E+02 -0.99320045568E+01  0.17437104163E+02  0.28385391817E+02  0.00000000000E+00 0.  1.
</event>
<event>
 7    1  0.4971907E-013  0.5052886E+02  0.7816164E-02  0.1300439E+00
        -11   -1    0    0    0    0  0.00000000000E+00  0.00000000000E+00  0.45593999997E+02  0.45594000000E+02  0.51100000000E-03 0.  1.
         11   -1    0    0    0    0 -0.00000000000E+00 -0.00000000000E+00 -0.45593999997E+02  0.45594000000E+02  0.51100000000E-03 0. -1.
    9900012    2    1    2    0    0  0.36054801105E+02  0.14914590215E+01  0.18734802151E+02  0.50528856571E+02  0.29999990034E+02 0.  0.
         12    1    1    2    0    0 -0.36054801105E+02 -0.14914590215E+01 -0.18734802151E+02  0.40659143429E+02  0.00000000000E+00 0. -1.
         11    1    3    3    0    0  0.34792899545E+01  0.38175588893E+01  0.61540884900E+01  0.80344271647E+01  0.51100000000E-03 0. -1.
        -11    1    3    3    0    0  0.10869587650E+02 -0.12061871124E+02  0.16705253419E+01  0.16322601688E+02  0.51100000000E-03 0.  1.
         12    1    3    3    0    0  0.21705923501E+02  0.97357712565E+01  0.10910188319E+02  0.26171827719E+02  0.00000000000E+00 0. -1.
</event>
<event>
 7    1  0.4971907E-013  0.5052885E+02  0.7816164E-02  0.1300439E+00
        -11   -1    0    0    0    0  0.00000000000E+00  0.00000000000E+00  0.45593999997E+02  0.45594000000E+02  0.51100000000E-03 0. -1.
         11   -1    0    0    0    0 -0.00000000000E+00 -0.00000000000E+00 -0.45593999997E+02  0.45594000000E+02  0.51100000000E-03 0.  1.
    9900012    2    1    2    0    0 -0.18126984527E+02 -0.34125455405E+02 -0.12650374427E+02  0.50528852840E+02  0.29999978693E+02 0.  0.
         12    1    1    2    0    0  0.18126984527E+02  0.34125455405E+02  0.12650374427E+02  0.40659147160E+02  0.00000000000E+00 0. -1.
         11    1    3    3    0    0  0.40228561227E+01 -0.18304895488E+02 -0.57815090021E+01  0.19613220460E+02  0.51100000000E-03 0. -1.
        -11    1    3    3    0    0 -0.55532810708E+01 -0.48653047878E+01  0.38477774893E+01  0.83255938645E+01  0.51100000000E-03 0.  1.
        -12    1    3    3    0    0 -0.16596559579E+02 -0.10955255129E+02 -0.10716642914E+02  0.22590038516E+02  0.00000000000E+00 0.  1.
</event>
<event>
 7    1  0.4971907E-013  0.5052872E+02  0.7816164E-02  0.1300439E+00
        -11   -1    0    0    0    0  0.00000000000E+00  0.00000000000E+00  0.45593999997E+02  0.45594000000E+02  0.51100000000E-03 0. -1.
         11   -1    0    0    0    0 -0.00000000000E+00 -0.00000000000E+00 -0.45593999997E+02  0.45594000000E+02  0.51100000000E-03 0.  1.
    9900012    2    1    2    0    0  0.35574016271E+02  0.15234360605E+02  0.12473203462E+02  0.50528718386E+02  0.29999570004E+02 0.  0.
         12    1    1    2    0    0 -0.35574016271E+02 -0.15234360605E+02 -0.12473203462E+02  0.40659281614E+02  0.00000000000E+00 0. -1.
         11    1    3    3    0    0  0.13931482566E+02  0.34428761268E+01 -0.33586067392E+01  0.14738379898E+02  0.51100000000E-03 0. -1.
        -11    1    3    3    0    0  0.18113326200E+02 -0.12554517212E+01  0.61709683241E+01  0.19176798361E+02  0.51100000000E-03 0.  1.
         12    1    3    3    0    0  0.35292075051E+01  0.13046936200E+02  0.96608418767E+01  0.16613540128E+02  0.00000000000E+00 0. -1.
</event>
<event>
 7    1  0.4971907E-013  0.5052886E+02  0.7816164E-02  0.1300439E+00
        -11   -1    0    0    0    0  0.00000000000E+00  0.00000000000E+00  0.45593999997E+02  0.45594000000E+02  0.51100000000E-03 0.  1.
         11   -1    0    0    0    0 -0.00000000000E+00 -0.00000000000E+00 -0.45593999997E+02  0.45594000000E+02  0.51100000000E-03 0. -1.
    9900012    2    1    2    0    0 -0.27636158762E+02 -0.10107264563E+02  0.28058003344E+02  0.50528860564E+02  0.30000002169E+02 0.  0.
         12    1    1    2    0    0  0.27636158762E+02  0.10107264563E+02 -0.28058003344E+02  0.40659139436E+02  0.00000000000E+00 0. -1.
         11    1    3    3    0    0  0.52425863559E+01 -0.37563381326E+01  0.34075193872E+01  0.72942426955E+01  0.51100000000E-03 0. -1.
        -11    1    3    3    0    0  0.15313375159E+00  0.18213730995E+00 -0.92248068064E+00  0.95267770670E+00  0.51100000000E-03 0.  1.
        -12    1    3    3    0    0 -0.33031878869E+02 -0.65330637402E+01  0.25572964638E+02  0.42281940161E+02  0.00000000000E+00 0.  1.
</event>
<event>
 7    1  0.4971907E-013  0.5052887E+02  0.7816164E-02  0.1300439E+00
        -11   -1    0    0    0    0  0.00000000000E+00  0.00000000000E+00  0.45593999997E+02  0.45594000000E+02  0.51100000000E-03 0.  1.
         11   -1    0    0    0    0 -0.00000000000E+00 -0.00000000000E+00 -0.45593999997E+02  0.45594000000E+02  0.51100000000E-03 0. -1.
    9900012    2    1    2    0    0  0.13190609515E+02  0.30882327793E+02  0.22922795774E+02  0.50528869225E+02  0.30000028498E+02 0.  0.
         12    1    1    2    0    0 -0.13190609515E+02 -0.30882327793E+02 -0.22922795774E+02  0.40659130775E+02  0.00000000000E+00 0. -1.
         11    1    3    3    0    0 -0.68100781447E+01  0.11968893833E+02  0.10192349147E+02  0.17132295973E+02  0.51100000000E-03 0. -1.
        -11    1    3    3    0    0  0.27252816602E+01  0.18310766668E+01  0.79969936868E+01  0.86447620080E+01  0.51100000000E-03 0.  1.
         12    1    3    3    0    0  0.17275405999E+02  0.17082357293E+02  0.47334529396E+01  0.24751811244E+02  0.00000000000E+00 0. -1.
</event>
<event>
 7    1  0.4971907E-013  0.5052887E+02  0.7816164E-02  0.1300439E+00
        -11   -1    0    0    0    0  0.00000000000E+00  0.00000000000E+00  0.45593999997E+02  0.45594000000E+02  0.51100000000E-03 0. -1.
         11   -1    0    0    0    0 -0.00000000000E+00 -0.00000000000E+00 -0.45593999997E+02  0.45594000000E+02  0.51100000000E-03 0.  1.
    9900012    2    1    2    0    0  0.35405074390E+02  0.88723780076E+01 -0.17914425492E+02  0.50528867879E+02  0.30000024406E+02 0.  0.
         12    1    1    2    0    0 -0.35405074390E+02 -0.88723780076E+01  0.17914425492E+02  0.40659132121E+02  0.00000000000E+00 0. -1.
         11    1    3    3    0    0  0.51745672326E+01  0.99842303893E+00 -0.11539936181E+02  0.12686336033E+02  0.51100000000E-03 0. -1.
        -11    1    3    3    0    0  0.32515950549E+02  0.41738029172E+01 -0.44378133388E+01  0.33081745092E+02  0.51100000000E-03 0.  1.
         12    1    3    3    0    0 -0.22854433911E+01  0.37001520515E+01 -0.19366759720E+01  0.47607867541E+01  0.00000000000E+00 0. -1.
</event>
<event>
 7    1  0.4971907E-013  0.5052886E+02  0.7816164E-02  0.1300439E+00
        -11   -1    0    0    0    0  0.00000000000E+00  0.00000000000E+00  0.45593999997E+02  0.45594000000E+02  0.51100000000E-03 0.  1.
         11   -1    0    0    0    0 -0.00000000000E+00 -0.00000000000E+00 -0.45593999997E+02  0.45594000000E+02  0.51100000000E-03 0. -1.
    9900012    2    1    2    0    0  0.21715363401E+02  0.30727197318E+02  0.15409341700E+02  0.50528862352E+02  0.30000007606E+02 0.  0.
         12    1    1    2    0    0 -0.21715363401E+02 -0.30727197318E+02 -0.15409341700E+02  0.40659137648E+02  0.00000000000E+00 0. -1.
         11    1    3    3    0    0  0.96875726511E+01  0.14160555735E+01  0.10138767982E+02  0.14094285853E+02  0.51100000000E-03 0. -1.
        -11    1    3    3    0    0  0.16438571154E+02  0.21426155724E+02  0.35612272187E+01  0.27239477055E+02  0.51100000000E-03 0.  1.
        -12    1    3    3    0    0 -0.44107804046E+01  0.78849860205E+01  0.17093464996E+01  0.91950994436E+01  0.00000000000E+00 0.  1.
</event>
<event>
 7    1  0.4971907E-013  0.5052886E+02  0.7816164E-02  0.1300439E+00
        -11   -1    0    0    0    0  0.00000000000E+00  0.00000000000E+00  0.45593999997E+02  0.45594000000E+02  0.51100000000E-03 0. -1.
         11   -1    0    0    0    0 -0.00000000000E+00 -0.00000000000E+00 -0.45593999997E+02  0.45594000000E+02  0.51100000000E-03 0.  1.
    9900012    2    1    2    0    0 -0.16052367619E+02  0.34300124733E+02 -0.14798256380E+02  0.50528862592E+02  0.30000008334E+02 0.  0.
         12    1    1    2    0    0  0.16052367619E+02 -0.34300124733E+02  0.14798256380E+02  0.40659137408E+02  0.00000000000E+00 0. -1.
         11    1    3    3    0    0 -0.77239058021E+01  0.14091368374E+02 -0.14684208782E+02  0.21768127418E+02  0.51100000000E-03 0. -1.
        -11    1    3    3    0    0 -0.10010778749E+02  0.21188828428E+02 -0.45897732116E+01  0.23879869340E+02  0.51100000000E-03 0.  1.
         12    1    3    3    0    0  0.16823169323E+01 -0.98007206889E+00  0.44757256130E+01  0.48808658334E+01  0.00000000000E+00 0. -1.
</event>
<event>
 7    1  0.4971907E-013  0.5052886E+02  0.7816164E-02  0.1300439E+00
        -11   -1    0    0    0    0  0.00000000000E+00  0.00000000000E+00  0.45593999997E+02  0.45594000000E+02  0.51100000000E-03 0. -1.
         11   -1    0    0    0    0 -0.00000000000E+00 -0.00000000000E+00 -0.45593999997E+02  0.45594000000E+02  0.51100000000E-03 0.  1.
    9900012    2    1    2    0    0 -0.29984665212E+02  0.80317443089E+01 -0.26259796002E+02  0.50528856495E+02  0.29999989801E+02 0.  0.
         12    1    1    2    0    0  0.29984665212E+02 -0.80317443089E+01  0.26259796002E+02  0.40659143505E+02  0.00000000000E+00 0. -1.
         11    1    3    3    0    0 -0.58262194509E+01 -0.56528100542E+01 -0.80787348127E+01  0.11452731161E+02  0.51100000000E-03 0.  1.
        -11    1    3    3    0    0 -0.11927199355E+01  0.77620405144E+01  0.18084600067E+01  0.80586836176E+01  0.51100000000E-03 0. -1.
         12    1    3    3    0    0 -0.22965725826E+02  0.59225138487E+01 -0.19989521196E+02  0.31017441716E+02  0.00000000000E+00 0. -1.
</event>
<event>
 7    1  0.4971907E-013  0.5052886E+02  0.7816164E-02  0.1300439E+00
        -11   -1    0    0    0    0  0.00000000000E+00  0.00000000000E+00  0.45593999997E+02  0.45594000000E+02  0.51100000000E-03 0.  1.
         11   -1    0    0    0    0 -0.00000000000E+00 -0.00000000000E+00 -0.45593999997E+02  0.45594000000E+02  0.51100000000E-03 0. -1.
    9900012    2    1    2    0    0 -0.20691341817E+02  0.32806705285E+02 -0.12196474319E+02  0.50528861745E+02  0.30000005759E+02 0.  0.
         12    1    1    2    0    0  0.20691341817E+02 -0.32806705285E+02  0.12196474319E+02  0.40659138255E+02  0.00000000000E+00 0. -1.
         11    1    3    3    0    0 -0.96875141535E+01  0.10695187249E+02 -0.98095960826E+01  0.17448872064E+02  0.51100000000E-03 0.  1.
        -11    1    3    3    0    0 -0.27471005111E+01 -0.43939628708E+01 -0.10415848902E+01  0.52856759523E+01  0.51100000000E-03 0. -1.
         12    1    3    3    0    0 -0.82567271528E+01  0.26505480907E+02 -0.13452933458E+01  0.27794313728E+02  0.00000000000E+00 0. -1.
</event>
<event>
 7    1  0.4971907E-013  0.5052885E+02  0.7816164E-02  0.1300439E+00
        -11   -1    0    0    0    0  0.00000000000E+00  0.00000000000E+00  0.45593999997E+02  0.45594000000E+02  0.51100000000E-03 0. -1.
         11   -1    0    0    0    0 -0.00000000000E+00 -0.00000000000E+00 -0.45593999997E+02  0.45594000000E+02  0.51100000000E-03 0.  1.
    9900012    2    1    2    0    0  0.30079806466E+02 -0.27169451790E+02 -0.31925326544E+01  0.50528854260E+02  0.29999983008E+02 0.  0.
         12    1    1    2    0    0 -0.30079806466E+02  0.27169451790E+02  0.31925326544E+01  0.40659145740E+02  0.00000000000E+00 0. -1.
         11    1    3    3    0    0  0.18632155468E+01 -0.33194657083E+01  0.30700223982E+01  0.48903438068E+01  0.51100000000E-03 0. -1.
        -11    1    3    3    0    0  0.22897100945E+02 -0.29436688014E+02 -0.67895158325E+01  0.37906376224E+02  0.51100000000E-03 0.  1.
        -12    1    3    3    0    0  0.53194899743E+01  0.55867019327E+01  0.52696077985E+00  0.77321342290E+01  0.00000000000E+00 0.  1.
</event>
<event>
 7    1  0.4971907E-013  0.5052887E+02  0.7816164E-02  0.1300439E+00
        -11   -1    0    0    0    0  0.00000000000E+00  0.00000000000E+00  0.45593999997E+02  0.45594000000E+02  0.51100000000E-03 0.  1.
         11   -1    0    0    0    0 -0.00000000000E+00 -0.00000000000E+00 -0.45593999997E+02  0.45594000000E+02  0.51100000000E-03 0. -1.
    9900012    2    1    2    0    0  0.32205133603E+02  0.10587264906E+02  0.22447814728E+02  0.50528865791E+02  0.30000018058E+02 0.  0.
         12    1    1    2    0    0 -0.32205133603E+02 -0.10587264906E+02 -0.22447814728E+02  0.40659134209E+02  0.00000000000E+00 0. -1.
         11    1    3    3    0    0  0.50798424297E+01 -0.16964967055E+01 -0.46957050477E+01  0.71226783121E+01  0.51100000000E-03 0. -1.
        -11    1    3    3    0    0  0.86114268522E+01  0.77611835920E+00  0.17601306401E+02  0.19610329407E+02  0.51100000000E-03 0.  1.
        -12    1    3    3    0    0  0.18513864321E+02  0.11507643252E+02  0.95422133741E+01  0.23795858072E+02  0.00000000000E+00 0.  1.
</event>
<event>
 7    1  0.4971907E-013  0.5052886E+02  0.7816164E-02  0.1300439E+00
        -11   -1    0    0    0    0  0.00000000000E+00  0.00000000000E+00  0.45593999997E+02  0.45594000000E+02  0.51100000000E-03 0.  1.
         11   -1    0    0    0    0 -0.00000000000E+00 -0.00000000000E+00 -0.45593999997E+02  0.45594000000E+02  0.51100000000E-03 0. -1.
    9900012    2    1    2    0    0 -0.27041215286E+02  0.77961875241E+00  0.30353424602E+02  0.50528861856E+02  0.30000006097E+02 0.  0.
         12    1    1    2    0    0  0.27041215286E+02 -0.77961875241E+00 -0.30353424602E+02  0.40659138144E+02  0.00000000000E+00 0. -1.
         11    1    3    3    0    0  0.22752126699E+01 -0.13827606981E+00 -0.14478257050E+01  0.27003541431E+01  0.51100000000E-03 0. -1.
        -11    1    3    3    0    0 -0.51694406561E+01 -0.63375339003E+01  0.16284818745E+02  0.18223138436E+02  0.51100000000E-03 0.  1.
        -12    1    3    3    0    0 -0.24146987300E+02  0.72554287226E+01  0.15516431562E+02  0.29605369277E+02  0.00000000000E+00 0.  1.
</event>
<event>
 7    1  0.4971907E-013  0.5052886E+02  0.7816164E-02  0.1300439E+00
        -11   -1    0    0    0    0  0.00000000000E+00  0.00000000000E+00  0.45593999997E+02  0.45594000000E+02  0.51100000000E-03 0. -1.
         11   -1    0    0    0    0 -0.00000000000E+00 -0.00000000000E+00 -0.45593999997E+02  0.45594000000E+02  0.51100000000E-03 0.  1.
    9900012    2    1    2    0    0 -0.19455023438E+02 -0.26930909073E+02 -0.23439153808E+02  0.50528859187E+02  0.29999997984E+02 0.  0.
         12    1    1    2    0    0  0.19455023438E+02  0.26930909073E+02  0.23439153808E+02  0.40659140813E+02  0.00000000000E+00 0. -1.
         11    1    3    3    0    0 -0.36356492219E+01 -0.81590052153E+01  0.52552455493E+01  0.10363634373E+02  0.51100000000E-03 0. -1.
        -11    1    3    3    0    0 -0.16558892751E+02 -0.13024993420E+02 -0.16841683596E+02  0.26972016783E+02  0.51100000000E-03 0.  1.
        -12    1    3    3    0    0  0.73951853497E+00 -0.57469104368E+01 -0.11852715761E+02  0.13193208031E+02  0.00000000000E+00 0.  1.
</event>
<event>
 7    1  0.4971907E-013  0.5052888E+02  0.7816164E-02  0.1300439E+00
        -11   -1    0    0    0    0  0.00000000000E+00  0.00000000000E+00  0.45593999997E+02  0.45594000000E+02  0.51100000000E-03 0.  1.
         11   -1    0    0    0    0 -0.00000000000E+00 -0.00000000000E+00 -0.45593999997E+02  0.45594000000E+02  0.51100000000E-03 0. -1.
    9900012    2    1    2    0    0  0.24960090900E+02  0.41769854377E+00  0.32093354071E+02  0.50528880662E+02  0.30000063260E+02 0.  0.
         12    1    1    2    0    0 -0.24960090900E+02 -0.41769854377E+00 -0.32093354071E+02  0.40659119338E+02  0.00000000000E+00 0. -1.
         11    1    3    3    0    0  0.18119433385E+02 -0.34357589955E+01  0.11175012423E+02  0.21563840312E+02  0.51100000000E-03 0. -1.
        -11    1    3    3    0    0  0.19174312685E+01 -0.57966382878E+01  0.15887927127E+02  0.17020687023E+02  0.51100000000E-03 0.  1.
         12    1    3    3    0    0  0.49232262464E+01  0.96500958270E+01  0.50304145213E+01  0.11944353327E+02  0.00000000000E+00 0. -1.
</event>
<event>
 7    1  0.4971907E-013  0.5052886E+02  0.7816164E-02  0.1300439E+00
        -11   -1    0    0    0    0  0.00000000000E+00  0.00000000000E+00  0.45593999997E+02  0.45594000000E+02  0.51100000000E-03 0.  1.
         11   -1    0    0    0    0 -0.00000000000E+00 -0.00000000000E+00 -0.45593999997E+02  0.45594000000E+02  0.51100000000E-03 0. -1.
    9900012    2    1    2    0    0 -0.14064633849E+02 -0.29340311857E+02  0.24382328491E+02  0.50528858742E+02  0.29999996632E+02 0.  0.
         12    1    1    2    0    0  0.14064633849E+02  0.29340311857E+02 -0.24382328491E+02  0.40659141258E+02  0.00000000000E+00 0. -1.
         11    1    3    3    0    0  0.18492612978E+01 -0.23072522976E+01 -0.31874274788E+01  0.43477436339E+01  0.51100000000E-03 0. -1.
        -11    1    3    3    0    0 -0.31246498173E+01 -0.77285945886E+01  0.20244224772E+02  0.21893452164E+02  0.51100000000E-03 0.  1.
         12    1    3    3    0    0 -0.12789245330E+02 -0.19304464971E+02  0.73255311981E+01  0.24287662944E+02  0.00000000000E+00 0. -1.
</event>
<event>
 7    1  0.4971907E-013  0.5052886E+02  0.7816164E-02  0.1300439E+00
        -11   -1    0    0    0    0  0.00000000000E+00  0.00000000000E+00  0.45593999997E+02  0.45594000000E+02  0.51100000000E-03 0.  1.
         11   -1    0    0    0    0 -0.00000000000E+00 -0.00000000000E+00 -0.45593999997E+02  0.45594000000E+02  0.51100000000E-03 0. -1.
    9900012    2    1    2    0    0 -0.26117258838E+02 -0.10412667426E+02  0.29370579597E+02  0.50528858371E+02  0.29999995503E+02 0.  0.
         12    1    1    2    0    0  0.26117258838E+02  0.10412667426E+02 -0.29370579597E+02  0.40659141629E+02  0.00000000000E+00 0. -1.
         11    1    3    3    0    0 -0.10533624450E+02 -0.10203701090E+02  0.12046456876E+02  0.18978669171E+02  0.51100000000E-03 0. -1.
        -11    1    3    3    0    0 -0.23224007358E+01 -0.25667378594E+01  0.17740019969E+02  0.18074567690E+02  0.51100000000E-03 0.  1.
        -12    1    3    3    0    0 -0.13261233653E+02  0.23577715232E+01 -0.41589724764E+00  0.13475621509E+02  0.00000000000E+00 0.  1.
</event>
<event>
 7    1  0.4971907E-013  0.5052886E+02  0.7816164E-02  0.1300439E+00
        -11   -1    0    0    0    0  0.00000000000E+00  0.00000000000E+00  0.45593999997E+02  0.45594000000E+02  0.51100000000E-03 0. -1.
         11   -1    0    0    0    0 -0.00000000000E+00 -0.00000000000E+00 -0.45593999997E+02  0.45594000000E+02  0.51100000000E-03 0.  1.
    9900012    2    1    2    0    0 -0.22854606291E+02 -0.25352548165E+01 -0.33532155731E+02  0.50528855719E+02  0.29999987445E+02 0.  0.
         12    1    1    2    0    0  0.22854606291E+02  0.25352548165E+01  0.33532155731E+02  0.40659144281E+02  0.00000000000E+00 0. -1.
         11    1    3    3    0    0 -0.69120462820E+01  0.85479828065E+01 -0.11507609432E+02  0.15914442150E+02  0.51100000000E-03 0. -1.
        -11    1    3    3    0    0 -0.16256384687E+02 -0.16567111713E+01 -0.93857574371E+01  0.18844287673E+02  0.51100000000E-03 0.  1.
         12    1    3    3    0    0  0.31382467803E+00 -0.94265264517E+01 -0.12638788862E+02  0.15770125896E+02  0.00000000000E+00 0. -1.
</event>
<event>
 7    1  0.4971907E-013  0.5052887E+02  0.7816164E-02  0.1300439E+00
        -11   -1    0    0    0    0  0.00000000000E+00  0.00000000000E+00  0.45593999997E+02  0.45594000000E+02  0.51100000000E-03 0. -1.
         11   -1    0    0    0    0 -0.00000000000E+00 -0.00000000000E+00 -0.45593999997E+02  0.45594000000E+02  0.51100000000E-03 0.  1.
    9900012    2    1    2    0    0 -0.34753990217E+02 -0.20084554428E+02 -0.64758022364E+01  0.50528866005E+02  0.30000018709E+02 0.  0.
         12    1    1    2    0    0  0.34753990217E+02  0.20084554428E+02  0.64758022364E+01  0.40659133995E+02  0.00000000000E+00 0. -1.
         11    1    3    3    0    0 -0.40652895908E+01 -0.11938802530E+02  0.24510936218E+01  0.12847935457E+02  0.51100000000E-03 0. -1.
        -11    1    3    3    0    0 -0.21979948416E+02 -0.13995844063E+02 -0.53877511280E+01  0.26608826466E+02  0.51100000000E-03 0.  1.
         12    1    3    3    0    0 -0.87087522104E+01  0.58500921640E+01 -0.35391447301E+01  0.11072104082E+02  0.00000000000E+00 0. -1.
</event>
<event>
 7    1  0.6519467E-013  0.5052886E+02  0.7816164E-02  0.1300439E+00
        -11   -1    0    0    0    0  0.00000000000E+00  0.00000000000E+00  0.45593999997E+02  0.45594000000E+02  0.51100000000E-03 0.  1.
         11   -1    0    0    0    0 -0.00000000000E+00 -0.00000000000E+00 -0.45593999997E+02  0.45594000000E+02  0.51100000000E-03 0. -1.
    9900012    2    1    2    0    0 -0.13297400247E+02 -0.38352524469E+02  0.23298890469E+01  0.50528863641E+02  0.30000011523E+02 0.  0.
         12    1    1    2    0    0  0.13297400247E+02  0.38352524469E+02 -0.23298890469E+01  0.40659136359E+02  0.00000000000E+00 0. -1.
         11    1    3    3    0    0 -0.52658431668E+01 -0.42973429977E+01 -0.68553681481E+01  0.96536176537E+01  0.51100000000E-03 0. -1.
        -11    1    3    3    0    0 -0.14310290366E+02 -0.24326170633E+02  0.58198715710E+01  0.28816972314E+02  0.51100000000E-03 0.  1.
        -12    1    3    3    0    0  0.62787332853E+01 -0.97290108390E+01  0.33653856240E+01  0.12058273673E+02  0.00000000000E+00 0.  1.
</event>
<event>
 7    1  0.4971907E-013  0.5052886E+02  0.7816164E-02  0.1300439E+00
        -11   -1    0    0    0    0  0.00000000000E+00  0.00000000000E+00  0.45593999997E+02  0.45594000000E+02  0.51100000000E-03 0.  1.
         11   -1    0    0    0    0 -0.00000000000E+00 -0.00000000000E+00 -0.45593999997E+02  0.45594000000E+02  0.51100000000E-03 0. -1.
    9900012    2    1    2    0    0  0.33491433516E+02  0.22994293410E+02 -0.16589514977E+01  0.50528858734E+02  0.29999996609E+02 0.  0.
         12    1    1    2    0    0 -0.33491433516E+02 -0.22994293410E+02  0.16589514977E+01  0.40659141266E+02  0.00000000000E+00 0. -1.
         11    1    3    3    0    0  0.64891484976E+01 -0.13959017018E+01 -0.63634478034E+00  0.66680225499E+01  0.51100000000E-03 0. -1.
        -11    1    3    3    0    0  0.18971796774E+02  0.25754537650E+02 -0.81802680241E+01  0.33017299520E+02  0.51100000000E-03 0.  1.
         12    1    3    3    0    0  0.80304882447E+01 -0.13643425380E+01  0.71576613068E+01  0.10843536664E+02  0.00000000000E+00 0. -1.
</event>
<event>
 7    1  0.4971907E-013  0.5052886E+02  0.7816164E-02  0.1300439E+00
        -11   -1    0    0    0    0  0.00000000000E+00  0.00000000000E+00  0.45593999997E+02  0.45594000000E+02  0.51100000000E-03 0.  1.
         11   -1    0    0    0    0 -0.00000000000E+00 -0.00000000000E+00 -0.45593999997E+02  0.45594000000E+02  0.51100000000E-03 0. -1.
    9900012    2    1    2    0    0 -0.16059087797E+02  0.17719578190E+02  0.32882939580E+02  0.50528862435E+02  0.30000007858E+02 0.  0.
         12    1    1    2    0    0  0.16059087797E+02 -0.17719578190E+02 -0.32882939580E+02  0.40659137565E+02  0.00000000000E+00 0. -1.
         11    1    3    3    0    0  0.37456386827E+01 -0.13782253970E+00 -0.87027302931E-01  0.37491836720E+01  0.51100000000E-03 0. -1.
        -11    1    3    3    0    0 -0.17636740635E+01 -0.80814756283E+00  0.15194398846E+02  0.15317748048E+02  0.51100000000E-03 0.  1.
        -12    1    3    3    0    0 -0.18041052416E+02  0.18665548292E+02  0.17775568037E+02  0.31461930716E+02  0.00000000000E+00 0.  1.
</event>
<event>
 7    1  0.4971907E-013  0.5052882E+02  0.7816164E-02  0.1300439E+00
        -11   -1    0    0    0    0  0.00000000000E+00  0.00000000000E+00  0.45593999997E+02  0.45594000000E+02  0.51100000000E-03 0.  1.
         11   -1    0    0    0    0 -0.00000000000E+00 -0.00000000000E+00 -0.45593999997E+02  0.45594000000E+02  0.51100000000E-03 0. -1.
    9900012    2    1    2    0    0  0.22083208268E+02 -0.33682172387E+02  0.55688836609E+01  0.50528815437E+02  0.29999865002E+02 0.  0.
         12    1    1    2    0    0 -0.22083208268E+02  0.33682172387E+02 -0.55688836609E+01  0.40659184563E+02  0.00000000000E+00 0. -1.
         11    1    3    3    0    0 -0.32588063933E+01 -0.16110124001E+02  0.19104686688E+01  0.16547078450E+02  0.51100000000E-03 0. -1.
        -11    1    3    3    0    0  0.46221378509E+01 -0.44844103638E+01  0.66921198579E+01  0.92875488196E+01  0.51100000000E-03 0.  1.
         12    1    3    3    0    0  0.20719876810E+02 -0.13087638023E+02 -0.30337048658E+01  0.24694188168E+02  0.00000000000E+00 0. -1.
</event>
<event>
 7    1  0.4971907E-013  0.5052885E+02  0.7816164E-02  0.1300439E+00
        -11   -1    0    0    0    0  0.00000000000E+00  0.00000000000E+00  0.45593999997E+02  0.45594000000E+02  0.51100000000E-03 0.  1.
         11   -1    0    0    0    0 -0.00000000000E+00 -0.00000000000E+00 -0.45593999997E+02  0.45594000000E+02  0.51100000000E-03 0. -1.
    9900012    2    1    2    0    0  0.21806534671E+02 -0.34299142951E+02  0.10999815235E+01  0.50528854400E+02  0.29999983435E+02 0.  0.
         12    1    1    2    0    0 -0.21806534671E+02  0.34299142951E+02 -0.10999815235E+01  0.40659145600E+02  0.00000000000E+00 0. -1.
         11    1    3    3    0    0  0.49054852295E+01 -0.16202148350E+02  0.40381868288E+01  0.17403457978E+02  0.51100000000E-03 0. -1.
        -11    1    3    3    0    0  0.80111337335E+01 -0.13454780876E+01  0.78590726000E+01  0.11302813693E+02  0.51100000000E-03 0.  1.
         12    1    3    3    0    0  0.88899157078E+01 -0.16751516514E+02 -0.10797277905E+02  0.21822582729E+02  0.00000000000E+00 0. -1.
</event>
<event>
 7    1  0.4971907E-013  0.5052887E+02  0.7816164E-02  0.1300439E+00
        -11   -1    0    0    0    0  0.00000000000E+00  0.00000000000E+00  0.45593999997E+02  0.45594000000E+02  0.51100000000E-03 0. -1.
         11   -1    0    0    0    0 -0.00000000000E+00 -0.00000000000E+00 -0.45593999997E+02  0.45594000000E+02  0.51100000000E-03 0.  1.
    9900012    2    1    2    0    0  0.38330498980E+02  0.99057662693E+01 -0.92635701615E+01  0.50528867082E+02  0.30000021984E+02 0.  0.
         12    1    1    2    0    0 -0.38330498980E+02 -0.99057662693E+01  0.92635701615E+01  0.40659132918E+02  0.00000000000E+00 0. -1.
         11    1    3    3    0    0  0.21747904329E+02  0.68870012018E+00  0.35725174771E+00  0.21761738892E+02  0.51100000000E-03 0. -1.
        -11    1    3    3    0    0  0.18361537851E+02  0.12408078654E+02 -0.47260404324E+01  0.22659257414E+02  0.51100000000E-03 0.  1.
        -12    1    3    3    0    0 -0.17789431991E+01 -0.31910125048E+01 -0.48947814768E+01  0.61078707760E+01  0.00000000000E+00 0.  1.
</event>
<event>
 7    1  0.4971907E-013  0.5052887E+02  0.7816164E-02  0.1300439E+00
        -11   -1    0    0    0    0  0.00000000000E+00  0.00000000000E+00  0.45593999997E+02  0.45594000000E+02  0.51100000000E-03 0. -1.
         11   -1    0    0    0    0 -0.00000000000E+00 -0.00000000000E+00 -0.45593999997E+02  0.45594000000E+02  0.51100000000E-03 0.  1.
    9900012    2    1    2    0    0 -0.12945348999E+02 -0.17670935696E+02 -0.34253773518E+02  0.50528867824E+02  0.30000024237E+02 0.  0.
         12    1    1    2    0    0  0.12945348999E+02  0.17670935696E+02  0.34253773518E+02  0.40659132176E+02  0.00000000000E+00 0. -1.
         11    1    3    3    0    0  0.67488007250E+01 -0.80390169801E+01 -0.10949552941E+02  0.15167887628E+02  0.51100000000E-03 0. -1.
        -11    1    3    3    0    0 -0.43916862631E+01 -0.85650711009E+01 -0.15254918699E+02  0.18037735334E+02  0.51100000000E-03 0.  1.
        -12    1    3    3    0    0 -0.15302463461E+02 -0.10668476150E+01 -0.80493018781E+01  0.17323244862E+02  0.00000000000E+00 0.  1.
</event>
<event>
 7    1  0.4971907E-013  0.5052886E+02  0.7816164E-02  0.1300439E+00
        -11   -1    0    0    0    0  0.00000000000E+00  0.00000000000E+00  0.45593999997E+02  0.45594000000E+02  0.51100000000E-03 0.  1.
         11   -1    0    0    0    0 -0.00000000000E+00 -0.00000000000E+00 -0.45593999997E+02  0.45594000000E+02  0.51100000000E-03 0. -1.
    9900012    2    1    2    0    0 -0.28703786739E+02  0.17402936782E+02  0.22943323248E+02  0.50528860025E+02  0.30000000533E+02 0.  0.
         12    1    1    2    0    0  0.28703786739E+02 -0.17402936782E+02 -0.22943323248E+02  0.40659139975E+02  0.00000000000E+00 0. -1.
         11    1    3    3    0    0 -0.25965061834E+02  0.39954373488E+01  0.15658042674E+02  0.30583038702E+02  0.51100000000E-03 0. -1.
        -11    1    3    3    0    0 -0.52303087242E+01  0.29948329990E+01 -0.13670449032E+01  0.61801267035E+01  0.51100000000E-03 0.  1.
        -12    1    3    3    0    0  0.24915838185E+01  0.10412666434E+02  0.86523254774E+01  0.13765694620E+02  0.00000000000E+00 0.  1.
</event>
<event>
 7    1  0.5149767E-013  0.5052889E+02  0.7816164E-02  0.1300439E+00
        -11   -1    0    0    0    0  0.00000000000E+00  0.00000000000E+00  0.45593999997E+02  0.45594000000E+02  0.51100000000E-03 0. -1.
         11   -1    0    0    0    0 -0.00000000000E+00 -0.00000000000E+00 -0.45593999997E+02  0.45594000000E+02  0.51100000000E-03 0.  1.
    9900012    2    1    2    0    0  0.23253368181E+01 -0.11224974297E+02 -0.39009687949E+02  0.50528892863E+02  0.30000100346E+02 0.  0.
         12    1    1    2    0    0 -0.23253368181E+01  0.11224974297E+02  0.39009687949E+02  0.40659107137E+02  0.00000000000E+00 0. -1.
         11    1    3    3    0    0 -0.23785820383E+01  0.55381146448E+01 -0.84975424866E+01  0.10418089792E+02  0.51100000000E-03 0. -1.
        -11    1    3    3    0    0 -0.53016566232E+01 -0.89904273820E+01 -0.23302755394E+02  0.25533385139E+02  0.51100000000E-03 0.  1.
        -12    1    3    3    0    0  0.10005575480E+02 -0.77726615594E+01 -0.72093900688E+01  0.14577417932E+02  0.00000000000E+00 0.  1.
</event>
<event>
 7    1  0.4971907E-013  0.5052886E+02  0.7816164E-02  0.1300439E+00
        -11   -1    0    0    0    0  0.00000000000E+00  0.00000000000E+00  0.45593999997E+02  0.45594000000E+02  0.51100000000E-03 0.  1.
         11   -1    0    0    0    0 -0.00000000000E+00 -0.00000000000E+00 -0.45593999997E+02  0.45594000000E+02  0.51100000000E-03 0. -1.
    9900012    2    1    2    0    0 -0.36186925891E+01  0.22655601633E+02  0.33567758890E+02  0.50528860089E+02  0.30000000727E+02 0.  0.
         12    1    1    2    0    0  0.36186925891E+01 -0.22655601633E+02 -0.33567758890E+02  0.40659139911E+02  0.00000000000E+00 0. -1.
         11    1    3    3    0    0 -0.69227376875E+01  0.27253304020E+01  0.74216649318E+01  0.10508702751E+02  0.51100000000E-03 0. -1.
        -11    1    3    3    0    0 -0.15433014526E+01  0.17716055154E+02  0.53770246293E+01  0.18578287965E+02  0.51100000000E-03 0.  1.
        -12    1    3    3    0    0  0.48473465510E+01  0.22142160770E+01  0.20769069328E+02  0.21441869373E+02  0.00000000000E+00 0.  1.
</event>
<event>
 7    1  0.4971907E-013  0.5052886E+02  0.7816164E-02  0.1300439E+00
        -11   -1    0    0    0    0  0.00000000000E+00  0.00000000000E+00  0.45593999997E+02  0.45594000000E+02  0.51100000000E-03 0.  1.
         11   -1    0    0    0    0 -0.00000000000E+00 -0.00000000000E+00 -0.45593999997E+02  0.45594000000E+02  0.51100000000E-03 0. -1.
    9900012    2    1    2    0    0  0.12026394169E+02 -0.27783753933E+02  0.27140273654E+02  0.50528860888E+02  0.30000003155E+02 0.  0.
         12    1    1    2    0    0 -0.12026394169E+02  0.27783753933E+02 -0.27140273654E+02  0.40659139112E+02  0.00000000000E+00 0. -1.
         11    1    3    3    0    0  0.10839265309E+02 -0.21348049061E+02  0.13227746656E+02  0.27353284136E+02  0.51100000000E-03 0.  1.
        -11    1    3    3    0    0 -0.22710866634E+01 -0.10143947677E+02  0.14741222665E+02  0.18037770235E+02  0.51100000000E-03 0. -1.
        -12    1    3    3    0    0  0.34582155229E+01  0.37082428048E+01 -0.82869566712E+00  0.51378065175E+01  0.00000000000E+00 0.  1.
</event>
<event>
 7    1  0.4971907E-013  0.5052885E+02  0.7816164E-02  0.1300439E+00
        -11   -1    0    0    0    0  0.00000000000E+00  0.00000000000E+00  0.45593999997E+02  0.45594000000E+02  0.51100000000E-03 0.  1.
         11   -1    0    0    0    0 -0.00000000000E+00 -0.00000000000E+00 -0.45593999997E+02  0.45594000000E+02  0.51100000000E-03 0. -1.
    9900012    2    1    2    0    0 -0.11687177228E+02  0.51364732318E+01  0.38603014935E+02  0.50528853047E+02  0.29999979323E+02 0.  0.
         12    1    1    2    0    0  0.11687177228E+02 -0.51364732318E+01 -0.38603014935E+02  0.40659146953E+02  0.00000000000E+00 0. -1.
         11    1    3    3    0    0 -0.90508525727E+01 -0.34628632687E+01  0.17513865966E+01  0.98476753390E+01  0.51100000000E-03 0. -1.
        -11    1    3    3    0    0 -0.63784574244E+01 -0.14210011519E+01  0.13902105961E+02  0.15361396870E+02  0.51100000000E-03 0.  1.
        -12    1    3    3    0    0  0.37421327690E+01  0.10020337652E+02  0.22949522378E+02  0.25319780839E+02  0.00000000000E+00 0.  1.
</event>
<event>
 7    1  0.4971907E-013  0.5052886E+02  0.7816164E-02  0.1300439E+00
        -11   -1    0    0    0    0  0.00000000000E+00  0.00000000000E+00  0.45593999997E+02  0.45594000000E+02  0.51100000000E-03 0.  1.
         11   -1    0    0    0    0 -0.00000000000E+00 -0.00000000000E+00 -0.45593999997E+02  0.45594000000E+02  0.51100000000E-03 0. -1.
    9900012    2    1    2    0    0 -0.38794387257E+01  0.40392359829E+02  0.25637633206E+01  0.50528860071E+02  0.30000000673E+02 0.  0.
         12    1    1    2    0    0  0.38794387257E+01 -0.40392359829E+02 -0.25637633206E+01  0.40659139929E+02  0.00000000000E+00 0. -1.
         11    1    3    3    0    0 -0.64695045869E+01  0.34886502621E+01 -0.24862299910E+01  0.77592854104E+01  0.51100000000E-03 0. -1.
        -11    1    3    3    0    0 -0.84143034701E+01  0.22795261591E+02  0.48349565963E+00  0.24303461116E+02  0.51100000000E-03 0.  1.
        -12    1    3    3    0    0  0.11004369331E+02  0.14108447976E+02  0.45664976519E+01  0.18466113545E+02  0.00000000000E+00 0.  1.
</event>
<event>
 7    1  0.4971907E-013  0.5052886E+02  0.7816164E-02  0.1300439E+00
        -11   -1    0    0    0    0  0.00000000000E+00  0.00000000000E+00  0.45593999997E+02  0.45594000000E+02  0.51100000000E-03 0.  1.
         11   -1    0    0    0    0 -0.00000000000E+00 -0.00000000000E+00 -0.45593999997E+02  0.45594000000E+02  0.51100000000E-03 0. -1.
    9900012    2    1    2    0    0  0.34242048064E+02 -0.19131191431E+02  0.10707247973E+02  0.50528862031E+02  0.30000006630E+02 0.  0.
         12    1    1    2    0    0 -0.34242048064E+02  0.19131191431E+02 -0.10707247973E+02  0.40659137969E+02  0.00000000000E+00 0. -1.
         11    1    3    3    0    0  0.39374084783E+01  0.10146071501E+01 -0.53021434534E+01  0.66817167447E+01  0.51100000000E-03 0. -1.
        -11    1    3    3    0    0  0.56853775716E+00  0.12651669809E+01 -0.24517645074E+01  0.28169189076E+01  0.51100000000E-03 0.  1.
        -12    1    3    3    0    0  0.29736101829E+02 -0.21410965562E+02  0.18461155934E+02  0.41030226379E+02  0.00000000000E+00 0.  1.
</event>
<event>
 7    1  0.4971907E-013  0.5052886E+02  0.7816164E-02  0.1300439E+00
        -11   -1    0    0    0    0  0.00000000000E+00  0.00000000000E+00  0.45593999997E+02  0.45594000000E+02  0.51100000000E-03 0.  1.
         11   -1    0    0    0    0 -0.00000000000E+00 -0.00000000000E+00 -0.45593999997E+02  0.45594000000E+02  0.51100000000E-03 0. -1.
    9900012    2    1    2    0    0 -0.21281952015E+02  0.49316486178E+01  0.34291731561E+02  0.50528862120E+02  0.30000006901E+02 0.  0.
         12    1    1    2    0    0  0.21281952015E+02 -0.49316486178E+01 -0.34291731561E+02  0.40659137880E+02  0.00000000000E+00 0. -1.
         11    1    3    3    0    0 -0.71362584042E+01  0.26030885352E+01  0.29788861327E+00  0.76020386622E+01  0.51100000000E-03 0. -1.
        -11    1    3    3    0    0  0.85810747793E+00  0.72942446674E+01  0.21684533416E+02  0.22894570174E+02  0.51100000000E-03 0.  1.
         12    1    3    3    0    0 -0.15003801089E+02 -0.49656845848E+01  0.12309309532E+02  0.20032253285E+02  0.00000000000E+00 0. -1.
</event>
<event>
 7    1  0.4971907E-013  0.5052884E+02  0.7816164E-02  0.1300439E+00
        -11   -1    0    0    0    0  0.00000000000E+00  0.00000000000E+00  0.45593999997E+02  0.45594000000E+02  0.51100000000E-03 0. -1.
         11   -1    0    0    0    0 -0.00000000000E+00 -0.00000000000E+00 -0.45593999997E+02  0.45594000000E+02  0.51100000000E-03 0.  1.
    9900012    2    1    2    0    0  0.35109607073E+02 -0.16218577025E+02 -0.12547542611E+02  0.50528836517E+02  0.29999929078E+02 0.  0.
         12    1    1    2    0    0 -0.35109607073E+02  0.16218577025E+02  0.12547542611E+02  0.40659163483E+02  0.00000000000E+00 0. -1.
         11    1    3    3    0    0  0.25848970289E+02 -0.34399407099E+01 -0.22147331727E+01  0.26170737482E+02  0.51100000000E-03 0. -1.
        -11    1    3    3    0    0 -0.22711664529E+01 -0.24566037263E+01  0.25617185865E+01  0.42137277205E+01  0.51100000000E-03 0.  1.
        -12    1    3    3    0    0  0.11531803237E+02 -0.10322032589E+02 -0.12894528025E+02  0.20144371314E+02  0.00000000000E+00 0.  1.
</event>
<event>
 7    1  0.4971907E-013  0.5052886E+02  0.7816164E-02  0.1300439E+00
        -11   -1    0    0    0    0  0.00000000000E+00  0.00000000000E+00  0.45593999997E+02  0.45594000000E+02  0.51100000000E-03 0.  1.
         11   -1    0    0    0    0 -0.00000000000E+00 -0.00000000000E+00 -0.45593999997E+02  0.45594000000E+02  0.51100000000E-03 0. -1.
    9900012    2    1    2    0    0  0.19700789721E+01  0.16628637907E+02  0.37050948772E+02  0.50528860625E+02  0.30000002356E+02 0.  0.
         12    1    1    2    0    0 -0.19700789721E+01 -0.16628637907E+02 -0.37050948772E+02  0.40659139375E+02  0.00000000000E+00 0. -1.
         11    1    3    3    0    0 -0.98632002271E+01  0.84033000629E+01  0.16103315590E+02  0.20669178598E+02  0.51100000000E-03 0. -1.
        -11    1    3    3    0    0  0.19421788967E+01  0.10707856440E+02  0.12841580547E+02  0.16832600501E+02  0.51100000000E-03 0.  1.
         12    1    3    3    0    0  0.98911003024E+01 -0.24825185960E+01  0.81060526345E+01  0.13027081526E+02  0.00000000000E+00 0. -1.
</event>
<event>
 7    1  0.4971907E-013  0.5052885E+02  0.7816164E-02  0.1300439E+00
        -11   -1    0    0    0    0  0.00000000000E+00  0.00000000000E+00  0.45593999997E+02  0.45594000000E+02  0.51100000000E-03 0.  1.
         11   -1    0    0    0    0 -0.00000000000E+00 -0.00000000000E+00 -0.45593999997E+02  0.45594000000E+02  0.51100000000E-03 0. -1.
    9900012    2    1    2    0    0  0.49101018950E+01 -0.18842399732E+02  0.35693434466E+02  0.50528851063E+02  0.29999973292E+02 0.  0.
         12    1    1    2    0    0 -0.49101018950E+01  0.18842399732E+02 -0.35693434466E+02  0.40659148937E+02  0.00000000000E+00 0. -1.
         11    1    3    3    0    0 -0.88680187633E+01 -0.13791460332E+02  0.12329325807E+02  0.20514833901E+02  0.51100000000E-03 0. -1.
        -11    1    3    3    0    0  0.11268573594E+01 -0.39445042161E+01  0.12969564050E+02  0.13602886198E+02  0.51100000000E-03 0.  1.
         12    1    3    3    0    0  0.12651263299E+02 -0.11064351839E+01  0.10394544609E+02  0.16411130964E+02  0.00000000000E+00 0. -1.
</event>
<event>
 7    1  0.4971907E-013  0.5052886E+02  0.7816164E-02  0.1300439E+00
        -11   -1    0    0    0    0  0.00000000000E+00  0.00000000000E+00  0.45593999997E+02  0.45594000000E+02  0.51100000000E-03 0. -1.
         11   -1    0    0    0    0 -0.00000000000E+00 -0.00000000000E+00 -0.45593999997E+02  0.45594000000E+02  0.51100000000E-03 0.  1.
    9900012    2    1    2    0    0  0.29361762380E+02  0.17990654285E+02 -0.21619170803E+02  0.50528864767E+02  0.30000014945E+02 0.  0.
         12    1    1    2    0    0 -0.29361762380E+02 -0.17990654285E+02  0.21619170803E+02  0.40659135233E+02  0.00000000000E+00 0. -1.
         11    1    3    3    0    0  0.25708645496E+02  0.92243119209E+01 -0.15316350983E+02  0.31314740799E+02  0.51100000000E-03 0. -1.
        -11    1    3    3    0    0  0.66925682619E+01  0.96183762375E+01 -0.92244962078E+01  0.14912912591E+02  0.51100000000E-03 0.  1.
         12    1    3    3    0    0 -0.30394513776E+01 -0.85203387300E+00  0.29216763872E+01  0.43012113769E+01  0.00000000000E+00 0. -1.
</event>
<event>
 7    1  0.4971907E-013  0.5052885E+02  0.7816164E-02  0.1300439E+00
        -11   -1    0    0    0    0  0.00000000000E+00  0.00000000000E+00  0.45593999997E+02  0.45594000000E+02  0.51100000000E-03 0.  1.
         11   -1    0    0    0    0 -0.00000000000E+00 -0.00000000000E+00 -0.45593999997E+02  0.45594000000E+02  0.51100000000E-03 0. -1.
    9900012    2    1    2    0    0 -0.46553505194E+01  0.56220608735E+01  0.39998577845E+02  0.50528854823E+02  0.29999984720E+02 0.  0.
         12    1    1    2    0    0  0.46553505194E+01 -0.56220608735E+01 -0.39998577845E+02  0.40659145177E+02  0.00000000000E+00 0. -1.
         11    1    3    3    0    0 -0.39232104776E-01 -0.61088767566E+01  0.11084571241E+02  0.12656525362E+02  0.51100000000E-03 0. -1.
        -11    1    3    3    0    0  0.50052597684E+01  0.56607398595E+01  0.24552082293E+02  0.25688545040E+02  0.51100000000E-03 0.  1.
         12    1    3    3    0    0 -0.96213781830E+01  0.60701977706E+01  0.43619243106E+01  0.12183784421E+02  0.00000000000E+00 0. -1.
</event>
<event>
 7    1  0.4971907E-013  0.5052886E+02  0.7816164E-02  0.1300439E+00
        -11   -1    0    0    0    0  0.00000000000E+00  0.00000000000E+00  0.45593999997E+02  0.45594000000E+02  0.51100000000E-03 0. -1.
         11   -1    0    0    0    0 -0.00000000000E+00 -0.00000000000E+00 -0.45593999997E+02  0.45594000000E+02  0.51100000000E-03 0.  1.
    9900012    2    1    2    0    0  0.22654180899E+02 -0.31072056587E+02 -0.13209118665E+02  0.50528862913E+02  0.30000009310E+02 0.  0.
         12    1    1    2    0    0 -0.22654180899E+02  0.31072056587E+02  0.13209118665E+02  0.40659137087E+02  0.00000000000E+00 0. -1.
         11    1    3    3    0    0  0.17780075228E+01  0.23258700996E+01 -0.94595971353E+00  0.30766576853E+01  0.51100000000E-03 0.  1.
        -11    1    3    3    0    0  0.69256696160E+01 -0.24834351392E+02  0.18371524048E+01  0.25847341022E+02  0.51100000000E-03 0. -1.
         12    1    3    3    0    0  0.13950503760E+02 -0.85635752949E+01 -0.14100311356E+02  0.21604864205E+02  0.00000000000E+00 0. -1.
</event>
<event>
 7    1  0.4971907E-013  0.5052886E+02  0.7816164E-02  0.1300439E+00
        -11   -1    0    0    0    0  0.00000000000E+00  0.00000000000E+00  0.45593999997E+02  0.45594000000E+02  0.51100000000E-03 0. -1.
         11   -1    0    0    0    0 -0.00000000000E+00 -0.00000000000E+00 -0.45593999997E+02  0.45594000000E+02  0.51100000000E-03 0.  1.
    9900012    2    1    2    0    0  0.18227847475E+02  0.36244244878E+02 -0.26955241117E+01  0.50528861291E+02  0.30000004379E+02 0.  0.
         12    1    1    2    0    0 -0.18227847475E+02 -0.36244244878E+02  0.26955241117E+01  0.40659138709E+02  0.00000000000E+00 0. -1.
         11    1    3    3    0    0  0.92557894366E+01  0.65525645959E+00 -0.17427184296E+01  0.94411899095E+01  0.51100000000E-03 0. -1.
        -11    1    3    3    0    0  0.16223769979E+01 -0.20521313070E+01  0.67340687915E+00  0.27012639839E+01  0.51100000000E-03 0.  1.
        -12    1    3    3    0    0  0.73496810408E+01  0.37641119725E+02 -0.16262125612E+01  0.38386407397E+02  0.00000000000E+00 0.  1.
</event>
<event>
 7    1  0.4971907E-013  0.5052886E+02  0.7816164E-02  0.1300439E+00
        -11   -1    0    0    0    0  0.00000000000E+00  0.00000000000E+00  0.45593999997E+02  0.45594000000E+02  0.51100000000E-03 0.  1.
         11   -1    0    0    0    0 -0.00000000000E+00 -0.00000000000E+00 -0.45593999997E+02  0.45594000000E+02  0.51100000000E-03 0. -1.
    9900012    2    1    2    0    0 -0.88127380803E+01  0.31117080250E+02  0.24642008898E+02  0.50528860336E+02  0.30000001476E+02 0.  0.
         12    1    1    2    0    0  0.88127380803E+01 -0.31117080250E+02 -0.24642008898E+02  0.40659139664E+02  0.00000000000E+00 0. -1.
         11    1    3    3    0    0 -0.86713467026E+01  0.59190547843E+01  0.50683676963E+01  0.11658293809E+02  0.51100000000E-03 0. -1.
        -11    1    3    3    0    0  0.63081888967E+01  0.27153682299E+01  0.12789973921E+02  0.14517227867E+02  0.51100000000E-03 0.  1.
         12    1    3    3    0    0 -0.64495802744E+01  0.22482657235E+02  0.67836672798E+01  0.24353338659E+02  0.00000000000E+00 0. -1.
</event>
<event>
 7    1  0.4971907E-013  0.5052887E+02  0.7816164E-02  0.1300439E+00
        -11   -1    0    0    0    0  0.00000000000E+00  0.00000000000E+00  0.45593999997E+02  0.45594000000E+02  0.51100000000E-03 0. -1.
         11   -1    0    0    0    0 -0.00000000000E+00 -0.00000000000E+00 -0.45593999997E+02  0.45594000000E+02  0.51100000000E-03 0.  1.
    9900012    2    1    2    0    0  0.20449546092E+02 -0.32178031326E+02 -0.14126415091E+02  0.50528865249E+02  0.30000016411E+02 0.  0.
         12    1    1    2    0    0 -0.20449546092E+02  0.32178031326E+02  0.14126415091E+02  0.40659134751E+02  0.00000000000E+00 0. -1.
         11    1    3    3    0    0  0.48425482976E+01 -0.10155491475E+01 -0.37599484749E+01  0.62144047889E+01  0.51100000000E-03 0. -1.
        -11    1    3    3    0    0  0.16811558808E+02 -0.87150137596E+01  0.13130122606E+01  0.18981674737E+02  0.51100000000E-03 0.  1.
        -12    1    3    3    0    0 -0.12045610131E+01 -0.22447468418E+02 -0.11679478877E+02  0.25332785723E+02  0.00000000000E+00 0.  1.
</event>
<event>
 7    1  0.4971907E-013  0.5052886E+02  0.7816164E-02  0.1300439E+00
        -11   -1    0    0    0    0  0.00000000000E+00  0.00000000000E+00  0.45593999997E+02  0.45594000000E+02  0.51100000000E-03 0. -1.
         11   -1    0    0    0    0 -0.00000000000E+00 -0.00000000000E+00 -0.45593999997E+02  0.45594000000E+02  0.51100000000E-03 0.  1.
    9900012    2    1    2    0    0 -0.19221733061E+02 -0.29175201635E+02 -0.20796594632E+02  0.50528858831E+02  0.29999996904E+02 0.  0.
         12    1    1    2    0    0  0.19221733061E+02  0.29175201635E+02  0.20796594632E+02  0.40659141169E+02  0.00000000000E+00 0. -1.
         11    1    3    3    0    0 -0.11518005440E+01 -0.97590592098E+01  0.51474217746E+01  0.11093323773E+02  0.51100000000E-03 0. -1.
        -11    1    3    3    0    0 -0.25685375759E+01  0.19988526844E+01 -0.25570220895E+01  0.41389804977E+01  0.51100000000E-03 0.  1.
        -12    1    3    3    0    0 -0.15501394941E+02 -0.21414995109E+02 -0.23386994317E+02  0.35296554560E+02  0.00000000000E+00 0.  1.
</event>
<event>
 7    1  0.4971907E-013  0.5052886E+02  0.7816164E-02  0.1300439E+00
        -11   -1    0    0    0    0  0.00000000000E+00  0.00000000000E+00  0.45593999997E+02  0.45594000000E+02  0.51100000000E-03 0.  1.
         11   -1    0    0    0    0 -0.00000000000E+00 -0.00000000000E+00 -0.45593999997E+02  0.45594000000E+02  0.51100000000E-03 0. -1.
    9900012    2    1    2    0    0 -0.21325784891E+02 -0.18877119559E+02  0.29017768221E+02  0.50528860602E+02  0.30000002285E+02 0.  0.
         12    1    1    2    0    0  0.21325784891E+02  0.18877119559E+02 -0.29017768221E+02  0.40659139398E+02  0.00000000000E+00 0. -1.
         11    1    3    3    0    0 -0.10714680872E+02 -0.13727445525E+02  0.15184338714E+01  0.17480068321E+02  0.51100000000E-03 0. -1.
        -11    1    3    3    0    0 -0.11010247513E+02 -0.27099171687E+01  0.92513131421E+01  0.14634069717E+02  0.51100000000E-03 0.  1.
         12    1    3    3    0    0  0.39914349413E+00 -0.24397568652E+01  0.18248021208E+02  0.18414722563E+02  0.00000000000E+00 0. -1.
</event>
<event>
 7    1  0.4971907E-013  0.5052885E+02  0.7816164E-02  0.1300439E+00
        -11   -1    0    0    0    0  0.00000000000E+00  0.00000000000E+00  0.45593999997E+02  0.45594000000E+02  0.51100000000E-03 0.  1.
         11   -1    0    0    0    0 -0.00000000000E+00 -0.00000000000E+00 -0.45593999997E+02  0.45594000000E+02  0.51100000000E-03 0. -1.
    9900012    2    1    2    0    0 -0.57755633877E+01 -0.38570589488E+01  0.40061604845E+02  0.50528853194E+02  0.29999979769E+02 0.  0.
         12    1    1    2    0    0  0.57755633877E+01  0.38570589488E+01 -0.40061604845E+02  0.40659146806E+02  0.00000000000E+00 0. -1.
         11    1    3    3    0    0  0.43924981684E+01 -0.21282840713E+01  0.11170644969E+02  0.12190444723E+02  0.51100000000E-03 0. -1.
        -11    1    3    3    0    0 -0.78762730330E+01 -0.12100338332E+02  0.18632060941E+02  0.23571329190E+02  0.51100000000E-03 0.  1.
         12    1    3    3    0    0 -0.22917885232E+01  0.10371563455E+02  0.10258898936E+02  0.14767079281E+02  0.00000000000E+00 0. -1.
</event>
<event>
 7    1  0.4971907E-013  0.5052887E+02  0.7816164E-02  0.1300439E+00
        -11   -1    0    0    0    0  0.00000000000E+00  0.00000000000E+00  0.45593999997E+02  0.45594000000E+02  0.51100000000E-03 0.  1.
         11   -1    0    0    0    0 -0.00000000000E+00 -0.00000000000E+00 -0.45593999997E+02  0.45594000000E+02  0.51100000000E-03 0. -1.
    9900012    2    1    2    0    0  0.12899187945E+02  0.10210015852E+02  0.37182406636E+02  0.50528870194E+02  0.30000031441E+02 0.  0.
         12    1    1    2    0    0 -0.12899187945E+02 -0.10210015852E+02 -0.37182406636E+02  0.40659129806E+02  0.00000000000E+00 0. -1.
         11    1    3    3    0    0  0.11310905166E+02 -0.36807506617E+01  0.56961188762E+01  0.13188262646E+02  0.51100000000E-03 0. -1.
        -11    1    3    3    0    0 -0.26958192196E+01 -0.15300145376E+01  0.10499099410E+02  0.10947121742E+02  0.51100000000E-03 0.  1.
        -12    1    3    3    0    0  0.42841019987E+01  0.15420781051E+02  0.20987188350E+02  0.26393485806E+02  0.00000000000E+00 0.  1.
</event>
<event>
 7    1  0.4971907E-013  0.5052886E+02  0.7816164E-02  0.1300439E+00
        -11   -1    0    0    0    0  0.00000000000E+00  0.00000000000E+00  0.45593999997E+02  0.45594000000E+02  0.51100000000E-03 0.  1.
         11   -1    0    0    0    0 -0.00000000000E+00 -0.00000000000E+00 -0.45593999997E+02  0.45594000000E+02  0.51100000000E-03 0. -1.
    9900012    2    1    2    0    0 -0.22789379697E+02  0.33400795679E+02  0.42657279273E+01  0.50528863097E+02  0.30000009869E+02 0.  0.
         12    1    1    2    0    0  0.22789379697E+02 -0.33400795679E+02 -0.42657279273E+01  0.40659136903E+02  0.00000000000E+00 0. -1.
         11    1    3    3    0    0  0.19412303387E+00  0.14664875531E+01  0.57387279562E+01  0.59263199637E+01  0.51100000000E-03 0.  1.
        -11    1    3    3    0    0 -0.82400873193E+01 -0.10554915756E+01 -0.16400404913E+01  0.84677526281E+01  0.51100000000E-03 0. -1.
         12    1    3    3    0    0 -0.14743415412E+02  0.32989799701E+02  0.16704046234E+00  0.36134790505E+02  0.00000000000E+00 0. -1.
</event>
<event>
 7    1  0.4971907E-013  0.5052886E+02  0.7816164E-02  0.1300439E+00
        -11   -1    0    0    0    0  0.00000000000E+00  0.00000000000E+00  0.45593999997E+02  0.45594000000E+02  0.51100000000E-03 0.  1.
         11   -1    0    0    0    0 -0.00000000000E+00 -0.00000000000E+00 -0.45593999997E+02  0.45594000000E+02  0.51100000000E-03 0. -1.
    9900012    2    1    2    0    0 -0.33548044038E+02 -0.89708237900E+01  0.21147550983E+02  0.50528857722E+02  0.29999993531E+02 0.  0.
         12    1    1    2    0    0  0.33548044038E+02  0.89708237900E+01 -0.21147550983E+02  0.40659142278E+02  0.00000000000E+00 0. -1.
         11    1    3    3    0    0  0.18189671667E+01 -0.28218324712E+01  0.21491534187E+01  0.39862564804E+01  0.51100000000E-03 0. -1.
        -11    1    3    3    0    0 -0.19663030457E+02  0.61469212579E+01  0.16593608580E+02  0.26453114253E+02  0.51100000000E-03 0.  1.
         12    1    3    3    0    0 -0.15703980747E+02 -0.12295912577E+02  0.24047889844E+01  0.20089486989E+02  0.00000000000E+00 0. -1.
</event>
<event>
 7    1  0.4971907E-013  0.5052886E+02  0.7816164E-02  0.1300439E+00
        -11   -1    0    0    0    0  0.00000000000E+00  0.00000000000E+00  0.45593999997E+02  0.45594000000E+02  0.51100000000E-03 0. -1.
         11   -1    0    0    0    0 -0.00000000000E+00 -0.00000000000E+00 -0.45593999997E+02  0.45594000000E+02  0.51100000000E-03 0.  1.
    9900012    2    1    2    0    0 -0.27455347190E+02  0.12007141094E+02 -0.27480866391E+02  0.50528861493E+02  0.30000004993E+02 0.  0.
         12    1    1    2    0    0  0.27455347190E+02 -0.12007141094E+02  0.27480866391E+02  0.40659138507E+02  0.00000000000E+00 0. -1.
         11    1    3    3    0    0 -0.99769608547E+01  0.47373682475E+01 -0.10130132200E+02  0.14986726943E+02  0.51100000000E-03 0. -1.
        -11    1    3    3    0    0 -0.20401916730E+01  0.14006663767E+02 -0.85704548644E+01  0.16546954668E+02  0.51100000000E-03 0.  1.
         12    1    3    3    0    0 -0.15438194662E+02 -0.67368909202E+01 -0.87802793270E+01  0.18995179882E+02  0.00000000000E+00 0. -1.
</event>
<event>
 7    1  0.4971907E-013  0.5052885E+02  0.7816164E-02  0.1300439E+00
        -11   -1    0    0    0    0  0.00000000000E+00  0.00000000000E+00  0.45593999997E+02  0.45594000000E+02  0.51100000000E-03 0.  1.
         11   -1    0    0    0    0 -0.00000000000E+00 -0.00000000000E+00 -0.45593999997E+02  0.45594000000E+02  0.51100000000E-03 0. -1.
    9900012    2    1    2    0    0  0.20116798133E+02 -0.32668470121E+02  0.13462991069E+02  0.50528848070E+02  0.29999964194E+02 0.  0.
         12    1    1    2    0    0 -0.20116798133E+02  0.32668470121E+02 -0.13462991069E+02  0.40659151930E+02  0.00000000000E+00 0. -1.
         11    1    3    3    0    0  0.10197871323E+02 -0.54509920619E+01 -0.11216456494E+01  0.11617572173E+02  0.51100000000E-03 0. -1.
        -11    1    3    3    0    0  0.12921013347E+02 -0.10666084935E+02  0.14394266957E+02  0.22088749970E+02  0.51100000000E-03 0.  1.
        -12    1    3    3    0    0 -0.30020865367E+01 -0.16551393124E+02  0.19036976125E+00  0.16822525927E+02  0.00000000000E+00 0.  1.
</event>
<event>
 7    1  0.4971907E-013  0.5052886E+02  0.7816164E-02  0.1300439E+00
        -11   -1    0    0    0    0  0.00000000000E+00  0.00000000000E+00  0.45593999997E+02  0.45594000000E+02  0.51100000000E-03 0.  1.
         11   -1    0    0    0    0 -0.00000000000E+00 -0.00000000000E+00 -0.45593999997E+02  0.45594000000E+02  0.51100000000E-03 0. -1.
    9900012    2    1    2    0    0 -0.71571932014E+01 -0.32711364908E+02  0.23063111082E+02  0.50528857100E+02  0.29999991640E+02 0.  0.
         12    1    1    2    0    0  0.71571932014E+01  0.32711364908E+02 -0.23063111082E+02  0.40659142900E+02  0.00000000000E+00 0. -1.
         11    1    3    3    0    0  0.45042836720E+00  0.30324754809E+01  0.33329126715E+00  0.30838087792E+01  0.51100000000E-03 0. -1.
        -11    1    3    3    0    0 -0.97454374720E+01 -0.10316527601E+02  0.15299676651E+02  0.20868262965E+02  0.51100000000E-03 0.  1.
         12    1    3    3    0    0  0.21378159034E+01 -0.25427312787E+02  0.74301431631E+01  0.26576785356E+02  0.00000000000E+00 0. -1.
</event>
<event>
 7    1  0.4971907E-013  0.5052890E+02  0.7816164E-02  0.1300439E+00
        -11   -1    0    0    0    0  0.00000000000E+00  0.00000000000E+00  0.45593999997E+02  0.45594000000E+02  0.51100000000E-03 0.  1.
         11   -1    0    0    0    0 -0.00000000000E+00 -0.00000000000E+00 -0.45593999997E+02  0.45594000000E+02  0.51100000000E-03 0. -1.
    9900012    2    1    2    0    0 -0.10184409688E+02 -0.17138995117E+02  0.35435784215E+02  0.50528903143E+02  0.30000131592E+02 0.  0.
         12    1    1    2    0    0  0.10184409688E+02  0.17138995117E+02 -0.35435784215E+02  0.40659096857E+02  0.00000000000E+00 0. -1.
         11    1    3    3    0    0  0.44074326549E+01 -0.48835571159E+01  0.46816847328E+01  0.80742036704E+01  0.51100000000E-03 0. -1.
        -11    1    3    3    0    0 -0.81711103467E+01 -0.16072511429E+02  0.10494864439E+02  0.20862282899E+02  0.51100000000E-03 0.  1.
        -12    1    3    3    0    0 -0.64207319963E+01  0.38170734277E+01  0.20259235043E+02  0.21592416573E+02  0.00000000000E+00 0.  1.
</event>
<event>
 7    1  0.4971907E-013  0.5052886E+02  0.7816164E-02  0.1300439E+00
        -11   -1    0    0    0    0  0.00000000000E+00  0.00000000000E+00  0.45593999997E+02  0.45594000000E+02  0.51100000000E-03 0. -1.
         11   -1    0    0    0    0 -0.00000000000E+00 -0.00000000000E+00 -0.45593999997E+02  0.45594000000E+02  0.51100000000E-03 0.  1.
    9900012    2    1    2    0    0  0.30879946531E+02  0.88991043793E+01 -0.24907848041E+02  0.50528855266E+02  0.29999986066E+02 0.  0.
         12    1    1    2    0    0 -0.30879946531E+02 -0.88991043793E+01  0.24907848041E+02  0.40659144734E+02  0.00000000000E+00 0. -1.
         11    1    3    3    0    0  0.84237813043E+01  0.31875008749E+01 -0.16496794105E+02  0.18795331051E+02  0.51100000000E-03 0. -1.
        -11    1    3    3    0    0  0.23438360358E+02  0.16195314227E+01 -0.11836393615E+02  0.26307410217E+02  0.51100000000E-03 0.  1.
         12    1    3    3    0    0 -0.98219513103E+00  0.40920720817E+01  0.34253396792E+01  0.54261139977E+01  0.00000000000E+00 0. -1.
</event>
<event>
 7    1  0.4971907E-013  0.5052886E+02  0.7816164E-02  0.1300439E+00
        -11   -1    0    0    0    0  0.00000000000E+00  0.00000000000E+00  0.45593999997E+02  0.45594000000E+02  0.51100000000E-03 0. -1.
         11   -1    0    0    0    0 -0.00000000000E+00 -0.00000000000E+00 -0.45593999997E+02  0.45594000000E+02  0.51100000000E-03 0.  1.
    9900012    2    1    2    0    0  0.28545147771E+02  0.10127853377E+02 -0.27125017653E+02  0.50528862552E+02  0.30000008214E+02 0.  0.
         12    1    1    2    0    0 -0.28545147771E+02 -0.10127853377E+02  0.27125017653E+02  0.40659137448E+02  0.00000000000E+00 0. -1.
         11    1    3    3    0    0  0.18806663806E+01 -0.23214631716E+01  0.22051701180E+01  0.37133371518E+01  0.51100000000E-03 0. -1.
        -11    1    3    3    0    0  0.22043151965E+01 -0.38550757264E+00 -0.15979355043E+02  0.16135284610E+02  0.51100000000E-03 0.  1.
        -12    1    3    3    0    0  0.24460166194E+02  0.12834824121E+02 -0.13350832728E+02  0.30680240791E+02  0.00000000000E+00 0.  1.
</event>
<event>
 7    1  0.4971907E-013  0.5052886E+02  0.7816164E-02  0.1300439E+00
        -11   -1    0    0    0    0  0.00000000000E+00  0.00000000000E+00  0.45593999997E+02  0.45594000000E+02  0.51100000000E-03 0.  1.
         11   -1    0    0    0    0 -0.00000000000E+00 -0.00000000000E+00 -0.45593999997E+02  0.45594000000E+02  0.51100000000E-03 0. -1.
    9900012    2    1    2    0    0  0.32974604230E+01 -0.39369146319E+02  0.96105680366E+01  0.50528856562E+02  0.29999990007E+02 0.  0.
         12    1    1    2    0    0 -0.32974604230E+01  0.39369146319E+02 -0.96105680366E+01  0.40659143438E+02  0.00000000000E+00 0. -1.
         11    1    3    3    0    0  0.57821998698E+01 -0.28824305070E+00  0.21271226254E+01  0.61677848791E+01  0.51100000000E-03 0. -1.
        -11    1    3    3    0    0  0.29265761388E+00 -0.87461595237E+00 -0.42093146512E+01  0.43091683231E+01  0.51100000000E-03 0.  1.
        -12    1    3    3    0    0 -0.27773970607E+01 -0.38206287316E+02  0.11692760062E+02  0.40051903360E+02  0.00000000000E+00 0.  1.
</event>
<event>
 7    1  0.4971907E-013  0.5052887E+02  0.7816164E-02  0.1300439E+00
        -11   -1    0    0    0    0  0.00000000000E+00  0.00000000000E+00  0.45593999997E+02  0.45594000000E+02  0.51100000000E-03 0.  1.
         11   -1    0    0    0    0 -0.00000000000E+00 -0.00000000000E+00 -0.45593999997E+02  0.45594000000E+02  0.51100000000E-03 0. -1.
    9900012    2    1    2    0    0  0.26976163920E+02  0.22846317904E+02 -0.20087247015E+02  0.50528866288E+02  0.30000019570E+02 0.  0.
         12    1    1    2    0    0 -0.26976163920E+02 -0.22846317904E+02  0.20087247015E+02  0.40659133712E+02  0.00000000000E+00 0. -1.
         11    1    3    3    0    0  0.13623146574E+02  0.70853185331E+01 -0.14872755394E+02  0.21377341149E+02  0.51100000000E-03 0. -1.
        -11    1    3    3    0    0  0.15684381801E+02  0.17399736754E+02 -0.83920928640E+01  0.24883285444E+02  0.51100000000E-03 0.  1.
         12    1    3    3    0    0 -0.23313644555E+01 -0.16387373832E+01  0.31776012439E+01  0.42682396958E+01  0.00000000000E+00 0. -1.
</event>
<event>
 7    1  0.4971907E-013  0.5052886E+02  0.7816164E-02  0.1300439E+00
        -11   -1    0    0    0    0  0.00000000000E+00  0.00000000000E+00  0.45593999997E+02  0.45594000000E+02  0.51100000000E-03 0.  1.
         11   -1    0    0    0    0 -0.00000000000E+00 -0.00000000000E+00 -0.45593999997E+02  0.45594000000E+02  0.51100000000E-03 0. -1.
    9900012    2    1    2    0    0 -0.17526094306E+02 -0.59454959396E+01  0.36202943503E+02  0.50528855618E+02  0.29999987137E+02 0.  0.
         12    1    1    2    0    0  0.17526094306E+02  0.59454959396E+01 -0.36202943503E+02  0.40659144382E+02  0.00000000000E+00 0. -1.
         11    1    3    3    0    0 -0.41701509916E+00 -0.45923977184E+01 -0.48385988345E+00  0.46366085715E+01  0.51100000000E-03 0. -1.
        -11    1    3    3    0    0  0.44121640504E+01 -0.37336270787E+00  0.13655795691E+02  0.14355742668E+02  0.51100000000E-03 0.  1.
        -12    1    3    3    0    0 -0.21521243257E+02 -0.97973551334E+00  0.23031007695E+02  0.31536504379E+02  0.00000000000E+00 0.  1.
</event>
<event>
 7    1  0.4971907E-013  0.5052886E+02  0.7816164E-02  0.1300439E+00
        -11   -1    0    0    0    0  0.00000000000E+00  0.00000000000E+00  0.45593999997E+02  0.45594000000E+02  0.51100000000E-03 0.  1.
         11   -1    0    0    0    0 -0.00000000000E+00 -0.00000000000E+00 -0.45593999997E+02  0.45594000000E+02  0.51100000000E-03 0. -1.
    9900012    2    1    2    0    0 -0.23729419919E+02 -0.28419100508E+02  0.16805801031E+02  0.50528860909E+02  0.30000003217E+02 0.  0.
         12    1    1    2    0    0  0.23729419919E+02  0.28419100508E+02 -0.16805801031E+02  0.40659139091E+02  0.00000000000E+00 0. -1.
         11    1    3    3    0    0 -0.62679868702E+01  0.66329787696E+00 -0.23564681370E+01  0.67290835796E+01  0.51100000000E-03 0. -1.
        -11    1    3    3    0    0 -0.18836729532E+02 -0.22983212304E+02  0.76274787922E+01  0.30679453390E+02  0.51100000000E-03 0.  1.
         12    1    3    3    0    0  0.13752964836E+01 -0.60991860806E+01  0.11534790375E+02  0.13120323939E+02  0.00000000000E+00 0. -1.
</event>
<event>
 7    1  0.4971907E-013  0.5052878E+02  0.7816164E-02  0.1300439E+00
        -11   -1    0    0    0    0  0.00000000000E+00  0.00000000000E+00  0.45593999997E+02  0.45594000000E+02  0.51100000000E-03 0. -1.
         11   -1    0    0    0    0 -0.00000000000E+00 -0.00000000000E+00 -0.45593999997E+02  0.45594000000E+02  0.51100000000E-03 0.  1.
    9900012    2    1    2    0    0  0.19114826554E+02  0.35863095573E+02  0.12783645299E+01  0.50528776764E+02  0.29999747451E+02 0.  0.
         12    1    1    2    0    0 -0.19114826554E+02 -0.35863095573E+02 -0.12783645299E+01  0.40659223236E+02  0.00000000000E+00 0. -1.
         11    1    3    3    0    0 -0.17232382391E+01 -0.17188472856E+01  0.31132062758E+00  0.24537536173E+01  0.51100000000E-03 0. -1.
        -11    1    3    3    0    0 -0.72795366191E+00  0.18779412568E+02  0.42724608050E+01  0.19273042690E+02  0.51100000000E-03 0.  1.
        -12    1    3    3    0    0  0.21566018455E+02  0.18802530291E+02 -0.33054169027E+01  0.28801980457E+02  0.00000000000E+00 0.  1.
</event>
<event>
 7    1  0.4971907E-013  0.5052886E+02  0.7816164E-02  0.1300439E+00
        -11   -1    0    0    0    0  0.00000000000E+00  0.00000000000E+00  0.45593999997E+02  0.45594000000E+02  0.51100000000E-03 0. -1.
         11   -1    0    0    0    0 -0.00000000000E+00 -0.00000000000E+00 -0.45593999997E+02  0.45594000000E+02  0.51100000000E-03 0.  1.
    9900012    2    1    2    0    0  0.37285154699E+02  0.14404074358E+01 -0.16152655964E+02  0.50528857988E+02  0.29999994340E+02 0.  0.
         12    1    1    2    0    0 -0.37285154699E+02 -0.14404074358E+01  0.16152655964E+02  0.40659142012E+02  0.00000000000E+00 0. -1.
         11    1    3    3    0    0  0.42456387807E+01 -0.87318176543E+01 -0.23471460551E+01  0.99889530517E+01  0.51100000000E-03 0. -1.
        -11    1    3    3    0    0  0.16231965087E+02 -0.63541287646E+00  0.13774048529E-01  0.16244403039E+02  0.51100000000E-03 0.  1.
        -12    1    3    3    0    0  0.16807550831E+02  0.10807637967E+02 -0.13819283957E+02  0.24295501897E+02  0.00000000000E+00 0.  1.
</event>
<event>
 7    1  0.4971907E-013  0.5052886E+02  0.7816164E-02  0.1300439E+00
        -11   -1    0    0    0    0  0.00000000000E+00  0.00000000000E+00  0.45593999997E+02  0.45594000000E+02  0.51100000000E-03 0. -1.
         11   -1    0    0    0    0 -0.00000000000E+00 -0.00000000000E+00 -0.45593999997E+02  0.45594000000E+02  0.51100000000E-03 0.  1.
    9900012    2    1    2    0    0 -0.18073316886E+02  0.20380169432E+02 -0.30185589135E+02  0.50528857353E+02  0.29999992411E+02 0.  0.
         12    1    1    2    0    0  0.18073316886E+02 -0.20380169432E+02  0.30185589135E+02  0.40659142647E+02  0.00000000000E+00 0. -1.
         11    1    3    3    0    0  0.74126400693E+00 -0.16382210860E+01  0.18302715803E+01  0.25657620648E+01  0.51100000000E-03 0. -1.
        -11    1    3    3    0    0 -0.13003107973E+02  0.15537820116E+01 -0.18823949004E+02  0.22931116673E+02  0.51100000000E-03 0.  1.
         12    1    3    3    0    0 -0.58114729194E+01  0.20464608506E+02 -0.13191911711E+02  0.25031978615E+02  0.00000000000E+00 0. -1.
</event>
<event>
 7    1  0.4971907E-013  0.5052885E+02  0.7816164E-02  0.1300439E+00
        -11   -1    0    0    0    0  0.00000000000E+00  0.00000000000E+00  0.45593999997E+02  0.45594000000E+02  0.51100000000E-03 0.  1.
         11   -1    0    0    0    0 -0.00000000000E+00 -0.00000000000E+00 -0.45593999997E+02  0.45594000000E+02  0.51100000000E-03 0. -1.
    9900012    2    1    2    0    0 -0.39046218481E+02  0.99790944641E+01  0.53830128620E+01  0.50528851811E+02  0.29999975566E+02 0.  0.
         12    1    1    2    0    0  0.39046218481E+02 -0.99790944641E+01 -0.53830128620E+01  0.40659148189E+02  0.00000000000E+00 0. -1.
         11    1    3    3    0    0  0.20075622439E+01  0.71244208294E+00  0.44294340963E+01  0.49150550922E+01  0.51100000000E-03 0. -1.
        -11    1    3    3    0    0 -0.30459226734E+01  0.41733455218E+01 -0.45359449614E+01  0.68752639753E+01  0.51100000000E-03 0.  1.
        -12    1    3    3    0    0 -0.38007858051E+02  0.50933068594E+01  0.54895237272E+01  0.38738532744E+02  0.00000000000E+00 0.  1.
</event>
<event>
 7    1  0.4971907E-013  0.5052885E+02  0.7816164E-02  0.1300439E+00
        -11   -1    0    0    0    0  0.00000000000E+00  0.00000000000E+00  0.45593999997E+02  0.45594000000E+02  0.51100000000E-03 0. -1.
         11   -1    0    0    0    0 -0.00000000000E+00 -0.00000000000E+00 -0.45593999997E+02  0.45594000000E+02  0.51100000000E-03 0.  1.
    9900012    2    1    2    0    0  0.98832124339E+01 -0.61992970696E+01 -0.38949422945E+02  0.50528847034E+02  0.29999961046E+02 0.  0.
         12    1    1    2    0    0 -0.98832124339E+01  0.61992970696E+01  0.38949422945E+02  0.40659152966E+02  0.00000000000E+00 0. -1.
         11    1    3    3    0    0  0.73893598546E+01 -0.12190987867E+01 -0.14900289446E+02  0.16676554403E+02  0.51100000000E-03 0. -1.
        -11    1    3    3    0    0 -0.34072996455E+01 -0.84034742616E+01 -0.25335924957E+02  0.26909796808E+02  0.51100000000E-03 0.  1.
         12    1    3    3    0    0  0.59011522249E+01  0.34232759788E+01  0.12867914585E+01  0.69424958239E+01  0.00000000000E+00 0. -1.
</event>
<event>
 7    1  0.4971907E-013  0.5052886E+02  0.7816164E-02  0.1300439E+00
        -11   -1    0    0    0    0  0.00000000000E+00  0.00000000000E+00  0.45593999997E+02  0.45594000000E+02  0.51100000000E-03 0. -1.
         11   -1    0    0    0    0 -0.00000000000E+00 -0.00000000000E+00 -0.45593999997E+02  0.45594000000E+02  0.51100000000E-03 0.  1.
    9900012    2    1    2    0    0 -0.30871810785E+02 -0.25825385621E+02 -0.57573061249E+01  0.50528858132E+02  0.29999994778E+02 0.  0.
         12    1    1    2    0    0  0.30871810785E+02  0.25825385621E+02  0.57573061249E+01  0.40659141868E+02  0.00000000000E+00 0. -1.
         11    1    3    3    0    0 -0.10606660490E+02 -0.32438839362E+01 -0.69974646037E+01  0.13114440167E+02  0.51100000000E-03 0. -1.
        -11    1    3    3    0    0 -0.24188362255E+02 -0.21148306753E+02 -0.19043833972E+01  0.32186245874E+02  0.51100000000E-03 0.  1.
         12    1    3    3    0    0  0.39232119603E+01 -0.14331949321E+01  0.31445418760E+01  0.52281720906E+01  0.00000000000E+00 0. -1.
</event>
<event>
 7    1  0.4971907E-013  0.5052886E+02  0.7816164E-02  0.1300439E+00
        -11   -1    0    0    0    0  0.00000000000E+00  0.00000000000E+00  0.45593999997E+02  0.45594000000E+02  0.51100000000E-03 0.  1.
         11   -1    0    0    0    0 -0.00000000000E+00 -0.00000000000E+00 -0.45593999997E+02  0.45594000000E+02  0.51100000000E-03 0. -1.
    9900012    2    1    2    0    0  0.63568528122E+01  0.32207781288E+02  0.23987807602E+02  0.50528859986E+02  0.30000000412E+02 0.  0.
         12    1    1    2    0    0 -0.63568528122E+01 -0.32207781288E+02 -0.23987807602E+02  0.40659140014E+02  0.00000000000E+00 0. -1.
         11    1    3    3    0    0  0.77217027250E+01  0.16013004316E+00  0.45657524688E+01  0.89719802982E+01  0.51100000000E-03 0. -1.
        -11    1    3    3    0    0 -0.35277111461E+01  0.88405546074E+01 -0.21945537114E+01  0.97681225397E+01  0.51100000000E-03 0.  1.
         12    1    3    3    0    0  0.21628612333E+01  0.23207096637E+02  0.21616608845E+02  0.31788757148E+02  0.00000000000E+00 0. -1.
</event>
<event>
 7    1  0.4971907E-013  0.5052886E+02  0.7816164E-02  0.1300439E+00
        -11   -1    0    0    0    0  0.00000000000E+00  0.00000000000E+00  0.45593999997E+02  0.45594000000E+02  0.51100000000E-03 0. -1.
         11   -1    0    0    0    0 -0.00000000000E+00 -0.00000000000E+00 -0.45593999997E+02  0.45594000000E+02  0.51100000000E-03 0.  1.
    9900012    2    1    2    0    0 -0.17211782218E+02  0.35198743550E+02 -0.10861356254E+02  0.50528855220E+02  0.29999985926E+02 0.  0.
         12    1    1    2    0    0  0.17211782218E+02 -0.35198743550E+02  0.10861356254E+02  0.40659144780E+02  0.00000000000E+00 0. -1.
         11    1    3    3    0    0 -0.41301232226E+00  0.23135604333E+02  0.31679316982E+01  0.23355139874E+02  0.51100000000E-03 0. -1.
        -11    1    3    3    0    0 -0.19545148769E+01 -0.16759244282E+01 -0.29587937048E-01  0.25748255864E+01  0.51100000000E-03 0.  1.
        -12    1    3    3    0    0 -0.14844255019E+02  0.13739063645E+02 -0.13999700015E+02  0.24598889759E+02  0.00000000000E+00 0.  1.
</event>
<event>
 7    1  0.4971907E-013  0.5052886E+02  0.7816164E-02  0.1300439E+00
        -11   -1    0    0    0    0  0.00000000000E+00  0.00000000000E+00  0.45593999997E+02  0.45594000000E+02  0.51100000000E-03 0.  1.
         11   -1    0    0    0    0 -0.00000000000E+00 -0.00000000000E+00 -0.45593999997E+02  0.45594000000E+02  0.51100000000E-03 0. -1.
    9900012    2    1    2    0    0 -0.28596434105E+02 -0.13246385176E+02  0.25689357825E+02  0.50528857495E+02  0.29999992842E+02 0.  0.
         12    1    1    2    0    0  0.28596434105E+02  0.13246385176E+02 -0.25689357825E+02  0.40659142505E+02  0.00000000000E+00 0. -1.
         11    1    3    3    0    0 -0.23709268615E+01  0.58804564530E+01  0.68952112474E+01  0.93672301501E+01  0.51100000000E-03 0. -1.
        -11    1    3    3    0    0 -0.89116679711E+01 -0.27695904820E+01  0.14062908389E+02  0.16877613874E+02  0.51100000000E-03 0.  1.
         12    1    3    3    0    0 -0.17313839273E+02 -0.16357251147E+02  0.47312381884E+01  0.24284013471E+02  0.00000000000E+00 0. -1.
</event>
<event>
 7    1  0.6578643E-013  0.5052887E+02  0.7816164E-02  0.1300439E+00
        -11   -1    0    0    0    0  0.00000000000E+00  0.00000000000E+00  0.45593999997E+02  0.45594000000E+02  0.51100000000E-03 0. -1.
         11   -1    0    0    0    0 -0.00000000000E+00 -0.00000000000E+00 -0.45593999997E+02  0.45594000000E+02  0.51100000000E-03 0.  1.
    9900012    2    1    2    0    0 -0.11624187498E+02 -0.87826656357E+01 -0.37959291617E+02  0.50528871004E+02  0.30000033904E+02 0.  0.
         12    1    1    2    0    0  0.11624187498E+02  0.87826656357E+01  0.37959291617E+02  0.40659128996E+02  0.00000000000E+00 0. -1.
         11    1    3    3    0    0 -0.78727939671E+01 -0.17048421981E-01 -0.60266062944E+00  0.78958454641E+01  0.51100000000E-03 0. -1.
        -11    1    3    3    0    0  0.23342595983E+01  0.32780851657E+01 -0.21218491935E+02  0.21596736108E+02  0.51100000000E-03 0.  1.
         12    1    3    3    0    0 -0.60856531295E+01 -0.12043702379E+02 -0.16138139052E+02  0.21036289432E+02  0.00000000000E+00 0. -1.
</event>
<event>
 7    1  0.4971907E-013  0.5052886E+02  0.7816164E-02  0.1300439E+00
        -11   -1    0    0    0    0  0.00000000000E+00  0.00000000000E+00  0.45593999997E+02  0.45594000000E+02  0.51100000000E-03 0.  1.
         11   -1    0    0    0    0 -0.00000000000E+00 -0.00000000000E+00 -0.45593999997E+02  0.45594000000E+02  0.51100000000E-03 0. -1.
    9900012    2    1    2    0    0 -0.75319624584E+01 -0.39304688513E+02  0.71816675185E+01  0.50528863931E+02  0.30000012404E+02 0.  0.
         12    1    1    2    0    0  0.75319624584E+01  0.39304688513E+02 -0.71816675185E+01  0.40659136069E+02  0.00000000000E+00 0. -1.
         11    1    3    3    0    0 -0.92817376213E+00 -0.14667650263E+02 -0.76236094904E+01  0.16556596652E+02  0.51100000000E-03 0. -1.
        -11    1    3    3    0    0 -0.33346122097E+01 -0.19543518886E+02  0.21475168786E+01  0.19941930650E+02  0.51100000000E-03 0.  1.
         12    1    3    3    0    0 -0.32691764866E+01 -0.50935193637E+01  0.12657760130E+02  0.14030336629E+02  0.00000000000E+00 0. -1.
</event>
<event>
 7    1  0.4971907E-013  0.5052887E+02  0.7816164E-02  0.1300439E+00
        -11   -1    0    0    0    0  0.00000000000E+00  0.00000000000E+00  0.45593999997E+02  0.45594000000E+02  0.51100000000E-03 0.  1.
         11   -1    0    0    0    0 -0.00000000000E+00 -0.00000000000E+00 -0.45593999997E+02  0.45594000000E+02  0.51100000000E-03 0. -1.
    9900012    2    1    2    0    0 -0.34596469677E+02 -0.16652063563E+01 -0.21294987445E+02  0.50528866750E+02  0.30000020973E+02 0.  0.
         12    1    1    2    0    0  0.34596469677E+02  0.16652063563E+01  0.21294987445E+02  0.40659133250E+02  0.00000000000E+00 0. -1.
         11    1    3    3    0    0 -0.16995144387E+02  0.98534584625E+01 -0.27861826688E+01  0.19841582360E+02  0.51100000000E-03 0. -1.
        -11    1    3    3    0    0 -0.55947526051E+01 -0.30063756872E+01  0.80785253191E+00  0.64025133705E+01  0.51100000000E-03 0.  1.
         12    1    3    3    0    0 -0.12006572685E+02 -0.85122891315E+01 -0.19316657309E+02  0.24284771020E+02  0.00000000000E+00 0. -1.
</event>
<event>
 7    1  0.4971907E-013  0.5052887E+02  0.7816164E-02  0.1300439E+00
        -11   -1    0    0    0    0  0.00000000000E+00  0.00000000000E+00  0.45593999997E+02  0.45594000000E+02  0.51100000000E-03 0.  1.
         11   -1    0    0    0    0 -0.00000000000E+00 -0.00000000000E+00 -0.45593999997E+02  0.45594000000E+02  0.51100000000E-03 0. -1.
    9900012    2    1    2    0    0  0.45988036766E+01 -0.15333757470E+02  0.37375019373E+02  0.50528865891E+02  0.30000018361E+02 0.  0.
         12    1    1    2    0    0 -0.45988036766E+01  0.15333757470E+02 -0.37375019373E+02  0.40659134109E+02  0.00000000000E+00 0. -1.
         11    1    3    3    0    0 -0.85229440146E+01 -0.31642070158E+01  0.20226723179E+02  0.22175957962E+02  0.51100000000E-03 0.  1.
        -11    1    3    3    0    0 -0.10838391884E+01 -0.17642691045E+01  0.84744505035E+01  0.87237414253E+01  0.51100000000E-03 0. -1.
        -12    1    3    3    0    0  0.14205586879E+02 -0.10405281350E+02  0.86738456906E+01  0.19629166503E+02  0.00000000000E+00 0.  1.
</event>
<event>
 7    1  0.4971907E-013  0.5052891E+02  0.7816164E-02  0.1300439E+00
        -11   -1    0    0    0    0  0.00000000000E+00  0.00000000000E+00  0.45593999997E+02  0.45594000000E+02  0.51100000000E-03 0.  1.
         11   -1    0    0    0    0 -0.00000000000E+00 -0.00000000000E+00 -0.45593999997E+02  0.45594000000E+02  0.51100000000E-03 0. -1.
    9900012    2    1    2    0    0 -0.29809349559E+02 -0.27030739962E+02 -0.58226719718E+01  0.50528908361E+02  0.30000147455E+02 0.  0.
         12    1    1    2    0    0  0.29809349559E+02  0.27030739962E+02  0.58226719718E+01  0.40659091639E+02  0.00000000000E+00 0. -1.
         11    1    3    3    0    0 -0.27427550547E+02 -0.21821748964E+02 -0.95544255496E+01  0.36328312715E+02  0.51100000000E-03 0. -1.
        -11    1    3    3    0    0 -0.37859010273E+00 -0.54790758176E+01 -0.36188006145E+01  0.65771817999E+01  0.51100000000E-03 0.  1.
        -12    1    3    3    0    0 -0.20032089089E+01  0.27008482039E+00  0.73505541923E+01  0.76234138466E+01  0.00000000000E+00 0.  1.
</event>
<event>
 7    1  0.4971907E-013  0.5052885E+02  0.7816164E-02  0.1300439E+00
        -11   -1    0    0    0    0  0.00000000000E+00  0.00000000000E+00  0.45593999997E+02  0.45594000000E+02  0.51100000000E-03 0. -1.
         11   -1    0    0    0    0 -0.00000000000E+00 -0.00000000000E+00 -0.45593999997E+02  0.45594000000E+02  0.51100000000E-03 0.  1.
    9900012    2    1    2    0    0  0.30768418667E+02  0.22853052169E+02 -0.13572362839E+02  0.50528848339E+02  0.29999965013E+02 0.  0.
         12    1    1    2    0    0 -0.30768418667E+02 -0.22853052169E+02  0.13572362839E+02  0.40659151661E+02  0.00000000000E+00 0. -1.
         11    1    3    3    0    0  0.42846488379E+01  0.19366858757E+01  0.73746603983E+01  0.87461182302E+01  0.51100000000E-03 0. -1.
        -11    1    3    3    0    0 -0.26944830790E+00  0.50199000178E+01 -0.31778829347E+01  0.59473472058E+01  0.51100000000E-03 0.  1.
        -12    1    3    3    0    0  0.26753218137E+02  0.15896466276E+02 -0.17769140302E+02  0.35835382903E+02  0.00000000000E+00 0.  1.
</event>
<event>
 7    1  0.4971907E-013  0.5052885E+02  0.7816164E-02  0.1300439E+00
        -11   -1    0    0    0    0  0.00000000000E+00  0.00000000000E+00  0.45593999997E+02  0.45594000000E+02  0.51100000000E-03 0.  1.
         11   -1    0    0    0    0 -0.00000000000E+00 -0.00000000000E+00 -0.45593999997E+02  0.45594000000E+02  0.51100000000E-03 0. -1.
    9900012    2    1    2    0    0  0.27588442244E+02 -0.11355843653E+02  0.27624065328E+02  0.50528852004E+02  0.29999976153E+02 0.  0.
         12    1    1    2    0    0 -0.27588442244E+02  0.11355843653E+02 -0.27624065328E+02  0.40659147996E+02  0.00000000000E+00 0. -1.
         11    1    3    3    0    0  0.10300756299E+02  0.35348630183E+01  0.53449169757E+00  0.10903509459E+02  0.51100000000E-03 0. -1.
        -11    1    3    3    0    0  0.10435460368E+02  0.15387265165E+01  0.14003432210E+02  0.17531760502E+02  0.51100000000E-03 0.  1.
        -12    1    3    3    0    0  0.68522255763E+01 -0.16429433188E+02  0.13086141420E+02  0.22093582043E+02  0.00000000000E+00 0.  1.
</event>
<event>
 7    1  0.4971907E-013  0.5052887E+02  0.7816164E-02  0.1300439E+00
        -11   -1    0    0    0    0  0.00000000000E+00  0.00000000000E+00  0.45593999997E+02  0.45594000000E+02  0.51100000000E-03 0.  1.
         11   -1    0    0    0    0 -0.00000000000E+00 -0.00000000000E+00 -0.45593999997E+02  0.45594000000E+02  0.51100000000E-03 0. -1.
    9900012    2    1    2    0    0  0.10389925910E+02 -0.30921279688E+02  0.24271156045E+02  0.50528866786E+02  0.30000021082E+02 0.  0.
         12    1    1    2    0    0 -0.10389925910E+02  0.30921279688E+02 -0.24271156045E+02  0.40659133214E+02  0.00000000000E+00 0. -1.
         11    1    3    3    0    0  0.11416941678E+02 -0.23132022837E+02  0.58375127478E+01  0.26448319288E+02  0.51100000000E-03 0. -1.
        -11    1    3    3    0    0  0.51741106668E+01 -0.36295064856E+01  0.31309013421E+01  0.70531753131E+01  0.51100000000E-03 0.  1.
        -12    1    3    3    0    0 -0.62011264349E+01 -0.41597503655E+01  0.15302741955E+02  0.17027372185E+02  0.00000000000E+00 0.  1.
</event>
<event>
 7    1  0.4971907E-013  0.5052886E+02  0.7816164E-02  0.1300439E+00
        -11   -1    0    0    0    0  0.00000000000E+00  0.00000000000E+00  0.45593999997E+02  0.45594000000E+02  0.51100000000E-03 0. -1.
         11   -1    0    0    0    0 -0.00000000000E+00 -0.00000000000E+00 -0.45593999997E+02  0.45594000000E+02  0.51100000000E-03 0.  1.
    9900012    2    1    2    0    0  0.31057876040E+02 -0.26225140516E+02  0.90349726273E+00  0.50528856299E+02  0.29999989206E+02 0.  0.
         12    1    1    2    0    0 -0.31057876040E+02  0.26225140516E+02 -0.90349726273E+00  0.40659143701E+02  0.00000000000E+00 0. -1.
         11    1    3    3    0    0  0.49967488963E+01  0.10204478360E+01 -0.39519867913E+01  0.64518999666E+01  0.51100000000E-03 0. -1.
        -11    1    3    3    0    0  0.39415072370E+01 -0.12414978497E+02 -0.71563892872E+01  0.14862068439E+02  0.51100000000E-03 0.  1.
         12    1    3    3    0    0  0.22119619907E+02 -0.14830609855E+02  0.12011873341E+02  0.29214887894E+02  0.00000000000E+00 0. -1.
</event>
<event>
 7    1  0.4971907E-013  0.5052885E+02  0.7816164E-02  0.1300439E+00
        -11   -1    0    0    0    0  0.00000000000E+00  0.00000000000E+00  0.45593999997E+02  0.45594000000E+02  0.51100000000E-03 0.  1.
         11   -1    0    0    0    0 -0.00000000000E+00 -0.00000000000E+00 -0.45593999997E+02  0.45594000000E+02  0.51100000000E-03 0. -1.
    9900012    2    1    2    0    0  0.86678289177E+01 -0.32053175006E+02 -0.23465480999E+02  0.50528854847E+02  0.29999984792E+02 0.  0.
         12    1    1    2    0    0 -0.86678289177E+01  0.32053175006E+02  0.23465480999E+02  0.40659145153E+02  0.00000000000E+00 0. -1.
         11    1    3    3    0    0 -0.76489851503E+01 -0.38275115134E+01 -0.24159019656E+01  0.88878231746E+01  0.51100000000E-03 0. -1.
        -11    1    3    3    0    0  0.16840798615E+01 -0.10791554767E+02 -0.43266269584E+00  0.10930735408E+02  0.51100000000E-03 0.  1.
        -12    1    3    3    0    0  0.14632734206E+02 -0.17434108725E+02 -0.20616916338E+02  0.30710296264E+02  0.00000000000E+00 0.  1.
</event>
<event>
 7    1  0.4971907E-013  0.5052886E+02  0.7816164E-02  0.1300439E+00
        -11   -1    0    0    0    0  0.00000000000E+00  0.00000000000E+00  0.45593999997E+02  0.45594000000E+02  0.51100000000E-03 0.  1.
         11   -1    0    0    0    0 -0.00000000000E+00 -0.00000000000E+00 -0.45593999997E+02  0.45594000000E+02  0.51100000000E-03 0. -1.
    9900012    2    1    2    0    0 -0.31652996799E+02 -0.40936659310E+01  0.25189185221E+02  0.50528863767E+02  0.30000011907E+02 0.  0.
         12    1    1    2    0    0  0.31652996799E+02  0.40936659310E+01 -0.25189185221E+02  0.40659136233E+02  0.00000000000E+00 0. -1.
         11    1    3    3    0    0 -0.22399762942E+01 -0.83425835415E+01  0.73758242244E+00  0.86694995263E+01  0.51100000000E-03 0. -1.
        -11    1    3    3    0    0 -0.60467273784E+01 -0.22455520882E+01  0.14071242207E+02  0.15479188405E+02  0.51100000000E-03 0.  1.
         12    1    3    3    0    0 -0.23366293126E+02  0.64944696986E+01  0.10380360592E+02  0.26380175836E+02  0.00000000000E+00 0. -1.
</event>
<event>
 7    1  0.4971907E-013  0.5052886E+02  0.7816164E-02  0.1300439E+00
        -11   -1    0    0    0    0  0.00000000000E+00  0.00000000000E+00  0.45593999997E+02  0.45594000000E+02  0.51100000000E-03 0.  1.
         11   -1    0    0    0    0 -0.00000000000E+00 -0.00000000000E+00 -0.45593999997E+02  0.45594000000E+02  0.51100000000E-03 0. -1.
    9900012    2    1    2    0    0  0.22066118580E+01  0.36816530462E+02 -0.17112555884E+02  0.50528860560E+02  0.30000002158E+02 0.  0.
         12    1    1    2    0    0 -0.22066118580E+01 -0.36816530462E+02  0.17112555884E+02  0.40659139440E+02  0.00000000000E+00 0. -1.
         11    1    3    3    0    0  0.85934160860E+01  0.74623143796E+01 -0.12784784584E+01  0.11452835603E+02  0.51100000000E-03 0. -1.
        -11    1    3    3    0    0  0.19195591659E+01  0.16559324841E+02 -0.16958510472E+02  0.23779971074E+02  0.51100000000E-03 0.  1.
        -12    1    3    3    0    0 -0.83063633940E+01  0.12794891241E+02  0.11244330468E+01  0.15296053882E+02  0.00000000000E+00 0.  1.
</event>
<event>
 7    1  0.4971907E-013  0.5052886E+02  0.7816164E-02  0.1300439E+00
        -11   -1    0    0    0    0  0.00000000000E+00  0.00000000000E+00  0.45593999997E+02  0.45594000000E+02  0.51100000000E-03 0.  1.
         11   -1    0    0    0    0 -0.00000000000E+00 -0.00000000000E+00 -0.45593999997E+02  0.45594000000E+02  0.51100000000E-03 0. -1.
    9900012    2    1    2    0    0 -0.20506477223E+02  0.13455758933E+02  0.32428268147E+02  0.50528860417E+02  0.30000001725E+02 0.  0.
         12    1    1    2    0    0  0.20506477223E+02 -0.13455758933E+02 -0.32428268147E+02  0.40659139583E+02  0.00000000000E+00 0. -1.
         11    1    3    3    0    0 -0.44941670629E+01  0.15805263021E+02  0.19959688156E+02  0.25853298209E+02  0.51100000000E-03 0. -1.
        -11    1    3    3    0    0 -0.86205372028E+01  0.35312344250E+01  0.12035931150E+02  0.15219951285E+02  0.51100000000E-03 0.  1.
         12    1    3    3    0    0 -0.73917729570E+01 -0.58807385128E+01  0.43264884212E+00  0.94556109228E+01  0.00000000000E+00 0. -1.
</event>
<event>
 7    1  0.4971907E-013  0.5052887E+02  0.7816164E-02  0.1300439E+00
        -11   -1    0    0    0    0  0.00000000000E+00  0.00000000000E+00  0.45593999997E+02  0.45594000000E+02  0.51100000000E-03 0.  1.
         11   -1    0    0    0    0 -0.00000000000E+00 -0.00000000000E+00 -0.45593999997E+02  0.45594000000E+02  0.51100000000E-03 0. -1.
    9900012    2    1    2    0    0 -0.61750450240E+01  0.37103420171E+02  0.15439243768E+02  0.50528865509E+02  0.30000017201E+02 0.  0.
         12    1    1    2    0    0  0.61750450240E+01 -0.37103420171E+02 -0.15439243768E+02  0.40659134491E+02  0.00000000000E+00 0. -1.
         11    1    3    3    0    0  0.27395827313E+01  0.32826617219E+01 -0.52049200323E+01  0.67359018940E+01  0.51100000000E-03 0. -1.
        -11    1    3    3    0    0 -0.10398883187E+01  0.62513050515E+01  0.12454752461E+02  0.13974299327E+02  0.51100000000E-03 0.  1.
         12    1    3    3    0    0 -0.78747394365E+01  0.27569453398E+02  0.81894113397E+01  0.29818664288E+02  0.00000000000E+00 0. -1.
</event>
<event>
 7    1  0.5207814E-013  0.5052889E+02  0.7816164E-02  0.1300439E+00
        -11   -1    0    0    0    0  0.00000000000E+00  0.00000000000E+00  0.45593999997E+02  0.45594000000E+02  0.51100000000E-03 0.  1.
         11   -1    0    0    0    0 -0.00000000000E+00 -0.00000000000E+00 -0.45593999997E+02  0.45594000000E+02  0.51100000000E-03 0. -1.
    9900012    2    1    2    0    0 -0.39106474847E+02 -0.51559551386E+01  0.98622132656E+01  0.50528886644E+02  0.30000081444E+02 0.  0.
         12    1    1    2    0    0  0.39106474847E+02  0.51559551386E+01 -0.98622132656E+01  0.40659113356E+02  0.00000000000E+00 0. -1.
         11    1    3    3    0    0 -0.18218497676E+01  0.46667727411E+01 -0.93100527442E+00  0.50955544816E+01  0.51100000000E-03 0. -1.
        -11    1    3    3    0    0 -0.26046815863E+02  0.38204278823E+01  0.81705806581E+01  0.27564300723E+02  0.51100000000E-03 0.  1.
        -12    1    3    3    0    0 -0.11237809217E+02 -0.13643155762E+02  0.26226378819E+01  0.17869031440E+02  0.00000000000E+00 0.  1.
</event>
<event>
 7    1  0.4971907E-013  0.5052885E+02  0.7816164E-02  0.1300439E+00
        -11   -1    0    0    0    0  0.00000000000E+00  0.00000000000E+00  0.45593999997E+02  0.45594000000E+02  0.51100000000E-03 0.  1.
         11   -1    0    0    0    0 -0.00000000000E+00 -0.00000000000E+00 -0.45593999997E+02  0.45594000000E+02  0.51100000000E-03 0. -1.
    9900012    2    1    2    0    0  0.10822235060E+01 -0.12982115200E+02  0.38515709796E+02  0.50528850675E+02  0.29999972111E+02 0.  0.
         12    1    1    2    0    0 -0.10822235060E+01  0.12982115200E+02 -0.38515709796E+02  0.40659149325E+02  0.00000000000E+00 0. -1.
         11    1    3    3    0    0 -0.11682962309E+01  0.46850928609E+01  0.26909704679E+01  0.55277783529E+01  0.51100000000E-03 0.  1.
        -11    1    3    3    0    0  0.25843883436E+01 -0.20564804142E+02  0.36529892426E+02  0.42000277063E+02  0.51100000000E-03 0. -1.
         12    1    3    3    0    0 -0.33386860668E+00  0.28975960806E+01 -0.70515309817E+00  0.30007952587E+01  0.00000000000E+00 0. -1.
</event>
<event>
 7    1  0.4971907E-013  0.5052885E+02  0.7816164E-02  0.1300439E+00
        -11   -1    0    0    0    0  0.00000000000E+00  0.00000000000E+00  0.45593999997E+02  0.45594000000E+02  0.51100000000E-03 0.  1.
         11   -1    0    0    0    0 -0.00000000000E+00 -0.00000000000E+00 -0.45593999997E+02  0.45594000000E+02  0.51100000000E-03 0. -1.
    9900012    2    1    2    0    0  0.23764598659E+02  0.11026872074E+02  0.31093708306E+02  0.50528846623E+02  0.29999959794E+02 0.  0.
         12    1    1    2    0    0 -0.23764598659E+02 -0.11026872074E+02 -0.31093708306E+02  0.40659153377E+02  0.00000000000E+00 0. -1.
         11    1    3    3    0    0  0.41024541511E+01 -0.11939513537E+01  0.14516351921E+02  0.15132089190E+02  0.51100000000E-03 0. -1.
        -11    1    3    3    0    0  0.83098823585E+01 -0.49586538044E+01  0.13151631135E+01  0.97658612851E+01  0.51100000000E-03 0.  1.
        -12    1    3    3    0    0  0.11352262150E+02  0.17179477232E+02  0.15262193271E+02  0.25630896147E+02  0.00000000000E+00 0.  1.
</event>
<event>
 7    1  0.5503836E-013  0.5052887E+02  0.7816164E-02  0.1300439E+00
        -11   -1    0    0    0    0  0.00000000000E+00  0.00000000000E+00  0.45593999997E+02  0.45594000000E+02  0.51100000000E-03 0. -1.
         11   -1    0    0    0    0 -0.00000000000E+00 -0.00000000000E+00 -0.45593999997E+02  0.45594000000E+02  0.51100000000E-03 0.  1.
    9900012    2    1    2    0    0  0.22995031453E+02 -0.30277707081E+02  0.14410195143E+02  0.50528871362E+02  0.30000034991E+02 0.  0.
         12    1    1    2    0    0 -0.22995031453E+02  0.30277707081E+02 -0.14410195143E+02  0.40659128638E+02  0.00000000000E+00 0. -1.
         11    1    3    3    0    0 -0.57795522835E+01 -0.37921364905E+01 -0.24989153646E+00  0.69170781260E+01  0.51100000000E-03 0. -1.
        -11    1    3    3    0    0  0.84296095159E+01 -0.13100828954E+02  0.10796978682E+02  0.18954281437E+02  0.51100000000E-03 0.  1.
        -12    1    3    3    0    0  0.20344974220E+02 -0.13384741636E+02  0.38631079971E+01  0.24657511798E+02  0.00000000000E+00 0.  1.
</event>
<event>
 7    1  0.4971907E-013  0.5052890E+02  0.7816164E-02  0.1300439E+00
        -11   -1    0    0    0    0  0.00000000000E+00  0.00000000000E+00  0.45593999997E+02  0.45594000000E+02  0.51100000000E-03 0.  1.
         11   -1    0    0    0    0 -0.00000000000E+00 -0.00000000000E+00 -0.45593999997E+02  0.45594000000E+02  0.51100000000E-03 0. -1.
    9900012    2    1    2    0    0  0.32255740996E+02 -0.14125486274E+02  0.20327318449E+02  0.50528904277E+02  0.30000135040E+02 0.  0.
         12    1    1    2    0    0 -0.32255740996E+02  0.14125486274E+02 -0.20327318449E+02  0.40659095723E+02  0.00000000000E+00 0. -1.
         11    1    3    3    0    0  0.13458921323E+02  0.31971169746E+01  0.97360771373E+01  0.16916125987E+02  0.51100000000E-03 0. -1.
        -11    1    3    3    0    0  0.20762541193E+02 -0.95073806831E+01  0.11382497048E+02  0.25515380530E+02  0.51100000000E-03 0.  1.
        -12    1    3    3    0    0 -0.19657215203E+01 -0.78152225654E+01 -0.79125573641E+00  0.80973977600E+01  0.00000000000E+00 0.  1.
</event>
<event>
 7    1  0.4971907E-013  0.5052886E+02  0.7816164E-02  0.1300439E+00
        -11   -1    0    0    0    0  0.00000000000E+00  0.00000000000E+00  0.45593999997E+02  0.45594000000E+02  0.51100000000E-03 0.  1.
         11   -1    0    0    0    0 -0.00000000000E+00 -0.00000000000E+00 -0.45593999997E+02  0.45594000000E+02  0.51100000000E-03 0. -1.
    9900012    2    1    2    0    0 -0.12574866247E+02 -0.37820464033E+02  0.80405790022E+01  0.50528859926E+02  0.30000000232E+02 0.  0.
         12    1    1    2    0    0  0.12574866247E+02  0.37820464033E+02 -0.80405790022E+01  0.40659140074E+02  0.00000000000E+00 0. -1.
         11    1    3    3    0    0  0.60422593218E+00 -0.26566161838E+02  0.65946485395E+00  0.26581214004E+02  0.51100000000E-03 0. -1.
        -11    1    3    3    0    0 -0.46752310676E+01 -0.86483314788E+01  0.10629448948E+02  0.14478833105E+02  0.51100000000E-03 0.  1.
        -12    1    3    3    0    0 -0.85038611121E+01 -0.26059707169E+01 -0.32483347995E+01  0.94688128168E+01  0.00000000000E+00 0.  1.
</event>
<event>
 7    1  0.4971907E-013  0.5052887E+02  0.7816164E-02  0.1300439E+00
        -11   -1    0    0    0    0  0.00000000000E+00  0.00000000000E+00  0.45593999997E+02  0.45594000000E+02  0.51100000000E-03 0.  1.
         11   -1    0    0    0    0 -0.00000000000E+00 -0.00000000000E+00 -0.45593999997E+02  0.45594000000E+02  0.51100000000E-03 0. -1.
    9900012    2    1    2    0    0 -0.10665699066E+02  0.28968696069E+02  0.26461717061E+02  0.50528868697E+02  0.30000026892E+02 0.  0.
         12    1    1    2    0    0  0.10665699066E+02 -0.28968696069E+02 -0.26461717061E+02  0.40659131303E+02  0.00000000000E+00 0. -1.
         11    1    3    3    0    0 -0.83116728617E+01  0.23816095158E+02  0.12824757807E+02  0.28297786263E+02  0.51100000000E-03 0.  1.
        -11    1    3    3    0    0  0.33229848314E+00  0.55833207418E+01  0.17005139828E+02  0.17901359547E+02  0.51100000000E-03 0. -1.
         12    1    3    3    0    0 -0.26863246872E+01 -0.43071983067E+00 -0.33681805743E+01  0.43297228870E+01  0.00000000000E+00 0. -1.
</event>
<event>
 7    1  0.4971907E-013  0.5052885E+02  0.7816164E-02  0.1300439E+00
        -11   -1    0    0    0    0  0.00000000000E+00  0.00000000000E+00  0.45593999997E+02  0.45594000000E+02  0.51100000000E-03 0. -1.
         11   -1    0    0    0    0 -0.00000000000E+00 -0.00000000000E+00 -0.45593999997E+02  0.45594000000E+02  0.51100000000E-03 0.  1.
    9900012    2    1    2    0    0  0.28719458417E+02  0.19281563356E+02 -0.21367746908E+02  0.50528848692E+02  0.29999966083E+02 0.  0.
         12    1    1    2    0    0 -0.28719458417E+02 -0.19281563356E+02  0.21367746908E+02  0.40659151308E+02  0.00000000000E+00 0. -1.
         11    1    3    3    0    0 -0.35500926098E+01  0.25510358039E+01 -0.51485288759E+01  0.67541314067E+01  0.51100000000E-03 0. -1.
        -11    1    3    3    0    0  0.17572208480E+02  0.10333181030E+02 -0.18568271466E+02  0.27574224314E+02  0.51100000000E-03 0.  1.
        -12    1    3    3    0    0  0.14697342547E+02  0.63973465218E+01  0.23490534336E+01  0.16200492971E+02  0.00000000000E+00 0.  1.
</event>
<event>
 7    1  0.4971907E-013  0.5052886E+02  0.7816164E-02  0.1300439E+00
        -11   -1    0    0    0    0  0.00000000000E+00  0.00000000000E+00  0.45593999997E+02  0.45594000000E+02  0.51100000000E-03 0.  1.
         11   -1    0    0    0    0 -0.00000000000E+00 -0.00000000000E+00 -0.45593999997E+02  0.45594000000E+02  0.51100000000E-03 0. -1.
    9900012    2    1    2    0    0  0.45281679214E+01 -0.31864338961E+02  0.24846023766E+02  0.50528864506E+02  0.30000014153E+02 0.  0.
         12    1    1    2    0    0 -0.45281679214E+01  0.31864338961E+02 -0.24846023766E+02  0.40659135494E+02  0.00000000000E+00 0. -1.
         11    1    3    3    0    0 -0.41716356160E+01 -0.70779988515E+01 -0.29367172738E+01  0.87249596023E+01  0.51100000000E-03 0. -1.
        -11    1    3    3    0    0 -0.69943837408E-01 -0.44403869693E+01 -0.18445176447E+01  0.48087601500E+01  0.51100000000E-03 0.  1.
        -12    1    3    3    0    0  0.87697473749E+01 -0.20345953140E+02  0.29627258685E+02  0.36995144754E+02  0.00000000000E+00 0.  1.
</event>
<event>
 7    1  0.5549011E-013  0.5052886E+02  0.7816164E-02  0.1300439E+00
        -11   -1    0    0    0    0  0.00000000000E+00  0.00000000000E+00  0.45593999997E+02  0.45594000000E+02  0.51100000000E-03 0.  1.
         11   -1    0    0    0    0 -0.00000000000E+00 -0.00000000000E+00 -0.45593999997E+02  0.45594000000E+02  0.51100000000E-03 0. -1.
    9900012    2    1    2    0    0  0.32449825117E+02 -0.20413678156E+02  0.13544594896E+02  0.50528862566E+02  0.30000008256E+02 0.  0.
         12    1    1    2    0    0 -0.32449825117E+02  0.20413678156E+02 -0.13544594896E+02  0.40659137434E+02  0.00000000000E+00 0. -1.
         11    1    3    3    0    0  0.39510377924E+01 -0.79178755999E+01 -0.22576384048E+01  0.91323811287E+01  0.51100000000E-03 0. -1.
        -11    1    3    3    0    0  0.23132402064E+02 -0.18918025602E+02  0.12722729872E+02  0.32478724938E+02  0.51100000000E-03 0.  1.
         12    1    3    3    0    0  0.53663852602E+01  0.64222230459E+01  0.30795034290E+01  0.89177564993E+01  0.00000000000E+00 0. -1.
</event>
<event>
 7    1  0.4971907E-013  0.5052885E+02  0.7816164E-02  0.1300439E+00
        -11   -1    0    0    0    0  0.00000000000E+00  0.00000000000E+00  0.45593999997E+02  0.45594000000E+02  0.51100000000E-03 0. -1.
         11   -1    0    0    0    0 -0.00000000000E+00 -0.00000000000E+00 -0.45593999997E+02  0.45594000000E+02  0.51100000000E-03 0.  1.
    9900012    2    1    2    0    0  0.36322604020E+01  0.13066916019E-01 -0.40496577914E+02  0.50528852085E+02  0.29999976398E+02 0.  0.
         12    1    1    2    0    0 -0.36322604020E+01 -0.13066916019E-01  0.40496577914E+02  0.40659147915E+02  0.00000000000E+00 0. -1.
         11    1    3    3    0    0  0.13073447780E+01 -0.61052793604E+01 -0.38698839820E+01  0.73457190753E+01  0.51100000000E-03 0. -1.
        -11    1    3    3    0    0  0.66413002688E+01  0.85387323263E+01 -0.64311733035E+01  0.12584784834E+02  0.51100000000E-03 0.  1.
        -12    1    3    3    0    0 -0.43163846448E+01 -0.24203860498E+01 -0.30195520629E+02  0.30598348176E+02  0.00000000000E+00 0.  1.
</event>
<event>
 7    1  0.4971907E-013  0.5052886E+02  0.7816164E-02  0.1300439E+00
        -11   -1    0    0    0    0  0.00000000000E+00  0.00000000000E+00  0.45593999997E+02  0.45594000000E+02  0.51100000000E-03 0.  1.
         11   -1    0    0    0    0 -0.00000000000E+00 -0.00000000000E+00 -0.45593999997E+02  0.45594000000E+02  0.51100000000E-03 0. -1.
    9900012    2    1    2    0    0 -0.30939125436E+02 -0.44263932183E+01  0.26006596978E+02  0.50528861715E+02  0.30000005669E+02 0.  0.
         12    1    1    2    0    0  0.30939125436E+02  0.44263932183E+01 -0.26006596978E+02  0.40659138285E+02  0.00000000000E+00 0. -1.
         11    1    3    3    0    0 -0.78493583595E+01 -0.11898766650E+01  0.47561550911E+00  0.79532662163E+01  0.51100000000E-03 0. -1.
        -11    1    3    3    0    0 -0.39469851518E+00  0.84173964826E+01  0.47675805506E+01  0.96818477075E+01  0.51100000000E-03 0.  1.
        -12    1    3    3    0    0 -0.22695068561E+02 -0.11653913036E+02  0.20763400919E+02  0.32893747791E+02  0.00000000000E+00 0.  1.
</event>
<event>
 7    1  0.4971907E-013  0.5052886E+02  0.7816164E-02  0.1300439E+00
        -11   -1    0    0    0    0  0.00000000000E+00  0.00000000000E+00  0.45593999997E+02  0.45594000000E+02  0.51100000000E-03 0. -1.
         11   -1    0    0    0    0 -0.00000000000E+00 -0.00000000000E+00 -0.45593999997E+02  0.45594000000E+02  0.51100000000E-03 0.  1.
    9900012    2    1    2    0    0 -0.26705206095E+02  0.30419620242E+02 -0.38267719677E+01  0.50528861888E+02  0.30000006196E+02 0.  0.
         12    1    1    2    0    0  0.26705206095E+02 -0.30419620242E+02  0.38267719677E+01  0.40659138112E+02  0.00000000000E+00 0. -1.
         11    1    3    3    0    0  0.33000132012E+01  0.68926009759E+01 -0.10805517693E+01  0.77178771517E+01  0.51100000000E-03 0. -1.
        -11    1    3    3    0    0 -0.39999029055E+01  0.78522464381E+01  0.66348779299E+01  0.11030802454E+02  0.51100000000E-03 0.  1.
        -12    1    3    3    0    0 -0.26005316391E+02  0.15674772828E+02 -0.93810981282E+01  0.31780182283E+02  0.00000000000E+00 0.  1.
</event>
<event>
 7    1  0.4971907E-013  0.5052886E+02  0.7816164E-02  0.1300439E+00
        -11   -1    0    0    0    0  0.00000000000E+00  0.00000000000E+00  0.45593999997E+02  0.45594000000E+02  0.51100000000E-03 0.  1.
         11   -1    0    0    0    0 -0.00000000000E+00 -0.00000000000E+00 -0.45593999997E+02  0.45594000000E+02  0.51100000000E-03 0. -1.
    9900012    2    1    2    0    0  0.31110490264E+02  0.21187675274E+02  0.15374823710E+02  0.50528863362E+02  0.30000010676E+02 0.  0.
         12    1    1    2    0    0 -0.31110490264E+02 -0.21187675274E+02 -0.15374823710E+02  0.40659136638E+02  0.00000000000E+00 0. -1.
         11    1    3    3    0    0  0.57748133650E+01 -0.68894055490E+01  0.32066283109E+01  0.95443618752E+01  0.51100000000E-03 0. -1.
        -11    1    3    3    0    0  0.10261121476E+02  0.53991733243E+01  0.13107903126E+01  0.11668755634E+02  0.51100000000E-03 0.  1.
        -12    1    3    3    0    0  0.15074555423E+02  0.22677907499E+02  0.10857405087E+02  0.29315745854E+02  0.00000000000E+00 0.  1.
</event>
<event>
 7    1  0.4971907E-013  0.5052886E+02  0.7816164E-02  0.1300439E+00
        -11   -1    0    0    0    0  0.00000000000E+00  0.00000000000E+00  0.45593999997E+02  0.45594000000E+02  0.51100000000E-03 0.  1.
         11   -1    0    0    0    0 -0.00000000000E+00 -0.00000000000E+00 -0.45593999997E+02  0.45594000000E+02  0.51100000000E-03 0. -1.
    9900012    2    1    2    0    0  0.30117309807E+02 -0.17823616677E+02  0.20698601792E+02  0.50528858622E+02  0.29999996267E+02 0.  0.
         12    1    1    2    0    0 -0.30117309807E+02  0.17823616677E+02 -0.20698601792E+02  0.40659141378E+02  0.00000000000E+00 0. -1.
         11    1    3    3    0    0  0.17078922235E+02 -0.16188937343E+02  0.25258013109E+02  0.34521565774E+02  0.51100000000E-03 0.  1.
        -11    1    3    3    0    0 -0.37165898690E+00 -0.18946530865E+01 -0.51658584184E+00  0.19986750396E+01  0.51100000000E-03 0. -1.
        -12    1    3    3    0    0  0.13410046559E+02  0.25997375303E+00 -0.40428254750E+01  0.14008617808E+02  0.00000000000E+00 0.  1.
</event>
<event>
 7    1  0.4971907E-013  0.5052886E+02  0.7816164E-02  0.1300439E+00
        -11   -1    0    0    0    0  0.00000000000E+00  0.00000000000E+00  0.45593999997E+02  0.45594000000E+02  0.51100000000E-03 0. -1.
         11   -1    0    0    0    0 -0.00000000000E+00 -0.00000000000E+00 -0.45593999997E+02  0.45594000000E+02  0.51100000000E-03 0.  1.
    9900012    2    1    2    0    0  0.31628076719E+02  0.24236854462E+02 -0.80873315639E+01  0.50528864705E+02  0.30000014756E+02 0.  0.
         12    1    1    2    0    0 -0.31628076719E+02 -0.24236854462E+02  0.80873315639E+01  0.40659135295E+02  0.00000000000E+00 0. -1.
         11    1    3    3    0    0  0.71652382872E+01 -0.31470918950E+01 -0.35702325503E+01  0.86018246804E+01  0.51100000000E-03 0. -1.
        -11    1    3    3    0    0  0.19579670244E+02  0.72881920045E+01 -0.37942131991E+01  0.21233871140E+02  0.51100000000E-03 0.  1.
         12    1    3    3    0    0  0.48831681877E+01  0.20095754353E+02 -0.72288581449E+00  0.20693168884E+02  0.00000000000E+00 0. -1.
</event>
<event>
 7    1  0.4971907E-013  0.5052886E+02  0.7816164E-02  0.1300439E+00
        -11   -1    0    0    0    0  0.00000000000E+00  0.00000000000E+00  0.45593999997E+02  0.45594000000E+02  0.51100000000E-03 0.  1.
         11   -1    0    0    0    0 -0.00000000000E+00 -0.00000000000E+00 -0.45593999997E+02  0.45594000000E+02  0.51100000000E-03 0. -1.
    9900012    2    1    2    0    0  0.16370737754E+02 -0.92166642621E+01  0.36058526864E+02  0.50528864319E+02  0.30000013583E+02 0.  0.
         12    1    1    2    0    0 -0.16370737754E+02  0.92166642621E+01 -0.36058526864E+02  0.40659135681E+02  0.00000000000E+00 0. -1.
         11    1    3    3    0    0  0.20119140555E+02 -0.50378651477E+01  0.14838068408E+02  0.25501532822E+02  0.51100000000E-03 0. -1.
        -11    1    3    3    0    0 -0.44228167901E+00 -0.81052914409E+01  0.12351735413E+02  0.14780281810E+02  0.51100000000E-03 0.  1.
        -12    1    3    3    0    0 -0.33061211213E+01  0.39264923265E+01  0.88687230435E+01  0.10247049687E+02  0.00000000000E+00 0.  1.
</event>
<event>
 7    1  0.4971907E-013  0.5052886E+02  0.7816164E-02  0.1300439E+00
        -11   -1    0    0    0    0  0.00000000000E+00  0.00000000000E+00  0.45593999997E+02  0.45594000000E+02  0.51100000000E-03 0.  1.
         11   -1    0    0    0    0 -0.00000000000E+00 -0.00000000000E+00 -0.45593999997E+02  0.45594000000E+02  0.51100000000E-03 0. -1.
    9900012    2    1    2    0    0 -0.11070043796E+02 -0.36002115979E+02  0.15312335626E+02  0.50528857769E+02  0.29999993675E+02 0.  0.
         12    1    1    2    0    0  0.11070043796E+02  0.36002115979E+02 -0.15312335626E+02  0.40659142231E+02  0.00000000000E+00 0. -1.
         11    1    3    3    0    0 -0.41619260522E+01 -0.44006512640E+01  0.26684942181E-01  0.60570679671E+01  0.51100000000E-03 0. -1.
        -11    1    3    3    0    0 -0.27672253837E+01 -0.34064952525E+02  0.18320083499E+02  0.38777622239E+02  0.51100000000E-03 0.  1.
         12    1    3    3    0    0 -0.41408923600E+01  0.24634878095E+01 -0.30344328150E+01  0.56941675628E+01  0.00000000000E+00 0. -1.
</event>
<event>
 7    1  0.4971907E-013  0.5052882E+02  0.7816164E-02  0.1300439E+00
        -11   -1    0    0    0    0  0.00000000000E+00  0.00000000000E+00  0.45593999997E+02  0.45594000000E+02  0.51100000000E-03 0.  1.
         11   -1    0    0    0    0 -0.00000000000E+00 -0.00000000000E+00 -0.45593999997E+02  0.45594000000E+02  0.51100000000E-03 0. -1.
    9900012    2    1    2    0    0 -0.10338481925E+02  0.10123748466E+02  0.37997291153E+02  0.50528823588E+02  0.29999889777E+02 0.  0.
         12    1    1    2    0    0  0.10338481925E+02 -0.10123748466E+02 -0.37997291153E+02  0.40659176412E+02  0.00000000000E+00 0. -1.
         11    1    3    3    0    0 -0.31844682789E+01 -0.12512529427E+01  0.45502257367E+01  0.56930682994E+01  0.51100000000E-03 0. -1.
        -11    1    3    3    0    0 -0.15760339633E+02  0.28402406162E+01  0.26220995687E+02  0.30724516061E+02  0.51100000000E-03 0.  1.
         12    1    3    3    0    0  0.86063259870E+01  0.85347607928E+01  0.72260697297E+01  0.14111239227E+02  0.00000000000E+00 0. -1.
</event>
<event>
 7    1  0.4971907E-013  0.5052886E+02  0.7816164E-02  0.1300439E+00
        -11   -1    0    0    0    0  0.00000000000E+00  0.00000000000E+00  0.45593999997E+02  0.45594000000E+02  0.51100000000E-03 0.  1.
         11   -1    0    0    0    0 -0.00000000000E+00 -0.00000000000E+00 -0.45593999997E+02  0.45594000000E+02  0.51100000000E-03 0. -1.
    9900012    2    1    2    0    0 -0.25922709035E+02 -0.27053614532E+01  0.31206723837E+02  0.50528862811E+02  0.30000009002E+02 0.  0.
         12    1    1    2    0    0  0.25922709035E+02  0.27053614532E+01 -0.31206723837E+02  0.40659137189E+02  0.00000000000E+00 0. -1.
         11    1    3    3    0    0 -0.54261024889E+01 -0.37444305086E+01  0.43270120431E+01  0.78858342320E+01  0.51100000000E-03 0. -1.
        -11    1    3    3    0    0 -0.17479894575E+02 -0.63905067084E+01  0.28899469996E+02  0.34373894988E+02  0.51100000000E-03 0.  1.
         12    1    3    3    0    0 -0.30167119716E+01  0.74295757638E+01 -0.20197582029E+01  0.82691335911E+01  0.00000000000E+00 0. -1.
</event>
<event>
 7    1  0.4971907E-013  0.5052886E+02  0.7816164E-02  0.1300439E+00
        -11   -1    0    0    0    0  0.00000000000E+00  0.00000000000E+00  0.45593999997E+02  0.45594000000E+02  0.51100000000E-03 0.  1.
         11   -1    0    0    0    0 -0.00000000000E+00 -0.00000000000E+00 -0.45593999997E+02  0.45594000000E+02  0.51100000000E-03 0. -1.
    9900012    2    1    2    0    0  0.39858303549E+02 -0.25034761343E+01  0.76298010306E+01  0.50528860580E+02  0.30000002219E+02 0.  0.
         12    1    1    2    0    0 -0.39858303549E+02  0.25034761343E+01 -0.76298010306E+01  0.40659139420E+02  0.00000000000E+00 0. -1.
         11    1    3    3    0    0 -0.11232335633E+00 -0.35099801558E+01 -0.74486197746E+00  0.35899020678E+01  0.51100000000E-03 0. -1.
        -11    1    3    3    0    0  0.30521885765E+02 -0.94412846905E+01  0.75465529192E+01  0.32827942800E+02  0.51100000000E-03 0.  1.
        -12    1    3    3    0    0  0.94487411412E+01  0.10447788712E+02  0.82811008893E+00  0.14111015713E+02  0.00000000000E+00 0.  1.
</event>
<event>
 7    1  0.4971907E-013  0.5052885E+02  0.7816164E-02  0.1300439E+00
        -11   -1    0    0    0    0  0.00000000000E+00  0.00000000000E+00  0.45593999997E+02  0.45594000000E+02  0.51100000000E-03 0. -1.
         11   -1    0    0    0    0 -0.00000000000E+00 -0.00000000000E+00 -0.45593999997E+02  0.45594000000E+02  0.51100000000E-03 0.  1.
    9900012    2    1    2    0    0  0.30617406801E+02 -0.26538592656E+02  0.33828467451E+01  0.50528854024E+02  0.29999982292E+02 0.  0.
         12    1    1    2    0    0 -0.30617406801E+02  0.26538592656E+02 -0.33828467451E+01  0.40659145976E+02  0.00000000000E+00 0. -1.
         11    1    3    3    0    0  0.41926276949E+01  0.39258551868E+01  0.32241047651E+01  0.65867532012E+01  0.51100000000E-03 0. -1.
        -11    1    3    3    0    0  0.20016185081E+02 -0.28819150180E+02  0.53997826364E+01  0.35501390607E+02  0.51100000000E-03 0.  1.
         12    1    3    3    0    0  0.64085940255E+01 -0.16452976627E+01 -0.52410406564E+01  0.84407102157E+01  0.00000000000E+00 0. -1.
</event>
<event>
 7    1  0.4971907E-013  0.5052886E+02  0.7816164E-02  0.1300439E+00
        -11   -1    0    0    0    0  0.00000000000E+00  0.00000000000E+00  0.45593999997E+02  0.45594000000E+02  0.51100000000E-03 0. -1.
         11   -1    0    0    0    0 -0.00000000000E+00 -0.00000000000E+00 -0.45593999997E+02  0.45594000000E+02  0.51100000000E-03 0.  1.
    9900012    2    1    2    0    0 -0.33809879813E+02 -0.17048980506E+02 -0.14811831429E+02  0.50528855155E+02  0.29999985730E+02 0.  0.
         12    1    1    2    0    0  0.33809879813E+02  0.17048980506E+02  0.14811831429E+02  0.40659144845E+02  0.00000000000E+00 0. -1.
         11    1    3    3    0    0 -0.11823434208E+02 -0.14508434729E+02 -0.13750835022E+02  0.23224421173E+02  0.51100000000E-03 0.  1.
        -11    1    3    3    0    0  0.15019329348E+01 -0.19728316097E+01 -0.28059438691E+01  0.37444877297E+01  0.51100000000E-03 0. -1.
         12    1    3    3    0    0 -0.23488378539E+02 -0.56771416707E+00  0.17449474619E+01  0.23559946253E+02  0.00000000000E+00 0. -1.
</event>
<event>
 7    1  0.4971907E-013  0.5052886E+02  0.7816164E-02  0.1300439E+00
        -11   -1    0    0    0    0  0.00000000000E+00  0.00000000000E+00  0.45593999997E+02  0.45594000000E+02  0.51100000000E-03 0.  1.
         11   -1    0    0    0    0 -0.00000000000E+00 -0.00000000000E+00 -0.45593999997E+02  0.45594000000E+02  0.51100000000E-03 0. -1.
    9900012    2    1    2    0    0 -0.36317439392E+01 -0.44503320274E+01  0.40251339191E+02  0.50528864177E+02  0.30000013153E+02 0.  0.
         12    1    1    2    0    0  0.36317439392E+01  0.44503320274E+01 -0.40251339191E+02  0.40659135823E+02  0.00000000000E+00 0. -1.
         11    1    3    3    0    0 -0.18820576919E+01 -0.11737600299E+02  0.12611070562E+02  0.17330680971E+02  0.51100000000E-03 0.  1.
        -11    1    3    3    0    0 -0.58442604111E+01  0.25712426189E+01  0.18284634083E+01  0.66415319810E+01  0.51100000000E-03 0. -1.
        -12    1    3    3    0    0  0.40945741638E+01  0.47160256527E+01  0.25811805221E+02  0.26556651225E+02  0.00000000000E+00 0.  1.
</event>
<event>
 7    1  0.4971907E-013  0.5052886E+02  0.7816164E-02  0.1300439E+00
        -11   -1    0    0    0    0  0.00000000000E+00  0.00000000000E+00  0.45593999997E+02  0.45594000000E+02  0.51100000000E-03 0.  1.
         11   -1    0    0    0    0 -0.00000000000E+00 -0.00000000000E+00 -0.45593999997E+02  0.45594000000E+02  0.51100000000E-03 0. -1.
    9900012    2    1    2    0    0 -0.32158255013E+02  0.56013758225E+01  0.24241224405E+02  0.50528859118E+02  0.29999997776E+02 0.  0.
         12    1    1    2    0    0  0.32158255013E+02 -0.56013758225E+01 -0.24241224405E+02  0.40659140882E+02  0.00000000000E+00 0. -1.
         11    1    3    3    0    0  0.31002092553E+01 -0.14490986943E+01 -0.97462950318E+00  0.35582421758E+01  0.51100000000E-03 0. -1.
        -11    1    3    3    0    0 -0.12425670284E+02  0.24731989467E+01  0.30894955996E-01  0.12669449467E+02  0.51100000000E-03 0.  1.
        -12    1    3    3    0    0 -0.22832793984E+02  0.45772755701E+01  0.25184958952E+02  0.34301167475E+02  0.00000000000E+00 0.  1.
</event>
<event>
 7    1  0.4971907E-013  0.5052887E+02  0.7816164E-02  0.1300439E+00
        -11   -1    0    0    0    0  0.00000000000E+00  0.00000000000E+00  0.45593999997E+02  0.45594000000E+02  0.51100000000E-03 0.  1.
         11   -1    0    0    0    0 -0.00000000000E+00 -0.00000000000E+00 -0.45593999997E+02  0.45594000000E+02  0.51100000000E-03 0. -1.
    9900012    2    1    2    0    0  0.69537506513E+01  0.19924624187E+02  0.34753698044E+02  0.50528870338E+02  0.30000031880E+02 0.  0.
         12    1    1    2    0    0 -0.69537506513E+01 -0.19924624187E+02 -0.34753698044E+02  0.40659129662E+02  0.00000000000E+00 0. -1.
         11    1    3    3    0    0  0.34638215985E+01  0.10136519528E+02  0.17666588332E+02  0.20660479950E+02  0.51100000000E-03 0. -1.
        -11    1    3    3    0    0  0.11553756718E+02  0.81007105217E+01  0.44737402997E+01  0.14802876673E+02  0.51100000000E-03 0.  1.
         12    1    3    3    0    0 -0.80638276654E+01  0.16873941376E+01  0.12613369412E+02  0.15065513716E+02  0.00000000000E+00 0. -1.
</event>
<event>
 7    1  0.4971907E-013  0.5052885E+02  0.7816164E-02  0.1300439E+00
        -11   -1    0    0    0    0  0.00000000000E+00  0.00000000000E+00  0.45593999997E+02  0.45594000000E+02  0.51100000000E-03 0. -1.
         11   -1    0    0    0    0 -0.00000000000E+00 -0.00000000000E+00 -0.45593999997E+02  0.45594000000E+02  0.51100000000E-03 0.  1.
    9900012    2    1    2    0    0 -0.23969812422E+02  0.29637398234E+02 -0.14150578676E+02  0.50528853938E+02  0.29999982029E+02 0.  0.
         12    1    1    2    0    0  0.23969812422E+02 -0.29637398234E+02  0.14150578676E+02  0.40659146062E+02  0.00000000000E+00 0. -1.
         11    1    3    3    0    0 -0.82197699085E+01  0.68278596726E+01 -0.49002900329E+01  0.11755727443E+02  0.51100000000E-03 0. -1.
        -11    1    3    3    0    0 -0.16724009439E+02  0.43734589664E+01 -0.10573929132E+02  0.20263948593E+02  0.51100000000E-03 0.  1.
         12    1    3    3    0    0  0.97396692571E+00  0.18436079595E+02  0.13236404887E+01  0.18509177901E+02  0.00000000000E+00 0. -1.
</event>
<event>
 7    1  0.4971907E-013  0.5052886E+02  0.7816164E-02  0.1300439E+00
        -11   -1    0    0    0    0  0.00000000000E+00  0.00000000000E+00  0.45593999997E+02  0.45594000000E+02  0.51100000000E-03 0.  1.
         11   -1    0    0    0    0 -0.00000000000E+00 -0.00000000000E+00 -0.45593999997E+02  0.45594000000E+02  0.51100000000E-03 0. -1.
    9900012    2    1    2    0    0  0.88246035344E+01  0.62775040188E+01  0.39190369445E+02  0.50528859067E+02  0.29999997619E+02 0.  0.
         12    1    1    2    0    0 -0.88246035344E+01 -0.62775040188E+01 -0.39190369445E+02  0.40659140933E+02  0.00000000000E+00 0. -1.
         11    1    3    3    0    0  0.64150287931E+01  0.40478465902E+01  0.66377257205E+01  0.10079536668E+02  0.51100000000E-03 0. -1.
        -11    1    3    3    0    0  0.11080952714E+02 -0.18047354161E+01  0.27343835145E+02  0.29558922572E+02  0.51100000000E-03 0.  1.
         12    1    3    3    0    0 -0.86713779723E+01  0.40343928447E+01  0.52088085795E+01  0.10890399826E+02  0.00000000000E+00 0. -1.
</event>
<event>
 7    1  0.4971907E-013  0.5052886E+02  0.7816164E-02  0.1300439E+00
        -11   -1    0    0    0    0  0.00000000000E+00  0.00000000000E+00  0.45593999997E+02  0.45594000000E+02  0.51100000000E-03 0. -1.
         11   -1    0    0    0    0 -0.00000000000E+00 -0.00000000000E+00 -0.45593999997E+02  0.45594000000E+02  0.51100000000E-03 0.  1.
    9900012    2    1    2    0    0  0.52440461074E+01 -0.52465047107E+01 -0.39976739045E+02  0.50528862085E+02  0.30000006795E+02 0.  0.
         12    1    1    2    0    0 -0.52440461074E+01  0.52465047107E+01  0.39976739045E+02  0.40659137915E+02  0.00000000000E+00 0. -1.
         11    1    3    3    0    0  0.24874449026E+01 -0.14627678851E+01 -0.11973625731E+02  0.12316443700E+02  0.51100000000E-03 0. -1.
        -11    1    3    3    0    0 -0.41309625835E+01  0.91621281657E+01 -0.57998054991E+01  0.11603757516E+02  0.51100000000E-03 0.  1.
         12    1    3    3    0    0  0.68875637883E+01 -0.12945864991E+02 -0.22203307816E+02  0.26608660870E+02  0.00000000000E+00 0. -1.
</event>
<event>
 7    1  0.4971907E-013  0.5052886E+02  0.7816164E-02  0.1300439E+00
        -11   -1    0    0    0    0  0.00000000000E+00  0.00000000000E+00  0.45593999997E+02  0.45594000000E+02  0.51100000000E-03 0.  1.
         11   -1    0    0    0    0 -0.00000000000E+00 -0.00000000000E+00 -0.45593999997E+02  0.45594000000E+02  0.51100000000E-03 0. -1.
    9900012    2    1    2    0    0 -0.21557303609E+02  0.62345055366E+00  0.34468245532E+02  0.50528856139E+02  0.29999988720E+02 0.  0.
         12    1    1    2    0    0  0.21557303609E+02 -0.62345055366E+00 -0.34468245532E+02  0.40659143861E+02  0.00000000000E+00 0. -1.
         11    1    3    3    0    0 -0.36196173484E+01 -0.10079849920E+02  0.72937457981E+01  0.12957767253E+02  0.51100000000E-03 0. -1.
        -11    1    3    3    0    0  0.19682806563E+01  0.18542303862E+01 -0.49029124236E-01  0.27045707946E+01  0.51100000000E-03 0.  1.
         12    1    3    3    0    0 -0.19905966916E+02  0.88490700878E+01  0.27223528858E+02  0.34866518091E+02  0.00000000000E+00 0. -1.
</event>
<event>
 7    1  0.4971907E-013  0.5052885E+02  0.7816164E-02  0.1300439E+00
        -11   -1    0    0    0    0  0.00000000000E+00  0.00000000000E+00  0.45593999997E+02  0.45594000000E+02  0.51100000000E-03 0.  1.
         11   -1    0    0    0    0 -0.00000000000E+00 -0.00000000000E+00 -0.45593999997E+02  0.45594000000E+02  0.51100000000E-03 0. -1.
    9900012    2    1    2    0    0 -0.31853155318E+02  0.79055928360E+01  0.24000922689E+02  0.50528853530E+02  0.29999980789E+02 0.  0.
         12    1    1    2    0    0  0.31853155318E+02 -0.79055928360E+01 -0.24000922689E+02  0.40659146470E+02  0.00000000000E+00 0. -1.
         11    1    3    3    0    0 -0.18136081219E+02  0.43082969976E+01  0.25760144794E+01  0.18817936015E+02  0.51100000000E-03 0. -1.
        -11    1    3    3    0    0 -0.13237634258E+02 -0.51694346870E+01  0.10363749742E+02  0.17588784060E+02  0.51100000000E-03 0.  1.
        -12    1    3    3    0    0 -0.47943984067E+00  0.87667305254E+01  0.11061158468E+02  0.14122133455E+02  0.00000000000E+00 0.  1.
</event>
<event>
 7    1  0.4971907E-013  0.5052886E+02  0.7816164E-02  0.1300439E+00
        -11   -1    0    0    0    0  0.00000000000E+00  0.00000000000E+00  0.45593999997E+02  0.45594000000E+02  0.51100000000E-03 0.  1.
         11   -1    0    0    0    0 -0.00000000000E+00 -0.00000000000E+00 -0.45593999997E+02  0.45594000000E+02  0.51100000000E-03 0. -1.
    9900012    2    1    2    0    0  0.57972162420E+00 -0.28830587403E+02  0.28664040176E+02  0.50528855317E+02  0.29999986221E+02 0.  0.
         12    1    1    2    0    0 -0.57972162420E+00  0.28830587403E+02 -0.28664040176E+02  0.40659144683E+02  0.00000000000E+00 0. -1.
         11    1    3    3    0    0  0.81676455979E+01 -0.10935968166E+02  0.82200902808E+01  0.15933477927E+02  0.51100000000E-03 0. -1.
        -11    1    3    3    0    0  0.74201255196E+00 -0.14587714431E+02  0.21040101658E+02  0.25613236285E+02  0.51100000000E-03 0.  1.
        -12    1    3    3    0    0 -0.83299365257E+01 -0.33069048053E+01 -0.59615176256E+00  0.89821411054E+01  0.00000000000E+00 0.  1.
</event>
<event>
 7    1  0.4971907E-013  0.5052887E+02  0.7816164E-02  0.1300439E+00
        -11   -1    0    0    0    0  0.00000000000E+00  0.00000000000E+00  0.45593999997E+02  0.45594000000E+02  0.51100000000E-03 0.  1.
         11   -1    0    0    0    0 -0.00000000000E+00 -0.00000000000E+00 -0.45593999997E+02  0.45594000000E+02  0.51100000000E-03 0. -1.
    9900012    2    1    2    0    0 -0.21100870748E+02  0.14764553921E+02  0.31463095952E+02  0.50528865654E+02  0.30000017643E+02 0.  0.
         12    1    1    2    0    0  0.21100870748E+02 -0.14764553921E+02 -0.31463095952E+02  0.40659134346E+02  0.00000000000E+00 0. -1.
         11    1    3    3    0    0 -0.44911594188E+00  0.17696909441E+01 -0.55186201008E+01  0.58128030455E+01  0.51100000000E-03 0.  1.
        -11    1    3    3    0    0 -0.41504086292E+01  0.35190035039E+00  0.83780533923E+01  0.93563617155E+01  0.51100000000E-03 0. -1.
        -12    1    3    3    0    0 -0.16501346177E+02  0.12642962627E+02  0.28603662661E+02  0.35359700893E+02  0.00000000000E+00 0.  1.
</event>
<event>
 7    1  0.4971907E-013  0.5052888E+02  0.7816164E-02  0.1300439E+00
        -11   -1    0    0    0    0  0.00000000000E+00  0.00000000000E+00  0.45593999997E+02  0.45594000000E+02  0.51100000000E-03 0. -1.
         11   -1    0    0    0    0 -0.00000000000E+00 -0.00000000000E+00 -0.45593999997E+02  0.45594000000E+02  0.51100000000E-03 0.  1.
    9900012    2    1    2    0    0 -0.12147848941E+02  0.35338334512E+02 -0.16024865338E+02  0.50528875205E+02  0.30000046673E+02 0.  0.
         12    1    1    2    0    0  0.12147848941E+02 -0.35338334512E+02  0.16024865338E+02  0.40659124795E+02  0.00000000000E+00 0. -1.
         11    1    3    3    0    0 -0.21771282852E+01  0.17360619814E+02 -0.18012986126E+02  0.25111723902E+02  0.51100000000E-03 0. -1.
        -11    1    3    3    0    0 -0.13258813035E+02  0.11029374179E+02 -0.73449615272E+00  0.17262175493E+02  0.51100000000E-03 0.  1.
        -12    1    3    3    0    0  0.32880923794E+01  0.69483405192E+01  0.27226169400E+01  0.81549758104E+01  0.00000000000E+00 0.  1.
</event>
<event>
 7    1  0.4971907E-013  0.5052885E+02  0.7816164E-02  0.1300439E+00
        -11   -1    0    0    0    0  0.00000000000E+00  0.00000000000E+00  0.45593999997E+02  0.45594000000E+02  0.51100000000E-03 0.  1.
         11   -1    0    0    0    0 -0.00000000000E+00 -0.00000000000E+00 -0.45593999997E+02  0.45594000000E+02  0.51100000000E-03 0. -1.
    9900012    2    1    2    0    0 -0.31637360649E+02 -0.49135180998E+01  0.25061940693E+02  0.50528854409E+02  0.29999983460E+02 0.  0.
         12    1    1    2    0    0  0.31637360649E+02  0.49135180998E+01 -0.25061940693E+02  0.40659145591E+02  0.00000000000E+00 0. -1.
         11    1    3    3    0    0 -0.73776345095E+01  0.11559285462E+01 -0.12347262172E+01  0.75690297167E+01  0.51100000000E-03 0. -1.
        -11    1    3    3    0    0  0.28054875710E+01  0.41539021512E+01  0.32920516811E+01  0.59969382292E+01  0.51100000000E-03 0.  1.
        -12    1    3    3    0    0 -0.27065213710E+02 -0.10223348797E+02  0.23004615229E+02  0.36962886463E+02  0.00000000000E+00 0.  1.
</event>
<event>
 7    1  0.4971907E-013  0.5052886E+02  0.7816164E-02  0.1300439E+00
        -11   -1    0    0    0    0  0.00000000000E+00  0.00000000000E+00  0.45593999997E+02  0.45594000000E+02  0.51100000000E-03 0.  1.
         11   -1    0    0    0    0 -0.00000000000E+00 -0.00000000000E+00 -0.45593999997E+02  0.45594000000E+02  0.51100000000E-03 0. -1.
    9900012    2    1    2    0    0  0.37185204221E+02  0.12591116841E+02  0.10577820485E+02  0.50528856840E+02  0.29999990851E+02 0.  0.
         12    1    1    2    0    0 -0.37185204221E+02 -0.12591116841E+02 -0.10577820485E+02  0.40659143160E+02  0.00000000000E+00 0. -1.
         11    1    3    3    0    0  0.90264342267E+01  0.36123943994E+00 -0.10710897403E+01  0.90969358729E+01  0.51100000000E-03 0. -1.
        -11    1    3    3    0    0  0.88410594161E+01 -0.14905440764E+01  0.15026461485E+02  0.17498016981E+02  0.51100000000E-03 0.  1.
         12    1    3    3    0    0  0.19317710579E+02  0.13720421478E+02 -0.33775512595E+01  0.23933903986E+02  0.00000000000E+00 0. -1.
</event>
<event>
 7    1  0.4971907E-013  0.5052886E+02  0.7816164E-02  0.1300439E+00
        -11   -1    0    0    0    0  0.00000000000E+00  0.00000000000E+00  0.45593999997E+02  0.45594000000E+02  0.51100000000E-03 0.  1.
         11   -1    0    0    0    0 -0.00000000000E+00 -0.00000000000E+00 -0.45593999997E+02  0.45594000000E+02  0.51100000000E-03 0. -1.
    9900012    2    1    2    0    0 -0.12767075018E+02  0.38271598992E+02 -0.50450051365E+01  0.50528861166E+02  0.30000004000E+02 0.  0.
         12    1    1    2    0    0  0.12767075018E+02 -0.38271598992E+02  0.50450051365E+01  0.40659138834E+02  0.00000000000E+00 0. -1.
         11    1    3    3    0    0  0.67114750606E+01  0.22604259627E+01 -0.14553860057E+00  0.70834034734E+01  0.51100000000E-03 0. -1.
        -11    1    3    3    0    0 -0.51977112109E+01  0.96713424176E+00  0.42722685556E-02  0.52869243410E+01  0.51100000000E-03 0.  1.
         12    1    3    3    0    0 -0.14280838867E+02  0.35044038787E+02 -0.49037388045E+01  0.38158533352E+02  0.00000000000E+00 0. -1.
</event>
<event>
 7    1  0.4971907E-013  0.5052888E+02  0.7816164E-02  0.1300439E+00
        -11   -1    0    0    0    0  0.00000000000E+00  0.00000000000E+00  0.45593999997E+02  0.45594000000E+02  0.51100000000E-03 0.  1.
         11   -1    0    0    0    0 -0.00000000000E+00 -0.00000000000E+00 -0.45593999997E+02  0.45594000000E+02  0.51100000000E-03 0. -1.
    9900012    2    1    2    0    0  0.32790419579E+02 -0.23540715952E+02 -0.48772226014E+01  0.50528877727E+02  0.30000054338E+02 0.  0.
         12    1    1    2    0    0 -0.32790419579E+02  0.23540715952E+02  0.48772226014E+01  0.40659122273E+02  0.00000000000E+00 0. -1.
         11    1    3    3    0    0  0.71905032150E+00 -0.65874367369E+01  0.25887826614E+01  0.71142920981E+01  0.51100000000E-03 0. -1.
        -11    1    3    3    0    0  0.22027389301E+02 -0.22269700971E+02 -0.66479617761E+01  0.32020944033E+02  0.51100000000E-03 0.  1.
         12    1    3    3    0    0  0.10043979957E+02  0.53164217554E+01 -0.81804348671E+00  0.11393641596E+02  0.00000000000E+00 0. -1.
</event>
<event>
 7    1  0.4971907E-013  0.5052886E+02  0.7816164E-02  0.1300439E+00
        -11   -1    0    0    0    0  0.00000000000E+00  0.00000000000E+00  0.45593999997E+02  0.45594000000E+02  0.51100000000E-03 0.  1.
         11   -1    0    0    0    0 -0.00000000000E+00 -0.00000000000E+00 -0.45593999997E+02  0.45594000000E+02  0.51100000000E-03 0. -1.
    9900012    2    1    2    0    0  0.24052743722E+02 -0.32377914913E+02  0.51285664118E+01  0.50528855296E+02  0.29999986157E+02 0.  0.
         12    1    1    2    0    0 -0.24052743722E+02  0.32377914913E+02 -0.51285664118E+01  0.40659144704E+02  0.00000000000E+00 0. -1.
         11    1    3    3    0    0  0.11450467263E+02 -0.18362796195E+02 -0.54754933002E+01  0.22322332131E+02  0.51100000000E-03 0. -1.
        -11    1    3    3    0    0  0.67685190802E+01 -0.54908579149E+00 -0.36829467263E+01  0.77251823665E+01  0.51100000000E-03 0.  1.
        -12    1    3    3    0    0  0.58337573784E+01 -0.13466032926E+02  0.14287006438E+02  0.20481340798E+02  0.00000000000E+00 0.  1.
</event>
<event>
 7    1  0.4971907E-013  0.5052887E+02  0.7816164E-02  0.1300439E+00
        -11   -1    0    0    0    0  0.00000000000E+00  0.00000000000E+00  0.45593999997E+02  0.45594000000E+02  0.51100000000E-03 0.  1.
         11   -1    0    0    0    0 -0.00000000000E+00 -0.00000000000E+00 -0.45593999997E+02  0.45594000000E+02  0.51100000000E-03 0. -1.
    9900012    2    1    2    0    0 -0.35215129575E+02  0.19792667628E+02  0.46162849081E+01  0.50528866597E+02  0.30000020507E+02 0.  0.
         12    1    1    2    0    0  0.35215129575E+02 -0.19792667628E+02 -0.46162849081E+01  0.40659133403E+02  0.00000000000E+00 0. -1.
         11    1    3    3    0    0 -0.35078115454E+01  0.70820499134E+01 -0.33652306271E+01  0.85898166598E+01  0.51100000000E-03 0. -1.
        -11    1    3    3    0    0 -0.33326114755E+02  0.10746262159E+02  0.15816760397E+01  0.35051587330E+02  0.51100000000E-03 0.  1.
         12    1    3    3    0    0  0.16187967255E+01  0.19643555552E+01  0.63998394955E+01  0.68874626064E+01  0.00000000000E+00 0. -1.
</event>
<event>
 7    1  0.4971907E-013  0.5052887E+02  0.7816164E-02  0.1300439E+00
        -11   -1    0    0    0    0  0.00000000000E+00  0.00000000000E+00  0.45593999997E+02  0.45594000000E+02  0.51100000000E-03 0.  1.
         11   -1    0    0    0    0 -0.00000000000E+00 -0.00000000000E+00 -0.45593999997E+02  0.45594000000E+02  0.51100000000E-03 0. -1.
    9900012    2    1    2    0    0 -0.17415399506E+02  0.12499396033E+02  0.34549008223E+02  0.50528868058E+02  0.30000024949E+02 0.  0.
         12    1    1    2    0    0  0.17415399506E+02 -0.12499396033E+02 -0.34549008223E+02  0.40659131942E+02  0.00000000000E+00 0. -1.
         11    1    3    3    0    0 -0.12283969905E+02 -0.72767607724E+01  0.12077153016E+02  0.18700395429E+02  0.51100000000E-03 0. -1.
        -11    1    3    3    0    0 -0.29868733462E+01  0.58122601715E+01  0.13754180255E+02  0.15227647731E+02  0.51100000000E-03 0.  1.
        -12    1    3    3    0    0 -0.21445562545E+01  0.13963896634E+02  0.87176749522E+01  0.16600824898E+02  0.00000000000E+00 0.  1.
</event>
<event>
 7    1  0.4971907E-013  0.5052886E+02  0.7816164E-02  0.1300439E+00
        -11   -1    0    0    0    0  0.00000000000E+00  0.00000000000E+00  0.45593999997E+02  0.45594000000E+02  0.51100000000E-03 0. -1.
         11   -1    0    0    0    0 -0.00000000000E+00 -0.00000000000E+00 -0.45593999997E+02  0.45594000000E+02  0.51100000000E-03 0.  1.
    9900012    2    1    2    0    0  0.37367462374E+02  0.13833286419E+02 -0.80918856361E+01  0.50528859938E+02  0.30000000267E+02 0.  0.
         12    1    1    2    0    0 -0.37367462374E+02 -0.13833286419E+02  0.80918856361E+01  0.40659140062E+02  0.00000000000E+00 0. -1.
         11    1    3    3    0    0  0.91303913479E+01 -0.11685867089E+00  0.18009129662E+01  0.93070398027E+01  0.51100000000E-03 0. -1.
        -11    1    3    3    0    0  0.25879178772E+02  0.19276870932E+02 -0.33212832431E+01  0.32440107421E+02  0.51100000000E-03 0.  1.
         12    1    3    3    0    0  0.23578922545E+01 -0.53267258422E+01 -0.65715153592E+01  0.87817127144E+01  0.00000000000E+00 0. -1.
</event>
<event>
 7    1  0.4971907E-013  0.5052883E+02  0.7816164E-02  0.1300439E+00
        -11   -1    0    0    0    0  0.00000000000E+00  0.00000000000E+00  0.45593999997E+02  0.45594000000E+02  0.51100000000E-03 0. -1.
         11   -1    0    0    0    0 -0.00000000000E+00 -0.00000000000E+00 -0.45593999997E+02  0.45594000000E+02  0.51100000000E-03 0.  1.
    9900012    2    1    2    0    0  0.19294912196E+02 -0.29383313822E+02 -0.20432694642E+02  0.50528834020E+02  0.29999921487E+02 0.  0.
         12    1    1    2    0    0 -0.19294912196E+02  0.29383313822E+02  0.20432694642E+02  0.40659165980E+02  0.00000000000E+00 0. -1.
         11    1    3    3    0    0  0.16801636227E+00  0.23455348613E+01  0.28827475988E+00  0.23691487673E+01  0.51100000000E-03 0. -1.
        -11    1    3    3    0    0  0.17484597020E+02 -0.84269351554E+01 -0.13735398135E+02  0.23777836976E+02  0.51100000000E-03 0.  1.
        -12    1    3    3    0    0  0.16422988141E+01 -0.23301913528E+02 -0.69855712671E+01  0.24381848277E+02  0.00000000000E+00 0.  1.
</event>
<event>
 7    1  0.4971907E-013  0.5052886E+02  0.7816164E-02  0.1300439E+00
        -11   -1    0    0    0    0  0.00000000000E+00  0.00000000000E+00  0.45593999997E+02  0.45594000000E+02  0.51100000000E-03 0. -1.
         11   -1    0    0    0    0 -0.00000000000E+00 -0.00000000000E+00 -0.45593999997E+02  0.45594000000E+02  0.51100000000E-03 0.  1.
    9900012    2    1    2    0    0 -0.12617028035E+02 -0.38437531175E+02  0.40660630945E+01  0.50528855046E+02  0.29999985398E+02 0.  0.
         12    1    1    2    0    0  0.12617028035E+02  0.38437531175E+02 -0.40660630945E+01  0.40659144954E+02  0.00000000000E+00 0. -1.
         11    1    3    3    0    0 -0.10195158779E+02 -0.26644978468E+01  0.19317743374E+01  0.10713195772E+02  0.51100000000E-03 0. -1.
        -11    1    3    3    0    0  0.47648157203E+01 -0.73470292116E+01  0.54407374870E+01  0.10309409864E+02  0.51100000000E-03 0.  1.
        -12    1    3    3    0    0 -0.71866849767E+01 -0.28426004117E+02 -0.33064487299E+01  0.29506249409E+02  0.00000000000E+00 0.  1.
</event>
<event>
 7    1  0.4971907E-013  0.5052890E+02  0.7816164E-02  0.1300439E+00
        -11   -1    0    0    0    0  0.00000000000E+00  0.00000000000E+00  0.45593999997E+02  0.45594000000E+02  0.51100000000E-03 0.  1.
         11   -1    0    0    0    0 -0.00000000000E+00 -0.00000000000E+00 -0.45593999997E+02  0.45594000000E+02  0.51100000000E-03 0. -1.
    9900012    2    1    2    0    0  0.26431636576E+02  0.17777423610E+02  0.25268441033E+02  0.50528901209E+02  0.30000125714E+02 0.  0.
         12    1    1    2    0    0 -0.26431636576E+02 -0.17777423610E+02 -0.25268441033E+02  0.40659098791E+02  0.00000000000E+00 0. -1.
         11    1    3    3    0    0  0.42019914802E+01  0.86435089748E+01  0.17237869383E+02  0.19736036100E+02  0.51100000000E-03 0. -1.
        -11    1    3    3    0    0  0.72037972431E+01  0.11920801166E+02  0.98028006810E+00  0.13962848722E+02  0.51100000000E-03 0.  1.
         12    1    3    3    0    0  0.15025847852E+02 -0.27868865305E+01  0.70502915816E+01  0.16830016387E+02  0.00000000000E+00 0. -1.
</event>
<event>
 7    1  0.4971907E-013  0.5052888E+02  0.7816164E-02  0.1300439E+00
        -11   -1    0    0    0    0  0.00000000000E+00  0.00000000000E+00  0.45593999997E+02  0.45594000000E+02  0.51100000000E-03 0.  1.
         11   -1    0    0    0    0 -0.00000000000E+00 -0.00000000000E+00 -0.45593999997E+02  0.45594000000E+02  0.51100000000E-03 0. -1.
    9900012    2    1    2    0    0  0.21407468617E+01 -0.24376630046E+02  0.32470923621E+02  0.50528883306E+02  0.30000071297E+02 0.  0.
         12    1    1    2    0    0 -0.21407468617E+01  0.24376630046E+02 -0.32470923621E+02  0.40659116694E+02  0.00000000000E+00 0. -1.
         11    1    3    3    0    0 -0.74609285122E+01 -0.56144270907E+01  0.88430689758E+01  0.12860292181E+02  0.51100000000E-03 0. -1.
        -11    1    3    3    0    0  0.24919227640E+01 -0.16657197981E+02  0.49224254122E+01  0.17547142099E+02  0.51100000000E-03 0.  1.
         12    1    3    3    0    0  0.71097526098E+01 -0.21050049743E+01  0.18705429233E+02  0.20121449026E+02  0.00000000000E+00 0. -1.
</event>
<event>
 7    1  0.4971907E-013  0.5052888E+02  0.7816164E-02  0.1300439E+00
        -11   -1    0    0    0    0  0.00000000000E+00  0.00000000000E+00  0.45593999997E+02  0.45594000000E+02  0.51100000000E-03 0.  1.
         11   -1    0    0    0    0 -0.00000000000E+00 -0.00000000000E+00 -0.45593999997E+02  0.45594000000E+02  0.51100000000E-03 0. -1.
    9900012    2    1    2    0    0 -0.35043072827E+02  0.20599670062E+02 -0.89497932264E+00  0.50528876204E+02  0.30000049711E+02 0.  0.
         12    1    1    2    0    0  0.35043072827E+02 -0.20599670062E+02  0.89497932264E+00  0.40659123796E+02  0.00000000000E+00 0. -1.
         11    1    3    3    0    0  0.56921520565E+00  0.77740655321E+01  0.32431151709E+00  0.78016202849E+01  0.51100000000E-03 0. -1.
        -11    1    3    3    0    0 -0.11704593580E+02  0.52154256691E+01  0.89762078140E+01  0.15645142465E+02  0.51100000000E-03 0.  1.
        -12    1    3    3    0    0 -0.23907694453E+02  0.76101788607E+01 -0.10195498654E+02  0.27082113454E+02  0.00000000000E+00 0.  1.
</event>
<event>
 7    1  0.4971907E-013  0.5052885E+02  0.7816164E-02  0.1300439E+00
        -11   -1    0    0    0    0  0.00000000000E+00  0.00000000000E+00  0.45593999997E+02  0.45594000000E+02  0.51100000000E-03 0.  1.
         11   -1    0    0    0    0 -0.00000000000E+00 -0.00000000000E+00 -0.45593999997E+02  0.45594000000E+02  0.51100000000E-03 0. -1.
    9900012    2    1    2    0    0 -0.14643786304E+02  0.16308639867E+02  0.34245495072E+02  0.50528854112E+02  0.29999982558E+02 0.  0.
         12    1    1    2    0    0  0.14643786304E+02 -0.16308639867E+02 -0.34245495072E+02  0.40659145888E+02  0.00000000000E+00 0. -1.
         11    1    3    3    0    0 -0.88242226137E+00  0.66824398565E+01 -0.62653307449E+00  0.67695062921E+01  0.51100000000E-03 0. -1.
        -11    1    3    3    0    0 -0.57092096311E+01  0.12917396912E+02  0.31331945028E+02  0.34367790111E+02  0.51100000000E-03 0.  1.
         12    1    3    3    0    0 -0.80521544117E+01 -0.32911969018E+01  0.35400831187E+01  0.93915577092E+01  0.00000000000E+00 0. -1.
</event>
<event>
 7    1  0.4971907E-013  0.5052885E+02  0.7816164E-02  0.1300439E+00
        -11   -1    0    0    0    0  0.00000000000E+00  0.00000000000E+00  0.45593999997E+02  0.45594000000E+02  0.51100000000E-03 0.  1.
         11   -1    0    0    0    0 -0.00000000000E+00 -0.00000000000E+00 -0.45593999997E+02  0.45594000000E+02  0.51100000000E-03 0. -1.
    9900012    2    1    2    0    0 -0.18801002259E+02 -0.35649178542E+02 -0.53689150343E+01  0.50528845246E+02  0.29999955609E+02 0.  0.
         12    1    1    2    0    0  0.18801002259E+02  0.35649178542E+02  0.53689150343E+01  0.40659154754E+02  0.00000000000E+00 0. -1.
         11    1    3    3    0    0 -0.38142275093E+01 -0.47321178349E+01 -0.73436274881E+01  0.95325828421E+01  0.51100000000E-03 0. -1.
        -11    1    3    3    0    0 -0.37592895698E+01 -0.26329424868E+02 -0.49159126743E+01  0.27046941964E+02  0.51100000000E-03 0.  1.
        -12    1    3    3    0    0 -0.11227485180E+02 -0.45876358396E+01  0.68906251281E+01  0.13949320439E+02  0.00000000000E+00 0.  1.
</event>
<event>
 7    1  0.4971907E-013  0.5052887E+02  0.7816164E-02  0.1300439E+00
        -11   -1    0    0    0    0  0.00000000000E+00  0.00000000000E+00  0.45593999997E+02  0.45594000000E+02  0.51100000000E-03 0. -1.
         11   -1    0    0    0    0 -0.00000000000E+00 -0.00000000000E+00 -0.45593999997E+02  0.45594000000E+02  0.51100000000E-03 0.  1.
    9900012    2    1    2    0    0  0.20550119894E+02  0.29592480022E+02  0.18845228852E+02  0.50528868774E+02  0.30000027126E+02 0.  0.
         12    1    1    2    0    0 -0.20550119894E+02 -0.29592480022E+02 -0.18845228852E+02  0.40659131226E+02  0.00000000000E+00 0. -1.
         11    1    3    3    0    0  0.13287364281E+02  0.52464290826E+01  0.12904068443E+02  0.19250819471E+02  0.51100000000E-03 0. -1.
        -11    1    3    3    0    0  0.10796981968E+02  0.20149426851E+02  0.94817157495E+01  0.24748275816E+02  0.51100000000E-03 0.  1.
         12    1    3    3    0    0 -0.35342263552E+01  0.41966240885E+01 -0.35405553405E+01  0.65297734868E+01  0.00000000000E+00 0. -1.
</event>
<event>
 7    1  0.4971907E-013  0.5052885E+02  0.7816164E-02  0.1300439E+00
        -11   -1    0    0    0    0  0.00000000000E+00  0.00000000000E+00  0.45593999997E+02  0.45594000000E+02  0.51100000000E-03 0. -1.
         11   -1    0    0    0    0 -0.00000000000E+00 -0.00000000000E+00 -0.45593999997E+02  0.45594000000E+02  0.51100000000E-03 0.  1.
    9900012    2    1    2    0    0  0.20857254156E+02  0.30509998349E+02 -0.16949368414E+02  0.50528854168E+02  0.29999982729E+02 0.  0.
         12    1    1    2    0    0 -0.20857254156E+02 -0.30509998349E+02  0.16949368414E+02  0.40659145832E+02  0.00000000000E+00 0. -1.
         11    1    3    3    0    0  0.14122869766E+02  0.14838616023E+02 -0.84900904304E+00  0.20502702079E+02  0.51100000000E-03 0. -1.
        -11    1    3    3    0    0  0.11554437496E+02  0.32254134868E+01 -0.74483060977E+01  0.14120395957E+02  0.51100000000E-03 0.  1.
        -12    1    3    3    0    0 -0.48200531061E+01  0.12445968839E+02 -0.86520532735E+01  0.15905756132E+02  0.00000000000E+00 0.  1.
</event>
<event>
 7    1  0.4971907E-013  0.5052886E+02  0.7816164E-02  0.1300439E+00
        -11   -1    0    0    0    0  0.00000000000E+00  0.00000000000E+00  0.45593999997E+02  0.45594000000E+02  0.51100000000E-03 0. -1.
         11   -1    0    0    0    0 -0.00000000000E+00 -0.00000000000E+00 -0.45593999997E+02  0.45594000000E+02  0.51100000000E-03 0.  1.
    9900012    2    1    2    0    0 -0.11331345168E+02  0.16355596892E+02 -0.35457877922E+02  0.50528855399E+02  0.29999986470E+02 0.  0.
         12    1    1    2    0    0  0.11331345168E+02 -0.16355596892E+02  0.35457877922E+02  0.40659144601E+02  0.00000000000E+00 0. -1.
         11    1    3    3    0    0 -0.41476904206E+01  0.78356585873E+00 -0.79850508004E+01  0.90320732850E+01  0.51100000000E-03 0. -1.
        -11    1    3    3    0    0 -0.53407513734E+01  0.22375374740E+02 -0.25130171713E+02  0.34069143673E+02  0.51100000000E-03 0.  1.
         12    1    3    3    0    0 -0.18429033738E+01 -0.68033437076E+01 -0.23426554083E+01  0.74276384410E+01  0.00000000000E+00 0. -1.
</event>
<event>
 7    1  0.4971907E-013  0.5052885E+02  0.7816164E-02  0.1300439E+00
        -11   -1    0    0    0    0  0.00000000000E+00  0.00000000000E+00  0.45593999997E+02  0.45594000000E+02  0.51100000000E-03 0. -1.
         11   -1    0    0    0    0 -0.00000000000E+00 -0.00000000000E+00 -0.45593999997E+02  0.45594000000E+02  0.51100000000E-03 0.  1.
    9900012    2    1    2    0    0  0.17737999395E+02  0.31823981837E+02 -0.18048928007E+02  0.50528852878E+02  0.29999978808E+02 0.  0.
         12    1    1    2    0    0 -0.17737999395E+02 -0.31823981837E+02  0.18048928007E+02  0.40659147122E+02  0.00000000000E+00 0. -1.
         11    1    3    3    0    0 -0.42252974808E+01  0.92586235464E+01  0.70194937203E+00  0.10201371572E+02  0.51100000000E-03 0. -1.
        -11    1    3    3    0    0  0.12058818139E+02  0.65011846626E+01  0.34291554147E-01  0.13699696095E+02  0.51100000000E-03 0.  1.
        -12    1    3    3    0    0  0.99044787375E+01  0.16064173628E+02 -0.18785168933E+02  0.26627785211E+02  0.00000000000E+00 0.  1.
</event>
<event>
 7    1  0.4971907E-013  0.5052886E+02  0.7816164E-02  0.1300439E+00
        -11   -1    0    0    0    0  0.00000000000E+00  0.00000000000E+00  0.45593999997E+02  0.45594000000E+02  0.51100000000E-03 0. -1.
         11   -1    0    0    0    0 -0.00000000000E+00 -0.00000000000E+00 -0.45593999997E+02  0.45594000000E+02  0.51100000000E-03 0.  1.
    9900012    2    1    2    0    0 -0.31583966343E+02 -0.73938273834E+01 -0.24514290697E+02  0.50528855128E+02  0.29999985648E+02 0.  0.
         12    1    1    2    0    0  0.31583966343E+02  0.73938273834E+01  0.24514290697E+02  0.40659144872E+02  0.00000000000E+00 0. -1.
         11    1    3    3    0    0 -0.13549221612E+02  0.77753682353E+01 -0.32721701259E+01  0.15960728526E+02  0.51100000000E-03 0. -1.
        -11    1    3    3    0    0  0.96527724642E+00  0.15858750770E-01 -0.55262947816E+01  0.56099862689E+01  0.51100000000E-03 0.  1.
        -12    1    3    3    0    0 -0.19000021978E+02 -0.15185054369E+02 -0.15715825789E+02  0.28958140334E+02  0.00000000000E+00 0.  1.
</event>
<event>
 7    1  0.4971907E-013  0.5052880E+02  0.7816164E-02  0.1300439E+00
        -11   -1    0    0    0    0  0.00000000000E+00  0.00000000000E+00  0.45593999997E+02  0.45594000000E+02  0.51100000000E-03 0.  1.
         11   -1    0    0    0    0 -0.00000000000E+00 -0.00000000000E+00 -0.45593999997E+02  0.45594000000E+02  0.51100000000E-03 0. -1.
    9900012    2    1    2    0    0 -0.67913980211E+01  0.17490963983E+02  0.36070953777E+02  0.50528799140E+02  0.29999815466E+02 0.  0.
         12    1    1    2    0    0  0.67913980211E+01 -0.17490963983E+02 -0.36070953777E+02  0.40659200860E+02  0.00000000000E+00 0. -1.
         11    1    3    3    0    0 -0.13313344108E+01  0.63366583587E+01 -0.36561394207E+00  0.64853191351E+01  0.51100000000E-03 0. -1.
        -11    1    3    3    0    0  0.68121671733E+01 -0.12270351316E+01  0.70831778447E+01  0.99036682826E+01  0.51100000000E-03 0.  1.
        -12    1    3    3    0    0 -0.12272230784E+02  0.12381340756E+02  0.29353389875E+02  0.34139811723E+02  0.00000000000E+00 0.  1.
</event>
<event>
 7    1  0.4971907E-013  0.5052883E+02  0.7816164E-02  0.1300439E+00
        -11   -1    0    0    0    0  0.00000000000E+00  0.00000000000E+00  0.45593999997E+02  0.45594000000E+02  0.51100000000E-03 0.  1.
         11   -1    0    0    0    0 -0.00000000000E+00 -0.00000000000E+00 -0.45593999997E+02  0.45594000000E+02  0.51100000000E-03 0. -1.
    9900012    2    1    2    0    0  0.17812433165E+02  0.36035362999E+02  0.61104587462E+01  0.50528832917E+02  0.29999918136E+02 0.  0.
         12    1    1    2    0    0 -0.17812433165E+02 -0.36035362999E+02 -0.61104587462E+01  0.40659167083E+02  0.00000000000E+00 0. -1.
         11    1    3    3    0    0  0.87209742246E+01  0.12952974924E+02  0.10839028869E+02  0.19008405980E+02  0.51100000000E-03 0.  1.
        -11    1    3    3    0    0  0.11731581407E+02  0.68026852313E+01 -0.63003792088E+01  0.14953304220E+02  0.51100000000E-03 0. -1.
         12    1    3    3    0    0 -0.26401224666E+01  0.16279702844E+02  0.15718090860E+01  0.16567122717E+02  0.00000000000E+00 0. -1.
</event>
<event>
 7    1  0.4971907E-013  0.5052886E+02  0.7816164E-02  0.1300439E+00
        -11   -1    0    0    0    0  0.00000000000E+00  0.00000000000E+00  0.45593999997E+02  0.45594000000E+02  0.51100000000E-03 0.  1.
         11   -1    0    0    0    0 -0.00000000000E+00 -0.00000000000E+00 -0.45593999997E+02  0.45594000000E+02  0.51100000000E-03 0. -1.
    9900012    2    1    2    0    0 -0.20257686932E+02 -0.32293962673E+02  0.14138308459E+02  0.50528859932E+02  0.30000000250E+02 0.  0.
         12    1    1    2    0    0  0.20257686932E+02  0.32293962673E+02 -0.14138308459E+02  0.40659140068E+02  0.00000000000E+00 0. -1.
         11    1    3    3    0    0 -0.20507693435E+01 -0.23993614971E+02  0.25744883007E+01  0.24218323735E+02  0.51100000000E-03 0.  1.
        -11    1    3    3    0    0 -0.51532846587E+01 -0.88629884340E+01  0.72284499826E+01  0.12544297356E+02  0.51100000000E-03 0. -1.
         12    1    3    3    0    0 -0.13053632929E+02  0.56264073168E+00  0.43353701755E+01  0.13766238840E+02  0.00000000000E+00 0. -1.
</event>
<event>
 7    1  0.4971907E-013  0.5052887E+02  0.7816164E-02  0.1300439E+00
        -11   -1    0    0    0    0  0.00000000000E+00  0.00000000000E+00  0.45593999997E+02  0.45594000000E+02  0.51100000000E-03 0.  1.
         11   -1    0    0    0    0 -0.00000000000E+00 -0.00000000000E+00 -0.45593999997E+02  0.45594000000E+02  0.51100000000E-03 0. -1.
    9900012    2    1    2    0    0 -0.50863040738E+00  0.40525258533E+02  0.32572027735E+01  0.50528872439E+02  0.30000038266E+02 0.  0.
         12    1    1    2    0    0  0.50863040738E+00 -0.40525258533E+02 -0.32572027735E+01  0.40659127561E+02  0.00000000000E+00 0. -1.
         11    1    3    3    0    0 -0.73965916538E+01  0.18145443986E+02 -0.94166676698E+01  0.21740292910E+02  0.51100000000E-03 0. -1.
        -11    1    3    3    0    0  0.14588829266E+00  0.85189075633E+01  0.10012299106E+02  0.13146832436E+02  0.51100000000E-03 0.  1.
        -12    1    3    3    0    0  0.67420729537E+01  0.13860906984E+02  0.26615713377E+01  0.15641747093E+02  0.00000000000E+00 0.  1.
</event>
<event>
 7    1  0.4971907E-013  0.5052886E+02  0.7816164E-02  0.1300439E+00
        -11   -1    0    0    0    0  0.00000000000E+00  0.00000000000E+00  0.45593999997E+02  0.45594000000E+02  0.51100000000E-03 0. -1.
         11   -1    0    0    0    0 -0.00000000000E+00 -0.00000000000E+00 -0.45593999997E+02  0.45594000000E+02  0.51100000000E-03 0.  1.
    9900012    2    1    2    0    0 -0.31737774771E+02 -0.16838969828E+01 -0.25358315308E+02  0.50528855743E+02  0.29999987518E+02 0.  0.
         12    1    1    2    0    0  0.31737774771E+02  0.16838969828E+01  0.25358315308E+02  0.40659144257E+02  0.00000000000E+00 0. -1.
         11    1    3    3    0    0 -0.26139466471E+02 -0.10941713727E+01 -0.21881500108E+02  0.34106729037E+02  0.51100000000E-03 0.  1.
        -11    1    3    3    0    0 -0.65602796718E+01 -0.14049232966E+01  0.46725389991E+01  0.81757996429E+01  0.51100000000E-03 0. -1.
        -12    1    3    3    0    0  0.96197137181E+00  0.81519768646E+00 -0.81493541983E+01  0.82463270634E+01  0.00000000000E+00 0.  1.
</event>
<event>
 7    1  0.4971907E-013  0.5052886E+02  0.7816164E-02  0.1300439E+00
        -11   -1    0    0    0    0  0.00000000000E+00  0.00000000000E+00  0.45593999997E+02  0.45594000000E+02  0.51100000000E-03 0. -1.
         11   -1    0    0    0    0 -0.00000000000E+00 -0.00000000000E+00 -0.45593999997E+02  0.45594000000E+02  0.51100000000E-03 0.  1.
    9900012    2    1    2    0    0 -0.22238719442E+02  0.32596706337E+02 -0.98010058450E+01  0.50528860535E+02  0.30000002083E+02 0.  0.
         12    1    1    2    0    0  0.22238719442E+02 -0.32596706337E+02  0.98010058450E+01  0.40659139465E+02  0.00000000000E+00 0. -1.
         11    1    3    3    0    0 -0.14949617509E+02  0.15624126422E+02 -0.79045872188E+01  0.23023615908E+02  0.51100000000E-03 0. -1.
        -11    1    3    3    0    0 -0.47540699282E+01  0.30182519891E+01 -0.97750779847E+01  0.11281098165E+02  0.51100000000E-03 0.  1.
         12    1    3    3    0    0 -0.25350320055E+01  0.13954327926E+02  0.78786593585E+01  0.16224146462E+02  0.00000000000E+00 0. -1.
</event>
<event>
 7    1  0.4971907E-013  0.5052877E+02  0.7816164E-02  0.1300439E+00
        -11   -1    0    0    0    0  0.00000000000E+00  0.00000000000E+00  0.45593999997E+02  0.45594000000E+02  0.51100000000E-03 0. -1.
         11   -1    0    0    0    0 -0.00000000000E+00 -0.00000000000E+00 -0.45593999997E+02  0.45594000000E+02  0.51100000000E-03 0.  1.
    9900012    2    1    2    0    0 -0.40348403513E+02 -0.11760483017E+01  0.48781070135E+01  0.50528773695E+02  0.29999738123E+02 0.  0.
         12    1    1    2    0    0  0.40348403513E+02  0.11760483017E+01 -0.48781070135E+01  0.40659226305E+02  0.00000000000E+00 0. -1.
         11    1    3    3    0    0 -0.27793395196E+02 -0.62853356293E+01  0.76361347361E+01  0.29500657865E+02  0.51100000000E-03 0. -1.
        -11    1    3    3    0    0 -0.37106839630E+01 -0.57433911244E+01 -0.62265933534E+00  0.68661067564E+01  0.51100000000E-03 0.  1.
        -12    1    3    3    0    0 -0.88443243538E+01  0.10852678452E+02 -0.21353683873E+01  0.14162009074E+02  0.00000000000E+00 0.  1.
</event>
<event>
 7    1  0.4971907E-013  0.5052886E+02  0.7816164E-02  0.1300439E+00
        -11   -1    0    0    0    0  0.00000000000E+00  0.00000000000E+00  0.45593999997E+02  0.45594000000E+02  0.51100000000E-03 0.  1.
         11   -1    0    0    0    0 -0.00000000000E+00 -0.00000000000E+00 -0.45593999997E+02  0.45594000000E+02  0.51100000000E-03 0. -1.
    9900012    2    1    2    0    0 -0.12558059606E+02  0.19782496424E+02  0.33228203189E+02  0.50528861876E+02  0.30000006158E+02 0.  0.
         12    1    1    2    0    0  0.12558059606E+02 -0.19782496424E+02 -0.33228203189E+02  0.40659138124E+02  0.00000000000E+00 0. -1.
         11    1    3    3    0    0 -0.86619736287E+01  0.11585939933E+02  0.90225720253E+01  0.17049064417E+02  0.51100000000E-03 0.  1.
        -11    1    3    3    0    0 -0.21744282401E+01  0.54917584017E-01 -0.37372248751E+01  0.43241188860E+01  0.51100000000E-03 0. -1.
         12    1    3    3    0    0 -0.17216577369E+01  0.81416389071E+01  0.27942856039E+02  0.29155678573E+02  0.00000000000E+00 0. -1.
</event>
<event>
 7    1  0.4971907E-013  0.5052887E+02  0.7816164E-02  0.1300439E+00
        -11   -1    0    0    0    0  0.00000000000E+00  0.00000000000E+00  0.45593999997E+02  0.45594000000E+02  0.51100000000E-03 0.  1.
         11   -1    0    0    0    0 -0.00000000000E+00 -0.00000000000E+00 -0.45593999997E+02  0.45594000000E+02  0.51100000000E-03 0. -1.
    9900012    2    1    2    0    0 -0.40579488467E+02 -0.16073010513E+01 -0.19715278310E+01  0.50528865443E+02  0.30000017000E+02 0.  0.
         12    1    1    2    0    0  0.40579488467E+02  0.16073010513E+01  0.19715278310E+01  0.40659134557E+02  0.00000000000E+00 0. -1.
         11    1    3    3    0    0 -0.21363401497E+02  0.27678373873E+01  0.30939855498E+01  0.21763009769E+02  0.51100000000E-03 0.  1.
        -11    1    3    3    0    0 -0.71743377706E+01 -0.12054670585E+02 -0.28102196961E+01  0.14306765545E+02  0.51100000000E-03 0. -1.
         12    1    3    3    0    0 -0.12041749199E+02  0.76795321464E+01 -0.22552936848E+01  0.14459090129E+02  0.00000000000E+00 0. -1.
</event>
<event>
 7    1  0.4971907E-013  0.5052886E+02  0.7816164E-02  0.1300439E+00
        -11   -1    0    0    0    0  0.00000000000E+00  0.00000000000E+00  0.45593999997E+02  0.45594000000E+02  0.51100000000E-03 0.  1.
         11   -1    0    0    0    0 -0.00000000000E+00 -0.00000000000E+00 -0.45593999997E+02  0.45594000000E+02  0.51100000000E-03 0. -1.
    9900012    2    1    2    0    0 -0.39004089524E+02 -0.64174726921E+01  0.95217178414E+01  0.50528855075E+02  0.29999985486E+02 0.  0.
         12    1    1    2    0    0  0.39004089524E+02  0.64174726921E+01 -0.95217178414E+01  0.40659144925E+02  0.00000000000E+00 0. -1.
         11    1    3    3    0    0 -0.65634162073E+01 -0.19191709219E+01  0.89548790409E+01  0.11267275990E+02  0.51100000000E-03 0. -1.
        -11    1    3    3    0    0 -0.13145028379E+02  0.31915133252E+01  0.96241513973E+01  0.16601259553E+02  0.51100000000E-03 0.  1.
        -12    1    3    3    0    0 -0.19295644938E+02 -0.76898150954E+01 -0.90573125968E+01  0.22660319531E+02  0.00000000000E+00 0.  1.
</event>
<event>
 7    1  0.4971907E-013  0.5052886E+02  0.7816164E-02  0.1300439E+00
        -11   -1    0    0    0    0  0.00000000000E+00  0.00000000000E+00  0.45593999997E+02  0.45594000000E+02  0.51100000000E-03 0. -1.
         11   -1    0    0    0    0 -0.00000000000E+00 -0.00000000000E+00 -0.45593999997E+02  0.45594000000E+02  0.51100000000E-03 0.  1.
    9900012    2    1    2    0    0 -0.28370065488E+02  0.16949623777E+01 -0.29076319645E+02  0.50528857396E+02  0.29999992540E+02 0.  0.
         12    1    1    2    0    0  0.28370065488E+02 -0.16949623777E+01  0.29076319645E+02  0.40659142604E+02  0.00000000000E+00 0. -1.
         11    1    3    3    0    0  0.24521745988E+01 -0.49036076897E+01 -0.22210319113E+00  0.54870628505E+01  0.51100000000E-03 0. -1.
        -11    1    3    3    0    0 -0.91617015428E+01 -0.14964092514E+01 -0.18071500676E+01  0.94573678915E+01  0.51100000000E-03 0.  1.
         12    1    3    3    0    0 -0.21660538544E+02  0.80949793188E+01 -0.27047066386E+02  0.35584426654E+02  0.00000000000E+00 0. -1.
</event>
<event>
 7    1  0.4971907E-013  0.5052886E+02  0.7816164E-02  0.1300439E+00
        -11   -1    0    0    0    0  0.00000000000E+00  0.00000000000E+00  0.45593999997E+02  0.45594000000E+02  0.51100000000E-03 0. -1.
         11   -1    0    0    0    0 -0.00000000000E+00 -0.00000000000E+00 -0.45593999997E+02  0.45594000000E+02  0.51100000000E-03 0.  1.
    9900012    2    1    2    0    0  0.18798685257E+02 -0.21250358254E+02 -0.29123833317E+02  0.50528856374E+02  0.29999989434E+02 0.  0.
         12    1    1    2    0    0 -0.18798685257E+02  0.21250358254E+02  0.29123833317E+02  0.40659143626E+02  0.00000000000E+00 0. -1.
         11    1    3    3    0    0  0.10524645242E+02 -0.31054682517E+00 -0.17219522969E+02  0.20183571744E+02  0.51100000000E-03 0. -1.
        -11    1    3    3    0    0 -0.17418427289E+01 -0.84086890997E+01 -0.11429884005E+02  0.14296234368E+02  0.51100000000E-03 0.  1.
        -12    1    3    3    0    0  0.10015882744E+02 -0.12531122329E+02 -0.47442634303E+00  0.16049050262E+02  0.00000000000E+00 0.  1.
</event>
<event>
 7    1  0.4971907E-013  0.5052888E+02  0.7816164E-02  0.1300439E+00
        -11   -1    0    0    0    0  0.00000000000E+00  0.00000000000E+00  0.45593999997E+02  0.45594000000E+02  0.51100000000E-03 0.  1.
         11   -1    0    0    0    0 -0.00000000000E+00 -0.00000000000E+00 -0.45593999997E+02  0.45594000000E+02  0.51100000000E-03 0. -1.
    9900012    2    1    2    0    0  0.28441734672E+02  0.19237453521E+02 -0.21775039362E+02  0.50528877674E+02  0.30000054178E+02 0.  0.
         12    1    1    2    0    0 -0.28441734672E+02 -0.19237453521E+02  0.21775039362E+02  0.40659122326E+02  0.00000000000E+00 0. -1.
         11    1    3    3    0    0  0.85761944073E+01 -0.21360862496E+01 -0.10730292946E+02  0.13901552501E+02  0.51100000000E-03 0. -1.
        -11    1    3    3    0    0  0.18410270076E+02  0.69291882387E+01 -0.10013931758E+02  0.22073298880E+02  0.51100000000E-03 0.  1.
         12    1    3    3    0    0  0.14552701887E+01  0.14444351532E+02 -0.10308146580E+01  0.14554026293E+02  0.00000000000E+00 0. -1.
</event>
<event>
 7    1  0.4971907E-013  0.5052885E+02  0.7816164E-02  0.1300439E+00
        -11   -1    0    0    0    0  0.00000000000E+00  0.00000000000E+00  0.45593999997E+02  0.45594000000E+02  0.51100000000E-03 0. -1.
         11   -1    0    0    0    0 -0.00000000000E+00 -0.00000000000E+00 -0.45593999997E+02  0.45594000000E+02  0.51100000000E-03 0.  1.
    9900012    2    1    2    0    0  0.10258756695E+02  0.35102362249E+02 -0.17769303713E+02  0.50528854917E+02  0.29999985007E+02 0.  0.
         12    1    1    2    0    0 -0.10258756695E+02 -0.35102362249E+02  0.17769303713E+02  0.40659145083E+02  0.00000000000E+00 0. -1.
         11    1    3    3    0    0 -0.34508804860E+01  0.17525430326E+02 -0.12366267663E+02  0.21724959389E+02  0.51100000000E-03 0. -1.
        -11    1    3    3    0    0  0.14904112536E+00  0.39766595499E+01  0.54466342906E+01  0.67455066370E+01  0.51100000000E-03 0.  1.
        -12    1    3    3    0    0  0.13560596056E+02  0.13600272373E+02 -0.10849670340E+02  0.22058388892E+02  0.00000000000E+00 0.  1.
</event>
<event>
 7    1  0.4971907E-013  0.5052884E+02  0.7816164E-02  0.1300439E+00
        -11   -1    0    0    0    0  0.00000000000E+00  0.00000000000E+00  0.45593999997E+02  0.45594000000E+02  0.51100000000E-03 0. -1.
         11   -1    0    0    0    0 -0.00000000000E+00 -0.00000000000E+00 -0.45593999997E+02  0.45594000000E+02  0.51100000000E-03 0.  1.
    9900012    2    1    2    0    0  0.37208485843E+02 -0.13846203905E+02 -0.87737287439E+01  0.50528842392E+02  0.29999946936E+02 0.  0.
         12    1    1    2    0    0 -0.37208485843E+02  0.13846203905E+02  0.87737287439E+01  0.40659157608E+02  0.00000000000E+00 0. -1.
         11    1    3    3    0    0  0.14233173032E+02  0.49453072420E+01 -0.12442474970E+01  0.15119108121E+02  0.51100000000E-03 0. -1.
        -11    1    3    3    0    0  0.11912748192E+02  0.77213372835E+00 -0.43772406323E+01  0.12714951663E+02  0.51100000000E-03 0.  1.
         12    1    3    3    0    0  0.11062564618E+02 -0.19563644875E+02 -0.31522406146E+01  0.22694782608E+02  0.00000000000E+00 0. -1.
</event>
<event>
 7    1  0.4971907E-013  0.5052882E+02  0.7816164E-02  0.1300439E+00
        -11   -1    0    0    0    0  0.00000000000E+00  0.00000000000E+00  0.45593999997E+02  0.45594000000E+02  0.51100000000E-03 0.  1.
         11   -1    0    0    0    0 -0.00000000000E+00 -0.00000000000E+00 -0.45593999997E+02  0.45594000000E+02  0.51100000000E-03 0. -1.
    9900012    2    1    2    0    0 -0.30287363850E+01 -0.38642044961E+02  0.12279586484E+02  0.50528817433E+02  0.29999871068E+02 0.  0.
         12    1    1    2    0    0  0.30287363850E+01  0.38642044961E+02 -0.12279586484E+02  0.40659182567E+02  0.00000000000E+00 0. -1.
         11    1    3    3    0    0  0.65828483669E+01 -0.50678336474E+01  0.73789596457E+01  0.11111519978E+02  0.51100000000E-03 0.  1.
        -11    1    3    3    0    0 -0.30448472022E+01 -0.12690048463E+02  0.10580252708E+02  0.16800302739E+02  0.51100000000E-03 0. -1.
         12    1    3    3    0    0 -0.65667375497E+01 -0.20884162850E+02 -0.56796258700E+01  0.22616994717E+02  0.00000000000E+00 0. -1.
</event>
<event>
 7    1  0.4971907E-013  0.5052886E+02  0.7816164E-02  0.1300439E+00
        -11   -1    0    0    0    0  0.00000000000E+00  0.00000000000E+00  0.45593999997E+02  0.45594000000E+02  0.51100000000E-03 0.  1.
         11   -1    0    0    0    0 -0.00000000000E+00 -0.00000000000E+00 -0.45593999997E+02  0.45594000000E+02  0.51100000000E-03 0. -1.
    9900012    2    1    2    0    0 -0.34701908605E+02 -0.12679479331E+02  0.16975691767E+02  0.50528858742E+02  0.29999996631E+02 0.  0.
         12    1    1    2    0    0  0.34701908605E+02  0.12679479331E+02 -0.16975691767E+02  0.40659141258E+02  0.00000000000E+00 0. -1.
         11    1    3    3    0    0  0.25744747810E+01 -0.22525389737E+01 -0.96605231396E+00  0.35545899286E+01  0.51100000000E-03 0. -1.
        -11    1    3    3    0    0 -0.14685946858E+02  0.53481258293E+01  0.41974717533E+01  0.16183270819E+02  0.51100000000E-03 0.  1.
         12    1    3    3    0    0 -0.22590436527E+02 -0.15775066187E+02  0.13744272327E+02  0.30790997995E+02  0.00000000000E+00 0. -1.
</event>
<event>
 7    1  0.4971907E-013  0.5052887E+02  0.7816164E-02  0.1300439E+00
        -11   -1    0    0    0    0  0.00000000000E+00  0.00000000000E+00  0.45593999997E+02  0.45594000000E+02  0.51100000000E-03 0.  1.
         11   -1    0    0    0    0 -0.00000000000E+00 -0.00000000000E+00 -0.45593999997E+02  0.45594000000E+02  0.51100000000E-03 0. -1.
    9900012    2    1    2    0    0  0.69464662635E+01  0.30887028162E+02  0.25512801181E+02  0.50528869091E+02  0.30000028088E+02 0.  0.
         12    1    1    2    0    0 -0.69464662635E+01 -0.30887028162E+02 -0.25512801181E+02  0.40659130909E+02  0.00000000000E+00 0. -1.
         11    1    3    3    0    0  0.13234868635E+02  0.95166922044E+01  0.20074221398E+02  0.25859302838E+02  0.51100000000E-03 0.  1.
        -11    1    3    3    0    0  0.21838768878E+01  0.53434009228E+01  0.10746357596E+00  0.57734565353E+01  0.51100000000E-03 0. -1.
        -12    1    3    3    0    0 -0.84722792590E+01  0.16026935034E+02  0.53311162070E+01  0.18896109717E+02  0.00000000000E+00 0.  1.
</event>
<event>
 7    1  0.4971907E-013  0.5052873E+02  0.7816164E-02  0.1300439E+00
        -11   -1    0    0    0    0  0.00000000000E+00  0.00000000000E+00  0.45593999997E+02  0.45594000000E+02  0.51100000000E-03 0. -1.
         11   -1    0    0    0    0 -0.00000000000E+00 -0.00000000000E+00 -0.45593999997E+02  0.45594000000E+02  0.51100000000E-03 0.  1.
    9900012    2    1    2    0    0  0.22095209743E+02  0.44347104082E+01 -0.33842446275E+02  0.50528731440E+02  0.29999609682E+02 0.  0.
         12    1    1    2    0    0 -0.22095209743E+02 -0.44347104082E+01  0.33842446275E+02  0.40659268560E+02  0.00000000000E+00 0. -1.
         11    1    3    3    0    0  0.76109540891E+01  0.64288774766E+01 -0.18456734578E+01  0.10132304700E+02  0.51100000000E-03 0. -1.
        -11    1    3    3    0    0  0.12986962268E+02 -0.80362892599E+01 -0.11910155951E+02  0.19367368150E+02  0.51100000000E-03 0.  1.
        -12    1    3    3    0    0  0.14972933860E+01  0.60421221915E+01 -0.20086616866E+02  0.21029058590E+02  0.00000000000E+00 0.  1.
</event>
<event>
 7    1  0.4971907E-013  0.5052885E+02  0.7816164E-02  0.1300439E+00
        -11   -1    0    0    0    0  0.00000000000E+00  0.00000000000E+00  0.45593999997E+02  0.45594000000E+02  0.51100000000E-03 0.  1.
         11   -1    0    0    0    0 -0.00000000000E+00 -0.00000000000E+00 -0.45593999997E+02  0.45594000000E+02  0.51100000000E-03 0. -1.
    9900012    2    1    2    0    0  0.24606040832E+02  0.28304724484E+00  0.32367095024E+02  0.50528853409E+02  0.29999980422E+02 0.  0.
         12    1    1    2    0    0 -0.24606040832E+02 -0.28304724484E+00 -0.32367095024E+02  0.40659146591E+02  0.00000000000E+00 0. -1.
         11    1    3    3    0    0  0.16801106562E+02 -0.75140231820E+01  0.92827482461E+01  0.20613275852E+02  0.51100000000E-03 0. -1.
        -11    1    3    3    0    0  0.15229995639E+01 -0.41372668921E+01  0.10830380867E+02  0.11693316680E+02  0.51100000000E-03 0.  1.
        -12    1    3    3    0    0  0.62819347060E+01  0.11934337319E+02  0.12253965912E+02  0.18222260877E+02  0.00000000000E+00 0.  1.
</event>
<event>
 7    1  0.4971907E-013  0.5052886E+02  0.7816164E-02  0.1300439E+00
        -11   -1    0    0    0    0  0.00000000000E+00  0.00000000000E+00  0.45593999997E+02  0.45594000000E+02  0.51100000000E-03 0.  1.
         11   -1    0    0    0    0 -0.00000000000E+00 -0.00000000000E+00 -0.45593999997E+02  0.45594000000E+02  0.51100000000E-03 0. -1.
    9900012    2    1    2    0    0 -0.52519063963E+01  0.19974809430E+02  0.35022708529E+02  0.50528860250E+02  0.30000001215E+02 0.  0.
         12    1    1    2    0    0  0.52519063963E+01 -0.19974809430E+02 -0.35022708529E+02  0.40659139750E+02  0.00000000000E+00 0. -1.
         11    1    3    3    0    0  0.10124199872E+01  0.12490446850E+02  0.10847286494E+02  0.16574072561E+02  0.51100000000E-03 0. -1.
        -11    1    3    3    0    0  0.12474405327E+01  0.13459501095E+02  0.99094980220E+01  0.16760442385E+02  0.51100000000E-03 0.  1.
        -12    1    3    3    0    0 -0.75117669163E+01 -0.59751385148E+01  0.14265924013E+02  0.17194345304E+02  0.00000000000E+00 0.  1.
</event>
<event>
 7    1  0.4971907E-013  0.5052885E+02  0.7816164E-02  0.1300439E+00
        -11   -1    0    0    0    0  0.00000000000E+00  0.00000000000E+00  0.45593999997E+02  0.45594000000E+02  0.51100000000E-03 0.  1.
         11   -1    0    0    0    0 -0.00000000000E+00 -0.00000000000E+00 -0.45593999997E+02  0.45594000000E+02  0.51100000000E-03 0. -1.
    9900012    2    1    2    0    0 -0.68610153805E+01  0.11627240453E+02  0.38352312416E+02  0.50528854408E+02  0.29999983459E+02 0.  0.
         12    1    1    2    0    0  0.68610153805E+01 -0.11627240453E+02 -0.38352312416E+02  0.40659145592E+02  0.00000000000E+00 0. -1.
         11    1    3    3    0    0  0.49638681307E+01  0.42219357307E+01  0.17604718376E+02  0.18772076004E+02  0.51100000000E-03 0. -1.
        -11    1    3    3    0    0 -0.13363978044E+02  0.56480599285E+01  0.23823958929E+02  0.27894040751E+02  0.51100000000E-03 0.  1.
         12    1    3    3    0    0  0.15390945329E+01  0.17572447941E+01 -0.30763648889E+01  0.38627376532E+01  0.00000000000E+00 0. -1.
</event>
<event>
 7    1  0.4971907E-013  0.5052885E+02  0.7816164E-02  0.1300439E+00
        -11   -1    0    0    0    0  0.00000000000E+00  0.00000000000E+00  0.45593999997E+02  0.45594000000E+02  0.51100000000E-03 0.  1.
         11   -1    0    0    0    0 -0.00000000000E+00 -0.00000000000E+00 -0.45593999997E+02  0.45594000000E+02  0.51100000000E-03 0. -1.
    9900012    2    1    2    0    0  0.17612161403E+01  0.13535866683E+02  0.38299414792E+02  0.50528846755E+02  0.29999960197E+02 0.  0.
         12    1    1    2    0    0 -0.17612161403E+01 -0.13535866683E+02 -0.38299414792E+02  0.40659153245E+02  0.00000000000E+00 0. -1.
         11    1    3    3    0    0  0.58733157889E+01  0.42900666435E+01 -0.68819270736E+00  0.73057593462E+01  0.51100000000E-03 0. -1.
        -11    1    3    3    0    0 -0.50702545353E+01  0.80470178850E+01  0.86795503802E+01  0.12876201806E+02  0.51100000000E-03 0.  1.
         12    1    3    3    0    0  0.95815488674E+00  0.11987821549E+01  0.30308057119E+02  0.30346885603E+02  0.00000000000E+00 0. -1.
</event>
<event>
 7    1  0.4971907E-013  0.5052885E+02  0.7816164E-02  0.1300439E+00
        -11   -1    0    0    0    0  0.00000000000E+00  0.00000000000E+00  0.45593999997E+02  0.45594000000E+02  0.51100000000E-03 0. -1.
         11   -1    0    0    0    0 -0.00000000000E+00 -0.00000000000E+00 -0.45593999997E+02  0.45594000000E+02  0.51100000000E-03 0.  1.
    9900012    2    1    2    0    0  0.18582435229E+02  0.28679042962E+02  0.22031158663E+02  0.50528851506E+02  0.29999974637E+02 0.  0.
         12    1    1    2    0    0 -0.18582435229E+02 -0.28679042962E+02 -0.22031158663E+02  0.40659148494E+02  0.00000000000E+00 0. -1.
         11    1    3    3    0    0  0.30069854382E+01 -0.32822790730E+00  0.13388507056E+02  0.13725954118E+02  0.51100000000E-03 0. -1.
        -11    1    3    3    0    0  0.75027285186E+01  0.20650730087E+02  0.11554812858E+02  0.24824529981E+02  0.51100000000E-03 0.  1.
        -12    1    3    3    0    0  0.80727212720E+01  0.83565407824E+01 -0.29121612511E+01  0.11978367407E+02  0.00000000000E+00 0.  1.
</event>
<event>
 7    1  0.4971907E-013  0.5052890E+02  0.7816164E-02  0.1300439E+00
        -11   -1    0    0    0    0  0.00000000000E+00  0.00000000000E+00  0.45593999997E+02  0.45594000000E+02  0.51100000000E-03 0.  1.
         11   -1    0    0    0    0 -0.00000000000E+00 -0.00000000000E+00 -0.45593999997E+02  0.45594000000E+02  0.51100000000E-03 0. -1.
    9900012    2    1    2    0    0  0.25303357289E+02  0.20902796769E+02  0.23999494543E+02  0.50528898421E+02  0.30000117241E+02 0.  0.
         12    1    1    2    0    0 -0.25303357289E+02 -0.20902796769E+02 -0.23999494543E+02  0.40659101579E+02  0.00000000000E+00 0. -1.
         11    1    3    3    0    0 -0.12812251475E+01  0.29273746992E+01 -0.19780713477E+01  0.37581680412E+01  0.51100000000E-03 0. -1.
        -11    1    3    3    0    0  0.10185196977E+02  0.19375089280E+02  0.18639512675E+02  0.28750021828E+02  0.51100000000E-03 0.  1.
         12    1    3    3    0    0  0.16399385459E+02 -0.13996672097E+01  0.73380532154E+01  0.18020708552E+02  0.00000000000E+00 0. -1.
</event>
<event>
 7    1  0.4971907E-013  0.5052886E+02  0.7816164E-02  0.1300439E+00
        -11   -1    0    0    0    0  0.00000000000E+00  0.00000000000E+00  0.45593999997E+02  0.45594000000E+02  0.51100000000E-03 0.  1.
         11   -1    0    0    0    0 -0.00000000000E+00 -0.00000000000E+00 -0.45593999997E+02  0.45594000000E+02  0.51100000000E-03 0. -1.
    9900012    2    1    2    0    0  0.76745020264E+00 -0.36808163301E+02  0.17255019945E+02  0.50528861067E+02  0.30000003701E+02 0.  0.
         12    1    1    2    0    0 -0.76745020264E+00  0.36808163301E+02 -0.17255019945E+02  0.40659138933E+02  0.00000000000E+00 0. -1.
         11    1    3    3    0    0  0.38687894867E+01  0.14749849954E+01  0.62473689246E+01  0.74948470011E+01  0.51100000000E-03 0.  1.
        -11    1    3    3    0    0 -0.49415788797E+01 -0.48901763197E+01 -0.18658453039E+01  0.71982223653E+01  0.51100000000E-03 0. -1.
        -12    1    3    3    0    0  0.18402395956E+01 -0.33392971977E+02  0.12873496325E+02  0.35835791701E+02  0.00000000000E+00 0.  1.
</event>
<event>
 7    1  0.4971907E-013  0.5052887E+02  0.7816164E-02  0.1300439E+00
        -11   -1    0    0    0    0  0.00000000000E+00  0.00000000000E+00  0.45593999997E+02  0.45594000000E+02  0.51100000000E-03 0. -1.
         11   -1    0    0    0    0 -0.00000000000E+00 -0.00000000000E+00 -0.45593999997E+02  0.45594000000E+02  0.51100000000E-03 0.  1.
    9900012    2    1    2    0    0 -0.21096839651E+02 -0.30465852486E+02 -0.16730806839E+02  0.50528871770E+02  0.30000036233E+02 0.  0.
         12    1    1    2    0    0  0.21096839651E+02  0.30465852486E+02  0.16730806839E+02  0.40659128230E+02  0.00000000000E+00 0. -1.
         11    1    3    3    0    0 -0.61097023381E+01 -0.66103535686E+00  0.18877937056E+01  0.64287787128E+01  0.51100000000E-03 0. -1.
        -11    1    3    3    0    0 -0.15185467968E+02 -0.20386811626E+02 -0.26481534702E+01  0.25558428017E+02  0.51100000000E-03 0.  1.
         12    1    3    3    0    0  0.19833065513E+00 -0.94180055035E+01 -0.15970447074E+02  0.18541665040E+02  0.00000000000E+00 0. -1.
</event>
<event>
 7    1  0.4971907E-013  0.5052886E+02  0.7816164E-02  0.1300439E+00
        -11   -1    0    0    0    0  0.00000000000E+00  0.00000000000E+00  0.45593999997E+02  0.45594000000E+02  0.51100000000E-03 0.  1.
         11   -1    0    0    0    0 -0.00000000000E+00 -0.00000000000E+00 -0.45593999997E+02  0.45594000000E+02  0.51100000000E-03 0. -1.
    9900012    2    1    2    0    0  0.23599250994E+02 -0.21212076166E+02  0.25422208535E+02  0.50528861918E+02  0.30000006287E+02 0.  0.
         12    1    1    2    0    0 -0.23599250994E+02  0.21212076166E+02 -0.25422208535E+02  0.40659138082E+02  0.00000000000E+00 0. -1.
         11    1    3    3    0    0  0.17757804311E+02 -0.86376088156E+01  0.22234201530E+01  0.19871877049E+02  0.51100000000E-03 0. -1.
        -11    1    3    3    0    0  0.91914935617E+01 -0.13035782474E+02  0.15467305253E+02  0.22218296754E+02  0.51100000000E-03 0.  1.
         12    1    3    3    0    0 -0.33500468789E+01  0.46131512350E+00  0.77314831291E+01  0.84386881155E+01  0.00000000000E+00 0. -1.
</event>
<event>
 7    1  0.4971907E-013  0.5052889E+02  0.7816164E-02  0.1300439E+00
        -11   -1    0    0    0    0  0.00000000000E+00  0.00000000000E+00  0.45593999997E+02  0.45594000000E+02  0.51100000000E-03 0. -1.
         11   -1    0    0    0    0 -0.00000000000E+00 -0.00000000000E+00 -0.45593999997E+02  0.45594000000E+02  0.51100000000E-03 0.  1.
    9900012    2    1    2    0    0  0.15762214400E+02  0.26337175171E+02 -0.26665884490E+02  0.50528885469E+02  0.30000077873E+02 0.  0.
         12    1    1    2    0    0 -0.15762214400E+02 -0.26337175171E+02  0.26665884490E+02  0.40659114531E+02  0.00000000000E+00 0. -1.
         11    1    3    3    0    0  0.50158712708E+01  0.99074371243E+01 -0.31267198714E+00  0.11109187144E+02  0.51100000000E-03 0. -1.
        -11    1    3    3    0    0  0.14361163373E+02  0.39158522525E+01 -0.79562679431E+01  0.16878362247E+02  0.51100000000E-03 0.  1.
        -12    1    3    3    0    0 -0.36148202435E+01  0.12513885794E+02 -0.18396944560E+02  0.22541336078E+02  0.00000000000E+00 0.  1.
</event>
<event>
 7    1  0.4971907E-013  0.5052886E+02  0.7816164E-02  0.1300439E+00
        -11   -1    0    0    0    0  0.00000000000E+00  0.00000000000E+00  0.45593999997E+02  0.45594000000E+02  0.51100000000E-03 0.  1.
         11   -1    0    0    0    0 -0.00000000000E+00 -0.00000000000E+00 -0.45593999997E+02  0.45594000000E+02  0.51100000000E-03 0. -1.
    9900012    2    1    2    0    0 -0.11356431085E+02 -0.17689494108E+02  0.34803435073E+02  0.50528858080E+02  0.29999994620E+02 0.  0.
         12    1    1    2    0    0  0.11356431085E+02  0.17689494108E+02 -0.34803435073E+02  0.40659141920E+02  0.00000000000E+00 0. -1.
         11    1    3    3    0    0 -0.24848168214E+01 -0.11251590892E+02  0.62017139136E+01  0.13085635940E+02  0.51100000000E-03 0. -1.
        -11    1    3    3    0    0 -0.12481853660E+02 -0.11063299854E+02  0.26294598583E+02  0.31138387713E+02  0.51100000000E-03 0.  1.
        -12    1    3    3    0    0  0.36102393970E+01  0.46253966383E+01  0.23071225765E+01  0.63048344267E+01  0.00000000000E+00 0.  1.
</event>
<event>
 7    1  0.4971907E-013  0.5052885E+02  0.7816164E-02  0.1300439E+00
        -11   -1    0    0    0    0  0.00000000000E+00  0.00000000000E+00  0.45593999997E+02  0.45594000000E+02  0.51100000000E-03 0.  1.
         11   -1    0    0    0    0 -0.00000000000E+00 -0.00000000000E+00 -0.45593999997E+02  0.45594000000E+02  0.51100000000E-03 0. -1.
    9900012    2    1    2    0    0 -0.25654237735E+02 -0.26309459854E+02  0.17402264675E+02  0.50528850877E+02  0.29999972726E+02 0.  0.
         12    1    1    2    0    0  0.25654237735E+02  0.26309459854E+02 -0.17402264675E+02  0.40659149123E+02  0.00000000000E+00 0. -1.
         11    1    3    3    0    0  0.24616793374E+01 -0.90944971134E+01  0.73904593667E+01  0.11974499272E+02  0.51100000000E-03 0. -1.
        -11    1    3    3    0    0 -0.21531772002E+02 -0.41170176228E+01  0.94832295213E+01  0.23885114236E+02  0.51100000000E-03 0.  1.
         12    1    3    3    0    0 -0.65841450700E+01 -0.13097945118E+02  0.52857578723E+00  0.14669237369E+02  0.00000000000E+00 0. -1.
</event>
<event>
 7    1  0.4971907E-013  0.5052886E+02  0.7816164E-02  0.1300439E+00
        -11   -1    0    0    0    0  0.00000000000E+00  0.00000000000E+00  0.45593999997E+02  0.45594000000E+02  0.51100000000E-03 0.  1.
         11   -1    0    0    0    0 -0.00000000000E+00 -0.00000000000E+00 -0.45593999997E+02  0.45594000000E+02  0.51100000000E-03 0. -1.
    9900012    2    1    2    0    0  0.15517931852E+02  0.93230157188E+01  0.36406605918E+02  0.50528858524E+02  0.29999995971E+02 0.  0.
         12    1    1    2    0    0 -0.15517931852E+02 -0.93230157188E+01 -0.36406605918E+02  0.40659141476E+02  0.00000000000E+00 0. -1.
         11    1    3    3    0    0  0.21493398106E+01  0.53930670241E+01  0.44852018103E+01  0.73363389431E+01  0.51100000000E-03 0. -1.
        -11    1    3    3    0    0  0.19715341495E+01 -0.64748508758E-01  0.31019361520E+02  0.31082019379E+02  0.51100000000E-03 0.  1.
         12    1    3    3    0    0  0.11397057891E+02  0.39946972034E+01  0.90204258791E+00  0.12110500203E+02  0.00000000000E+00 0. -1.
</event>
<event>
 7    1  0.4971907E-013  0.5052886E+02  0.7816164E-02  0.1300439E+00
        -11   -1    0    0    0    0  0.00000000000E+00  0.00000000000E+00  0.45593999997E+02  0.45594000000E+02  0.51100000000E-03 0.  1.
         11   -1    0    0    0    0 -0.00000000000E+00 -0.00000000000E+00 -0.45593999997E+02  0.45594000000E+02  0.51100000000E-03 0. -1.
    9900012    2    1    2    0    0 -0.37512315583E+02 -0.15680106182E+02  0.35539749597E+00  0.50528857638E+02  0.29999993276E+02 0.  0.
         12    1    1    2    0    0  0.37512315583E+02  0.15680106182E+02 -0.35539749597E+00  0.40659142362E+02  0.00000000000E+00 0. -1.
         11    1    3    3    0    0 -0.12870752053E+02 -0.18479457827E+01  0.10128607211E+01  0.13042125943E+02  0.51100000000E-03 0. -1.
        -11    1    3    3    0    0 -0.29664880001E+02 -0.11841216581E+02  0.56845698505E+00  0.31945933375E+02  0.51100000000E-03 0.  1.
         12    1    3    3    0    0  0.50233164711E+01 -0.19909438174E+01 -0.12259202102E+01  0.55407983192E+01  0.00000000000E+00 0. -1.
</event>
<event>
 7    1  0.4971907E-013  0.5052885E+02  0.7816164E-02  0.1300439E+00
        -11   -1    0    0    0    0  0.00000000000E+00  0.00000000000E+00  0.45593999997E+02  0.45594000000E+02  0.51100000000E-03 0.  1.
         11   -1    0    0    0    0 -0.00000000000E+00 -0.00000000000E+00 -0.45593999997E+02  0.45594000000E+02  0.51100000000E-03 0. -1.
    9900012    2    1    2    0    0  0.35150989216E+02  0.19851602392E+02  0.48464590986E+01  0.50528851876E+02  0.29999975762E+02 0.  0.
         12    1    1    2    0    0 -0.35150989216E+02 -0.19851602392E+02 -0.48464590986E+01  0.40659148124E+02  0.00000000000E+00 0. -1.
         11    1    3    3    0    0  0.10590130887E+02  0.99130730277E+01 -0.87069357520E+01  0.16918351560E+02  0.51100000000E-03 0. -1.
        -11    1    3    3    0    0  0.53199642786E+01  0.57463500937E+01 -0.24824535587E+01  0.82149336733E+01  0.51100000000E-03 0.  1.
        -12    1    3    3    0    0  0.19240894050E+02  0.41921792709E+01  0.16035848409E+02  0.25395566642E+02  0.00000000000E+00 0.  1.
</event>
<event>
 7    1  0.4971907E-013  0.5052888E+02  0.7816164E-02  0.1300439E+00
        -11   -1    0    0    0    0  0.00000000000E+00  0.00000000000E+00  0.45593999997E+02  0.45594000000E+02  0.51100000000E-03 0.  1.
         11   -1    0    0    0    0 -0.00000000000E+00 -0.00000000000E+00 -0.45593999997E+02  0.45594000000E+02  0.51100000000E-03 0. -1.
    9900012    2    1    2    0    0 -0.24747626187E+02  0.20345438985E+02  0.25035625325E+02  0.50528875258E+02  0.30000046834E+02 0.  0.
         12    1    1    2    0    0  0.24747626187E+02 -0.20345438985E+02 -0.25035625325E+02  0.40659124742E+02  0.00000000000E+00 0. -1.
         11    1    3    3    0    0 -0.13524942528E+02  0.13556157161E+02 -0.20090843993E+01  0.19254347243E+02  0.51100000000E-03 0. -1.
        -11    1    3    3    0    0 -0.79470333093E+01  0.33885305426E+01  0.84315690007E+01  0.12071819819E+02  0.51100000000E-03 0.  1.
        -12    1    3    3    0    0 -0.32756503495E+01  0.34007512809E+01  0.18613140724E+02  0.19202708197E+02  0.00000000000E+00 0.  1.
</event>
<event>
 7    1  0.4971907E-013  0.5052885E+02  0.7816164E-02  0.1300439E+00
        -11   -1    0    0    0    0  0.00000000000E+00  0.00000000000E+00  0.45593999997E+02  0.45594000000E+02  0.51100000000E-03 0. -1.
         11   -1    0    0    0    0 -0.00000000000E+00 -0.00000000000E+00 -0.45593999997E+02  0.45594000000E+02  0.51100000000E-03 0.  1.
    9900012    2    1    2    0    0  0.57155005002E+01 -0.38578126749E+02 -0.11499026755E+02  0.50528850652E+02  0.29999972042E+02 0.  0.
         12    1    1    2    0    0 -0.57155005002E+01  0.38578126749E+02  0.11499026755E+02  0.40659149348E+02  0.00000000000E+00 0. -1.
         11    1    3    3    0    0 -0.14964253429E+01  0.20871296722E+01 -0.10275359206E+01  0.27660855743E+01  0.51100000000E-03 0. -1.
        -11    1    3    3    0    0 -0.47596401893E+01 -0.27367237639E+02 -0.10962945795E+02  0.29863121931E+02  0.51100000000E-03 0.  1.
         12    1    3    3    0    0  0.11971566032E+02 -0.13298018782E+02  0.49145496100E+00  0.17899643146E+02  0.00000000000E+00 0. -1.
</event>
<event>
 7    1  0.4971907E-013  0.5052886E+02  0.7816164E-02  0.1300439E+00
        -11   -1    0    0    0    0  0.00000000000E+00  0.00000000000E+00  0.45593999997E+02  0.45594000000E+02  0.51100000000E-03 0.  1.
         11   -1    0    0    0    0 -0.00000000000E+00 -0.00000000000E+00 -0.45593999997E+02  0.45594000000E+02  0.51100000000E-03 0. -1.
    9900012    2    1    2    0    0  0.79932791109E+00  0.43096780068E+01  0.40422191566E+02  0.50528858093E+02  0.29999994659E+02 0.  0.
         12    1    1    2    0    0 -0.79932791109E+00 -0.43096780068E+01 -0.40422191566E+02  0.40659141907E+02  0.00000000000E+00 0. -1.
         11    1    3    3    0    0 -0.41781325647E+01  0.44194533536E+01  0.14436681868E+02  0.15665444242E+02  0.51100000000E-03 0. -1.
        -11    1    3    3    0    0  0.69298864643E+00 -0.35579328458E+01  0.28561320070E+02  0.28790417221E+02  0.51100000000E-03 0.  1.
         12    1    3    3    0    0  0.42844718294E+01  0.34481574991E+01 -0.25758103716E+01  0.60729966298E+01  0.00000000000E+00 0. -1.
</event>
<event>
 7    1  0.4971907E-013  0.5052886E+02  0.7816164E-02  0.1300439E+00
        -11   -1    0    0    0    0  0.00000000000E+00  0.00000000000E+00  0.45593999997E+02  0.45594000000E+02  0.51100000000E-03 0.  1.
         11   -1    0    0    0    0 -0.00000000000E+00 -0.00000000000E+00 -0.45593999997E+02  0.45594000000E+02  0.51100000000E-03 0. -1.
    9900012    2    1    2    0    0  0.20731278043E+02 -0.29189483474E+02 -0.19270543750E+02  0.50528859684E+02  0.29999999497E+02 0.  0.
         12    1    1    2    0    0 -0.20731278043E+02  0.29189483474E+02  0.19270543750E+02  0.40659140316E+02  0.00000000000E+00 0. -1.
         11    1    3    3    0    0  0.17059700579E+02 -0.19634431655E+02 -0.16379341181E+02  0.30738040081E+02  0.51100000000E-03 0. -1.
        -11    1    3    3    0    0  0.49007466993E+01 -0.57472815729E+01 -0.94562997648E+01  0.12102486075E+02  0.51100000000E-03 0.  1.
        -12    1    3    3    0    0 -0.12291692349E+01 -0.38077702463E+01  0.65650971957E+01  0.76883335285E+01  0.00000000000E+00 0.  1.
</event>
<event>
 7    1  0.4971907E-013  0.5052887E+02  0.7816164E-02  0.1300439E+00
        -11   -1    0    0    0    0  0.00000000000E+00  0.00000000000E+00  0.45593999997E+02  0.45594000000E+02  0.51100000000E-03 0.  1.
         11   -1    0    0    0    0 -0.00000000000E+00 -0.00000000000E+00 -0.45593999997E+02  0.45594000000E+02  0.51100000000E-03 0. -1.
    9900012    2    1    2    0    0 -0.15482119980E+01  0.96747761810E+01  0.39460955056E+02  0.50528865375E+02  0.30000016795E+02 0.  0.
         12    1    1    2    0    0  0.15482119980E+01 -0.96747761810E+01 -0.39460955056E+02  0.40659134625E+02  0.00000000000E+00 0. -1.
         11    1    3    3    0    0  0.23870442035E+01  0.54737895021E+01 -0.32056832790E+01  0.67776660503E+01  0.51100000000E-03 0. -1.
        -11    1    3    3    0    0  0.19881703269E+01 -0.30919765964E+00  0.13511333519E+02  0.13660327894E+02  0.51100000000E-03 0.  1.
        -12    1    3    3    0    0 -0.59234265284E+01  0.45101843385E+01  0.29155304815E+02  0.30090871431E+02  0.00000000000E+00 0.  1.
</event>
<event>
 7    1  0.4971907E-013  0.5052885E+02  0.7816164E-02  0.1300439E+00
        -11   -1    0    0    0    0  0.00000000000E+00  0.00000000000E+00  0.45593999997E+02  0.45594000000E+02  0.51100000000E-03 0.  1.
         11   -1    0    0    0    0 -0.00000000000E+00 -0.00000000000E+00 -0.45593999997E+02  0.45594000000E+02  0.51100000000E-03 0. -1.
    9900012    2    1    2    0    0  0.71265562106E+01 -0.34013386033E+02  0.21106110012E+02  0.50528854501E+02  0.29999983742E+02 0.  0.
         12    1    1    2    0    0 -0.71265562106E+01  0.34013386033E+02 -0.21106110012E+02  0.40659145499E+02  0.00000000000E+00 0. -1.
         11    1    3    3    0    0  0.56347076043E+01 -0.20469143460E+01  0.61696832043E+01  0.86026030496E+01  0.51100000000E-03 0. -1.
        -11    1    3    3    0    0 -0.20556474589E+01 -0.33301666143E+02  0.17172972036E+02  0.37525159868E+02  0.51100000000E-03 0.  1.
         12    1    3    3    0    0  0.35474960651E+01  0.13351944555E+01 -0.22365452280E+01  0.44010915831E+01  0.00000000000E+00 0. -1.
</event>
<event>
 7    1  0.4971907E-013  0.5052886E+02  0.7816164E-02  0.1300439E+00
        -11   -1    0    0    0    0  0.00000000000E+00  0.00000000000E+00  0.45593999997E+02  0.45594000000E+02  0.51100000000E-03 0.  1.
         11   -1    0    0    0    0 -0.00000000000E+00 -0.00000000000E+00 -0.45593999997E+02  0.45594000000E+02  0.51100000000E-03 0. -1.
    9900012    2    1    2    0    0  0.40178194922E+02 -0.10851869356E+01  0.61400985832E+01  0.50528858488E+02  0.29999995860E+02 0.  0.
         12    1    1    2    0    0 -0.40178194922E+02  0.10851869356E+01 -0.61400985832E+01  0.40659141512E+02  0.00000000000E+00 0. -1.
         11    1    3    3    0    0  0.38539888054E-01 -0.69670839485E+01  0.37578993145E+00  0.69773177082E+01  0.51100000000E-03 0. -1.
        -11    1    3    3    0    0  0.88957420457E+01 -0.12084956564E+01  0.71596445903E+01  0.11482821919E+02  0.51100000000E-03 0.  1.
         12    1    3    3    0    0  0.31243912988E+02  0.70903926692E+01 -0.13953359385E+01  0.32068718861E+02  0.00000000000E+00 0. -1.
</event>
<event>
 7    1  0.4971907E-013  0.5052886E+02  0.7816164E-02  0.1300439E+00
        -11   -1    0    0    0    0  0.00000000000E+00  0.00000000000E+00  0.45593999997E+02  0.45594000000E+02  0.51100000000E-03 0.  1.
         11   -1    0    0    0    0 -0.00000000000E+00 -0.00000000000E+00 -0.45593999997E+02  0.45594000000E+02  0.51100000000E-03 0. -1.
    9900012    2    1    2    0    0 -0.31909764729E+02  0.20149434064E+02 -0.15130529158E+02  0.50528859690E+02  0.29999999513E+02 0.  0.
         12    1    1    2    0    0  0.31909764729E+02 -0.20149434064E+02  0.15130529158E+02  0.40659140310E+02  0.00000000000E+00 0. -1.
         11    1    3    3    0    0 -0.38324839717E+00  0.13538761138E+01 -0.74868475128E+01  0.76179226700E+01  0.51100000000E-03 0. -1.
        -11    1    3    3    0    0  0.13458367087E+00  0.61092080897E+01  0.34831735414E+01  0.70337070190E+01  0.51100000000E-03 0.  1.
         12    1    3    3    0    0 -0.31661100003E+02  0.12686349860E+02 -0.11126855187E+02  0.35877230001E+02  0.00000000000E+00 0. -1.
</event>
<event>
 7    1  0.4971907E-013  0.5052887E+02  0.7816164E-02  0.1300439E+00
        -11   -1    0    0    0    0  0.00000000000E+00  0.00000000000E+00  0.45593999997E+02  0.45594000000E+02  0.51100000000E-03 0.  1.
         11   -1    0    0    0    0 -0.00000000000E+00 -0.00000000000E+00 -0.45593999997E+02  0.45594000000E+02  0.51100000000E-03 0. -1.
    9900012    2    1    2    0    0 -0.26474149882E+02  0.90112929153E+01 -0.29514082322E+02  0.50528867357E+02  0.30000022818E+02 0.  0.
         12    1    1    2    0    0  0.26474149882E+02 -0.90112929153E+01  0.29514082322E+02  0.40659132643E+02  0.00000000000E+00 0. -1.
         11    1    3    3    0    0 -0.60511025565E+01  0.12054023800E+01  0.17191340301E+01  0.64050182764E+01  0.51100000000E-03 0. -1.
        -11    1    3    3    0    0 -0.99963231919E+01  0.12723218253E+02 -0.77009741944E+01  0.17919591621E+02  0.51100000000E-03 0.  1.
         12    1    3    3    0    0 -0.10426724134E+02 -0.49173277174E+01 -0.23532242158E+02  0.26204257459E+02  0.00000000000E+00 0. -1.
</event>
<event>
 7    1  0.4971907E-013  0.5052886E+02  0.7816164E-02  0.1300439E+00
        -11   -1    0    0    0    0  0.00000000000E+00  0.00000000000E+00  0.45593999997E+02  0.45594000000E+02  0.51100000000E-03 0.  1.
         11   -1    0    0    0    0 -0.00000000000E+00 -0.00000000000E+00 -0.45593999997E+02  0.45594000000E+02  0.51100000000E-03 0. -1.
    9900012    2    1    2    0    0  0.17912057716E+02 -0.25892167259E+02  0.25727790914E+02  0.50528863729E+02  0.30000011792E+02 0.  0.
         12    1    1    2    0    0 -0.17912057716E+02  0.25892167259E+02 -0.25727790914E+02  0.40659136271E+02  0.00000000000E+00 0. -1.
         11    1    3    3    0    0  0.10253969328E+02 -0.38304175570E+01  0.25006783908E+01  0.11228062091E+02  0.51100000000E-03 0. -1.
        -11    1    3    3    0    0 -0.47542236291E+00  0.41578267490E+01  0.22500093045E+01  0.47514305035E+01  0.51100000000E-03 0.  1.
        -12    1    3    3    0    0  0.81335107507E+01 -0.26219576451E+02  0.20977103219E+02  0.34549371135E+02  0.00000000000E+00 0.  1.
</event>
<event>
 7    1  0.4971907E-013  0.5052889E+02  0.7816164E-02  0.1300439E+00
        -11   -1    0    0    0    0  0.00000000000E+00  0.00000000000E+00  0.45593999997E+02  0.45594000000E+02  0.51100000000E-03 0.  1.
         11   -1    0    0    0    0 -0.00000000000E+00 -0.00000000000E+00 -0.45593999997E+02  0.45594000000E+02  0.51100000000E-03 0. -1.
    9900012    2    1    2    0    0  0.36955078875E+01 -0.15484196941E+02  0.37413185586E+02  0.50528885534E+02  0.30000078069E+02 0.  0.
         12    1    1    2    0    0 -0.36955078875E+01  0.15484196941E+02 -0.37413185586E+02  0.40659114466E+02  0.00000000000E+00 0. -1.
         11    1    3    3    0    0 -0.76697678653E+01 -0.10952317491E+02  0.15458872372E+02  0.20439063893E+02  0.51100000000E-03 0. -1.
        -11    1    3    3    0    0  0.70356143888E+01 -0.10587175711E+02  0.10802549530E+02  0.16681823520E+02  0.51100000000E-03 0.  1.
         12    1    3    3    0    0  0.43296613641E+01  0.60552962612E+01  0.11151763684E+02  0.13407998121E+02  0.00000000000E+00 0. -1.
</event>
<event>
 7    1  0.4971907E-013  0.5052886E+02  0.7816164E-02  0.1300439E+00
        -11   -1    0    0    0    0  0.00000000000E+00  0.00000000000E+00  0.45593999997E+02  0.45594000000E+02  0.51100000000E-03 0. -1.
         11   -1    0    0    0    0 -0.00000000000E+00 -0.00000000000E+00 -0.45593999997E+02  0.45594000000E+02  0.51100000000E-03 0.  1.
    9900012    2    1    2    0    0  0.13695614861E+02 -0.61815083205E+01 -0.37780741554E+02  0.50528863956E+02  0.30000012480E+02 0.  0.
         12    1    1    2    0    0 -0.13695614861E+02  0.61815083205E+01  0.37780741554E+02  0.40659136044E+02  0.00000000000E+00 0. -1.
         11    1    3    3    0    0 -0.27897845805E+01  0.28227761313E+01  0.73996705753E+00  0.40371418851E+01  0.51100000000E-03 0.  1.
        -11    1    3    3    0    0  0.17069908997E+02 -0.16783553972E+01 -0.18813236645E+02  0.25458525945E+02  0.51100000000E-03 0. -1.
         12    1    3    3    0    0 -0.58450955563E+00 -0.73259290547E+01 -0.19707471967E+02  0.21033196125E+02  0.00000000000E+00 0. -1.
</event>
<event>
 7    1  0.4971907E-013  0.5052886E+02  0.7816164E-02  0.1300439E+00
        -11   -1    0    0    0    0  0.00000000000E+00  0.00000000000E+00  0.45593999997E+02  0.45594000000E+02  0.51100000000E-03 0. -1.
         11   -1    0    0    0    0 -0.00000000000E+00 -0.00000000000E+00 -0.45593999997E+02  0.45594000000E+02  0.51100000000E-03 0.  1.
    9900012    2    1    2    0    0 -0.32016121716E+02 -0.16912957347E+02 -0.18495559301E+02  0.50528857242E+02  0.29999992072E+02 0.  0.
         12    1    1    2    0    0  0.32016121716E+02  0.16912957347E+02  0.18495559301E+02  0.40659142758E+02  0.00000000000E+00 0. -1.
         11    1    3    3    0    0 -0.15828394816E+02 -0.16320266768E+01 -0.66942656056E+01  0.17263104755E+02  0.51100000000E-03 0.  1.
        -11    1    3    3    0    0 -0.10111434672E+02 -0.18445677444E+02 -0.14868350534E+02  0.25759502622E+02  0.51100000000E-03 0. -1.
         12    1    3    3    0    0 -0.60762922289E+01  0.31647467733E+01  0.30670568379E+01  0.75062498650E+01  0.00000000000E+00 0. -1.
</event>
<event>
 7    1  0.4971907E-013  0.5052887E+02  0.7816164E-02  0.1300439E+00
        -11   -1    0    0    0    0  0.00000000000E+00  0.00000000000E+00  0.45593999997E+02  0.45594000000E+02  0.51100000000E-03 0.  1.
         11   -1    0    0    0    0 -0.00000000000E+00 -0.00000000000E+00 -0.45593999997E+02  0.45594000000E+02  0.51100000000E-03 0. -1.
    9900012    2    1    2    0    0 -0.48674264279E+01  0.23733828186E+02  0.32652386147E+02  0.50528871118E+02  0.30000034249E+02 0.  0.
         12    1    1    2    0    0  0.48674264279E+01 -0.23733828186E+02 -0.32652386147E+02  0.40659128882E+02  0.00000000000E+00 0. -1.
         11    1    3    3    0    0  0.75488965580E+00  0.14615475424E+02  0.17363213587E+02  0.22708218040E+02  0.51100000000E-03 0. -1.
        -11    1    3    3    0    0 -0.63615675031E+01  0.29052207386E+01  0.19205438299E+02  0.20439146488E+02  0.51100000000E-03 0.  1.
         12    1    3    3    0    0  0.73925141941E+00  0.62131320233E+01 -0.39162657384E+01  0.73815065897E+01  0.00000000000E+00 0. -1.
</event>
<event>
 7    1  0.4971907E-013  0.5052886E+02  0.7816164E-02  0.1300439E+00
        -11   -1    0    0    0    0  0.00000000000E+00  0.00000000000E+00  0.45593999997E+02  0.45594000000E+02  0.51100000000E-03 0.  1.
         11   -1    0    0    0    0 -0.00000000000E+00 -0.00000000000E+00 -0.45593999997E+02  0.45594000000E+02  0.51100000000E-03 0. -1.
    9900012    2    1    2    0    0  0.70084428603E+01 -0.37036856879E+02  0.15242012217E+02  0.50528856192E+02  0.29999988881E+02 0.  0.
         12    1    1    2    0    0 -0.70084428603E+01  0.37036856879E+02 -0.15242012217E+02  0.40659143808E+02  0.00000000000E+00 0. -1.
         11    1    3    3    0    0 -0.65446404017E+01 -0.55294633286E+01 -0.10781603838E+01  0.86353756586E+01  0.51100000000E-03 0. -1.
        -11    1    3    3    0    0 -0.91201288934E-01 -0.12394339863E+02  0.13360067589E+02  0.18224142903E+02  0.51100000000E-03 0.  1.
         12    1    3    3    0    0  0.13644284551E+02 -0.19113053687E+02  0.29601050115E+01  0.23669337630E+02  0.00000000000E+00 0. -1.
</event>
<event>
 7    1  0.4971907E-013  0.5052875E+02  0.7816164E-02  0.1300439E+00
        -11   -1    0    0    0    0  0.00000000000E+00  0.00000000000E+00  0.45593999997E+02  0.45594000000E+02  0.51100000000E-03 0. -1.
         11   -1    0    0    0    0 -0.00000000000E+00 -0.00000000000E+00 -0.45593999997E+02  0.45594000000E+02  0.51100000000E-03 0.  1.
    9900012    2    1    2    0    0  0.25365776589E+02  0.25528557810E+02 -0.18922063328E+02  0.50528753002E+02  0.29999675225E+02 0.  0.
         12    1    1    2    0    0 -0.25365776589E+02 -0.25528557810E+02  0.18922063328E+02  0.40659246998E+02  0.00000000000E+00 0. -1.
         11    1    3    3    0    0  0.98056932734E+01  0.90325060502E+01  0.51201956181E+01  0.14281253080E+02  0.51100000000E-03 0. -1.
        -11    1    3    3    0    0  0.14382760916E+02  0.49410250080E+01 -0.10914015465E+02  0.18718794660E+02  0.51100000000E-03 0.  1.
         12    1    3    3    0    0  0.11773224000E+01  0.11555026751E+02 -0.13128243481E+02  0.17528705262E+02  0.00000000000E+00 0. -1.
</event>
<event>
 7    1  0.4971907E-013  0.5052887E+02  0.7816164E-02  0.1300439E+00
        -11   -1    0    0    0    0  0.00000000000E+00  0.00000000000E+00  0.45593999997E+02  0.45594000000E+02  0.51100000000E-03 0.  1.
         11   -1    0    0    0    0 -0.00000000000E+00 -0.00000000000E+00 -0.45593999997E+02  0.45594000000E+02  0.51100000000E-03 0. -1.
    9900012    2    1    2    0    0 -0.37201962390E+02  0.62602994099E+01  0.15165351688E+02  0.50528865157E+02  0.30000016131E+02 0.  0.
         12    1    1    2    0    0  0.37201962390E+02 -0.62602994099E+01 -0.15165351688E+02  0.40659134843E+02  0.00000000000E+00 0. -1.
         11    1    3    3    0    0 -0.94700703708E+00  0.36577519029E+01  0.94325337911E+01  0.10161135040E+02  0.51100000000E-03 0. -1.
        -11    1    3    3    0    0 -0.17803768501E+02 -0.15479016725E+01  0.10680133974E+02  0.20819112238E+02  0.51100000000E-03 0.  1.
        -12    1    3    3    0    0 -0.18451186852E+02  0.41504491794E+01 -0.49473160768E+01  0.19548617879E+02  0.00000000000E+00 0.  1.
</event>
<event>
 7    1  0.4971907E-013  0.5052885E+02  0.7816164E-02  0.1300439E+00
        -11   -1    0    0    0    0  0.00000000000E+00  0.00000000000E+00  0.45593999997E+02  0.45594000000E+02  0.51100000000E-03 0. -1.
         11   -1    0    0    0    0 -0.00000000000E+00 -0.00000000000E+00 -0.45593999997E+02  0.45594000000E+02  0.51100000000E-03 0.  1.
    9900012    2    1    2    0    0  0.28339453291E+02  0.28411957351E+02 -0.65423531990E+01  0.50528851968E+02  0.29999976041E+02 0.  0.
         12    1    1    2    0    0 -0.28339453291E+02 -0.28411957351E+02  0.65423531990E+01  0.40659148032E+02  0.00000000000E+00 0. -1.
         11    1    3    3    0    0 -0.17773381031E+01  0.18194650143E+01 -0.28368516534E+01  0.38101327058E+01  0.51100000000E-03 0. -1.
        -11    1    3    3    0    0  0.22364226382E+02  0.84806878213E+01 -0.10160623996E+02  0.25986899928E+02  0.51100000000E-03 0.  1.
         12    1    3    3    0    0  0.77525650124E+01  0.18111804515E+02  0.64551224507E+01  0.20731819334E+02  0.00000000000E+00 0. -1.
</event>
<event>
 7    1  0.4971907E-013  0.5052886E+02  0.7816164E-02  0.1300439E+00
        -11   -1    0    0    0    0  0.00000000000E+00  0.00000000000E+00  0.45593999997E+02  0.45594000000E+02  0.51100000000E-03 0.  1.
         11   -1    0    0    0    0 -0.00000000000E+00 -0.00000000000E+00 -0.45593999997E+02  0.45594000000E+02  0.51100000000E-03 0. -1.
    9900012    2    1    2    0    0 -0.16019263776E+02  0.33505281708E+02  0.16551291856E+02  0.50528856178E+02  0.29999988838E+02 0.  0.
         12    1    1    2    0    0  0.16019263776E+02 -0.33505281708E+02 -0.16551291856E+02  0.40659143822E+02  0.00000000000E+00 0. -1.
         11    1    3    3    0    0 -0.75334265509E+01 -0.14306893720E+01  0.38726131731E+01  0.85904901331E+01  0.51100000000E-03 0. -1.
        -11    1    3    3    0    0 -0.12397177404E+02  0.18787444804E+02  0.11511751042E+02  0.25281979792E+02  0.51100000000E-03 0.  1.
        -12    1    3    3    0    0  0.39113401796E+01  0.16148526276E+02  0.11669276406E+01  0.16656386253E+02  0.00000000000E+00 0.  1.
</event>
<event>
 7    1  0.4971907E-013  0.5052885E+02  0.7816164E-02  0.1300439E+00
        -11   -1    0    0    0    0  0.00000000000E+00  0.00000000000E+00  0.45593999997E+02  0.45594000000E+02  0.51100000000E-03 0.  1.
         11   -1    0    0    0    0 -0.00000000000E+00 -0.00000000000E+00 -0.45593999997E+02  0.45594000000E+02  0.51100000000E-03 0. -1.
    9900012    2    1    2    0    0 -0.16679933537E+02 -0.12098488622E+02  0.35051001923E+02  0.50528851638E+02  0.29999975038E+02 0.  0.
         12    1    1    2    0    0  0.16679933537E+02  0.12098488622E+02 -0.35051001923E+02  0.40659148362E+02  0.00000000000E+00 0. -1.
         11    1    3    3    0    0 -0.12090191893E+02 -0.30255464980E+01  0.12844113553E+02  0.17896869135E+02  0.51100000000E-03 0. -1.
        -11    1    3    3    0    0 -0.83782105160E+01 -0.14022447492E+02  0.20416738797E+02  0.26147020261E+02  0.51100000000E-03 0.  1.
         12    1    3    3    0    0  0.37884688720E+01  0.49495053684E+01  0.17901495729E+01  0.64849622420E+01  0.00000000000E+00 0. -1.
</event>
<event>
 7    1  0.4971907E-013  0.5052885E+02  0.7816164E-02  0.1300439E+00
        -11   -1    0    0    0    0  0.00000000000E+00  0.00000000000E+00  0.45593999997E+02  0.45594000000E+02  0.51100000000E-03 0.  1.
         11   -1    0    0    0    0 -0.00000000000E+00 -0.00000000000E+00 -0.45593999997E+02  0.45594000000E+02  0.51100000000E-03 0. -1.
    9900012    2    1    2    0    0  0.19176629808E+02  0.35344064329E+02 -0.60183730942E+01  0.50528845695E+02  0.29999956976E+02 0.  0.
         12    1    1    2    0    0 -0.19176629808E+02 -0.35344064329E+02  0.60183730942E+01  0.40659154305E+02  0.00000000000E+00 0. -1.
         11    1    3    3    0    0  0.37035267680E+01  0.17291911869E+02  0.10021104836E+01  0.17712440608E+02  0.51100000000E-03 0. -1.
        -11    1    3    3    0    0  0.19690033593E+02  0.10276174794E+02 -0.12308837872E+01  0.22244376063E+02  0.51100000000E-03 0.  1.
         12    1    3    3    0    0 -0.42169305531E+01  0.77759776655E+01 -0.57895997906E+01  0.10572029024E+02  0.00000000000E+00 0. -1.
</event>
<event>
 7    1  0.4971907E-013  0.5052886E+02  0.7816164E-02  0.1300439E+00
        -11   -1    0    0    0    0  0.00000000000E+00  0.00000000000E+00  0.45593999997E+02  0.45594000000E+02  0.51100000000E-03 0.  1.
         11   -1    0    0    0    0 -0.00000000000E+00 -0.00000000000E+00 -0.45593999997E+02  0.45594000000E+02  0.51100000000E-03 0. -1.
    9900012    2    1    2    0    0 -0.22795339338E+02  0.29708343056E+01  0.33536729350E+02  0.50528861206E+02  0.30000004120E+02 0.  0.
         12    1    1    2    0    0  0.22795339338E+02 -0.29708343056E+01 -0.33536729350E+02  0.40659138794E+02  0.00000000000E+00 0. -1.
         11    1    3    3    0    0 -0.19203409935E+02  0.26588064204E+00  0.16581630105E+02  0.25373058603E+02  0.51100000000E-03 0. -1.
        -11    1    3    3    0    0 -0.97329043484E+01 -0.23479181668E+01  0.12584381696E+02  0.16081318656E+02  0.51100000000E-03 0.  1.
         12    1    3    3    0    0  0.61409749453E+01  0.50528718303E+01  0.43707175481E+01  0.90744839466E+01  0.00000000000E+00 0. -1.
</event>
<event>
 7    1  0.4971907E-013  0.5052886E+02  0.7816164E-02  0.1300439E+00
        -11   -1    0    0    0    0  0.00000000000E+00  0.00000000000E+00  0.45593999997E+02  0.45594000000E+02  0.51100000000E-03 0.  1.
         11   -1    0    0    0    0 -0.00000000000E+00 -0.00000000000E+00 -0.45593999997E+02  0.45594000000E+02  0.51100000000E-03 0. -1.
    9900012    2    1    2    0    0 -0.13592912974E+02 -0.22020466683E+02  0.31360758990E+02  0.50528862768E+02  0.30000008869E+02 0.  0.
         12    1    1    2    0    0  0.13592912974E+02  0.22020466683E+02 -0.31360758990E+02  0.40659137232E+02  0.00000000000E+00 0. -1.
         11    1    3    3    0    0 -0.65053432373E+01 -0.12099832248E+02  0.61025963380E+01  0.15032202546E+02  0.51100000000E-03 0. -1.
        -11    1    3    3    0    0  0.33867870760E+01 -0.13357062435E+02  0.15865204826E+02  0.21013951747E+02  0.51100000000E-03 0.  1.
        -12    1    3    3    0    0 -0.10474356812E+02  0.34364280003E+01  0.93929578258E+01  0.14482708474E+02  0.00000000000E+00 0.  1.
</event>
<event>
 7    1  0.4971907E-013  0.5052887E+02  0.7816164E-02  0.1300439E+00
        -11   -1    0    0    0    0  0.00000000000E+00  0.00000000000E+00  0.45593999997E+02  0.45594000000E+02  0.51100000000E-03 0. -1.
         11   -1    0    0    0    0 -0.00000000000E+00 -0.00000000000E+00 -0.45593999997E+02  0.45594000000E+02  0.51100000000E-03 0.  1.
    9900012    2    1    2    0    0 -0.21005096034E+02 -0.20783746352E+02 -0.27928234761E+02  0.50528874718E+02  0.30000045192E+02 0.  0.
         12    1    1    2    0    0  0.21005096034E+02  0.20783746352E+02  0.27928234761E+02  0.40659125282E+02  0.00000000000E+00 0. -1.
         11    1    3    3    0    0 -0.35764437451E+01  0.34695436373E+01 -0.14335426088E+02  0.15176729697E+02  0.51100000000E-03 0. -1.
        -11    1    3    3    0    0 -0.44893001419E+01 -0.27014644218E+01 -0.80590252333E+01  0.96124717819E+01  0.51100000000E-03 0.  1.
        -12    1    3    3    0    0 -0.12939352147E+02 -0.21551825568E+02 -0.55337834403E+01  0.25739673239E+02  0.00000000000E+00 0.  1.
</event>
<event>
 7    1  0.4971907E-013  0.5052887E+02  0.7816164E-02  0.1300439E+00
        -11   -1    0    0    0    0  0.00000000000E+00  0.00000000000E+00  0.45593999997E+02  0.45594000000E+02  0.51100000000E-03 0.  1.
         11   -1    0    0    0    0 -0.00000000000E+00 -0.00000000000E+00 -0.45593999997E+02  0.45594000000E+02  0.51100000000E-03 0. -1.
    9900012    2    1    2    0    0 -0.16845679888E+02  0.21411843746E+02  0.30181466211E+02  0.50528869584E+02  0.30000029588E+02 0.  0.
         12    1    1    2    0    0  0.16845679888E+02 -0.21411843746E+02 -0.30181466211E+02  0.40659130416E+02  0.00000000000E+00 0. -1.
         11    1    3    3    0    0 -0.84336656822E+01  0.88532480035E+01  0.36268401321E+01  0.12753849876E+02  0.51100000000E-03 0. -1.
        -11    1    3    3    0    0 -0.14192989375E+02  0.12166821721E+02  0.25902949353E+02  0.31944252748E+02  0.51100000000E-03 0.  1.
        -12    1    3    3    0    0  0.57809751689E+01  0.39177402106E+00  0.65167672634E+00  0.58307669601E+01  0.00000000000E+00 0.  1.
</event>
<event>
 7    1  0.4971907E-013  0.5052886E+02  0.7816164E-02  0.1300439E+00
        -11   -1    0    0    0    0  0.00000000000E+00  0.00000000000E+00  0.45593999997E+02  0.45594000000E+02  0.51100000000E-03 0. -1.
         11   -1    0    0    0    0 -0.00000000000E+00 -0.00000000000E+00 -0.45593999997E+02  0.45594000000E+02  0.51100000000E-03 0.  1.
    9900012    2    1    2    0    0  0.22068628530E+02  0.16844583034E+02 -0.29705247177E+02  0.50528855240E+02  0.29999985987E+02 0.  0.
         12    1    1    2    0    0 -0.22068628530E+02 -0.16844583034E+02  0.29705247177E+02  0.40659144760E+02  0.00000000000E+00 0. -1.
         11    1    3    3    0    0  0.38370266374E+01 -0.23507185278E+01 -0.10378882522E+02  0.11312376129E+02  0.51100000000E-03 0. -1.
        -11    1    3    3    0    0  0.16406913301E+02  0.18552955028E+01 -0.74121743845E+01  0.18098874408E+02  0.51100000000E-03 0.  1.
        -12    1    3    3    0    0  0.18246885917E+01  0.17340006059E+02 -0.11914190271E+02  0.21117604703E+02  0.00000000000E+00 0.  1.
</event>
<event>
 7    1  0.4971907E-013  0.5052883E+02  0.7816164E-02  0.1300439E+00
        -11   -1    0    0    0    0  0.00000000000E+00  0.00000000000E+00  0.45593999997E+02  0.45594000000E+02  0.51100000000E-03 0. -1.
         11   -1    0    0    0    0 -0.00000000000E+00 -0.00000000000E+00 -0.45593999997E+02  0.45594000000E+02  0.51100000000E-03 0.  1.
    9900012    2    1    2    0    0  0.38038650351E+02  0.10995018856E+02 -0.92379120087E+01  0.50528826639E+02  0.29999899051E+02 0.  0.
         12    1    1    2    0    0 -0.38038650351E+02 -0.10995018856E+02  0.92379120087E+01  0.40659173361E+02  0.00000000000E+00 0. -1.
         11    1    3    3    0    0  0.39268597615E+01 -0.58391007097E+01  0.29680453091E+01  0.76370555780E+01  0.51100000000E-03 0. -1.
        -11    1    3    3    0    0  0.27784255512E+02  0.61505565318E+01 -0.10620651735E+02  0.30374206879E+02  0.51100000000E-03 0.  1.
         12    1    3    3    0    0  0.63275350775E+01  0.10683563034E+02 -0.15853055830E+01  0.12517564182E+02  0.00000000000E+00 0. -1.
</event>
<event>
 7    1  0.4971907E-013  0.5052885E+02  0.7816164E-02  0.1300439E+00
        -11   -1    0    0    0    0  0.00000000000E+00  0.00000000000E+00  0.45593999997E+02  0.45594000000E+02  0.51100000000E-03 0. -1.
         11   -1    0    0    0    0 -0.00000000000E+00 -0.00000000000E+00 -0.45593999997E+02  0.45594000000E+02  0.51100000000E-03 0.  1.
    9900012    2    1    2    0    0  0.12018438978E+02 -0.21377239194E+02 -0.32430496579E+02  0.50528851713E+02  0.29999975268E+02 0.  0.
         12    1    1    2    0    0 -0.12018438978E+02  0.21377239194E+02  0.32430496579E+02  0.40659148287E+02  0.00000000000E+00 0. -1.
         11    1    3    3    0    0  0.47340299853E+01 -0.11005210328E+02 -0.56985930867E+01  0.13266486260E+02  0.51100000000E-03 0.  1.
        -11    1    3    3    0    0 -0.48790752753E+01 -0.40998947259E+01  0.89124504991E+00  0.64349693322E+01  0.51100000000E-03 0. -1.
         12    1    3    3    0    0  0.12163484268E+02 -0.62721341406E+01 -0.27623148542E+02  0.30827396121E+02  0.00000000000E+00 0. -1.
</event>
<event>
 7    1  0.4971907E-013  0.5052886E+02  0.7816164E-02  0.1300439E+00
        -11   -1    0    0    0    0  0.00000000000E+00  0.00000000000E+00  0.45593999997E+02  0.45594000000E+02  0.51100000000E-03 0.  1.
         11   -1    0    0    0    0 -0.00000000000E+00 -0.00000000000E+00 -0.45593999997E+02  0.45594000000E+02  0.51100000000E-03 0. -1.
    9900012    2    1    2    0    0 -0.25570831222E+02 -0.21463557744E+01  0.31538727726E+02  0.50528860817E+02  0.30000002939E+02 0.  0.
         12    1    1    2    0    0  0.25570831222E+02  0.21463557744E+01 -0.31538727726E+02  0.40659139183E+02  0.00000000000E+00 0. -1.
         11    1    3    3    0    0  0.29913022263E+01  0.21535314073E+01  0.42411674642E+01  0.56189935266E+01  0.51100000000E-03 0. -1.
        -11    1    3    3    0    0 -0.80873772692E+01  0.77244289521E+01  0.46999472537E+01  0.12131033681E+02  0.51100000000E-03 0.  1.
        -12    1    3    3    0    0 -0.20474756179E+02 -0.12024316134E+02  0.22597613008E+02  0.32778833609E+02  0.00000000000E+00 0.  1.
</event>
<event>
 7    1  0.4971907E-013  0.5052886E+02  0.7816164E-02  0.1300439E+00
        -11   -1    0    0    0    0  0.00000000000E+00  0.00000000000E+00  0.45593999997E+02  0.45594000000E+02  0.51100000000E-03 0. -1.
         11   -1    0    0    0    0 -0.00000000000E+00 -0.00000000000E+00 -0.45593999997E+02  0.45594000000E+02  0.51100000000E-03 0.  1.
    9900012    2    1    2    0    0 -0.17583120888E+02  0.31472009351E+02 -0.18801915647E+02  0.50528861486E+02  0.30000004971E+02 0.  0.
         12    1    1    2    0    0  0.17583120888E+02 -0.31472009351E+02  0.18801915647E+02  0.40659138514E+02  0.00000000000E+00 0. -1.
         11    1    3    3    0    0  0.43340139126E+01  0.88307835528E+01  0.24706017818E+01  0.10142499109E+02  0.51100000000E-03 0. -1.
        -11    1    3    3    0    0 -0.64327086614E+00  0.74795837735E+01 -0.83917075382E+01  0.11259605966E+02  0.51100000000E-03 0.  1.
         12    1    3    3    0    0 -0.21273863935E+02  0.15161642025E+02 -0.12880809890E+02  0.29126756411E+02  0.00000000000E+00 0. -1.
</event>
<event>
 7    1  0.4971907E-013  0.5052887E+02  0.7816164E-02  0.1300439E+00
        -11   -1    0    0    0    0  0.00000000000E+00  0.00000000000E+00  0.45593999997E+02  0.45594000000E+02  0.51100000000E-03 0. -1.
         11   -1    0    0    0    0 -0.00000000000E+00 -0.00000000000E+00 -0.45593999997E+02  0.45594000000E+02  0.51100000000E-03 0.  1.
    9900012    2    1    2    0    0  0.24407065373E+02  0.22915210740E+02 -0.23072778210E+02  0.50528870426E+02  0.30000032148E+02 0.  0.
         12    1    1    2    0    0 -0.24407065373E+02 -0.22915210740E+02  0.23072778210E+02  0.40659129574E+02  0.00000000000E+00 0. -1.
         11    1    3    3    0    0 -0.19083272166E+00  0.14563975418E+02 -0.23471819506E+00  0.14567116736E+02  0.51100000000E-03 0. -1.
        -11    1    3    3    0    0  0.91273526599E+01 -0.42678741116E+00 -0.37678047718E+01  0.98836768023E+01  0.51100000000E-03 0.  1.
        -12    1    3    3    0    0  0.15470545434E+02  0.87780227326E+01 -0.19070255244E+02  0.26078076888E+02  0.00000000000E+00 0.  1.
</event>
<event>
 7    1  0.4971907E-013  0.5052888E+02  0.7816164E-02  0.1300439E+00
        -11   -1    0    0    0    0  0.00000000000E+00  0.00000000000E+00  0.45593999997E+02  0.45594000000E+02  0.51100000000E-03 0.  1.
         11   -1    0    0    0    0 -0.00000000000E+00 -0.00000000000E+00 -0.45593999997E+02  0.45594000000E+02  0.51100000000E-03 0. -1.
    9900012    2    1    2    0    0 -0.10309741345E+02 -0.15412781967E+02  0.36184523738E+02  0.50528875898E+02  0.30000048779E+02 0.  0.
         12    1    1    2    0    0  0.10309741345E+02  0.15412781967E+02 -0.36184523738E+02  0.40659124102E+02  0.00000000000E+00 0. -1.
         11    1    3    3    0    0  0.13952591070E+01 -0.84314024798E+01  0.10248636353E+02  0.13344281288E+02  0.51100000000E-03 0.  1.
        -11    1    3    3    0    0 -0.12808571994E+02 -0.13887425089E+02  0.22538965183E+02  0.29409608021E+02  0.51100000000E-03 0. -1.
        -12    1    3    3    0    0  0.11035715424E+01  0.69060456017E+01  0.33969222023E+01  0.77749865884E+01  0.00000000000E+00 0.  1.
</event>
<event>
 7    1  0.4971907E-013  0.5052886E+02  0.7816164E-02  0.1300439E+00
        -11   -1    0    0    0    0  0.00000000000E+00  0.00000000000E+00  0.45593999997E+02  0.45594000000E+02  0.51100000000E-03 0.  1.
         11   -1    0    0    0    0 -0.00000000000E+00 -0.00000000000E+00 -0.45593999997E+02  0.45594000000E+02  0.51100000000E-03 0. -1.
    9900012    2    1    2    0    0 -0.14201218991E+00  0.19618083040E+02  0.35612862576E+02  0.50528864120E+02  0.30000012981E+02 0.  0.
         12    1    1    2    0    0  0.14201218991E+00 -0.19618083040E+02 -0.35612862576E+02  0.40659135880E+02  0.00000000000E+00 0. -1.
         11    1    3    3    0    0  0.44820712110E+01  0.52863204132E+01 -0.21651095989E+01  0.72609810417E+01  0.51100000000E-03 0. -1.
        -11    1    3    3    0    0 -0.79497803786E+00 -0.15596161716E+01  0.15699868209E+02  0.15797159704E+02  0.51100000000E-03 0.  1.
        -12    1    3    3    0    0 -0.38291053631E+01  0.15891378799E+02  0.22078103966E+02  0.27470723375E+02  0.00000000000E+00 0.  1.
</event>
<event>
 7    1  0.4971907E-013  0.5052885E+02  0.7816164E-02  0.1300439E+00
        -11   -1    0    0    0    0  0.00000000000E+00  0.00000000000E+00  0.45593999997E+02  0.45594000000E+02  0.51100000000E-03 0.  1.
         11   -1    0    0    0    0 -0.00000000000E+00 -0.00000000000E+00 -0.45593999997E+02  0.45594000000E+02  0.51100000000E-03 0. -1.
    9900012    2    1    2    0    0  0.47252775462E+01  0.78031975267E+01  0.39622571735E+02  0.50528851823E+02  0.29999975602E+02 0.  0.
         12    1    1    2    0    0 -0.47252775462E+01 -0.78031975267E+01 -0.39622571735E+02  0.40659148177E+02  0.00000000000E+00 0. -1.
         11    1    3    3    0    0 -0.52956827445E+01 -0.34508376825E-01  0.26065484817E+02  0.26598025219E+02  0.51100000000E-03 0. -1.
        -11    1    3    3    0    0  0.90903772700E+00  0.94395364920E+01  0.31192868144E+01  0.99830430864E+01  0.51100000000E-03 0.  1.
        -12    1    3    3    0    0  0.91119225637E+01 -0.16018305885E+01  0.10437800104E+02  0.13947783518E+02  0.00000000000E+00 0.  1.
</event>
<event>
 7    1  0.4971907E-013  0.5052888E+02  0.7816164E-02  0.1300439E+00
        -11   -1    0    0    0    0  0.00000000000E+00  0.00000000000E+00  0.45593999997E+02  0.45594000000E+02  0.51100000000E-03 0. -1.
         11   -1    0    0    0    0 -0.00000000000E+00 -0.00000000000E+00 -0.45593999997E+02  0.45594000000E+02  0.51100000000E-03 0.  1.
    9900012    2    1    2    0    0  0.29548505575E+02 -0.19763568761E+02 -0.19734519324E+02  0.50528879439E+02  0.30000059542E+02 0.  0.
         12    1    1    2    0    0 -0.29548505575E+02  0.19763568761E+02  0.19734519324E+02  0.40659120561E+02  0.00000000000E+00 0. -1.
         11    1    3    3    0    0  0.14023035877E+01 -0.31980370581E+01 -0.73867709819E+01  0.81705741645E+01  0.51100000000E-03 0. -1.
        -11    1    3    3    0    0  0.18286690597E+02  0.11719157168E+01 -0.12291248198E+02  0.22064705345E+02  0.51100000000E-03 0.  1.
         12    1    3    3    0    0  0.98595113895E+01 -0.17737447420E+02 -0.56500144013E-01  0.20293599929E+02  0.00000000000E+00 0. -1.
</event>
<event>
 7    1  0.4971907E-013  0.5052886E+02  0.7816164E-02  0.1300439E+00
        -11   -1    0    0    0    0  0.00000000000E+00  0.00000000000E+00  0.45593999997E+02  0.45594000000E+02  0.51100000000E-03 0.  1.
         11   -1    0    0    0    0 -0.00000000000E+00 -0.00000000000E+00 -0.45593999997E+02  0.45594000000E+02  0.51100000000E-03 0. -1.
    9900012    2    1    2    0    0  0.19694885131E+02  0.15700317261E+02  0.31918286539E+02  0.50528862306E+02  0.30000007466E+02 0.  0.
         12    1    1    2    0    0 -0.19694885131E+02 -0.15700317261E+02 -0.31918286539E+02  0.40659137694E+02  0.00000000000E+00 0. -1.
         11    1    3    3    0    0  0.14706672394E+02  0.23252949966E+02  0.29957338032E+02  0.40674660383E+02  0.51100000000E-03 0.  1.
        -11    1    3    3    0    0  0.24537471845E+01 -0.14783127837E+01 -0.33321303689E+00  0.28839755756E+01  0.51100000000E-03 0. -1.
        -12    1    3    3    0    0  0.25344655526E+01 -0.60743199216E+01  0.22941615438E+01  0.69702263476E+01  0.00000000000E+00 0.  1.
</event>
<event>
 7    1  0.4971907E-013  0.5052886E+02  0.7816164E-02  0.1300439E+00
        -11   -1    0    0    0    0  0.00000000000E+00  0.00000000000E+00  0.45593999997E+02  0.45594000000E+02  0.51100000000E-03 0.  1.
         11   -1    0    0    0    0 -0.00000000000E+00 -0.00000000000E+00 -0.45593999997E+02  0.45594000000E+02  0.51100000000E-03 0. -1.
    9900012    2    1    2    0    0 -0.36191267412E+02  0.16866327710E+02  0.76736350234E+01  0.50528861768E+02  0.30000005831E+02 0.  0.
         12    1    1    2    0    0  0.36191267412E+02 -0.16866327710E+02 -0.76736350234E+01  0.40659138232E+02  0.00000000000E+00 0. -1.
         11    1    3    3    0    0 -0.16133872410E+02 -0.53293431039E+01 -0.20511417001E+01  0.17114640498E+02  0.51100000000E-03 0. -1.
        -11    1    3    3    0    0 -0.75696698557E+01  0.11019115145E+02 -0.11788556837E+01  0.13420525373E+02  0.51100000000E-03 0.  1.
        -12    1    3    3    0    0 -0.12487725146E+02  0.11176555668E+02  0.10903632407E+02  0.19993695896E+02  0.00000000000E+00 0.  1.
</event>
<event>
 7    1  0.4971907E-013  0.5052886E+02  0.7816164E-02  0.1300439E+00
        -11   -1    0    0    0    0  0.00000000000E+00  0.00000000000E+00  0.45593999997E+02  0.45594000000E+02  0.51100000000E-03 0. -1.
         11   -1    0    0    0    0 -0.00000000000E+00 -0.00000000000E+00 -0.45593999997E+02  0.45594000000E+02  0.51100000000E-03 0.  1.
    9900012    2    1    2    0    0 -0.28852774678E+02  0.22036774446E+02 -0.18304739726E+02  0.50528861654E+02  0.30000005484E+02 0.  0.
         12    1    1    2    0    0  0.28852774678E+02 -0.22036774446E+02  0.18304739726E+02  0.40659138346E+02  0.00000000000E+00 0. -1.
         11    1    3    3    0    0 -0.12308926041E+02  0.20055094824E+02 -0.10393668178E+02  0.25724401395E+02  0.51100000000E-03 0. -1.
        -11    1    3    3    0    0 -0.14916307421E+02  0.75732460182E+01 -0.26132034228E+01  0.16931601067E+02  0.51100000000E-03 0.  1.
         12    1    3    3    0    0 -0.16275412168E+01 -0.55915663966E+01 -0.52978681251E+01  0.78728591916E+01  0.00000000000E+00 0. -1.
</event>
<event>
 7    1  0.4971907E-013  0.5052886E+02  0.7816164E-02  0.1300439E+00
        -11   -1    0    0    0    0  0.00000000000E+00  0.00000000000E+00  0.45593999997E+02  0.45594000000E+02  0.51100000000E-03 0. -1.
         11   -1    0    0    0    0 -0.00000000000E+00 -0.00000000000E+00 -0.45593999997E+02  0.45594000000E+02  0.51100000000E-03 0.  1.
    9900012    2    1    2    0    0 -0.12403773365E+01  0.72267459863E+01 -0.39992516897E+02  0.50528858331E+02  0.29999995383E+02 0.  0.
         12    1    1    2    0    0  0.12403773365E+01 -0.72267459863E+01  0.39992516897E+02  0.40659141669E+02  0.00000000000E+00 0. -1.
         11    1    3    3    0    0  0.58900891730E+01  0.52156476024E+01 -0.16697179294E+02  0.18457841884E+02  0.51100000000E-03 0.  1.
        -11    1    3    3    0    0 -0.41189956560E+01  0.11383023872E+02 -0.11370741761E+02  0.16608224654E+02  0.51100000000E-03 0. -1.
        -12    1    3    3    0    0 -0.30114708535E+01 -0.93719254878E+01 -0.11924595842E+02  0.15462791793E+02  0.00000000000E+00 0.  1.
</event>
<event>
 7    1  0.4971907E-013  0.5052885E+02  0.7816164E-02  0.1300439E+00
        -11   -1    0    0    0    0  0.00000000000E+00  0.00000000000E+00  0.45593999997E+02  0.45594000000E+02  0.51100000000E-03 0.  1.
         11   -1    0    0    0    0 -0.00000000000E+00 -0.00000000000E+00 -0.45593999997E+02  0.45594000000E+02  0.51100000000E-03 0. -1.
    9900012    2    1    2    0    0  0.32826834577E+02 -0.14977596047E+02  0.18741312428E+02  0.50528852896E+02  0.29999978862E+02 0.  0.
         12    1    1    2    0    0 -0.32826834577E+02  0.14977596047E+02 -0.18741312428E+02  0.40659147104E+02  0.00000000000E+00 0. -1.
         11    1    3    3    0    0  0.57273502991E+01 -0.37111377297E+01  0.65776136014E+00  0.68562187075E+01  0.51100000000E-03 0. -1.
        -11    1    3    3    0    0  0.23185013478E+02  0.17550759775E+01  0.19024996044E+02  0.30042896272E+02  0.51100000000E-03 0.  1.
         12    1    3    3    0    0  0.39144708002E+01 -0.13021534295E+02 -0.94144497601E+00  0.13629737917E+02  0.00000000000E+00 0. -1.
</event>
<event>
 7    1  0.4971907E-013  0.5052886E+02  0.7816164E-02  0.1300439E+00
        -11   -1    0    0    0    0  0.00000000000E+00  0.00000000000E+00  0.45593999997E+02  0.45594000000E+02  0.51100000000E-03 0. -1.
         11   -1    0    0    0    0 -0.00000000000E+00 -0.00000000000E+00 -0.45593999997E+02  0.45594000000E+02  0.51100000000E-03 0.  1.
    9900012    2    1    2    0    0  0.27999268847E+02 -0.21284533347E+02 -0.20400382906E+02  0.50528855414E+02  0.29999986516E+02 0.  0.
         12    1    1    2    0    0 -0.27999268847E+02  0.21284533347E+02  0.20400382906E+02  0.40659144586E+02  0.00000000000E+00 0. -1.
         11    1    3    3    0    0  0.13461374059E+02 -0.21425910196E+02 -0.13885896923E+02  0.28863408546E+02  0.51100000000E-03 0.  1.
        -11    1    3    3    0    0 -0.16731877350E+01 -0.17483139641E+01 -0.46453894710E+01  0.52379196741E+01  0.51100000000E-03 0. -1.
        -12    1    3    3    0    0  0.16211082523E+02  0.18896908123E+01 -0.18690965117E+01  0.16427527194E+02  0.00000000000E+00 0.  1.
</event>
<event>
 7    1  0.4971907E-013  0.5052888E+02  0.7816164E-02  0.1300439E+00
        -11   -1    0    0    0    0  0.00000000000E+00  0.00000000000E+00  0.45593999997E+02  0.45594000000E+02  0.51100000000E-03 0. -1.
         11   -1    0    0    0    0 -0.00000000000E+00 -0.00000000000E+00 -0.45593999997E+02  0.45594000000E+02  0.51100000000E-03 0.  1.
    9900012    2    1    2    0    0 -0.14918913422E+02  0.37805283471E+02 -0.11620831209E+01  0.50528882041E+02  0.30000067453E+02 0.  0.
         12    1    1    2    0    0  0.14918913422E+02 -0.37805283471E+02  0.11620831209E+01  0.40659117959E+02  0.00000000000E+00 0. -1.
         11    1    3    3    0    0 -0.73444882155E+01  0.15510017679E+02  0.12042878309E+01  0.17203269021E+02  0.51100000000E-03 0.  1.
        -11    1    3    3    0    0  0.19260965008E+01 -0.42912788494E+01 -0.19434980761E+01  0.50894112554E+01  0.51100000000E-03 0. -1.
         12    1    3    3    0    0 -0.95005217078E+01  0.26586544641E+02 -0.42287287568E+00  0.28236201765E+02  0.00000000000E+00 0. -1.
</event>
<event>
 7    1  0.4971907E-013  0.5052888E+02  0.7816164E-02  0.1300439E+00
        -11   -1    0    0    0    0  0.00000000000E+00  0.00000000000E+00  0.45593999997E+02  0.45594000000E+02  0.51100000000E-03 0.  1.
         11   -1    0    0    0    0 -0.00000000000E+00 -0.00000000000E+00 -0.45593999997E+02  0.45594000000E+02  0.51100000000E-03 0. -1.
    9900012    2    1    2    0    0  0.24942697614E+02  0.21686123391E+02  0.23679913824E+02  0.50528875185E+02  0.30000046613E+02 0.  0.
         12    1    1    2    0    0 -0.24942697614E+02 -0.21686123391E+02 -0.23679913824E+02  0.40659124815E+02  0.00000000000E+00 0. -1.
         11    1    3    3    0    0  0.82445616558E+01 -0.78469196499E+00  0.17043731569E+01  0.84553785542E+01  0.51100000000E-03 0. -1.
        -11    1    3    3    0    0  0.19888172384E+02  0.15372311732E+02  0.23186623903E+02  0.34197469162E+02  0.51100000000E-03 0.  1.
         12    1    3    3    0    0 -0.31900364254E+01  0.70985036237E+01 -0.12110832366E+01  0.78760274693E+01  0.00000000000E+00 0. -1.
</event>
<event>
 7    1  0.4971907E-013  0.5052887E+02  0.7816164E-02  0.1300439E+00
        -11   -1    0    0    0    0  0.00000000000E+00  0.00000000000E+00  0.45593999997E+02  0.45594000000E+02  0.51100000000E-03 0.  1.
         11   -1    0    0    0    0 -0.00000000000E+00 -0.00000000000E+00 -0.45593999997E+02  0.45594000000E+02  0.51100000000E-03 0. -1.
    9900012    2    1    2    0    0 -0.12263540381E+02 -0.30961157824E+02  0.23327604419E+02  0.50528870098E+02  0.30000031150E+02 0.  0.
         12    1    1    2    0    0  0.12263540381E+02  0.30961157824E+02 -0.23327604419E+02  0.40659129902E+02  0.00000000000E+00 0. -1.
         11    1    3    3    0    0  0.13609641356E+01 -0.19722496735E+02  0.73211029784E+01  0.21081452747E+02  0.51100000000E-03 0. -1.
        -11    1    3    3    0    0 -0.12210530087E+02 -0.15665213715E+02  0.14391917267E+02  0.24528009471E+02  0.51100000000E-03 0.  1.
        -12    1    3    3    0    0 -0.14139744293E+01  0.44265526258E+01  0.16145841732E+01  0.49194078798E+01  0.00000000000E+00 0.  1.
</event>
<event>
 7    1  0.4971907E-013  0.5052887E+02  0.7816164E-02  0.1300439E+00
        -11   -1    0    0    0    0  0.00000000000E+00  0.00000000000E+00  0.45593999997E+02  0.45594000000E+02  0.51100000000E-03 0.  1.
         11   -1    0    0    0    0 -0.00000000000E+00 -0.00000000000E+00 -0.45593999997E+02  0.45594000000E+02  0.51100000000E-03 0. -1.
    9900012    2    1    2    0    0  0.34075074056E+01  0.15664133069E+02  0.37365605420E+02  0.50528872612E+02  0.30000038793E+02 0.  0.
         12    1    1    2    0    0 -0.34075074056E+01 -0.15664133069E+02 -0.37365605420E+02  0.40659127388E+02  0.00000000000E+00 0. -1.
         11    1    3    3    0    0  0.12775328678E+02  0.40996403227E+01  0.84162318788E+01  0.15838214322E+02  0.51100000000E-03 0. -1.
        -11    1    3    3    0    0 -0.62634075295E+01 -0.59948654630E+00  0.70604417869E+01  0.94572457136E+01  0.51100000000E-03 0.  1.
        -12    1    3    3    0    0 -0.31044137433E+01  0.12163979293E+02  0.21888931754E+02  0.25233412577E+02  0.00000000000E+00 0.  1.
</event>
<event>
 7    1  0.4971907E-013  0.5052885E+02  0.7816164E-02  0.1300439E+00
        -11   -1    0    0    0    0  0.00000000000E+00  0.00000000000E+00  0.45593999997E+02  0.45594000000E+02  0.51100000000E-03 0.  1.
         11   -1    0    0    0    0 -0.00000000000E+00 -0.00000000000E+00 -0.45593999997E+02  0.45594000000E+02  0.51100000000E-03 0. -1.
    9900012    2    1    2    0    0  0.32220113225E+02  0.10282989478E+02  0.22567469555E+02  0.50528852801E+02  0.29999978574E+02 0.  0.
         12    1    1    2    0    0 -0.32220113225E+02 -0.10282989478E+02 -0.22567469555E+02  0.40659147199E+02  0.00000000000E+00 0. -1.
         11    1    3    3    0    0  0.35678825948E+01  0.10044229028E+01  0.73470132189E+01  0.82290494638E+01  0.51100000000E-03 0. -1.
        -11    1    3    3    0    0 -0.49474450579E+00 -0.61006197644E+01  0.31090201921E+00  0.61285393009E+01  0.51100000000E-03 0.  1.
         12    1    3    3    0    0  0.29146975136E+02  0.15379186339E+02  0.14909554317E+02  0.36171264036E+02  0.00000000000E+00 0. -1.
</event>
<event>
 7    1  0.4971907E-013  0.5052881E+02  0.7816164E-02  0.1300439E+00
        -11   -1    0    0    0    0  0.00000000000E+00  0.00000000000E+00  0.45593999997E+02  0.45594000000E+02  0.51100000000E-03 0.  1.
         11   -1    0    0    0    0 -0.00000000000E+00 -0.00000000000E+00 -0.45593999997E+02  0.45594000000E+02  0.51100000000E-03 0. -1.
    9900012    2    1    2    0    0 -0.19877543972E+02 -0.86703908664E+01  0.34392981834E+02  0.50528811228E+02  0.29999852209E+02 0.  0.
         12    1    1    2    0    0  0.19877543972E+02  0.86703908664E+01 -0.34392981834E+02  0.40659188772E+02  0.00000000000E+00 0. -1.
         11    1    3    3    0    0 -0.17561242332E+02 -0.24775997324E+01  0.84327746668E+01  0.19637907769E+02  0.51100000000E-03 0. -1.
        -11    1    3    3    0    0 -0.42735326643E+01 -0.74492427228E+01  0.52820953133E+01  0.10082401982E+02  0.51100000000E-03 0.  1.
         12    1    3    3    0    0  0.19572310245E+01  0.12564515889E+01  0.20678111854E+02  0.20808501477E+02  0.00000000000E+00 0. -1.
</event>
<event>
 7    1  0.4971907E-013  0.5052886E+02  0.7816164E-02  0.1300439E+00
        -11   -1    0    0    0    0  0.00000000000E+00  0.00000000000E+00  0.45593999997E+02  0.45594000000E+02  0.51100000000E-03 0.  1.
         11   -1    0    0    0    0 -0.00000000000E+00 -0.00000000000E+00 -0.45593999997E+02  0.45594000000E+02  0.51100000000E-03 0. -1.
    9900012    2    1    2    0    0  0.32277685064E+01 -0.37811156318E+02  0.14596707451E+02  0.50528857116E+02  0.29999991689E+02 0.  0.
         12    1    1    2    0    0 -0.32277685064E+01  0.37811156318E+02 -0.14596707451E+02  0.40659142884E+02  0.00000000000E+00 0. -1.
         11    1    3    3    0    0  0.86317213201E+01 -0.13617433314E+02  0.71884375525E+01  0.17652612773E+02  0.51100000000E-03 0. -1.
        -11    1    3    3    0    0 -0.37165598348E+01 -0.24101671341E+02  0.12576669936E+02  0.27438586067E+02  0.51100000000E-03 0.  1.
         12    1    3    3    0    0 -0.16873929789E+01 -0.92051663415E-01 -0.51684000373E+01  0.54376582753E+01  0.00000000000E+00 0. -1.
</event>
<event>
 7    1  0.4971907E-013  0.5052887E+02  0.7816164E-02  0.1300439E+00
        -11   -1    0    0    0    0  0.00000000000E+00  0.00000000000E+00  0.45593999997E+02  0.45594000000E+02  0.51100000000E-03 0. -1.
         11   -1    0    0    0    0 -0.00000000000E+00 -0.00000000000E+00 -0.45593999997E+02  0.45594000000E+02  0.51100000000E-03 0.  1.
    9900012    2    1    2    0    0 -0.38881973495E+01  0.39432326635E+02  0.91180423370E+01  0.50528866234E+02  0.30000019406E+02 0.  0.
         12    1    1    2    0    0  0.38881973495E+01 -0.39432326635E+02 -0.91180423370E+01  0.40659133766E+02  0.00000000000E+00 0. -1.
         11    1    3    3    0    0 -0.11941399217E+02  0.23714311082E+02  0.32708405463E+01  0.26751896447E+02  0.51100000000E-03 0. -1.
        -11    1    3    3    0    0  0.19670648162E+01 -0.22604337803E+01  0.35689293127E+01  0.46600602535E+01  0.51100000000E-03 0.  1.
        -12    1    3    3    0    0  0.60861370516E+01  0.17978449333E+02  0.22782724780E+01  0.19116909534E+02  0.00000000000E+00 0.  1.
</event>
<event>
 7    1  0.4971907E-013  0.5052888E+02  0.7816164E-02  0.1300439E+00
        -11   -1    0    0    0    0  0.00000000000E+00  0.00000000000E+00  0.45593999997E+02  0.45594000000E+02  0.51100000000E-03 0. -1.
         11   -1    0    0    0    0 -0.00000000000E+00 -0.00000000000E+00 -0.45593999997E+02  0.45594000000E+02  0.51100000000E-03 0.  1.
    9900012    2    1    2    0    0  0.70753554295E+01  0.13555488213E+02 -0.37674293518E+02  0.50528876704E+02  0.30000051228E+02 0.  0.
         12    1    1    2    0    0 -0.70753554295E+01 -0.13555488213E+02  0.37674293518E+02  0.40659123296E+02  0.00000000000E+00 0. -1.
         11    1    3    3    0    0 -0.12332738876E+01 -0.11759768833E+01 -0.32766459525E+01  0.36932770098E+01  0.51100000000E-03 0. -1.
        -11    1    3    3    0    0  0.13522334176E+02  0.16265926993E+02 -0.35467748428E+02  0.41296429402E+02  0.51100000000E-03 0.  1.
         12    1    3    3    0    0 -0.52137048589E+01 -0.15344618971E+01  0.10701008622E+01  0.55391702921E+01  0.00000000000E+00 0. -1.
</event>
<event>
 7    1  0.4971907E-013  0.5052887E+02  0.7816164E-02  0.1300439E+00
        -11   -1    0    0    0    0  0.00000000000E+00  0.00000000000E+00  0.45593999997E+02  0.45594000000E+02  0.51100000000E-03 0.  1.
         11   -1    0    0    0    0 -0.00000000000E+00 -0.00000000000E+00 -0.45593999997E+02  0.45594000000E+02  0.51100000000E-03 0. -1.
    9900012    2    1    2    0    0 -0.32899673606E+02  0.53449859566E+01  0.23285354057E+02  0.50528866809E+02  0.30000021153E+02 0.  0.
         12    1    1    2    0    0  0.32899673606E+02 -0.53449859566E+01 -0.23285354057E+02  0.40659133191E+02  0.00000000000E+00 0. -1.
         11    1    3    3    0    0  0.47160589672E+01  0.20136605132E+01 -0.41075429157E+00  0.51443911392E+01  0.51100000000E-03 0. -1.
        -11    1    3    3    0    0 -0.12081982172E+02  0.36493332813E+01  0.43566559897E+01  0.13351867970E+02  0.51100000000E-03 0.  1.
        -12    1    3    3    0    0 -0.25533750401E+02 -0.31800783795E+00  0.19339452359E+02  0.32032607700E+02  0.00000000000E+00 0.  1.
</event>
<event>
 7    1  0.4971907E-013  0.5052886E+02  0.7816164E-02  0.1300439E+00
        -11   -1    0    0    0    0  0.00000000000E+00  0.00000000000E+00  0.45593999997E+02  0.45594000000E+02  0.51100000000E-03 0.  1.
         11   -1    0    0    0    0 -0.00000000000E+00 -0.00000000000E+00 -0.45593999997E+02  0.45594000000E+02  0.51100000000E-03 0. -1.
    9900012    2    1    2    0    0  0.94700503951E+01  0.16890629260E+02  0.35751791596E+02  0.50528858179E+02  0.29999994921E+02 0.  0.
         12    1    1    2    0    0 -0.94700503951E+01 -0.16890629260E+02 -0.35751791596E+02  0.40659141821E+02  0.00000000000E+00 0. -1.
         11    1    3    3    0    0  0.12725685800E+02  0.60987957024E+01  0.85960370591E+01  0.16523626766E+02  0.51100000000E-03 0. -1.
        -11    1    3    3    0    0  0.53290395708E+01  0.95116159429E+01  0.19905855618E+02  0.22696091927E+02  0.51100000000E-03 0.  1.
         12    1    3    3    0    0 -0.85846749761E+01  0.12802176142E+01  0.72498989191E+01  0.11309139486E+02  0.00000000000E+00 0. -1.
</event>
<event>
 7    1  0.4971907E-013  0.5052884E+02  0.7816164E-02  0.1300439E+00
        -11   -1    0    0    0    0  0.00000000000E+00  0.00000000000E+00  0.45593999997E+02  0.45594000000E+02  0.51100000000E-03 0. -1.
         11   -1    0    0    0    0 -0.00000000000E+00 -0.00000000000E+00 -0.45593999997E+02  0.45594000000E+02  0.51100000000E-03 0.  1.
    9900012    2    1    2    0    0 -0.17881414124E+02 -0.32157287508E+02  0.17301194341E+02  0.50528838221E+02  0.29999934257E+02 0.  0.
         12    1    1    2    0    0  0.17881414124E+02  0.32157287508E+02 -0.17301194341E+02  0.40659161779E+02  0.00000000000E+00 0. -1.
         11    1    3    3    0    0 -0.67642212164E+01  0.35642613540E+01  0.73754176230E+01  0.10623343779E+02  0.51100000000E-03 0. -1.
        -11    1    3    3    0    0 -0.56681741116E+01 -0.82640208372E+01  0.58878223153E+01  0.11622766023E+02  0.51100000000E-03 0.  1.
        -12    1    3    3    0    0 -0.54490187956E+01 -0.27457528025E+02  0.40379544031E+01  0.28282728419E+02  0.00000000000E+00 0.  1.
</event>
<event>
 7    1  0.4971907E-013  0.5052879E+02  0.7816164E-02  0.1300439E+00
        -11   -1    0    0    0    0  0.00000000000E+00  0.00000000000E+00  0.45593999997E+02  0.45594000000E+02  0.51100000000E-03 0.  1.
         11   -1    0    0    0    0 -0.00000000000E+00 -0.00000000000E+00 -0.45593999997E+02  0.45594000000E+02  0.51100000000E-03 0. -1.
    9900012    2    1    2    0    0 -0.38030392539E+02 -0.72447844852E+01  0.12424707142E+02  0.50528794321E+02  0.29999800817E+02 0.  0.
         12    1    1    2    0    0  0.38030392539E+02  0.72447844852E+01 -0.12424707142E+02  0.40659205679E+02  0.00000000000E+00 0. -1.
         11    1    3    3    0    0 -0.26015509903E+02 -0.47617615618E+01 -0.15097888781E+00  0.26448136486E+02  0.51100000000E-03 0. -1.
        -11    1    3    3    0    0  0.65697920963E+00 -0.64601726580E+01  0.12212552058E+01  0.66073381169E+01  0.51100000000E-03 0.  1.
        -12    1    3    3    0    0 -0.12671861845E+02  0.39771497346E+01  0.11354430824E+02  0.17473319718E+02  0.00000000000E+00 0.  1.
</event>
<event>
 7    1  0.4971907E-013  0.5052886E+02  0.7816164E-02  0.1300439E+00
        -11   -1    0    0    0    0  0.00000000000E+00  0.00000000000E+00  0.45593999997E+02  0.45594000000E+02  0.51100000000E-03 0.  1.
         11   -1    0    0    0    0 -0.00000000000E+00 -0.00000000000E+00 -0.45593999997E+02  0.45594000000E+02  0.51100000000E-03 0. -1.
    9900012    2    1    2    0    0  0.33795534053E+02 -0.17449123783E+02  0.14372051363E+02  0.50528857078E+02  0.29999991576E+02 0.  0.
         12    1    1    2    0    0 -0.33795534053E+02  0.17449123783E+02 -0.14372051363E+02  0.40659142922E+02  0.00000000000E+00 0. -1.
         11    1    3    3    0    0  0.13247446274E+01 -0.15947640996E+01 -0.49425165434E+01  0.53597286223E+01  0.51100000000E-03 0. -1.
        -11    1    3    3    0    0  0.31532140870E+02 -0.93221808158E+01  0.11258863100E+02  0.34755445063E+02  0.51100000000E-03 0.  1.
         12    1    3    3    0    0  0.93864855582E+00 -0.65321788676E+01  0.80557048068E+01  0.10413683393E+02  0.00000000000E+00 0. -1.
</event>
<event>
 7    1  0.4971907E-013  0.5052886E+02  0.7816164E-02  0.1300439E+00
        -11   -1    0    0    0    0  0.00000000000E+00  0.00000000000E+00  0.45593999997E+02  0.45594000000E+02  0.51100000000E-03 0. -1.
         11   -1    0    0    0    0 -0.00000000000E+00 -0.00000000000E+00 -0.45593999997E+02  0.45594000000E+02  0.51100000000E-03 0.  1.
    9900012    2    1    2    0    0 -0.24338308668E+02 -0.31828671004E+02 -0.69099794737E+01  0.50528863474E+02  0.30000011017E+02 0.  0.
         12    1    1    2    0    0  0.24338308668E+02  0.31828671004E+02  0.69099794737E+01  0.40659136526E+02  0.00000000000E+00 0. -1.
         11    1    3    3    0    0 -0.97450379558E+01 -0.13404532303E+02 -0.12162553824E+02  0.20556628294E+02  0.51100000000E-03 0. -1.
        -11    1    3    3    0    0 -0.15238836866E+02 -0.55970689967E+01  0.54584268360E+01  0.17127280992E+02  0.51100000000E-03 0.  1.
         12    1    3    3    0    0  0.64556615442E+00 -0.12827069704E+02 -0.20585248527E+00  0.12844954188E+02  0.00000000000E+00 0. -1.
</event>
<event>
 7    1  0.4971907E-013  0.5052886E+02  0.7816164E-02  0.1300439E+00
        -11   -1    0    0    0    0  0.00000000000E+00  0.00000000000E+00  0.45593999997E+02  0.45594000000E+02  0.51100000000E-03 0.  1.
         11   -1    0    0    0    0 -0.00000000000E+00 -0.00000000000E+00 -0.45593999997E+02  0.45594000000E+02  0.51100000000E-03 0. -1.
    9900012    2    1    2    0    0  0.40045494247E+02  0.96924736437E+00  0.69702757564E+01  0.50528858420E+02  0.29999995653E+02 0.  0.
         12    1    1    2    0    0 -0.40045494247E+02 -0.96924736437E+00 -0.69702757564E+01  0.40659141580E+02  0.00000000000E+00 0. -1.
         11    1    3    3    0    0  0.16285994725E+01 -0.40778986986E+01 -0.32491509443E+01  0.54624697855E+01  0.51100000000E-03 0. -1.
        -11    1    3    3    0    0  0.15667536966E+02  0.12309055929E+02  0.32327540284E+01  0.20185025918E+02  0.51100000000E-03 0.  1.
         12    1    3    3    0    0  0.22749357808E+02 -0.72619098663E+01  0.69866726723E+01  0.24881362716E+02  0.00000000000E+00 0. -1.
</event>
<event>
 7    1  0.4971907E-013  0.5052886E+02  0.7816164E-02  0.1300439E+00
        -11   -1    0    0    0    0  0.00000000000E+00  0.00000000000E+00  0.45593999997E+02  0.45594000000E+02  0.51100000000E-03 0. -1.
         11   -1    0    0    0    0 -0.00000000000E+00 -0.00000000000E+00 -0.45593999997E+02  0.45594000000E+02  0.51100000000E-03 0.  1.
    9900012    2    1    2    0    0  0.35974773985E+02  0.16365662806E+02 -0.95470629601E+01  0.50528859656E+02  0.29999999411E+02 0.  0.
         12    1    1    2    0    0 -0.35974773985E+02 -0.16365662806E+02  0.95470629601E+01  0.40659140344E+02  0.00000000000E+00 0. -1.
         11    1    3    3    0    0  0.23134733019E+02  0.73157466628E+01 -0.14362223649E+01  0.24306352175E+02  0.51100000000E-03 0.  1.
        -11    1    3    3    0    0  0.17809207323E+02  0.90060840625E+01 -0.67937630184E+01  0.21081570905E+02  0.51100000000E-03 0. -1.
         12    1    3    3    0    0 -0.49691663574E+01  0.43832080715E-01 -0.13170775768E+01  0.51409365763E+01  0.00000000000E+00 0. -1.
</event>
<event>
 7    1  0.4971907E-013  0.5052886E+02  0.7816164E-02  0.1300439E+00
        -11   -1    0    0    0    0  0.00000000000E+00  0.00000000000E+00  0.45593999997E+02  0.45594000000E+02  0.51100000000E-03 0.  1.
         11   -1    0    0    0    0 -0.00000000000E+00 -0.00000000000E+00 -0.45593999997E+02  0.45594000000E+02  0.51100000000E-03 0. -1.
    9900012    2    1    2    0    0  0.20225831889E+01 -0.39013101347E+02 -0.11271756010E+02  0.50528863228E+02  0.30000010268E+02 0.  0.
         12    1    1    2    0    0 -0.20225831889E+01  0.39013101347E+02  0.11271756010E+02  0.40659136772E+02  0.00000000000E+00 0. -1.
         11    1    3    3    0    0 -0.29753479021E+00 -0.51342560753E+01  0.66662490113E+01  0.84195004923E+01  0.51100000000E-03 0. -1.
        -11    1    3    3    0    0 -0.74552630139E+01 -0.11992120799E+02 -0.62768254080E+01  0.15452845865E+02  0.51100000000E-03 0.  1.
         12    1    3    3    0    0  0.97753809931E+01 -0.21886724473E+02 -0.11661179613E+02  0.26656516870E+02  0.00000000000E+00 0. -1.
</event>
<event>
 7    1  0.4971907E-013  0.5052895E+02  0.7816164E-02  0.1300438E+00
        -11   -1    0    0    0    0  0.00000000000E+00  0.00000000000E+00  0.45593999997E+02  0.45594000000E+02  0.51100000000E-03 0.  1.
         11   -1    0    0    0    0 -0.00000000000E+00 -0.00000000000E+00 -0.45593999997E+02  0.45594000000E+02  0.51100000000E-03 0. -1.
    9900012    2    1    2    0    0 -0.93810987704E+01 -0.84808809153E+00  0.39552923271E+02  0.50528954182E+02  0.30000286729E+02 0.  0.
         12    1    1    2    0    0  0.93810987704E+01  0.84808809153E+00 -0.39552923271E+02  0.40659045818E+02  0.00000000000E+00 0. -1.
         11    1    3    3    0    0  0.96838368121E+00  0.21197496970E+01  0.26300655867E+02  0.26403704380E+02  0.51100000000E-03 0. -1.
        -11    1    3    3    0    0  0.47327082347E+01 -0.15008767514E+01  0.39487805403E+01  0.63438179573E+01  0.51100000000E-03 0.  1.
         12    1    3    3    0    0 -0.15082190686E+02 -0.14669610372E+01  0.93034868644E+01  0.17781431844E+02  0.00000000000E+00 0. -1.
</event>
<event>
 7    1  0.4971907E-013  0.5052886E+02  0.7816164E-02  0.1300439E+00
        -11   -1    0    0    0    0  0.00000000000E+00  0.00000000000E+00  0.45593999997E+02  0.45594000000E+02  0.51100000000E-03 0.  1.
         11   -1    0    0    0    0 -0.00000000000E+00 -0.00000000000E+00 -0.45593999997E+02  0.45594000000E+02  0.51100000000E-03 0. -1.
    9900012    2    1    2    0    0 -0.11672696522E+02  0.27790660970E+02  0.27287232638E+02  0.50528859007E+02  0.29999997437E+02 0.  0.
         12    1    1    2    0    0  0.11672696522E+02 -0.27790660970E+02 -0.27287232638E+02  0.40659140993E+02  0.00000000000E+00 0. -1.
         11    1    3    3    0    0 -0.12839609628E+02  0.19308891284E+02  0.14889929908E+02  0.27557192727E+02  0.51100000000E-03 0.  1.
        -11    1    3    3    0    0 -0.73092384902E+01  0.19546328089E+01  0.89768938883E+01  0.11740109917E+02  0.51100000000E-03 0. -1.
        -12    1    3    3    0    0  0.84761515962E+01  0.65271368770E+01  0.34204088413E+01  0.11231556363E+02  0.00000000000E+00 0.  1.
</event>
<event>
 7    1  0.4971907E-013  0.5052880E+02  0.7816164E-02  0.1300439E+00
        -11   -1    0    0    0    0  0.00000000000E+00  0.00000000000E+00  0.45593999997E+02  0.45594000000E+02  0.51100000000E-03 0. -1.
         11   -1    0    0    0    0 -0.00000000000E+00 -0.00000000000E+00 -0.45593999997E+02  0.45594000000E+02  0.51100000000E-03 0.  1.
    9900012    2    1    2    0    0 -0.39953504527E+02  0.55309528674E+01 -0.51279936790E+01  0.50528803220E+02  0.29999827867E+02 0.  0.
         12    1    1    2    0    0  0.39953504527E+02 -0.55309528674E+01  0.51279936790E+01  0.40659196780E+02  0.00000000000E+00 0. -1.
         11    1    3    3    0    0 -0.32468306548E+02  0.10334236329E+02  0.47399440438E+01  0.34401372652E+02  0.51100000000E-03 0. -1.
        -11    1    3    3    0    0  0.99891355487E+00 -0.22904261309E+00  0.11152502906E+01  0.15146195168E+01  0.51100000000E-03 0.  1.
        -12    1    3    3    0    0 -0.84841115344E+01 -0.45742408483E+01 -0.10983188013E+02  0.14612811051E+02  0.00000000000E+00 0.  1.
</event>
<event>
 7    1  0.4971907E-013  0.5052886E+02  0.7816164E-02  0.1300439E+00
        -11   -1    0    0    0    0  0.00000000000E+00  0.00000000000E+00  0.45593999997E+02  0.45594000000E+02  0.51100000000E-03 0.  1.
         11   -1    0    0    0    0 -0.00000000000E+00 -0.00000000000E+00 -0.45593999997E+02  0.45594000000E+02  0.51100000000E-03 0. -1.
    9900012    2    1    2    0    0  0.27279793198E+00 -0.12929173536E+01  0.40637666312E+02  0.50528856167E+02  0.29999988804E+02 0.  0.
         12    1    1    2    0    0 -0.27279793198E+00  0.12929173536E+01 -0.40637666312E+02  0.40659143833E+02  0.00000000000E+00 0. -1.
         11    1    3    3    0    0  0.91469578433E+00 -0.32587875782E+01 -0.38264297959E+00  0.34062854796E+01  0.51100000000E-03 0. -1.
        -11    1    3    3    0    0  0.97631168221E+01 -0.46582577618E+01  0.17791807110E+02  0.20822252903E+02  0.51100000000E-03 0.  1.
         12    1    3    3    0    0 -0.10405014674E+02  0.66241279864E+01  0.23228502182E+02  0.26300317784E+02  0.00000000000E+00 0. -1.
</event>
<event>
 7    1  0.4971907E-013  0.5052891E+02  0.7816164E-02  0.1300439E+00
        -11   -1    0    0    0    0  0.00000000000E+00  0.00000000000E+00  0.45593999997E+02  0.45594000000E+02  0.51100000000E-03 0. -1.
         11   -1    0    0    0    0 -0.00000000000E+00 -0.00000000000E+00 -0.45593999997E+02  0.45594000000E+02  0.51100000000E-03 0.  1.
    9900012    2    1    2    0    0  0.32546993410E+01 -0.23702708350E+02 -0.32874769914E+02  0.50528905718E+02  0.30000139422E+02 0.  0.
         12    1    1    2    0    0 -0.32546993410E+01  0.23702708350E+02  0.32874769914E+02  0.40659094282E+02  0.00000000000E+00 0. -1.
         11    1    3    3    0    0  0.53532865433E+01 -0.11562558569E+02 -0.19343357558E+02  0.23162813287E+02  0.51100000000E-03 0.  1.
        -11    1    3    3    0    0  0.42317242387E+01 -0.13316967155E+02 -0.15268367141E+02  0.20697152936E+02  0.51100000000E-03 0. -1.
         12    1    3    3    0    0 -0.63303114410E+01  0.11768173739E+01  0.17369547857E+01  0.66689394958E+01  0.00000000000E+00 0. -1.
</event>
<event>
 7    1  0.5664275E-013  0.5052885E+02  0.7816164E-02  0.1300439E+00
        -11   -1    0    0    0    0  0.00000000000E+00  0.00000000000E+00  0.45593999997E+02  0.45594000000E+02  0.51100000000E-03 0. -1.
         11   -1    0    0    0    0 -0.00000000000E+00 -0.00000000000E+00 -0.45593999997E+02  0.45594000000E+02  0.51100000000E-03 0.  1.
    9900012    2    1    2    0    0 -0.25611684254E+01 -0.14102847747E+02 -0.38048868579E+02  0.50528852217E+02  0.29999976798E+02 0.  0.
         12    1    1    2    0    0  0.25611684254E+01  0.14102847747E+02  0.38048868579E+02  0.40659147783E+02  0.00000000000E+00 0. -1.
         11    1    3    3    0    0 -0.83818882300E+00  0.22230510298E+01  0.92555871847E+00  0.25497402978E+01  0.51100000000E-03 0. -1.
        -11    1    3    3    0    0 -0.77239356064E+01 -0.96611018825E+01 -0.58885892861E+01  0.13699326804E+02  0.51100000000E-03 0.  1.
        -12    1    3    3    0    0  0.60009560040E+01 -0.66647968946E+01 -0.33085838012E+02  0.34279785115E+02  0.00000000000E+00 0.  1.
</event>
<event>
 7    1  0.4971907E-013  0.5052885E+02  0.7816164E-02  0.1300439E+00
        -11   -1    0    0    0    0  0.00000000000E+00  0.00000000000E+00  0.45593999997E+02  0.45594000000E+02  0.51100000000E-03 0.  1.
         11   -1    0    0    0    0 -0.00000000000E+00 -0.00000000000E+00 -0.45593999997E+02  0.45594000000E+02  0.51100000000E-03 0. -1.
    9900012    2    1    2    0    0 -0.13567684819E+02 -0.36988986369E+01  0.38149735540E+02  0.50528852884E+02  0.29999978826E+02 0.  0.
         12    1    1    2    0    0  0.13567684819E+02  0.36988986369E+01 -0.38149735540E+02  0.40659147116E+02  0.00000000000E+00 0. -1.
         11    1    3    3    0    0 -0.35406194957E+00  0.40432192871E+01  0.58757102839E+00  0.41010025655E+01  0.51100000000E-03 0. -1.
        -11    1    3    3    0    0  0.19835681042E+01  0.35411027861E+01  0.20649797330E+02  0.21044906306E+02  0.51100000000E-03 0.  1.
         12    1    3    3    0    0 -0.15197190974E+02 -0.11283220710E+02  0.16912367181E+02  0.25382944013E+02  0.00000000000E+00 0. -1.
</event>
<event>
 7    1  0.4971907E-013  0.5052887E+02  0.7816164E-02  0.1300439E+00
        -11   -1    0    0    0    0  0.00000000000E+00  0.00000000000E+00  0.45593999997E+02  0.45594000000E+02  0.51100000000E-03 0.  1.
         11   -1    0    0    0    0 -0.00000000000E+00 -0.00000000000E+00 -0.45593999997E+02  0.45594000000E+02  0.51100000000E-03 0. -1.
    9900012    2    1    2    0    0  0.14310798438E+02  0.32647755946E+02  0.19557354972E+02  0.50528867523E+02  0.30000023324E+02 0.  0.
         12    1    1    2    0    0 -0.14310798438E+02 -0.32647755946E+02 -0.19557354972E+02  0.40659132477E+02  0.00000000000E+00 0. -1.
         11    1    3    3    0    0  0.38116086501E+01  0.14790921085E+02 -0.55035638985E+01  0.16235421858E+02  0.51100000000E-03 0. -1.
        -11    1    3    3    0    0  0.61326740232E+01  0.60057051124E+01  0.34265464196E+01  0.92422619093E+01  0.51100000000E-03 0.  1.
        -12    1    3    3    0    0  0.43665157644E+01  0.11851129749E+02  0.21634372451E+02  0.25051183756E+02  0.00000000000E+00 0.  1.
</event>
<event>
 7    1  0.4971907E-013  0.5052886E+02  0.7816164E-02  0.1300439E+00
        -11   -1    0    0    0    0  0.00000000000E+00  0.00000000000E+00  0.45593999997E+02  0.45594000000E+02  0.51100000000E-03 0. -1.
         11   -1    0    0    0    0 -0.00000000000E+00 -0.00000000000E+00 -0.45593999997E+02  0.45594000000E+02  0.51100000000E-03 0.  1.
    9900012    2    1    2    0    0 -0.36030821422E+02 -0.74577134445E+01  0.17301106355E+02  0.50528857568E+02  0.29999993065E+02 0.  0.
         12    1    1    2    0    0  0.36030821422E+02  0.74577134445E+01 -0.17301106355E+02  0.40659142432E+02  0.00000000000E+00 0. -1.
         11    1    3    3    0    0 -0.14715897605E+02 -0.92896432067E+01 -0.22833744254E+01  0.17551891985E+02  0.51100000000E-03 0.  1.
        -11    1    3    3    0    0  0.20520915369E+01 -0.19360715139E+01  0.15394777450E+01  0.32139453280E+01  0.51100000000E-03 0. -1.
         12    1    3    3    0    0 -0.23367015354E+02  0.37680012761E+01  0.18045003035E+02  0.29763020255E+02  0.00000000000E+00 0. -1.
</event>
<event>
 7    1  0.4971907E-013  0.5052885E+02  0.7816164E-02  0.1300439E+00
        -11   -1    0    0    0    0  0.00000000000E+00  0.00000000000E+00  0.45593999997E+02  0.45594000000E+02  0.51100000000E-03 0. -1.
         11   -1    0    0    0    0 -0.00000000000E+00 -0.00000000000E+00 -0.45593999997E+02  0.45594000000E+02  0.51100000000E-03 0.  1.
    9900012    2    1    2    0    0  0.26141670914E+01 -0.40030221387E+02 -0.66267680590E+01  0.50528849138E+02  0.29999967440E+02 0.  0.
         12    1    1    2    0    0 -0.26141670914E+01  0.40030221387E+02  0.66267680590E+01  0.40659150862E+02  0.00000000000E+00 0. -1.
         11    1    3    3    0    0  0.39379161871E+01 -0.12452404479E+01  0.14363758780E+01  0.43727546917E+01  0.51100000000E-03 0. -1.
        -11    1    3    3    0    0 -0.20431541366E+01 -0.16805578097E+02 -0.15488164338E+02  0.22945264628E+02  0.51100000000E-03 0.  1.
         12    1    3    3    0    0  0.71940504092E+00 -0.21979402842E+02  0.74250204015E+01  0.23210829819E+02  0.00000000000E+00 0. -1.
</event>
<event>
 7    1  0.4971907E-013  0.5052885E+02  0.7816164E-02  0.1300439E+00
        -11   -1    0    0    0    0  0.00000000000E+00  0.00000000000E+00  0.45593999997E+02  0.45594000000E+02  0.51100000000E-03 0.  1.
         11   -1    0    0    0    0 -0.00000000000E+00 -0.00000000000E+00 -0.45593999997E+02  0.45594000000E+02  0.51100000000E-03 0. -1.
    9900012    2    1    2    0    0  0.24255338227E+02  0.20676925141E+02  0.25244999385E+02  0.50528847774E+02  0.29999963295E+02 0.  0.
         12    1    1    2    0    0 -0.24255338227E+02 -0.20676925141E+02 -0.25244999385E+02  0.40659152226E+02  0.00000000000E+00 0. -1.
         11    1    3    3    0    0  0.12856378509E+02  0.41604081205E+01  0.53593123791E+01  0.14536770396E+02  0.51100000000E-03 0. -1.
        -11    1    3    3    0    0  0.26838917247E+01 -0.47599876025E+01 -0.19132750711E+00  0.54678481363E+01  0.51100000000E-03 0.  1.
        -12    1    3    3    0    0  0.87150679927E+01  0.21276504623E+02  0.20077014513E+02  0.30524229242E+02  0.00000000000E+00 0.  1.
</event>
<event>
 7    1  0.4971907E-013  0.5052886E+02  0.7816164E-02  0.1300439E+00
        -11   -1    0    0    0    0  0.00000000000E+00  0.00000000000E+00  0.45593999997E+02  0.45594000000E+02  0.51100000000E-03 0.  1.
         11   -1    0    0    0    0 -0.00000000000E+00 -0.00000000000E+00 -0.45593999997E+02  0.45594000000E+02  0.51100000000E-03 0. -1.
    9900012    2    1    2    0    0  0.32142588795E+02 -0.13474474807E+02  0.20939387160E+02  0.50528863015E+02  0.30000009619E+02 0.  0.
         12    1    1    2    0    0 -0.32142588795E+02  0.13474474807E+02 -0.20939387160E+02  0.40659136985E+02  0.00000000000E+00 0. -1.
         11    1    3    3    0    0  0.31935220256E+00 -0.52750504997E+01 -0.38062829813E+01  0.65127516457E+01  0.51100000000E-03 0. -1.
        -11    1    3    3    0    0  0.13707794532E+02 -0.14503246971E+01  0.16271750539E+01  0.13880013385E+02  0.51100000000E-03 0.  1.
        -12    1    3    3    0    0  0.18115442060E+02 -0.67490996100E+01  0.23118495087E+02  0.30136097984E+02  0.00000000000E+00 0.  1.
</event>
<event>
 7    1  0.4971907E-013  0.5052886E+02  0.7816164E-02  0.1300439E+00
        -11   -1    0    0    0    0  0.00000000000E+00  0.00000000000E+00  0.45593999997E+02  0.45594000000E+02  0.51100000000E-03 0.  1.
         11   -1    0    0    0    0 -0.00000000000E+00 -0.00000000000E+00 -0.45593999997E+02  0.45594000000E+02  0.51100000000E-03 0. -1.
    9900012    2    1    2    0    0  0.18984490498E+01  0.16062460820E+02  0.37303605964E+02  0.50528858663E+02  0.29999996391E+02 0.  0.
         12    1    1    2    0    0 -0.18984490498E+01 -0.16062460820E+02 -0.37303605964E+02  0.40659141337E+02  0.00000000000E+00 0. -1.
         11    1    3    3    0    0 -0.52183803741E-01  0.16172017830E+02  0.64020026907E+01  0.17393174597E+02  0.51100000000E-03 0. -1.
        -11    1    3    3    0    0  0.36558370590E+00  0.34982103669E+01  0.21650453198E+01  0.41301995975E+01  0.51100000000E-03 0.  1.
        -12    1    3    3    0    0  0.15850491476E+01 -0.36077673765E+01  0.28736557953E+02  0.29005484468E+02  0.00000000000E+00 0.  1.
</event>
<event>
 7    1  0.4971907E-013  0.5052886E+02  0.7816164E-02  0.1300439E+00
        -11   -1    0    0    0    0  0.00000000000E+00  0.00000000000E+00  0.45593999997E+02  0.45594000000E+02  0.51100000000E-03 0. -1.
         11   -1    0    0    0    0 -0.00000000000E+00 -0.00000000000E+00 -0.45593999997E+02  0.45594000000E+02  0.51100000000E-03 0.  1.
    9900012    2    1    2    0    0  0.32600824169E+02 -0.23073333172E+02  0.76140147958E+01  0.50528860050E+02  0.30000000607E+02 0.  0.
         12    1    1    2    0    0 -0.32600824169E+02  0.23073333172E+02 -0.76140147958E+01  0.40659139950E+02  0.00000000000E+00 0. -1.
         11    1    3    3    0    0  0.61723212889E+01 -0.79992664291E+01  0.11458708011E+02  0.15277035152E+02  0.51100000000E-03 0. -1.
        -11    1    3    3    0    0 -0.10644911297E+01  0.22751722842E+01 -0.58743585397E+00  0.25796572315E+01  0.51100000000E-03 0.  1.
        -12    1    3    3    0    0  0.27492994010E+02 -0.17349239028E+02 -0.32572573613E+01  0.32672167666E+02  0.00000000000E+00 0.  1.
</event>
<event>
 7    1  0.4971907E-013  0.5052886E+02  0.7816164E-02  0.1300439E+00
        -11   -1    0    0    0    0  0.00000000000E+00  0.00000000000E+00  0.45593999997E+02  0.45594000000E+02  0.51100000000E-03 0.  1.
         11   -1    0    0    0    0 -0.00000000000E+00 -0.00000000000E+00 -0.45593999997E+02  0.45594000000E+02  0.51100000000E-03 0. -1.
    9900012    2    1    2    0    0 -0.80534224711E+01  0.39059298172E+02  0.79170124319E+01  0.50528862368E+02  0.30000007653E+02 0.  0.
         12    1    1    2    0    0  0.80534224711E+01 -0.39059298172E+02 -0.79170124319E+01  0.40659137632E+02  0.00000000000E+00 0. -1.
         11    1    3    3    0    0  0.81446629152E+01  0.12666495133E+02 -0.11432177923E+01  0.15102403124E+02  0.51100000000E-03 0.  1.
        -11    1    3    3    0    0 -0.40096902291E+01  0.61723917658E+00  0.52895246617E+01  0.66661586647E+01  0.51100000000E-03 0. -1.
        -12    1    3    3    0    0 -0.12188395157E+02  0.25775563862E+02  0.37707055626E+01  0.28760300578E+02  0.00000000000E+00 0.  1.
</event>
<event>
 7    1  0.4971907E-013  0.5052885E+02  0.7816164E-02  0.1300439E+00
        -11   -1    0    0    0    0  0.00000000000E+00  0.00000000000E+00  0.45593999997E+02  0.45594000000E+02  0.51100000000E-03 0.  1.
         11   -1    0    0    0    0 -0.00000000000E+00 -0.00000000000E+00 -0.45593999997E+02  0.45594000000E+02  0.51100000000E-03 0. -1.
    9900012    2    1    2    0    0  0.21521335229E+02 -0.32775850610E+02  0.10758349868E+02  0.50528851643E+02  0.29999975053E+02 0.  0.
         12    1    1    2    0    0 -0.21521335229E+02  0.32775850610E+02 -0.10758349868E+02  0.40659148357E+02  0.00000000000E+00 0. -1.
         11    1    3    3    0    0  0.11056536897E+02 -0.22816248751E+02  0.14026419864E+01  0.25392826153E+02  0.51100000000E-03 0. -1.
        -11    1    3    3    0    0  0.26332232623E+01 -0.10870662788E+02  0.12386444771E+02  0.16689193766E+02  0.51100000000E-03 0.  1.
         12    1    3    3    0    0  0.78315750690E+01  0.91106092911E+00 -0.30307368898E+01  0.84468317240E+01  0.00000000000E+00 0. -1.
</event>
<event>
 7    1  0.4971907E-013  0.5052888E+02  0.7816164E-02  0.1300439E+00
        -11   -1    0    0    0    0  0.00000000000E+00  0.00000000000E+00  0.45593999997E+02  0.45594000000E+02  0.51100000000E-03 0.  1.
         11   -1    0    0    0    0 -0.00000000000E+00 -0.00000000000E+00 -0.45593999997E+02  0.45594000000E+02  0.51100000000E-03 0. -1.
    9900012    2    1    2    0    0 -0.13056157184E+02 -0.30160519762E+02  0.23938336987E+02  0.50528878386E+02  0.30000056342E+02 0.  0.
         12    1    1    2    0    0  0.13056157184E+02  0.30160519762E+02 -0.23938336987E+02  0.40659121614E+02  0.00000000000E+00 0. -1.
         11    1    3    3    0    0 -0.15159501318E+02 -0.70511907278E+01  0.64001150463E+01  0.17902269235E+02  0.51100000000E-03 0. -1.
        -11    1    3    3    0    0  0.40558165201E+00 -0.19255318272E+02  0.57361372443E+01  0.20095647514E+02  0.51100000000E-03 0.  1.
        -12    1    3    3    0    0  0.16977624816E+01 -0.38540107618E+01  0.11802084696E+02  0.12530961638E+02  0.00000000000E+00 0.  1.
</event>
<event>
 7    1  0.4971907E-013  0.5052886E+02  0.7816164E-02  0.1300439E+00
        -11   -1    0    0    0    0  0.00000000000E+00  0.00000000000E+00  0.45593999997E+02  0.45594000000E+02  0.51100000000E-03 0.  1.
         11   -1    0    0    0    0 -0.00000000000E+00 -0.00000000000E+00 -0.45593999997E+02  0.45594000000E+02  0.51100000000E-03 0. -1.
    9900012    2    1    2    0    0  0.36796869199E+02  0.16287231876E+02 -0.58208461742E+01  0.50528858897E+02  0.29999997104E+02 0.  0.
         12    1    1    2    0    0 -0.36796869199E+02 -0.16287231876E+02  0.58208461742E+01  0.40659141103E+02  0.00000000000E+00 0. -1.
         11    1    3    3    0    0  0.30620429926E+01 -0.50994319804E+01 -0.65405854544E+01  0.88407902452E+01  0.51100000000E-03 0. -1.
        -11    1    3    3    0    0  0.74725374835E+01  0.26157915172E+01  0.46294519097E+01  0.91713143523E+01  0.51100000000E-03 0.  1.
         12    1    3    3    0    0  0.26262288723E+02  0.18770872339E+02 -0.39097126294E+01  0.32516754300E+02  0.00000000000E+00 0. -1.
</event>
<event>
 7    1  0.4971907E-013  0.5052886E+02  0.7816164E-02  0.1300439E+00
        -11   -1    0    0    0    0  0.00000000000E+00  0.00000000000E+00  0.45593999997E+02  0.45594000000E+02  0.51100000000E-03 0. -1.
         11   -1    0    0    0    0 -0.00000000000E+00 -0.00000000000E+00 -0.45593999997E+02  0.45594000000E+02  0.51100000000E-03 0.  1.
    9900012    2    1    2    0    0  0.19434536228E+00  0.23797755903E+02 -0.32966565261E+02  0.50528863496E+02  0.30000011082E+02 0.  0.
         12    1    1    2    0    0 -0.19434536228E+00 -0.23797755903E+02  0.32966565261E+02  0.40659136504E+02  0.00000000000E+00 0. -1.
         11    1    3    3    0    0  0.68461301884E+01 -0.43593422316E+00 -0.71769394644E+01  0.99281416962E+01  0.51100000000E-03 0. -1.
        -11    1    3    3    0    0  0.39626960163E+01  0.11264414807E+02 -0.19163087497E+02  0.22579059399E+02  0.51100000000E-03 0.  1.
        -12    1    3    3    0    0 -0.10614480842E+02  0.12969275319E+02 -0.66265383002E+01  0.18021662401E+02  0.00000000000E+00 0.  1.
</event>
<event>
 7    1  0.4971907E-013  0.5052874E+02  0.7816164E-02  0.1300439E+00
        -11   -1    0    0    0    0  0.00000000000E+00  0.00000000000E+00  0.45593999997E+02  0.45594000000E+02  0.51100000000E-03 0.  1.
         11   -1    0    0    0    0 -0.00000000000E+00 -0.00000000000E+00 -0.45593999997E+02  0.45594000000E+02  0.51100000000E-03 0. -1.
    9900012    2    1    2    0    0  0.10082455853E+02  0.32478415952E+02  0.22286133195E+02  0.50528743347E+02  0.29999645876E+02 0.  0.
         12    1    1    2    0    0 -0.10082455853E+02 -0.32478415952E+02 -0.22286133195E+02  0.40659256653E+02  0.00000000000E+00 0. -1.
         11    1    3    3    0    0  0.15659301753E+02  0.33962697127E+02  0.22510924913E+02  0.43651119897E+02  0.51100000000E-03 0. -1.
        -11    1    3    3    0    0 -0.76679638168E+00 -0.12781025122E+00  0.14178141253E+01  0.16169444352E+01  0.51100000000E-03 0.  1.
         12    1    3    3    0    0 -0.48100495189E+01 -0.13564709242E+01 -0.16426058435E+01  0.52606790150E+01  0.00000000000E+00 0. -1.
</event>
<event>
 7    1  0.4971907E-013  0.5052887E+02  0.7816164E-02  0.1300439E+00
        -11   -1    0    0    0    0  0.00000000000E+00  0.00000000000E+00  0.45593999997E+02  0.45594000000E+02  0.51100000000E-03 0.  1.
         11   -1    0    0    0    0 -0.00000000000E+00 -0.00000000000E+00 -0.45593999997E+02  0.45594000000E+02  0.51100000000E-03 0. -1.
    9900012    2    1    2    0    0 -0.29339602209E+02  0.79219385124E+01  0.27011020125E+02  0.50528873401E+02  0.30000041191E+02 0.  0.
         12    1    1    2    0    0  0.29339602209E+02 -0.79219385124E+01 -0.27011020125E+02  0.40659126599E+02  0.00000000000E+00 0. -1.
         11    1    3    3    0    0 -0.14388164581E+01  0.93894114722E+00  0.14558657077E+02  0.14659682787E+02  0.51100000000E-03 0.  1.
        -11    1    3    3    0    0 -0.71237529975E+01  0.98941432717E+01  0.17491156644E+01  0.12316709533E+02  0.51100000000E-03 0. -1.
        -12    1    3    3    0    0 -0.20777032753E+02 -0.29111459065E+01  0.10703247384E+02  0.23552481081E+02  0.00000000000E+00 0.  1.
</event>
<event>
 7    1  0.4971907E-013  0.5052886E+02  0.7816164E-02  0.1300439E+00
        -11   -1    0    0    0    0  0.00000000000E+00  0.00000000000E+00  0.45593999997E+02  0.45594000000E+02  0.51100000000E-03 0.  1.
         11   -1    0    0    0    0 -0.00000000000E+00 -0.00000000000E+00 -0.45593999997E+02  0.45594000000E+02  0.51100000000E-03 0. -1.
    9900012    2    1    2    0    0 -0.16332217999E+02  0.25997194478E+02  0.26656520709E+02  0.50528861276E+02  0.30000004335E+02 0.  0.
         12    1    1    2    0    0  0.16332217999E+02 -0.25997194478E+02 -0.26656520709E+02  0.40659138724E+02  0.00000000000E+00 0. -1.
         11    1    3    3    0    0 -0.76844685569E+01 -0.42526634815E+00 -0.11538834608E+01  0.77822461906E+01  0.51100000000E-03 0. -1.
        -11    1    3    3    0    0 -0.69517294512E+01  0.32366844388E+01  0.13269643608E+02  0.15325994593E+02  0.51100000000E-03 0.  1.
        -12    1    3    3    0    0 -0.16960199905E+01  0.23185776387E+02  0.14540760562E+02  0.27420620492E+02  0.00000000000E+00 0.  1.
</event>
<event>
 7    1  0.4971907E-013  0.5052885E+02  0.7816164E-02  0.1300439E+00
        -11   -1    0    0    0    0  0.00000000000E+00  0.00000000000E+00  0.45593999997E+02  0.45594000000E+02  0.51100000000E-03 0. -1.
         11   -1    0    0    0    0 -0.00000000000E+00 -0.00000000000E+00 -0.45593999997E+02  0.45594000000E+02  0.51100000000E-03 0.  1.
    9900012    2    1    2    0    0 -0.39292471856E+02 -0.54556719798E+01 -0.89164821953E+01  0.50528851508E+02  0.29999974644E+02 0.  0.
         12    1    1    2    0    0  0.39292471856E+02  0.54556719798E+01  0.89164821953E+01  0.40659148492E+02  0.00000000000E+00 0. -1.
         11    1    3    3    0    0 -0.39159795563E+02  0.12232281883E+01 -0.48994222501E+01  0.39484050127E+02  0.51100000000E-03 0. -1.
        -11    1    3    3    0    0 -0.14727426605E+01 -0.25864782623E+01 -0.56928605265E+01  0.64239786722E+01  0.51100000000E-03 0.  1.
        -12    1    3    3    0    0  0.13400663671E+01 -0.40924219058E+01  0.16758005813E+01  0.46208227094E+01  0.00000000000E+00 0.  1.
</event>
<event>
 7    1  0.4971907E-013  0.5052886E+02  0.7816164E-02  0.1300439E+00
        -11   -1    0    0    0    0  0.00000000000E+00  0.00000000000E+00  0.45593999997E+02  0.45594000000E+02  0.51100000000E-03 0.  1.
         11   -1    0    0    0    0 -0.00000000000E+00 -0.00000000000E+00 -0.45593999997E+02  0.45594000000E+02  0.51100000000E-03 0. -1.
    9900012    2    1    2    0    0  0.18454508099E+02  0.32908992425E+02 -0.15152397725E+02  0.50528858243E+02  0.29999995116E+02 0.  0.
         12    1    1    2    0    0 -0.18454508099E+02 -0.32908992425E+02  0.15152397725E+02  0.40659141757E+02  0.00000000000E+00 0. -1.
         11    1    3    3    0    0 -0.18619588222E+01  0.77214794538E+01 -0.15922994793E+02  0.17794097309E+02  0.51100000000E-03 0. -1.
        -11    1    3    3    0    0  0.31217880769E+01  0.68238384611E+01 -0.68720222094E+00  0.75354216401E+01  0.51100000000E-03 0.  1.
         12    1    3    3    0    0  0.17194678845E+02  0.18363674510E+02  0.14577992894E+01  0.25199339294E+02  0.00000000000E+00 0. -1.
</event>
<event>
 7    1  0.4971907E-013  0.5052885E+02  0.7816164E-02  0.1300439E+00
        -11   -1    0    0    0    0  0.00000000000E+00  0.00000000000E+00  0.45593999997E+02  0.45594000000E+02  0.51100000000E-03 0. -1.
         11   -1    0    0    0    0 -0.00000000000E+00 -0.00000000000E+00 -0.45593999997E+02  0.45594000000E+02  0.51100000000E-03 0.  1.
    9900012    2    1    2    0    0 -0.11630031305E+02  0.28958431301E+02 -0.26063726840E+02  0.50528853079E+02  0.29999979418E+02 0.  0.
         12    1    1    2    0    0  0.11630031305E+02 -0.28958431301E+02  0.26063726840E+02  0.40659146921E+02  0.00000000000E+00 0. -1.
         11    1    3    3    0    0 -0.14804505849E+01 -0.18709914169E+01 -0.27532328450E+01  0.36431626613E+01  0.51100000000E-03 0. -1.
        -11    1    3    3    0    0  0.80824286047E+01  0.97248865373E+01 -0.54635897914E+01  0.13774973103E+02  0.51100000000E-03 0.  1.
         12    1    3    3    0    0 -0.18232009325E+02  0.21104536181E+02 -0.17846904203E+02  0.33110717315E+02  0.00000000000E+00 0. -1.
</event>
<event>
 7    1  0.4971907E-013  0.5052886E+02  0.7816164E-02  0.1300439E+00
        -11   -1    0    0    0    0  0.00000000000E+00  0.00000000000E+00  0.45593999997E+02  0.45594000000E+02  0.51100000000E-03 0. -1.
         11   -1    0    0    0    0 -0.00000000000E+00 -0.00000000000E+00 -0.45593999997E+02  0.45594000000E+02  0.51100000000E-03 0.  1.
    9900012    2    1    2    0    0  0.33275883357E+01 -0.23359426765E+02 -0.33112382630E+02  0.50528861465E+02  0.30000004909E+02 0.  0.
         12    1    1    2    0    0 -0.33275883357E+01  0.23359426765E+02  0.33112382630E+02  0.40659138535E+02  0.00000000000E+00 0. -1.
         11    1    3    3    0    0  0.64690956809E+01 -0.20106889956E+01 -0.42921559791E+01  0.80196429082E+01  0.51100000000E-03 0.  1.
        -11    1    3    3    0    0  0.57075330925E+01  0.13612872465E+01 -0.10464182874E+02  0.11997006312E+02  0.51100000000E-03 0. -1.
        -12    1    3    3    0    0 -0.88490404376E+01 -0.22710025016E+02 -0.18356043777E+02  0.30512212245E+02  0.00000000000E+00 0.  1.
</event>
<event>
 7    1  0.4971907E-013  0.5052886E+02  0.7816164E-02  0.1300439E+00
        -11   -1    0    0    0    0  0.00000000000E+00  0.00000000000E+00  0.45593999997E+02  0.45594000000E+02  0.51100000000E-03 0. -1.
         11   -1    0    0    0    0 -0.00000000000E+00 -0.00000000000E+00 -0.45593999997E+02  0.45594000000E+02  0.51100000000E-03 0.  1.
    9900012    2    1    2    0    0 -0.10588219289E+02 -0.32696443165E+02  0.21725517737E+02  0.50528857063E+02  0.29999991529E+02 0.  0.
         12    1    1    2    0    0  0.10588219289E+02  0.32696443165E+02 -0.21725517737E+02  0.40659142937E+02  0.00000000000E+00 0. -1.
         11    1    3    3    0    0 -0.11314251520E+02 -0.86630117946E+01  0.16406994541E+02  0.21731303020E+02  0.51100000000E-03 0. -1.
        -11    1    3    3    0    0  0.77303305041E+01 -0.14107221088E+02  0.40098237618E+01  0.16578612227E+02  0.51100000000E-03 0.  1.
        -12    1    3    3    0    0 -0.70042982732E+01 -0.99262102833E+01  0.13086994344E+01  0.12218941816E+02  0.00000000000E+00 0.  1.
</event>
<event>
 7    1  0.4971907E-013  0.5052885E+02  0.7816164E-02  0.1300439E+00
        -11   -1    0    0    0    0  0.00000000000E+00  0.00000000000E+00  0.45593999997E+02  0.45594000000E+02  0.51100000000E-03 0.  1.
         11   -1    0    0    0    0 -0.00000000000E+00 -0.00000000000E+00 -0.45593999997E+02  0.45594000000E+02  0.51100000000E-03 0. -1.
    9900012    2    1    2    0    0 -0.28508203786E+02 -0.15450973288E+02  0.24529906663E+02  0.50528848760E+02  0.29999966289E+02 0.  0.
         12    1    1    2    0    0  0.28508203786E+02  0.15450973288E+02 -0.24529906663E+02  0.40659151240E+02  0.00000000000E+00 0. -1.
         11    1    3    3    0    0 -0.95477662152E+01 -0.69714477014E+01 -0.15871710581E+01  0.11928119507E+02  0.51100000000E-03 0. -1.
        -11    1    3    3    0    0 -0.13754154525E+02 -0.14470021125E+02  0.21822227701E+02  0.29576475452E+02  0.51100000000E-03 0.  1.
         12    1    3    3    0    0 -0.52062830460E+01  0.59904955383E+01  0.42948500202E+01  0.90242537999E+01  0.00000000000E+00 0. -1.
</event>
<event>
 7    1  0.4971907E-013  0.5052886E+02  0.7816164E-02  0.1300439E+00
        -11   -1    0    0    0    0  0.00000000000E+00  0.00000000000E+00  0.45593999997E+02  0.45594000000E+02  0.51100000000E-03 0.  1.
         11   -1    0    0    0    0 -0.00000000000E+00 -0.00000000000E+00 -0.45593999997E+02  0.45594000000E+02  0.51100000000E-03 0. -1.
    9900012    2    1    2    0    0  0.30256758892E+02 -0.26551918448E+02  0.57175135414E+01  0.50528858432E+02  0.29999995691E+02 0.  0.
         12    1    1    2    0    0 -0.30256758892E+02  0.26551918448E+02 -0.57175135414E+01  0.40659141568E+02  0.00000000000E+00 0. -1.
         11    1    3    3    0    0  0.12882769882E+01  0.12239110786E+01 -0.17860094250E+01  0.25194137917E+01  0.51100000000E-03 0. -1.
        -11    1    3    3    0    0  0.23760214796E+02 -0.20477951070E+02 -0.58670585822E+01  0.31911074314E+02  0.51100000000E-03 0.  1.
        -12    1    3    3    0    0  0.52082671076E+01 -0.72978784562E+01  0.13370581549E+02  0.16098370327E+02  0.00000000000E+00 0.  1.
</event>
<event>
 7    1  0.4971907E-013  0.5052887E+02  0.7816164E-02  0.1300439E+00
        -11   -1    0    0    0    0  0.00000000000E+00  0.00000000000E+00  0.45593999997E+02  0.45594000000E+02  0.51100000000E-03 0. -1.
         11   -1    0    0    0    0 -0.00000000000E+00 -0.00000000000E+00 -0.45593999997E+02  0.45594000000E+02  0.51100000000E-03 0.  1.
    9900012    2    1    2    0    0  0.19111858867E+02 -0.32354855276E+02 -0.15526272760E+02  0.50528868737E+02  0.30000027012E+02 0.  0.
         12    1    1    2    0    0 -0.19111858867E+02  0.32354855276E+02  0.15526272760E+02  0.40659131263E+02  0.00000000000E+00 0. -1.
         11    1    3    3    0    0  0.11962987376E+02 -0.15044443036E+02  0.54750297594E+01  0.19985601926E+02  0.51100000000E-03 0. -1.
        -11    1    3    3    0    0  0.21827132810E+01 -0.19315428451E+01  0.11415074590E+01  0.31301972094E+01  0.51100000000E-03 0.  1.
        -12    1    3    3    0    0  0.49661582103E+01 -0.15378869395E+02 -0.22142809978E+02  0.27413069601E+02  0.00000000000E+00 0.  1.
</event>
<event>
 7    1  0.4971907E-013  0.5052891E+02  0.7816164E-02  0.1300439E+00
        -11   -1    0    0    0    0  0.00000000000E+00  0.00000000000E+00  0.45593999997E+02  0.45594000000E+02  0.51100000000E-03 0. -1.
         11   -1    0    0    0    0 -0.00000000000E+00 -0.00000000000E+00 -0.45593999997E+02  0.45594000000E+02  0.51100000000E-03 0.  1.
    9900012    2    1    2    0    0  0.13907346945E+02  0.20031312017E+02 -0.32534499621E+02  0.50528912138E+02  0.30000158936E+02 0.  0.
         12    1    1    2    0    0 -0.13907346945E+02 -0.20031312017E+02  0.32534499621E+02  0.40659087862E+02  0.00000000000E+00 0. -1.
         11    1    3    3    0    0 -0.54023008111E+01  0.24300885910E+01 -0.74147219094E+01  0.94904312793E+01  0.51100000000E-03 0. -1.
        -11    1    3    3    0    0  0.13376814000E+02 -0.51486136009E+00 -0.10098259034E+02  0.16768394997E+02  0.51100000000E-03 0.  1.
         12    1    3    3    0    0  0.59328337558E+01  0.18116084787E+02 -0.15021518677E+02  0.24270085862E+02  0.00000000000E+00 0. -1.
</event>
<event>
 7    1  0.4971907E-013  0.5052886E+02  0.7816164E-02  0.1300439E+00
        -11   -1    0    0    0    0  0.00000000000E+00  0.00000000000E+00  0.45593999997E+02  0.45594000000E+02  0.51100000000E-03 0. -1.
         11   -1    0    0    0    0 -0.00000000000E+00 -0.00000000000E+00 -0.45593999997E+02  0.45594000000E+02  0.51100000000E-03 0.  1.
    9900012    2    1    2    0    0 -0.17324773258E+01  0.57277237395E+01 -0.40216383792E+02  0.50528858074E+02  0.29999994600E+02 0.  0.
         12    1    1    2    0    0  0.17324773258E+01 -0.57277237395E+01  0.40216383792E+02  0.40659141926E+02  0.00000000000E+00 0. -1.
         11    1    3    3    0    0  0.70896403077E+01 -0.56219948980E+01 -0.13008169909E+02  0.15845577016E+02  0.51100000000E-03 0. -1.
        -11    1    3    3    0    0  0.18901339312E+01 -0.12158575307E+00 -0.14121319522E+02  0.14247773674E+02  0.51100000000E-03 0.  1.
         12    1    3    3    0    0 -0.10712251565E+02  0.11471304391E+02 -0.13086894361E+02  0.20435507383E+02  0.00000000000E+00 0. -1.
</event>
<event>
 7    1  0.4971907E-013  0.5052888E+02  0.7816164E-02  0.1300439E+00
        -11   -1    0    0    0    0  0.00000000000E+00  0.00000000000E+00  0.45593999997E+02  0.45594000000E+02  0.51100000000E-03 0.  1.
         11   -1    0    0    0    0 -0.00000000000E+00 -0.00000000000E+00 -0.45593999997E+02  0.45594000000E+02  0.51100000000E-03 0. -1.
    9900012    2    1    2    0    0  0.34535488193E+02 -0.18295443289E+02 -0.11213430150E+02  0.50528877953E+02  0.30000055026E+02 0.  0.
         12    1    1    2    0    0 -0.34535488193E+02  0.18295443289E+02  0.11213430150E+02  0.40659122047E+02  0.00000000000E+00 0. -1.
         11    1    3    3    0    0  0.71119220587E+01 -0.20240141086E+00 -0.98210418712E+01  0.12127376691E+02  0.51100000000E-03 0.  1.
        -11    1    3    3    0    0  0.78997604356E+01 -0.11962473943E+02 -0.85862003162E+01  0.16710171570E+02  0.51100000000E-03 0. -1.
        -12    1    3    3    0    0  0.19523805699E+02 -0.61305679351E+01  0.71938120371E+01  0.21691329692E+02  0.00000000000E+00 0.  1.
</event>
<event>
 7    1  0.4971907E-013  0.5052883E+02  0.7816164E-02  0.1300439E+00
        -11   -1    0    0    0    0  0.00000000000E+00  0.00000000000E+00  0.45593999997E+02  0.45594000000E+02  0.51100000000E-03 0.  1.
         11   -1    0    0    0    0 -0.00000000000E+00 -0.00000000000E+00 -0.45593999997E+02  0.45594000000E+02  0.51100000000E-03 0. -1.
    9900012    2    1    2    0    0  0.38664899919E+00 -0.30358170185E+01  0.40543835658E+02  0.50528827698E+02  0.29999902271E+02 0.  0.
         12    1    1    2    0    0 -0.38664899919E+00  0.30358170185E+01 -0.40543835658E+02  0.40659172302E+02  0.00000000000E+00 0. -1.
         11    1    3    3    0    0  0.26501530793E+00  0.69382409431E+01  0.16631270697E+02  0.18022446720E+02  0.51100000000E-03 0. -1.
        -11    1    3    3    0    0 -0.21119013000E+01 -0.97152274480E+01  0.26951076541E+02  0.28726404203E+02  0.51100000000E-03 0.  1.
         12    1    3    3    0    0  0.22335349912E+01 -0.25883051363E+00 -0.30385115807E+01  0.37799767748E+01  0.00000000000E+00 0. -1.
</event>
<event>
 7    1  0.4971907E-013  0.5052886E+02  0.7816164E-02  0.1300439E+00
        -11   -1    0    0    0    0  0.00000000000E+00  0.00000000000E+00  0.45593999997E+02  0.45594000000E+02  0.51100000000E-03 0.  1.
         11   -1    0    0    0    0 -0.00000000000E+00 -0.00000000000E+00 -0.45593999997E+02  0.45594000000E+02  0.51100000000E-03 0. -1.
    9900012    2    1    2    0    0  0.31669110278E+02  0.25170157850E+02  0.40860832022E+01  0.50528862430E+02  0.30000007842E+02 0.  0.
         12    1    1    2    0    0 -0.31669110278E+02 -0.25170157850E+02 -0.40860832022E+01  0.40659137570E+02  0.00000000000E+00 0. -1.
         11    1    3    3    0    0  0.17498177243E+02  0.27178446471E+02 -0.12781835850E+01  0.32349465419E+02  0.51100000000E-03 0.  1.
        -11    1    3    3    0    0 -0.61191493216E+00  0.31075841726E+00 -0.15502947318E+01  0.16954128390E+01  0.51100000000E-03 0. -1.
         12    1    3    3    0    0  0.14782847967E+02 -0.23190470373E+01  0.69145615190E+01  0.16483984172E+02  0.00000000000E+00 0. -1.
</event>
<event>
 7    1  0.4971907E-013  0.5052886E+02  0.7816164E-02  0.1300439E+00
        -11   -1    0    0    0    0  0.00000000000E+00  0.00000000000E+00  0.45593999997E+02  0.45594000000E+02  0.51100000000E-03 0.  1.
         11   -1    0    0    0    0 -0.00000000000E+00 -0.00000000000E+00 -0.45593999997E+02  0.45594000000E+02  0.51100000000E-03 0. -1.
    9900012    2    1    2    0    0  0.46151738510E+01 -0.40396265946E+02  0.87510603149E-01  0.50528858467E+02  0.29999995798E+02 0.  0.
         12    1    1    2    0    0 -0.46151738510E+01  0.40396265946E+02 -0.87510603149E-01  0.40659141533E+02  0.00000000000E+00 0. -1.
         11    1    3    3    0    0 -0.43207440695E+00 -0.75550006267E+01 -0.49468221146E+01  0.90407838187E+01  0.51100000000E-03 0. -1.
        -11    1    3    3    0    0 -0.75568436900E+01 -0.20501619136E+01  0.19849382394E+01  0.80776872001E+01  0.51100000000E-03 0.  1.
         12    1    3    3    0    0  0.12604091948E+02 -0.30791103406E+02  0.30493944784E+01  0.33410387449E+02  0.00000000000E+00 0. -1.
</event>
<event>
 7    1  0.4971907E-013  0.5052886E+02  0.7816164E-02  0.1300439E+00
        -11   -1    0    0    0    0  0.00000000000E+00  0.00000000000E+00  0.45593999997E+02  0.45594000000E+02  0.51100000000E-03 0. -1.
         11   -1    0    0    0    0 -0.00000000000E+00 -0.00000000000E+00 -0.45593999997E+02  0.45594000000E+02  0.51100000000E-03 0.  1.
    9900012    2    1    2    0    0 -0.39293420960E+02  0.25042122071E+01  0.10145029097E+02  0.50528860499E+02  0.30000001974E+02 0.  0.
         12    1    1    2    0    0  0.39293420960E+02 -0.25042122071E+01 -0.10145029097E+02  0.40659139501E+02  0.00000000000E+00 0. -1.
         11    1    3    3    0    0 -0.10733715808E+02 -0.43090706247E+01  0.93319964141E+01  0.14861591504E+02  0.51100000000E-03 0. -1.
        -11    1    3    3    0    0 -0.61673451365E+01  0.72020712245E+01  0.77237258992E+01  0.12229551013E+02  0.51100000000E-03 0.  1.
        -12    1    3    3    0    0 -0.22392360016E+02 -0.38878839262E+00 -0.69106932161E+01  0.23437717983E+02  0.00000000000E+00 0.  1.
</event>
<event>
 7    1  0.4971907E-013  0.5052880E+02  0.7816164E-02  0.1300439E+00
        -11   -1    0    0    0    0  0.00000000000E+00  0.00000000000E+00  0.45593999997E+02  0.45594000000E+02  0.51100000000E-03 0.  1.
         11   -1    0    0    0    0 -0.00000000000E+00 -0.00000000000E+00 -0.45593999997E+02  0.45594000000E+02  0.51100000000E-03 0. -1.
    9900012    2    1    2    0    0  0.12338019744E+02  0.38625171695E+02  0.30065941572E+01  0.50528803893E+02  0.29999829912E+02 0.  0.
         12    1    1    2    0    0 -0.12338019744E+02 -0.38625171695E+02 -0.30065941572E+01  0.40659196107E+02  0.00000000000E+00 0. -1.
         11    1    3    3    0    0  0.82918691545E+01  0.18902863502E+02 -0.80994665436E+01  0.22173738999E+02  0.51100000000E-03 0. -1.
        -11    1    3    3    0    0 -0.23284269243E+01  0.17431396943E+02  0.12321545673E+02  0.21473138088E+02  0.51100000000E-03 0.  1.
         12    1    3    3    0    0  0.63745775140E+01  0.22909112504E+01 -0.12154849723E+01  0.68819268055E+01  0.00000000000E+00 0. -1.
</event>
<event>
 7    1  0.4971907E-013  0.5052886E+02  0.7816164E-02  0.1300439E+00
        -11   -1    0    0    0    0  0.00000000000E+00  0.00000000000E+00  0.45593999997E+02  0.45594000000E+02  0.51100000000E-03 0. -1.
         11   -1    0    0    0    0 -0.00000000000E+00 -0.00000000000E+00 -0.45593999997E+02  0.45594000000E+02  0.51100000000E-03 0.  1.
    9900012    2    1    2    0    0  0.31532328570E+01  0.52522059649E+01 -0.40194990299E+02  0.50528858468E+02  0.29999995800E+02 0.  0.
         12    1    1    2    0    0 -0.31532328570E+01 -0.52522059649E+01  0.40194990299E+02  0.40659141532E+02  0.00000000000E+00 0. -1.
         11    1    3    3    0    0  0.14860011004E+02 -0.95906896945E+00 -0.23233444987E+02  0.27595882058E+02  0.51100000000E-03 0. -1.
        -11    1    3    3    0    0 -0.14558380159E+01  0.19225005832E+01 -0.88571011131E+01  0.91795268511E+01  0.51100000000E-03 0.  1.
         12    1    3    3    0    0 -0.10250940131E+02  0.42887743511E+01 -0.81044441991E+01  0.13753449559E+02  0.00000000000E+00 0. -1.
</event>
<event>
 7    1  0.4971907E-013  0.5052886E+02  0.7816164E-02  0.1300439E+00
        -11   -1    0    0    0    0  0.00000000000E+00  0.00000000000E+00  0.45593999997E+02  0.45594000000E+02  0.51100000000E-03 0.  1.
         11   -1    0    0    0    0 -0.00000000000E+00 -0.00000000000E+00 -0.45593999997E+02  0.45594000000E+02  0.51100000000E-03 0. -1.
    9900012    2    1    2    0    0 -0.39021560071E+02  0.19261995459E+01  0.11259375397E+02  0.50528856755E+02  0.29999990594E+02 0.  0.
         12    1    1    2    0    0  0.39021560071E+02 -0.19261995459E+01 -0.11259375397E+02  0.40659143245E+02  0.00000000000E+00 0. -1.
         11    1    3    3    0    0 -0.15452884985E+02 -0.10115728385E+01  0.73226438219E+01  0.17129975095E+02  0.51100000000E-03 0. -1.
        -11    1    3    3    0    0 -0.42255717060E+01  0.29580495113E+01  0.11520284363E+02  0.12622300314E+02  0.51100000000E-03 0.  1.
         12    1    3    3    0    0 -0.19343103381E+02 -0.20277126850E-01 -0.75835527882E+01  0.20776581346E+02  0.00000000000E+00 0. -1.
</event>
<event>
 7    1  0.4971907E-013  0.5052881E+02  0.7816164E-02  0.1300439E+00
        -11   -1    0    0    0    0  0.00000000000E+00  0.00000000000E+00  0.45593999997E+02  0.45594000000E+02  0.51100000000E-03 0. -1.
         11   -1    0    0    0    0 -0.00000000000E+00 -0.00000000000E+00 -0.45593999997E+02  0.45594000000E+02  0.51100000000E-03 0.  1.
    9900012    2    1    2    0    0 -0.14438040055E+02  0.69712591100E+01 -0.37364608491E+02  0.50528813807E+02  0.29999860048E+02 0.  0.
         12    1    1    2    0    0  0.14438040055E+02 -0.69712591100E+01  0.37364608491E+02  0.40659186193E+02  0.00000000000E+00 0. -1.
         11    1    3    3    0    0  0.66502204610E+00 -0.64540207378E+01 -0.16953957707E+02  0.18153052642E+02  0.51100000000E-03 0. -1.
        -11    1    3    3    0    0 -0.18098226596E+01 -0.32968545821E+01 -0.33607824271E+01  0.50437651589E+01  0.51100000000E-03 0.  1.
         12    1    3    3    0    0 -0.13293239442E+02  0.16722134430E+02 -0.17049868356E+02  0.27331996007E+02  0.00000000000E+00 0. -1.
</event>
<event>
 7    1  0.4971907E-013  0.5052885E+02  0.7816164E-02  0.1300439E+00
        -11   -1    0    0    0    0  0.00000000000E+00  0.00000000000E+00  0.45593999997E+02  0.45594000000E+02  0.51100000000E-03 0.  1.
         11   -1    0    0    0    0 -0.00000000000E+00 -0.00000000000E+00 -0.45593999997E+02  0.45594000000E+02  0.51100000000E-03 0. -1.
    9900012    2    1    2    0    0  0.91466130827E+01 -0.30527280461E+02  0.25250558683E+02  0.50528854694E+02  0.29999984328E+02 0.  0.
         12    1    1    2    0    0 -0.91466130827E+01  0.30527280461E+02 -0.25250558683E+02  0.40659145306E+02  0.00000000000E+00 0. -1.
         11    1    3    3    0    0  0.72567670581E+01 -0.17468682195E+01  0.22955586965E+01  0.78090848825E+01  0.51100000000E-03 0. -1.
        -11    1    3    3    0    0 -0.24214830333E+01  0.15857811206E+01  0.81775431511E+01  0.86747042654E+01  0.51100000000E-03 0.  1.
        -12    1    3    3    0    0  0.43113290580E+01 -0.30366193362E+02  0.14777456835E+02  0.34045065546E+02  0.00000000000E+00 0.  1.
</event>
<event>
 7    1  0.4971907E-013  0.5052895E+02  0.7816164E-02  0.1300438E+00
        -11   -1    0    0    0    0  0.00000000000E+00  0.00000000000E+00  0.45593999997E+02  0.45594000000E+02  0.51100000000E-03 0.  1.
         11   -1    0    0    0    0 -0.00000000000E+00 -0.00000000000E+00 -0.45593999997E+02  0.45594000000E+02  0.51100000000E-03 0. -1.
    9900012    2    1    2    0    0 -0.15554421506E+02  0.22962096496E+02  0.29731467437E+02  0.50528953530E+02  0.30000284748E+02 0.  0.
         12    1    1    2    0    0  0.15554421506E+02 -0.22962096496E+02 -0.29731467437E+02  0.40659046470E+02  0.00000000000E+00 0. -1.
         11    1    3    3    0    0  0.19919902214E+01  0.16175210113E+01  0.53053478315E+01  0.58933110506E+01  0.51100000000E-03 0. -1.
        -11    1    3    3    0    0 -0.19792894044E+02  0.17413086249E+02  0.28300138647E+02  0.38676505466E+02  0.51100000000E-03 0.  1.
         12    1    3    3    0    0  0.22464823169E+01  0.39314892359E+01 -0.38740190411E+01  0.59591370133E+01  0.00000000000E+00 0. -1.
</event>
<event>
 7    1  0.4971907E-013  0.5052886E+02  0.7816164E-02  0.1300439E+00
        -11   -1    0    0    0    0  0.00000000000E+00  0.00000000000E+00  0.45593999997E+02  0.45594000000E+02  0.51100000000E-03 0. -1.
         11   -1    0    0    0    0 -0.00000000000E+00 -0.00000000000E+00 -0.45593999997E+02  0.45594000000E+02  0.51100000000E-03 0.  1.
    9900012    2    1    2    0    0 -0.11832643812E+02  0.36101621720E+02 -0.14485410530E+02  0.50528859962E+02  0.30000000341E+02 0.  0.
         12    1    1    2    0    0  0.11832643812E+02 -0.36101621720E+02  0.14485410530E+02  0.40659140038E+02  0.00000000000E+00 0. -1.
         11    1    3    3    0    0  0.52933102424E+01  0.16975561145E+02 -0.18770429036E+01  0.17880494955E+02  0.51100000000E-03 0. -1.
        -11    1    3    3    0    0 -0.13469987490E+02  0.12416640546E+02 -0.49494300780E+00  0.18326442488E+02  0.51100000000E-03 0.  1.
        -12    1    3    3    0    0 -0.36559665638E+01  0.67094200292E+01 -0.12113424618E+02  0.14321922519E+02  0.00000000000E+00 0.  1.
</event>
<event>
 7    1  0.4971907E-013  0.5052886E+02  0.7816164E-02  0.1300439E+00
        -11   -1    0    0    0    0  0.00000000000E+00  0.00000000000E+00  0.45593999997E+02  0.45594000000E+02  0.51100000000E-03 0.  1.
         11   -1    0    0    0    0 -0.00000000000E+00 -0.00000000000E+00 -0.45593999997E+02  0.45594000000E+02  0.51100000000E-03 0. -1.
    9900012    2    1    2    0    0  0.86979380269E+01  0.63689724189E+01  0.39203921016E+02  0.50528863774E+02  0.30000011928E+02 0.  0.
         12    1    1    2    0    0 -0.86979380269E+01 -0.63689724189E+01 -0.39203921016E+02  0.40659136226E+02  0.00000000000E+00 0. -1.
         11    1    3    3    0    0 -0.36617938606E+01  0.29214074618E+01  0.14198629374E+02  0.14951402349E+02  0.51100000000E-03 0. -1.
        -11    1    3    3    0    0  0.16365097220E+02  0.78215333442E+01  0.23053922148E+02  0.29333873211E+02  0.51100000000E-03 0.  1.
         12    1    3    3    0    0 -0.40053653320E+01 -0.43739683871E+01  0.19513694941E+01  0.62435882149E+01  0.00000000000E+00 0. -1.
</event>
<event>
 7    1  0.4971907E-013  0.5052887E+02  0.7816164E-02  0.1300439E+00
        -11   -1    0    0    0    0  0.00000000000E+00  0.00000000000E+00  0.45593999997E+02  0.45594000000E+02  0.51100000000E-03 0.  1.
         11   -1    0    0    0    0 -0.00000000000E+00 -0.00000000000E+00 -0.45593999997E+02  0.45594000000E+02  0.51100000000E-03 0. -1.
    9900012    2    1    2    0    0 -0.15769070872E+02 -0.11130443491E+02  0.35785676510E+02  0.50528868040E+02  0.30000024896E+02 0.  0.
         12    1    1    2    0    0  0.15769070872E+02  0.11130443491E+02 -0.35785676510E+02  0.40659131960E+02  0.00000000000E+00 0. -1.
         11    1    3    3    0    0 -0.40763468171E+00  0.53797716008E+01  0.10194428638E+02  0.11534057570E+02  0.51100000000E-03 0. -1.
        -11    1    3    3    0    0 -0.61964776265E+01 -0.44155963639E+01 -0.16743254461E+01  0.77908402747E+01  0.51100000000E-03 0.  1.
        -12    1    3    3    0    0 -0.91649585634E+01 -0.12094618728E+02  0.27265573318E+02  0.31203970196E+02  0.00000000000E+00 0.  1.
</event>
<event>
 7    1  0.4971907E-013  0.5052886E+02  0.7816164E-02  0.1300439E+00
        -11   -1    0    0    0    0  0.00000000000E+00  0.00000000000E+00  0.45593999997E+02  0.45594000000E+02  0.51100000000E-03 0. -1.
         11   -1    0    0    0    0 -0.00000000000E+00 -0.00000000000E+00 -0.45593999997E+02  0.45594000000E+02  0.51100000000E-03 0.  1.
    9900012    2    1    2    0    0  0.25317617717E+02 -0.56222655294E+01 -0.31314115680E+02  0.50528862314E+02  0.30000007488E+02 0.  0.
         12    1    1    2    0    0 -0.25317617717E+02  0.56222655294E+01  0.31314115680E+02  0.40659137686E+02  0.00000000000E+00 0. -1.
         11    1    3    3    0    0  0.13572336037E+02  0.59420298096E+00 -0.18418424077E+02  0.22886671414E+02  0.51100000000E-03 0.  1.
        -11    1    3    3    0    0  0.73252050046E+01 -0.94296890354E+01 -0.17023572235E+02  0.20793741260E+02  0.51100000000E-03 0. -1.
         12    1    3    3    0    0  0.44200766754E+01  0.32132205250E+01  0.41278806315E+01  0.68484496396E+01  0.00000000000E+00 0. -1.
</event>
<event>
 7    1  0.4971907E-013  0.5052886E+02  0.7816164E-02  0.1300439E+00
        -11   -1    0    0    0    0  0.00000000000E+00  0.00000000000E+00  0.45593999997E+02  0.45594000000E+02  0.51100000000E-03 0.  1.
         11   -1    0    0    0    0 -0.00000000000E+00 -0.00000000000E+00 -0.45593999997E+02  0.45594000000E+02  0.51100000000E-03 0. -1.
    9900012    2    1    2    0    0  0.11906227266E+02 -0.37721755583E+02  0.94062055314E+01  0.50528858414E+02  0.29999995635E+02 0.  0.
         12    1    1    2    0    0 -0.11906227266E+02  0.37721755583E+02 -0.94062055314E+01  0.40659141586E+02  0.00000000000E+00 0. -1.
         11    1    3    3    0    0 -0.34516023029E+00 -0.19187535012E+02  0.41157105595E+01  0.19627014778E+02  0.51100000000E-03 0.  1.
        -11    1    3    3    0    0 -0.23023059657E+01  0.32296714508E+01  0.22078332906E+01  0.45393742454E+01  0.51100000000E-03 0. -1.
        -12    1    3    3    0    0  0.14553693462E+02 -0.21763892022E+02  0.30826616813E+01  0.26362469391E+02  0.00000000000E+00 0.  1.
</event>
<event>
 7    1  0.4971907E-013  0.5052885E+02  0.7816164E-02  0.1300439E+00
        -11   -1    0    0    0    0  0.00000000000E+00  0.00000000000E+00  0.45593999997E+02  0.45594000000E+02  0.51100000000E-03 0. -1.
         11   -1    0    0    0    0 -0.00000000000E+00 -0.00000000000E+00 -0.45593999997E+02  0.45594000000E+02  0.51100000000E-03 0.  1.
    9900012    2    1    2    0    0  0.28666195930E+02 -0.17104625308E+02 -0.23213083917E+02  0.50528852677E+02  0.29999978198E+02 0.  0.
         12    1    1    2    0    0 -0.28666195930E+02  0.17104625308E+02  0.23213083917E+02  0.40659147323E+02  0.00000000000E+00 0. -1.
         11    1    3    3    0    0  0.14345703502E+01  0.14666445558E+01 -0.69420137523E+01  0.72388254255E+01  0.51100000000E-03 0. -1.
        -11    1    3    3    0    0  0.95027532834E+01 -0.17944208453E+02 -0.15479238114E+02  0.25532405876E+02  0.51100000000E-03 0.  1.
         12    1    3    3    0    0  0.17728872297E+02 -0.62706141137E+00 -0.79183205046E+00  0.17757621376E+02  0.00000000000E+00 0. -1.
</event>
<event>
 7    1  0.4971907E-013  0.5052886E+02  0.7816164E-02  0.1300439E+00
        -11   -1    0    0    0    0  0.00000000000E+00  0.00000000000E+00  0.45593999997E+02  0.45594000000E+02  0.51100000000E-03 0.  1.
         11   -1    0    0    0    0 -0.00000000000E+00 -0.00000000000E+00 -0.45593999997E+02  0.45594000000E+02  0.51100000000E-03 0. -1.
    9900012    2    1    2    0    0  0.97758100262E+01 -0.38331274120E+02  0.93974870018E+01  0.50528858355E+02  0.29999995457E+02 0.  0.
         12    1    1    2    0    0 -0.97758100262E+01  0.38331274120E+02 -0.93974870018E+01  0.40659141645E+02  0.00000000000E+00 0. -1.
         11    1    3    3    0    0  0.10206772249E+02 -0.16303166116E+02  0.85548773911E+01  0.21051302871E+02  0.51100000000E-03 0. -1.
        -11    1    3    3    0    0 -0.23215456044E+01 -0.20462533844E+02  0.78603456653E+01  0.22042910415E+02  0.51100000000E-03 0.  1.
         12    1    3    3    0    0  0.18905833815E+01 -0.15655741600E+01 -0.70177360546E+01  0.74346450692E+01  0.00000000000E+00 0. -1.
</event>
<event>
 7    1  0.4971907E-013  0.5052885E+02  0.7816164E-02  0.1300439E+00
        -11   -1    0    0    0    0  0.00000000000E+00  0.00000000000E+00  0.45593999997E+02  0.45594000000E+02  0.51100000000E-03 0.  1.
         11   -1    0    0    0    0 -0.00000000000E+00 -0.00000000000E+00 -0.45593999997E+02  0.45594000000E+02  0.51100000000E-03 0. -1.
    9900012    2    1    2    0    0 -0.25314229725E+02 -0.31731317290E+02 -0.23408189964E+01  0.50528853955E+02  0.29999982081E+02 0.  0.
         12    1    1    2    0    0  0.25314229725E+02  0.31731317290E+02  0.23408189964E+01  0.40659146045E+02  0.00000000000E+00 0. -1.
         11    1    3    3    0    0 -0.51554017060E+01 -0.10777514778E+02  0.99787895666E+01  0.15566285139E+02  0.51100000000E-03 0. -1.
        -11    1    3    3    0    0 -0.10746226657E+02 -0.17025249448E+01 -0.15850664797E+01  0.10995108665E+02  0.51100000000E-03 0.  1.
         12    1    3    3    0    0 -0.94126013625E+01 -0.19251277567E+02 -0.10734542083E+02  0.23967460151E+02  0.00000000000E+00 0. -1.
</event>
<event>
 7    1  0.4971907E-013  0.5052886E+02  0.7816164E-02  0.1300439E+00
        -11   -1    0    0    0    0  0.00000000000E+00  0.00000000000E+00  0.45593999997E+02  0.45594000000E+02  0.51100000000E-03 0.  1.
         11   -1    0    0    0    0 -0.00000000000E+00 -0.00000000000E+00 -0.45593999997E+02  0.45594000000E+02  0.51100000000E-03 0. -1.
    9900012    2    1    2    0    0  0.34034109980E+02 -0.20644643312E+02 -0.82851327745E+01  0.50528863700E+02  0.30000011701E+02 0.  0.
         12    1    1    2    0    0 -0.34034109980E+02  0.20644643312E+02  0.82851327745E+01  0.40659136300E+02  0.00000000000E+00 0. -1.
         11    1    3    3    0    0  0.61589630625E+01 -0.97380447825E+01 -0.11251790934E+02  0.16104817343E+02  0.51100000000E-03 0. -1.
        -11    1    3    3    0    0  0.27695032540E+02 -0.59946834156E+01 -0.61375013789E+00  0.28343036995E+02  0.51100000000E-03 0.  1.
         12    1    3    3    0    0  0.18011437789E+00 -0.49119151139E+01  0.35804082970E+01  0.60810093610E+01  0.00000000000E+00 0. -1.
</event>
<event>
 7    1  0.4971907E-013  0.5052881E+02  0.7816164E-02  0.1300439E+00
        -11   -1    0    0    0    0  0.00000000000E+00  0.00000000000E+00  0.45593999997E+02  0.45594000000E+02  0.51100000000E-03 0.  1.
         11   -1    0    0    0    0 -0.00000000000E+00 -0.00000000000E+00 -0.45593999997E+02  0.45594000000E+02  0.51100000000E-03 0. -1.
    9900012    2    1    2    0    0 -0.28592239525E+02  0.28336911082E+02  0.57160569303E+01  0.50528806728E+02  0.29999838529E+02 0.  0.
         12    1    1    2    0    0  0.28592239525E+02 -0.28336911082E+02 -0.57160569303E+01  0.40659193272E+02  0.00000000000E+00 0. -1.
         11    1    3    3    0    0  0.13612496732E+01  0.15639611000E+01 -0.38235442679E-01  0.20737495523E+01  0.51100000000E-03 0. -1.
        -11    1    3    3    0    0 -0.24805850475E+02  0.27496465951E+02 -0.41554820115E+01  0.37264646632E+02  0.51100000000E-03 0.  1.
        -12    1    3    3    0    0 -0.51476387226E+01 -0.72351596917E+00  0.99097743845E+01  0.11190410543E+02  0.00000000000E+00 0.  1.
</event>
<event>
 7    1  0.4971907E-013  0.5052886E+02  0.7816164E-02  0.1300439E+00
        -11   -1    0    0    0    0  0.00000000000E+00  0.00000000000E+00  0.45593999997E+02  0.45594000000E+02  0.51100000000E-03 0.  1.
         11   -1    0    0    0    0 -0.00000000000E+00 -0.00000000000E+00 -0.45593999997E+02  0.45594000000E+02  0.51100000000E-03 0. -1.
    9900012    2    1    2    0    0 -0.38395015431E+02 -0.11979851480E+02 -0.59557933525E+01  0.50528861717E+02  0.30000005675E+02 0.  0.
         12    1    1    2    0    0  0.38395015431E+02  0.11979851480E+02  0.59557933525E+01  0.40659138283E+02  0.00000000000E+00 0. -1.
         11    1    3    3    0    0 -0.20186148345E+01  0.38238169708E+01 -0.56423186607E+01  0.71085963598E+01  0.51100000000E-03 0. -1.
        -11    1    3    3    0    0 -0.14053691676E+02 -0.33304041202E+01 -0.82659523695E+01  0.16641027918E+02  0.51100000000E-03 0.  1.
        -12    1    3    3    0    0 -0.22322708921E+02 -0.12473264330E+02  0.79524776777E+01  0.26779237440E+02  0.00000000000E+00 0.  1.
</event>
<event>
 7    1  0.4971907E-013  0.5052885E+02  0.7816164E-02  0.1300439E+00
        -11   -1    0    0    0    0  0.00000000000E+00  0.00000000000E+00  0.45593999997E+02  0.45594000000E+02  0.51100000000E-03 0.  1.
         11   -1    0    0    0    0 -0.00000000000E+00 -0.00000000000E+00 -0.45593999997E+02  0.45594000000E+02  0.51100000000E-03 0. -1.
    9900012    2    1    2    0    0 -0.64678308361E+01 -0.33362890375E+02  0.22321547700E+02  0.50528846276E+02  0.29999958739E+02 0.  0.
         12    1    1    2    0    0  0.64678308361E+01  0.33362890375E+02 -0.22321547700E+02  0.40659153724E+02  0.00000000000E+00 0. -1.
         11    1    3    3    0    0 -0.75867437355E-01 -0.24188362221E+01  0.63861761675E+01  0.68293316541E+01  0.51100000000E-03 0. -1.
        -11    1    3    3    0    0  0.14542372609E+01 -0.32242444509E+02  0.15309179805E+02  0.35721996311E+02  0.51100000000E-03 0.  1.
         12    1    3    3    0    0 -0.78462006597E+01  0.12983903559E+01  0.62619172691E+00  0.79775183101E+01  0.00000000000E+00 0. -1.
</event>
<event>
 7    1  0.4971907E-013  0.5052881E+02  0.7816164E-02  0.1300439E+00
        -11   -1    0    0    0    0  0.00000000000E+00  0.00000000000E+00  0.45593999997E+02  0.45594000000E+02  0.51100000000E-03 0.  1.
         11   -1    0    0    0    0 -0.00000000000E+00 -0.00000000000E+00 -0.45593999997E+02  0.45594000000E+02  0.51100000000E-03 0. -1.
    9900012    2    1    2    0    0  0.27842148043E+02  0.10945365455E+02  0.27535132257E+02  0.50528809883E+02  0.29999848119E+02 0.  0.
         12    1    1    2    0    0 -0.27842148043E+02 -0.10945365455E+02 -0.27535132257E+02  0.40659190117E+02  0.00000000000E+00 0. -1.
         11    1    3    3    0    0  0.32303245819E+01  0.75934514505E+01  0.15535751383E+02  0.17591335172E+02  0.51100000000E-03 0. -1.
        -11    1    3    3    0    0  0.12284059193E+01  0.48600377625E+01  0.75872571238E+01  0.90937021658E+01  0.51100000000E-03 0.  1.
         12    1    3    3    0    0  0.23383417542E+02 -0.15081237582E+01  0.44121237502E+01  0.23843772545E+02  0.00000000000E+00 0. -1.
</event>
<event>
 7    1  0.4971907E-013  0.5052886E+02  0.7816164E-02  0.1300439E+00
        -11   -1    0    0    0    0  0.00000000000E+00  0.00000000000E+00  0.45593999997E+02  0.45594000000E+02  0.51100000000E-03 0.  1.
         11   -1    0    0    0    0 -0.00000000000E+00 -0.00000000000E+00 -0.45593999997E+02  0.45594000000E+02  0.51100000000E-03 0. -1.
    9900012    2    1    2    0    0 -0.21987758671E+02  0.27454612430E+02  0.20394804552E+02  0.50528864154E+02  0.30000013081E+02 0.  0.
         12    1    1    2    0    0  0.21987758671E+02 -0.27454612430E+02 -0.20394804552E+02  0.40659135846E+02  0.00000000000E+00 0. -1.
         11    1    3    3    0    0 -0.11593326930E+01  0.84506478992E+00 -0.17162955955E+01  0.22369304023E+01  0.51100000000E-03 0. -1.
        -11    1    3    3    0    0  0.33117260778E+01  0.39602591657E+01 -0.36706226593E+01  0.63344023587E+01  0.51100000000E-03 0.  1.
        -12    1    3    3    0    0 -0.24140152056E+02  0.22649288475E+02  0.25781722807E+02  0.41957531393E+02  0.00000000000E+00 0.  1.
</event>
<event>
 7    1  0.4971907E-013  0.5052885E+02  0.7816164E-02  0.1300439E+00
        -11   -1    0    0    0    0  0.00000000000E+00  0.00000000000E+00  0.45593999997E+02  0.45594000000E+02  0.51100000000E-03 0.  1.
         11   -1    0    0    0    0 -0.00000000000E+00 -0.00000000000E+00 -0.45593999997E+02  0.45594000000E+02  0.51100000000E-03 0. -1.
    9900012    2    1    2    0    0  0.20375846912E+01  0.22282520684E+02  0.33948545560E+02  0.50528853120E+02  0.29999979543E+02 0.  0.
         12    1    1    2    0    0 -0.20375846912E+01 -0.22282520684E+02 -0.33948545560E+02  0.40659146880E+02  0.00000000000E+00 0. -1.
         11    1    3    3    0    0 -0.53805907690E+01  0.47649320977E+00  0.16812293570E+02  0.17658737728E+02  0.51100000000E-03 0. -1.
        -11    1    3    3    0    0  0.56755353955E+01  0.91030498380E+00  0.83459307419E+01  0.10133850078E+02  0.51100000000E-03 0.  1.
        -12    1    3    3    0    0  0.17426400648E+01  0.20895722490E+02  0.87903212482E+01  0.22736265314E+02  0.00000000000E+00 0.  1.
</event>
<event>
 7    1  0.4971907E-013  0.5052882E+02  0.7816164E-02  0.1300439E+00
        -11   -1    0    0    0    0  0.00000000000E+00  0.00000000000E+00  0.45593999997E+02  0.45594000000E+02  0.51100000000E-03 0.  1.
         11   -1    0    0    0    0 -0.00000000000E+00 -0.00000000000E+00 -0.45593999997E+02  0.45594000000E+02  0.51100000000E-03 0. -1.
    9900012    2    1    2    0    0  0.26009821742E+02 -0.14743562575E+02  0.27555132418E+02  0.50528821613E+02  0.29999883776E+02 0.  0.
         12    1    1    2    0    0 -0.26009821742E+02  0.14743562575E+02 -0.27555132418E+02  0.40659178387E+02  0.00000000000E+00 0. -1.
         11    1    3    3    0    0  0.32330994179E+01  0.39060236891E+01 -0.45152682592E+01  0.67895213837E+01  0.51100000000E-03 0. -1.
        -11    1    3    3    0    0  0.31646948286E+01 -0.35188059500E+01  0.73660905489E+01  0.87553742871E+01  0.51100000000E-03 0.  1.
        -12    1    3    3    0    0  0.19612027496E+02 -0.15130780315E+02  0.24704310129E+02  0.34983925943E+02  0.00000000000E+00 0.  1.
</event>
<event>
 7    1  0.4971907E-013  0.5052884E+02  0.7816164E-02  0.1300439E+00
        -11   -1    0    0    0    0  0.00000000000E+00  0.00000000000E+00  0.45593999997E+02  0.45594000000E+02  0.51100000000E-03 0.  1.
         11   -1    0    0    0    0 -0.00000000000E+00 -0.00000000000E+00 -0.45593999997E+02  0.45594000000E+02  0.51100000000E-03 0. -1.
    9900012    2    1    2    0    0 -0.32900831127E+02 -0.82043074876E+01  0.22436390806E+02  0.50528843804E+02  0.29999951226E+02 0.  0.
         12    1    1    2    0    0  0.32900831127E+02  0.82043074876E+01 -0.22436390806E+02  0.40659156196E+02  0.00000000000E+00 0. -1.
         11    1    3    3    0    0 -0.16320498196E+02 -0.33540653852E+00  0.11453957131E+01  0.16364079274E+02  0.51100000000E-03 0. -1.
        -11    1    3    3    0    0 -0.15204733292E+02  0.25471777747E+01  0.84748193907E+01  0.17592458414E+02  0.51100000000E-03 0.  1.
         12    1    3    3    0    0 -0.13755996394E+01 -0.10416078724E+02  0.12816175702E+02  0.16572306115E+02  0.00000000000E+00 0. -1.
</event>
<event>
 7    1  0.4971907E-013  0.5052885E+02  0.7816164E-02  0.1300439E+00
        -11   -1    0    0    0    0  0.00000000000E+00  0.00000000000E+00  0.45593999997E+02  0.45594000000E+02  0.51100000000E-03 0.  1.
         11   -1    0    0    0    0 -0.00000000000E+00 -0.00000000000E+00 -0.45593999997E+02  0.45594000000E+02  0.51100000000E-03 0. -1.
    9900012    2    1    2    0    0 -0.39178415515E+01 -0.16492947242E+02  0.36956724409E+02  0.50528852565E+02  0.29999977856E+02 0.  0.
         12    1    1    2    0    0  0.39178415515E+01  0.16492947242E+02 -0.36956724409E+02  0.40659147435E+02  0.00000000000E+00 0. -1.
         11    1    3    3    0    0  0.29071056609E+01 -0.40208378558E-01  0.32625276886E+01  0.43700076907E+01  0.51100000000E-03 0. -1.
        -11    1    3    3    0    0  0.77481688605E+01 -0.14093684957E+01  0.19017923400E+02  0.20584019310E+02  0.51100000000E-03 0.  1.
         12    1    3    3    0    0 -0.14573116073E+02 -0.15043370367E+02  0.14676273320E+02  0.25574825564E+02  0.00000000000E+00 0. -1.
</event>
<event>
 7    1  0.4971907E-013  0.5052886E+02  0.7816164E-02  0.1300439E+00
        -11   -1    0    0    0    0  0.00000000000E+00  0.00000000000E+00  0.45593999997E+02  0.45594000000E+02  0.51100000000E-03 0.  1.
         11   -1    0    0    0    0 -0.00000000000E+00 -0.00000000000E+00 -0.45593999997E+02  0.45594000000E+02  0.51100000000E-03 0. -1.
    9900012    2    1    2    0    0  0.36420425939E+02 -0.16938205570E+02  0.63099635837E+01  0.50528857438E+02  0.29999992668E+02 0.  0.
         12    1    1    2    0    0 -0.36420425939E+02  0.16938205570E+02 -0.63099635837E+01  0.40659142562E+02  0.00000000000E+00 0. -1.
         11    1    3    3    0    0  0.12322331771E+01 -0.83971335629E+01 -0.10116205641E+01  0.85471414579E+01  0.51100000000E-03 0. -1.
        -11    1    3    3    0    0  0.23844403015E+02 -0.44370331342E+01 -0.49718722397E+01  0.24758076096E+02  0.51100000000E-03 0.  1.
        -12    1    3    3    0    0  0.11343789747E+02 -0.41040388726E+01  0.12293456387E+02  0.17223639884E+02  0.00000000000E+00 0.  1.
</event>
<event>
 7    1  0.4971907E-013  0.5052885E+02  0.7816164E-02  0.1300439E+00
        -11   -1    0    0    0    0  0.00000000000E+00  0.00000000000E+00  0.45593999997E+02  0.45594000000E+02  0.51100000000E-03 0.  1.
         11   -1    0    0    0    0 -0.00000000000E+00 -0.00000000000E+00 -0.45593999997E+02  0.45594000000E+02  0.51100000000E-03 0. -1.
    9900012    2    1    2    0    0  0.27291464887E+02 -0.12465341787E+02  0.27440072569E+02  0.50528851163E+02  0.29999973595E+02 0.  0.
         12    1    1    2    0    0 -0.27291464887E+02  0.12465341787E+02 -0.27440072569E+02  0.40659148837E+02  0.00000000000E+00 0. -1.
         11    1    3    3    0    0  0.90343128250E+01  0.20958244849E+00  0.24117825759E+01  0.93530438081E+01  0.51100000000E-03 0. -1.
        -11    1    3    3    0    0  0.19080450536E+02 -0.13797231557E+02  0.28773767373E+02  0.37180060253E+02  0.51100000000E-03 0.  1.
         12    1    3    3    0    0 -0.82329847392E+00  0.11223073208E+01 -0.37454773800E+01  0.39957471021E+01  0.00000000000E+00 0. -1.
</event>
<event>
 7    1  0.4971907E-013  0.5052886E+02  0.7816164E-02  0.1300439E+00
        -11   -1    0    0    0    0  0.00000000000E+00  0.00000000000E+00  0.45593999997E+02  0.45594000000E+02  0.51100000000E-03 0.  1.
         11   -1    0    0    0    0 -0.00000000000E+00 -0.00000000000E+00 -0.45593999997E+02  0.45594000000E+02  0.51100000000E-03 0. -1.
    9900012    2    1    2    0    0 -0.94551175992E+01  0.39487023389E+02  0.21310331947E+01  0.50528861206E+02  0.30000004123E+02 0.  0.
         12    1    1    2    0    0  0.94551175992E+01 -0.39487023389E+02 -0.21310331947E+01  0.40659138794E+02  0.00000000000E+00 0. -1.
         11    1    3    3    0    0 -0.10998023389E+01 -0.27916214662E+01 -0.18620237519E+01  0.35312672384E+01  0.51100000000E-03 0. -1.
        -11    1    3    3    0    0 -0.10315446445E+02  0.10194595649E+02 -0.66337565023E+00  0.14518205238E+02  0.51100000000E-03 0.  1.
         12    1    3    3    0    0  0.19601311852E+01  0.32084049206E+02  0.46564325968E+01  0.32479388730E+02  0.00000000000E+00 0. -1.
</event>
<event>
 7    1  0.4971907E-013  0.5052886E+02  0.7816164E-02  0.1300439E+00
        -11   -1    0    0    0    0  0.00000000000E+00  0.00000000000E+00  0.45593999997E+02  0.45594000000E+02  0.51100000000E-03 0. -1.
         11   -1    0    0    0    0 -0.00000000000E+00 -0.00000000000E+00 -0.45593999997E+02  0.45594000000E+02  0.51100000000E-03 0.  1.
    9900012    2    1    2    0    0  0.32724612772E+01  0.35842200138E+02 -0.18915420303E+02  0.50528862788E+02  0.30000008932E+02 0.  0.
         12    1    1    2    0    0 -0.32724612772E+01 -0.35842200138E+02  0.18915420303E+02  0.40659137212E+02  0.00000000000E+00 0. -1.
         11    1    3    3    0    0  0.70206842131E+01  0.63708977591E+01 -0.25913765646E+00  0.94839600202E+01  0.51100000000E-03 0. -1.
        -11    1    3    3    0    0  0.51368949915E+01  0.55767035109E+01 -0.12816864732E+02  0.14891586014E+02  0.51100000000E-03 0.  1.
        -12    1    3    3    0    0 -0.88851179274E+01  0.23894598868E+02 -0.58394179144E+01  0.26153316754E+02  0.00000000000E+00 0.  1.
</event>
<event>
 7    1  0.4971907E-013  0.5052886E+02  0.7816164E-02  0.1300439E+00
        -11   -1    0    0    0    0  0.00000000000E+00  0.00000000000E+00  0.45593999997E+02  0.45594000000E+02  0.51100000000E-03 0. -1.
         11   -1    0    0    0    0 -0.00000000000E+00 -0.00000000000E+00 -0.45593999997E+02  0.45594000000E+02  0.51100000000E-03 0.  1.
    9900012    2    1    2    0    0  0.28211601847E+02 -0.23778678153E+02 -0.17083496887E+02  0.50528857371E+02  0.29999992464E+02 0.  0.
         12    1    1    2    0    0 -0.28211601847E+02  0.23778678153E+02  0.17083496887E+02  0.40659142629E+02  0.00000000000E+00 0. -1.
         11    1    3    3    0    0  0.10517379546E+02 -0.39050569561E+01 -0.29047680112E+01  0.11588892087E+02  0.51100000000E-03 0. -1.
        -11    1    3    3    0    0  0.14739088565E+01  0.55241466307E+01 -0.45396466564E+01  0.73004791172E+01  0.51100000000E-03 0.  1.
        -12    1    3    3    0    0  0.16220313444E+02 -0.25397767827E+02 -0.96390822196E+01  0.31639486166E+02  0.00000000000E+00 0.  1.
</event>
<event>
 7    1  0.6288259E-013  0.5052890E+02  0.7816164E-02  0.1300439E+00
        -11   -1    0    0    0    0  0.00000000000E+00  0.00000000000E+00  0.45593999997E+02  0.45594000000E+02  0.51100000000E-03 0.  1.
         11   -1    0    0    0    0 -0.00000000000E+00 -0.00000000000E+00 -0.45593999997E+02  0.45594000000E+02  0.51100000000E-03 0. -1.
    9900012    2    1    2    0    0  0.20008669063E+01 -0.24772368386E+02  0.32179006537E+02  0.50528903041E+02  0.30000131283E+02 0.  0.
         12    1    1    2    0    0 -0.20008669063E+01  0.24772368386E+02 -0.32179006537E+02  0.40659096959E+02  0.00000000000E+00 0. -1.
         11    1    3    3    0    0 -0.50972709290E+01 -0.14972153155E+02  0.31899832887E+01  0.16134544762E+02  0.51100000000E-03 0. -1.
        -11    1    3    3    0    0  0.25486388665E+01  0.27267946013E+01  0.18639633447E+01  0.41719693768E+01  0.51100000000E-03 0.  1.
        -12    1    3    3    0    0  0.45494989688E+01 -0.12527009832E+02  0.27125059903E+02  0.30222388902E+02  0.00000000000E+00 0.  1.
</event>
<event>
 7    1  0.4971907E-013  0.5052887E+02  0.7816164E-02  0.1300439E+00
        -11   -1    0    0    0    0  0.00000000000E+00  0.00000000000E+00  0.45593999997E+02  0.45594000000E+02  0.51100000000E-03 0. -1.
         11   -1    0    0    0    0 -0.00000000000E+00 -0.00000000000E+00 -0.45593999997E+02  0.45594000000E+02  0.51100000000E-03 0.  1.
    9900012    2    1    2    0    0  0.13010165303E+02 -0.34813099298E+02 -0.16490866235E+02  0.50528868761E+02  0.30000027085E+02 0.  0.
         12    1    1    2    0    0 -0.13010165303E+02  0.34813099298E+02  0.16490866235E+02  0.40659131239E+02  0.00000000000E+00 0. -1.
         11    1    3    3    0    0  0.48129850182E+01 -0.68442463989E+01  0.54029126075E+00  0.83845362699E+01  0.51100000000E-03 0.  1.
        -11    1    3    3    0    0  0.10493329175E+02 -0.33262008133E+01  0.16568086009E+01  0.11131872440E+02  0.51100000000E-03 0. -1.
        -12    1    3    3    0    0 -0.22961488901E+01 -0.24642652086E+02 -0.18687966096E+02  0.31012460050E+02  0.00000000000E+00 0.  1.
</event>
<event>
 7    1  0.4971907E-013  0.5052889E+02  0.7816164E-02  0.1300439E+00
        -11   -1    0    0    0    0  0.00000000000E+00  0.00000000000E+00  0.45593999997E+02  0.45594000000E+02  0.51100000000E-03 0.  1.
         11   -1    0    0    0    0 -0.00000000000E+00 -0.00000000000E+00 -0.45593999997E+02  0.45594000000E+02  0.51100000000E-03 0. -1.
    9900012    2    1    2    0    0  0.27044453574E+02  0.62148368451E+01  0.29717617738E+02  0.50528886997E+02  0.30000082517E+02 0.  0.
         12    1    1    2    0    0 -0.27044453574E+02 -0.62148368451E+01 -0.29717617738E+02  0.40659113003E+02  0.00000000000E+00 0. -1.
         11    1    3    3    0    0 -0.33194066752E+01 -0.60082855141E+00  0.22981716606E+00  0.33811642690E+01  0.51100000000E-03 0. -1.
        -11    1    3    3    0    0  0.54077777459E+01  0.10922924036E+01  0.18465469768E+02  0.19272019532E+02  0.51100000000E-03 0.  1.
         12    1    3    3    0    0  0.24956082503E+02  0.57233729929E+01  0.11022330805E+02  0.27875703196E+02  0.00000000000E+00 0. -1.
</event>
<event>
 7    1  0.4971907E-013  0.5052886E+02  0.7816164E-02  0.1300439E+00
        -11   -1    0    0    0    0  0.00000000000E+00  0.00000000000E+00  0.45593999997E+02  0.45594000000E+02  0.51100000000E-03 0.  1.
         11   -1    0    0    0    0 -0.00000000000E+00 -0.00000000000E+00 -0.45593999997E+02  0.45594000000E+02  0.51100000000E-03 0. -1.
    9900012    2    1    2    0    0  0.26565604240E+02 -0.24246447516E+02  0.18961652085E+02  0.50528858401E+02  0.29999995595E+02 0.  0.
         12    1    1    2    0    0 -0.26565604240E+02  0.24246447516E+02 -0.18961652085E+02  0.40659141599E+02  0.00000000000E+00 0. -1.
         11    1    3    3    0    0  0.69933119387E+01 -0.16783996612E+02  0.53318488808E-01  0.18182733493E+02  0.51100000000E-03 0. -1.
        -11    1    3    3    0    0  0.18348215100E+02 -0.11472004054E+02  0.13507381480E+02  0.25509081307E+02  0.51100000000E-03 0.  1.
        -12    1    3    3    0    0  0.12240772012E+01  0.40095531499E+01  0.54009521156E+01  0.68370436017E+01  0.00000000000E+00 0.  1.
</event>
<event>
 7    1  0.4971907E-013  0.5052885E+02  0.7816164E-02  0.1300439E+00
        -11   -1    0    0    0    0  0.00000000000E+00  0.00000000000E+00  0.45593999997E+02  0.45594000000E+02  0.51100000000E-03 0. -1.
         11   -1    0    0    0    0 -0.00000000000E+00 -0.00000000000E+00 -0.45593999997E+02  0.45594000000E+02  0.51100000000E-03 0.  1.
    9900012    2    1    2    0    0 -0.34781918887E+02  0.20844083019E+02  0.29846964324E+01  0.50528854766E+02  0.29999984547E+02 0.  0.
         12    1    1    2    0    0  0.34781918887E+02 -0.20844083019E+02 -0.29846964324E+01  0.40659145234E+02  0.00000000000E+00 0. -1.
         11    1    3    3    0    0 -0.20741174714E+02  0.45046799442E+01  0.59873774262E+01  0.22053053272E+02  0.51100000000E-03 0. -1.
        -11    1    3    3    0    0 -0.15337003042E+02  0.12515440874E+02 -0.85927855180E+01  0.21579988086E+02  0.51100000000E-03 0.  1.
        -12    1    3    3    0    0  0.12962588687E+01  0.38239622011E+01  0.55901045242E+01  0.68958134083E+01  0.00000000000E+00 0.  1.
</event>
<event>
 7    1  0.4971907E-013  0.5052882E+02  0.7816164E-02  0.1300439E+00
        -11   -1    0    0    0    0  0.00000000000E+00  0.00000000000E+00  0.45593999997E+02  0.45594000000E+02  0.51100000000E-03 0. -1.
         11   -1    0    0    0    0 -0.00000000000E+00 -0.00000000000E+00 -0.45593999997E+02  0.45594000000E+02  0.51100000000E-03 0.  1.
    9900012    2    1    2    0    0 -0.37549139001E+01  0.25576914154E+02 -0.31382970075E+02  0.50528822355E+02  0.29999886031E+02 0.  0.
         12    1    1    2    0    0  0.37549139001E+01 -0.25576914154E+02  0.31382970075E+02  0.40659177645E+02  0.00000000000E+00 0. -1.
         11    1    3    3    0    0 -0.28512047174E+01  0.53905526993E+01 -0.12777088454E+02  0.14157733447E+02  0.51100000000E-03 0. -1.
        -11    1    3    3    0    0  0.11249517477E+02  0.10427984182E+02 -0.11851665025E+02  0.19384438648E+02  0.51100000000E-03 0.  1.
         12    1    3    3    0    0 -0.12153226660E+02  0.97583772720E+01 -0.67542165966E+01  0.16986650260E+02  0.00000000000E+00 0. -1.
</event>
<event>
 7    1  0.4971907E-013  0.5052891E+02  0.7816164E-02  0.1300439E+00
        -11   -1    0    0    0    0  0.00000000000E+00  0.00000000000E+00  0.45593999997E+02  0.45594000000E+02  0.51100000000E-03 0. -1.
         11   -1    0    0    0    0 -0.00000000000E+00 -0.00000000000E+00 -0.45593999997E+02  0.45594000000E+02  0.51100000000E-03 0.  1.
    9900012    2    1    2    0    0 -0.34994033998E+02  0.52424518454E+01 -0.20027387854E+02  0.50528905309E+02  0.30000138178E+02 0.  0.
         12    1    1    2    0    0  0.34994033998E+02 -0.52424518454E+01  0.20027387854E+02  0.40659094691E+02  0.00000000000E+00 0. -1.
         11    1    3    3    0    0 -0.10378383633E+02  0.88761688516E+01 -0.49552035156E+01  0.14527603466E+02  0.51100000000E-03 0. -1.
        -11    1    3    3    0    0 -0.26118125823E+02  0.22313569875E+01 -0.98400653804E+01  0.27999327447E+02  0.51100000000E-03 0.  1.
         12    1    3    3    0    0  0.15024754582E+01 -0.58650739938E+01 -0.52321189577E+01  0.80019743966E+01  0.00000000000E+00 0. -1.
</event>
<event>
 7    1  0.4971907E-013  0.5052886E+02  0.7816164E-02  0.1300439E+00
        -11   -1    0    0    0    0  0.00000000000E+00  0.00000000000E+00  0.45593999997E+02  0.45594000000E+02  0.51100000000E-03 0.  1.
         11   -1    0    0    0    0 -0.00000000000E+00 -0.00000000000E+00 -0.45593999997E+02  0.45594000000E+02  0.51100000000E-03 0. -1.
    9900012    2    1    2    0    0  0.59948136394E+01 -0.33246422547E+02  0.22625281211E+02  0.50528858929E+02  0.29999997201E+02 0.  0.
         12    1    1    2    0    0 -0.59948136394E+01  0.33246422547E+02 -0.22625281211E+02  0.40659141071E+02  0.00000000000E+00 0. -1.
         11    1    3    3    0    0 -0.70683490670E+01 -0.15200958140E+02  0.13288612741E+02  0.21392005884E+02  0.51100000000E-03 0. -1.
        -11    1    3    3    0    0  0.57438454365E+01 -0.11447895645E+02  0.13346783443E+02  0.18498181090E+02  0.51100000000E-03 0.  1.
         12    1    3    3    0    0  0.73193172700E+01 -0.65975687629E+01 -0.40101149731E+01  0.10638671955E+02  0.00000000000E+00 0. -1.
</event>
<event>
 7    1  0.4971907E-013  0.5052886E+02  0.7816164E-02  0.1300439E+00
        -11   -1    0    0    0    0  0.00000000000E+00  0.00000000000E+00  0.45593999997E+02  0.45594000000E+02  0.51100000000E-03 0. -1.
         11   -1    0    0    0    0 -0.00000000000E+00 -0.00000000000E+00 -0.45593999997E+02  0.45594000000E+02  0.51100000000E-03 0.  1.
    9900012    2    1    2    0    0  0.17542641762E+02  0.25995127365E+02 -0.25878078935E+02  0.50528857165E+02  0.29999991840E+02 0.  0.
         12    1    1    2    0    0 -0.17542641762E+02 -0.25995127365E+02  0.25878078935E+02  0.40659142835E+02  0.00000000000E+00 0. -1.
         11    1    3    3    0    0 -0.58865079419E+01  0.14143018092E+02 -0.10068715329E+02  0.18331802015E+02  0.51100000000E-03 0. -1.
        -11    1    3    3    0    0  0.21151023036E+01  0.71817248853E+00 -0.56807143197E+01  0.61040924732E+01  0.51100000000E-03 0.  1.
         12    1    3    3    0    0  0.21314047400E+02  0.11133936784E+02 -0.10128649287E+02  0.26092962677E+02  0.00000000000E+00 0. -1.
</event>
<event>
 7    1  0.4971907E-013  0.5052886E+02  0.7816164E-02  0.1300439E+00
        -11   -1    0    0    0    0  0.00000000000E+00  0.00000000000E+00  0.45593999997E+02  0.45594000000E+02  0.51100000000E-03 0. -1.
         11   -1    0    0    0    0 -0.00000000000E+00 -0.00000000000E+00 -0.45593999997E+02  0.45594000000E+02  0.51100000000E-03 0.  1.
    9900012    2    1    2    0    0 -0.31885635607E+02 -0.19742299383E+02 -0.15707116989E+02  0.50528859981E+02  0.30000000397E+02 0.  0.
         12    1    1    2    0    0  0.31885635607E+02  0.19742299383E+02  0.15707116989E+02  0.40659140019E+02  0.00000000000E+00 0. -1.
         11    1    3    3    0    0 -0.81671254577E+01 -0.10201132714E+02 -0.15435548057E+01  0.13158556478E+02  0.51100000000E-03 0. -1.
        -11    1    3    3    0    0 -0.48522283306E+01 -0.11966099776E+02 -0.12984999084E+02  0.18312341880E+02  0.51100000000E-03 0.  1.
        -12    1    3    3    0    0 -0.18866281819E+02  0.24249331072E+01 -0.11785630993E+01  0.19057961623E+02  0.00000000000E+00 0.  1.
</event>
<event>
 7    1  0.4971907E-013  0.5052889E+02  0.7816164E-02  0.1300439E+00
        -11   -1    0    0    0    0  0.00000000000E+00  0.00000000000E+00  0.45593999997E+02  0.45594000000E+02  0.51100000000E-03 0.  1.
         11   -1    0    0    0    0 -0.00000000000E+00 -0.00000000000E+00 -0.45593999997E+02  0.45594000000E+02  0.51100000000E-03 0. -1.
    9900012    2    1    2    0    0  0.28837764921E+01 -0.25231243049E+02  0.31752661698E+02  0.50528888874E+02  0.30000088221E+02 0.  0.
         12    1    1    2    0    0 -0.28837764921E+01  0.25231243049E+02 -0.31752661698E+02  0.40659111126E+02  0.00000000000E+00 0. -1.
         11    1    3    3    0    0  0.29377969668E+01  0.16919797201E+01  0.12163600050E+01  0.36018020926E+01  0.51100000000E-03 0.  1.
        -11    1    3    3    0    0 -0.11497589547E+02 -0.13737396146E+02  0.18288190413E+02  0.25600166545E+02  0.51100000000E-03 0. -1.
         12    1    3    3    0    0  0.11443569072E+02 -0.13185826623E+02  0.12248111280E+02  0.21326920237E+02  0.00000000000E+00 0. -1.
</event>
<event>
 7    1  0.4971907E-013  0.5052886E+02  0.7816164E-02  0.1300439E+00
        -11   -1    0    0    0    0  0.00000000000E+00  0.00000000000E+00  0.45593999997E+02  0.45594000000E+02  0.51100000000E-03 0.  1.
         11   -1    0    0    0    0 -0.00000000000E+00 -0.00000000000E+00 -0.45593999997E+02  0.45594000000E+02  0.51100000000E-03 0. -1.
    9900012    2    1    2    0    0 -0.18735661815E+01 -0.15570452239E+02  0.37512882529E+02  0.50528860944E+02  0.30000003326E+02 0.  0.
         12    1    1    2    0    0  0.18735661815E+01  0.15570452239E+02 -0.37512882529E+02  0.40659139056E+02  0.00000000000E+00 0. -1.
         11    1    3    3    0    0 -0.44339962429E+01 -0.11659056829E+02  0.29927331528E+02  0.32422817606E+02  0.51100000000E-03 0. -1.
        -11    1    3    3    0    0  0.58747630946E+01 -0.71783428960E+01  0.93107840700E+01  0.13142760304E+02  0.51100000000E-03 0.  1.
         12    1    3    3    0    0 -0.33143330332E+01  0.32669474862E+01 -0.17252330697E+01  0.49632830342E+01  0.00000000000E+00 0. -1.
</event>
<event>
 7    1  0.4971907E-013  0.5052883E+02  0.7816164E-02  0.1300439E+00
        -11   -1    0    0    0    0  0.00000000000E+00  0.00000000000E+00  0.45593999997E+02  0.45594000000E+02  0.51100000000E-03 0.  1.
         11   -1    0    0    0    0 -0.00000000000E+00 -0.00000000000E+00 -0.45593999997E+02  0.45594000000E+02  0.51100000000E-03 0. -1.
    9900012    2    1    2    0    0 -0.35697971901E+02  0.84113860824E+01  0.17551971657E+02  0.50528827324E+02  0.29999901133E+02 0.  0.
         12    1    1    2    0    0  0.35697971901E+02 -0.84113860824E+01 -0.17551971657E+02  0.40659172676E+02  0.00000000000E+00 0. -1.
         11    1    3    3    0    0 -0.34728754649E+01  0.75395874451E+01  0.16773685698E+01  0.84687548327E+01  0.51100000000E-03 0. -1.
        -11    1    3    3    0    0 -0.34354986995E+02  0.44087081718E+01  0.12856188458E+02  0.36945682036E+02  0.51100000000E-03 0.  1.
         12    1    3    3    0    0  0.21298905592E+01 -0.35369095345E+01  0.30184146287E+01  0.51143904544E+01  0.00000000000E+00 0. -1.
</event>
<event>
 7    1  0.4971907E-013  0.5052887E+02  0.7816164E-02  0.1300439E+00
        -11   -1    0    0    0    0  0.00000000000E+00  0.00000000000E+00  0.45593999997E+02  0.45594000000E+02  0.51100000000E-03 0.  1.
         11   -1    0    0    0    0 -0.00000000000E+00 -0.00000000000E+00 -0.45593999997E+02  0.45594000000E+02  0.51100000000E-03 0. -1.
    9900012    2    1    2    0    0 -0.12928108118E+02  0.19717236339E+01  0.38498590467E+02  0.50528866443E+02  0.30000020041E+02 0.  0.
         12    1    1    2    0    0  0.12928108118E+02 -0.19717236339E+01 -0.38498590467E+02  0.40659133557E+02  0.00000000000E+00 0. -1.
         11    1    3    3    0    0 -0.48101482288E+01  0.93556833465E+01  0.14854279720E+02  0.18202086780E+02  0.51100000000E-03 0. -1.
        -11    1    3    3    0    0 -0.11632612381E+02 -0.11686191509E+02  0.17768051684E+02  0.24240222847E+02  0.51100000000E-03 0.  1.
         12    1    3    3    0    0  0.35146524918E+01  0.43022317962E+01  0.58762590633E+01  0.80865568164E+01  0.00000000000E+00 0. -1.
</event>
<event>
 7    1  0.4971907E-013  0.5052885E+02  0.7816164E-02  0.1300439E+00
        -11   -1    0    0    0    0  0.00000000000E+00  0.00000000000E+00  0.45593999997E+02  0.45594000000E+02  0.51100000000E-03 0.  1.
         11   -1    0    0    0    0 -0.00000000000E+00 -0.00000000000E+00 -0.45593999997E+02  0.45594000000E+02  0.51100000000E-03 0. -1.
    9900012    2    1    2    0    0 -0.33231142421E+02  0.23286257278E+02  0.25705273240E+01  0.50528853239E+02  0.29999979905E+02 0.  0.
         12    1    1    2    0    0  0.33231142421E+02 -0.23286257278E+02 -0.25705273240E+01  0.40659146761E+02  0.00000000000E+00 0. -1.
         11    1    3    3    0    0 -0.11517248899E+02  0.10272711951E+02  0.76798636789E+01  0.17238211608E+02  0.51100000000E-03 0.  1.
        -11    1    3    3    0    0 -0.13362073212E+02 -0.38635296241E+01 -0.57195338706E+00  0.13921170663E+02  0.51100000000E-03 0. -1.
         12    1    3    3    0    0 -0.83518203090E+01  0.16877074951E+02 -0.45373829679E+01  0.19369470968E+02  0.00000000000E+00 0. -1.
</event>
<event>
 7    1  0.4971907E-013  0.5052886E+02  0.7816164E-02  0.1300439E+00
        -11   -1    0    0    0    0  0.00000000000E+00  0.00000000000E+00  0.45593999997E+02  0.45594000000E+02  0.51100000000E-03 0.  1.
         11   -1    0    0    0    0 -0.00000000000E+00 -0.00000000000E+00 -0.45593999997E+02  0.45594000000E+02  0.51100000000E-03 0. -1.
    9900012    2    1    2    0    0  0.28989959933E+01 -0.36633458432E+01  0.40389870161E+02  0.50528857213E+02  0.29999991985E+02 0.  0.
         12    1    1    2    0    0 -0.28989959933E+01  0.36633458432E+01 -0.40389870161E+02  0.40659142787E+02  0.00000000000E+00 0. -1.
         11    1    3    3    0    0  0.49672249164E+01 -0.33751487818E+01  0.13991594281E+02  0.15225953614E+02  0.51100000000E-03 0. -1.
        -11    1    3    3    0    0 -0.11822470664E+02 -0.21674637953E+01  0.20460989295E+02  0.23730166352E+02  0.51100000000E-03 0.  1.
         12    1    3    3    0    0  0.97542417407E+01  0.18792667339E+01  0.59372865844E+01  0.11572737247E+02  0.00000000000E+00 0. -1.
</event>
<event>
 7    1  0.4971907E-013  0.5052894E+02  0.7816164E-02  0.1300439E+00
        -11   -1    0    0    0    0  0.00000000000E+00  0.00000000000E+00  0.45593999997E+02  0.45594000000E+02  0.51100000000E-03 0.  1.
         11   -1    0    0    0    0 -0.00000000000E+00 -0.00000000000E+00 -0.45593999997E+02  0.45594000000E+02  0.51100000000E-03 0. -1.
    9900012    2    1    2    0    0 -0.79335807925E+01  0.39862925497E+02 -0.10792972110E+01  0.50528936854E+02  0.30000234062E+02 0.  0.
         12    1    1    2    0    0  0.79335807925E+01 -0.39862925497E+02  0.10792972110E+01  0.40659063146E+02  0.00000000000E+00 0. -1.
         11    1    3    3    0    0 -0.19261352245E+01  0.50127979630E+01 -0.50089875979E+01  0.73435752422E+01  0.51100000000E-03 0. -1.
        -11    1    3    3    0    0 -0.15527638798E+02  0.21271908512E+02  0.37441678993E+01  0.26601136290E+02  0.51100000000E-03 0.  1.
        -12    1    3    3    0    0  0.95201932300E+01  0.13578219023E+02  0.18552248755E+00  0.16584225323E+02  0.00000000000E+00 0.  1.
</event>
<event>
 7    1  0.4971907E-013  0.5052886E+02  0.7816164E-02  0.1300439E+00
        -11   -1    0    0    0    0  0.00000000000E+00  0.00000000000E+00  0.45593999997E+02  0.45594000000E+02  0.51100000000E-03 0.  1.
         11   -1    0    0    0    0 -0.00000000000E+00 -0.00000000000E+00 -0.45593999997E+02  0.45594000000E+02  0.51100000000E-03 0. -1.
    9900012    2    1    2    0    0 -0.35219856386E+02  0.36424753652E+01  0.19986487782E+02  0.50528860750E+02  0.30000002737E+02 0.  0.
         12    1    1    2    0    0  0.35219856386E+02 -0.36424753652E+01 -0.19986487782E+02  0.40659139250E+02  0.00000000000E+00 0. -1.
         11    1    3    3    0    0 -0.10115159250E+02 -0.26913375864E+01 -0.21290083257E+01  0.10681405402E+02  0.51100000000E-03 0. -1.
        -11    1    3    3    0    0 -0.15461920891E+02 -0.61123365304E+01  0.15630057690E+02  0.22819517067E+02  0.51100000000E-03 0.  1.
        -12    1    3    3    0    0 -0.96427762453E+01  0.12446149482E+02  0.64854384174E+01  0.17027938281E+02  0.00000000000E+00 0.  1.
</event>
<event>
 7    1  0.4971907E-013  0.5052886E+02  0.7816164E-02  0.1300439E+00
        -11   -1    0    0    0    0  0.00000000000E+00  0.00000000000E+00  0.45593999997E+02  0.45594000000E+02  0.51100000000E-03 0. -1.
         11   -1    0    0    0    0 -0.00000000000E+00 -0.00000000000E+00 -0.45593999997E+02  0.45594000000E+02  0.51100000000E-03 0.  1.
    9900012    2    1    2    0    0 -0.16610623662E+01 -0.30802775254E+02  0.26487649131E+02  0.50528860216E+02  0.30000001112E+02 0.  0.
         12    1    1    2    0    0  0.16610623662E+01  0.30802775254E+02 -0.26487649131E+02  0.40659139784E+02  0.00000000000E+00 0. -1.
         11    1    3    3    0    0 -0.99745772129E+01 -0.96105965418E+01  0.48938705439E+01  0.14690327621E+02  0.51100000000E-03 0. -1.
        -11    1    3    3    0    0  0.17416080085E+01 -0.15736735923E+02  0.40754045078E+01  0.16348913668E+02  0.51100000000E-03 0.  1.
         12    1    3    3    0    0  0.65719068381E+01 -0.54554427886E+01  0.17518374079E+02  0.19489618926E+02  0.00000000000E+00 0. -1.
</event>
<event>
 7    1  0.4971907E-013  0.5052887E+02  0.7816164E-02  0.1300439E+00
        -11   -1    0    0    0    0  0.00000000000E+00  0.00000000000E+00  0.45593999997E+02  0.45594000000E+02  0.51100000000E-03 0. -1.
         11   -1    0    0    0    0 -0.00000000000E+00 -0.00000000000E+00 -0.45593999997E+02  0.45594000000E+02  0.51100000000E-03 0.  1.
    9900012    2    1    2    0    0  0.33621171821E+02  0.17836029267E+01 -0.22794739824E+02  0.50528873132E+02  0.30000040372E+02 0.  0.
         12    1    1    2    0    0 -0.33621171821E+02 -0.17836029267E+01  0.22794739824E+02  0.40659126868E+02  0.00000000000E+00 0. -1.
         11    1    3    3    0    0  0.73017156276E+01  0.18388696104E+01 -0.12239065890E+02  0.14369802597E+02  0.51100000000E-03 0.  1.
        -11    1    3    3    0    0  0.10429947689E+01 -0.61450648733E+01 -0.78431871081E+01  0.10018245588E+02  0.51100000000E-03 0. -1.
         12    1    3    3    0    0  0.25276461425E+02  0.60897981896E+01 -0.27124868257E+01  0.26140824947E+02  0.00000000000E+00 0. -1.
</event>
<event>
 7    1  0.4971907E-013  0.5052887E+02  0.7816164E-02  0.1300439E+00
        -11   -1    0    0    0    0  0.00000000000E+00  0.00000000000E+00  0.45593999997E+02  0.45594000000E+02  0.51100000000E-03 0.  1.
         11   -1    0    0    0    0 -0.00000000000E+00 -0.00000000000E+00 -0.45593999997E+02  0.45594000000E+02  0.51100000000E-03 0. -1.
    9900012    2    1    2    0    0  0.27053711453E+02  0.30058829240E+02 -0.42105228726E+01  0.50528867920E+02  0.30000024529E+02 0.  0.
         12    1    1    2    0    0 -0.27053711453E+02 -0.30058829240E+02  0.42105228726E+01  0.40659132080E+02  0.00000000000E+00 0. -1.
         11    1    3    3    0    0  0.16269190150E+02  0.41930564839E+01 -0.65765822127E+01  0.18042164634E+02  0.51100000000E-03 0.  1.
        -11    1    3    3    0    0  0.46494965537E+01  0.29122607711E+01  0.63543299759E+01  0.83950336930E+01  0.51100000000E-03 0. -1.
        -12    1    3    3    0    0  0.61350247497E+01  0.22953511985E+02 -0.39882706359E+01  0.24091669593E+02  0.00000000000E+00 0.  1.
</event>
<event>
 7    1  0.7354385E-013  0.5052887E+02  0.7816164E-02  0.1300439E+00
        -11   -1    0    0    0    0  0.00000000000E+00  0.00000000000E+00  0.45593999997E+02  0.45594000000E+02  0.51100000000E-03 0. -1.
         11   -1    0    0    0    0 -0.00000000000E+00 -0.00000000000E+00 -0.45593999997E+02  0.45594000000E+02  0.51100000000E-03 0.  1.
    9900012    2    1    2    0    0  0.40174752835E+02 -0.59613399140E+01 -0.19017197119E+01  0.50528869700E+02  0.30000029939E+02 0.  0.
         12    1    1    2    0    0 -0.40174752835E+02  0.59613399140E+01  0.19017197119E+01  0.40659130300E+02  0.00000000000E+00 0. -1.
         11    1    3    3    0    0  0.13915377541E+01 -0.54295872022E+01 -0.57046547604E+01  0.79974921509E+01  0.51100000000E-03 0.  1.
        -11    1    3    3    0    0  0.50026397059E+01  0.31441106879E+01  0.60762765325E+01  0.84754334878E+01  0.51100000000E-03 0. -1.
        -12    1    3    3    0    0  0.33780575375E+02 -0.36758633997E+01 -0.22733414840E+01  0.34055944061E+02  0.00000000000E+00 0.  1.
</event>
<event>
 7    1  0.4971907E-013  0.5052887E+02  0.7816164E-02  0.1300439E+00
        -11   -1    0    0    0    0  0.00000000000E+00  0.00000000000E+00  0.45593999997E+02  0.45594000000E+02  0.51100000000E-03 0.  1.
         11   -1    0    0    0    0 -0.00000000000E+00 -0.00000000000E+00 -0.45593999997E+02  0.45594000000E+02  0.51100000000E-03 0. -1.
    9900012    2    1    2    0    0 -0.70491594412E+01  0.39696294601E+02 -0.52610165425E+01  0.50528871272E+02  0.30000034719E+02 0.  0.
         12    1    1    2    0    0  0.70491594412E+01 -0.39696294601E+02  0.52610165425E+01  0.40659128728E+02  0.00000000000E+00 0. -1.
         11    1    3    3    0    0  0.32377446206E+01  0.61303480769E+01 -0.41034244639E+01  0.80561932924E+01  0.51100000000E-03 0. -1.
        -11    1    3    3    0    0  0.40354154101E+01  0.21721410150E+02  0.54363134829E+01  0.22752093112E+02  0.51100000000E-03 0.  1.
        -12    1    3    3    0    0 -0.14322319472E+02  0.11844536374E+02 -0.65939055616E+01  0.19720584868E+02  0.00000000000E+00 0.  1.
</event>
<event>
 7    1  0.4971907E-013  0.5052886E+02  0.7816164E-02  0.1300439E+00
        -11   -1    0    0    0    0  0.00000000000E+00  0.00000000000E+00  0.45593999997E+02  0.45594000000E+02  0.51100000000E-03 0.  1.
         11   -1    0    0    0    0 -0.00000000000E+00 -0.00000000000E+00 -0.45593999997E+02  0.45594000000E+02  0.51100000000E-03 0. -1.
    9900012    2    1    2    0    0  0.25173370377E+01  0.28830812917E+02  0.28558943701E+02  0.50528855586E+02  0.29999987039E+02 0.  0.
         12    1    1    2    0    0 -0.25173370377E+01 -0.28830812917E+02 -0.28558943701E+02  0.40659144414E+02  0.00000000000E+00 0. -1.
         11    1    3    3    0    0 -0.55733568650E+01 -0.22194409475E+01  0.37686151537E+01  0.70845384678E+01  0.51100000000E-03 0. -1.
        -11    1    3    3    0    0 -0.37019150335E+01  0.16685402422E+02  0.11757292715E+02  0.20744656208E+02  0.51100000000E-03 0.  1.
         12    1    3    3    0    0  0.11792608936E+02  0.14364851442E+02  0.13033035832E+02  0.22699660910E+02  0.00000000000E+00 0. -1.
</event>
<event>
 7    1  0.4971907E-013  0.5052883E+02  0.7816164E-02  0.1300439E+00
        -11   -1    0    0    0    0  0.00000000000E+00  0.00000000000E+00  0.45593999997E+02  0.45594000000E+02  0.51100000000E-03 0. -1.
         11   -1    0    0    0    0 -0.00000000000E+00 -0.00000000000E+00 -0.45593999997E+02  0.45594000000E+02  0.51100000000E-03 0.  1.
    9900012    2    1    2    0    0  0.89554996370E+01  0.12815844287E+02 -0.37532931081E+02  0.50528834317E+02  0.29999922389E+02 0.  0.
         12    1    1    2    0    0 -0.89554996370E+01 -0.12815844287E+02  0.37532931081E+02  0.40659165683E+02  0.00000000000E+00 0. -1.
         11    1    3    3    0    0 -0.26180389320E+01 -0.27599132656E+01  0.12336085009E+01  0.39991298150E+01  0.51100000000E-03 0. -1.
        -11    1    3    3    0    0  0.97283741303E+01  0.15728739046E+01 -0.80613797888E+01  0.12731890665E+02  0.51100000000E-03 0.  1.
         12    1    3    3    0    0  0.18451644387E+01  0.14002883648E+02 -0.30705159793E+02  0.33797813837E+02  0.00000000000E+00 0. -1.
</event>
<event>
 7    1  0.4971907E-013  0.5052886E+02  0.7816164E-02  0.1300439E+00
        -11   -1    0    0    0    0  0.00000000000E+00  0.00000000000E+00  0.45593999997E+02  0.45594000000E+02  0.51100000000E-03 0. -1.
         11   -1    0    0    0    0 -0.00000000000E+00 -0.00000000000E+00 -0.45593999997E+02  0.45594000000E+02  0.51100000000E-03 0.  1.
    9900012    2    1    2    0    0 -0.28473064024E+02  0.24420325717E+02 -0.15687514315E+02  0.50528858490E+02  0.29999995865E+02 0.  0.
         12    1    1    2    0    0  0.28473064024E+02 -0.24420325717E+02  0.15687514315E+02  0.40659141510E+02  0.00000000000E+00 0. -1.
         11    1    3    3    0    0  0.29687042717E+01  0.28250972886E+01  0.25656788750E+01  0.48349858421E+01  0.51100000000E-03 0. -1.
        -11    1    3    3    0    0 -0.53273454211E+01  0.13512411138E+02 -0.55364587425E+01  0.15544074101E+02  0.51100000000E-03 0.  1.
         12    1    3    3    0    0 -0.26114422874E+02  0.80828172904E+01 -0.12716734447E+02  0.30149798547E+02  0.00000000000E+00 0. -1.
</event>
<event>
 7    1  0.4971907E-013  0.5052886E+02  0.7816164E-02  0.1300439E+00
        -11   -1    0    0    0    0  0.00000000000E+00  0.00000000000E+00  0.45593999997E+02  0.45594000000E+02  0.51100000000E-03 0.  1.
         11   -1    0    0    0    0 -0.00000000000E+00 -0.00000000000E+00 -0.45593999997E+02  0.45594000000E+02  0.51100000000E-03 0. -1.
    9900012    2    1    2    0    0 -0.36896813231E+02  0.16725857015E+02  0.34693965491E+01  0.50528857954E+02  0.29999994237E+02 0.  0.
         12    1    1    2    0    0  0.36896813231E+02 -0.16725857015E+02 -0.34693965491E+01  0.40659142046E+02  0.00000000000E+00 0. -1.
         11    1    3    3    0    0 -0.12743271170E+02  0.80883332034E-01  0.77033093438E+01  0.14890885713E+02  0.51100000000E-03 0. -1.
        -11    1    3    3    0    0  0.34130854139E+01  0.56514017239E+00 -0.13502281817E+00  0.34621910518E+01  0.51100000000E-03 0.  1.
        -12    1    3    3    0    0 -0.27566627475E+02  0.16079833511E+02 -0.40988899765E+01  0.32175781189E+02  0.00000000000E+00 0.  1.
</event>
<event>
 7    1  0.4971907E-013  0.5052886E+02  0.7816164E-02  0.1300439E+00
        -11   -1    0    0    0    0  0.00000000000E+00  0.00000000000E+00  0.45593999997E+02  0.45594000000E+02  0.51100000000E-03 0.  1.
         11   -1    0    0    0    0 -0.00000000000E+00 -0.00000000000E+00 -0.45593999997E+02  0.45594000000E+02  0.51100000000E-03 0. -1.
    9900012    2    1    2    0    0  0.33991765861E+02 -0.19629364103E+02  0.10602534341E+02  0.50528858151E+02  0.29999994836E+02 0.  0.
         12    1    1    2    0    0 -0.33991765861E+02  0.19629364103E+02 -0.10602534341E+02  0.40659141849E+02  0.00000000000E+00 0. -1.
         11    1    3    3    0    0  0.10649310494E+02 -0.16553704271E+02  0.85473496687E+01  0.21459033662E+02  0.51100000000E-03 0.  1.
        -11    1    3    3    0    0  0.14019052527E+02 -0.38159732703E+01  0.92901271992E+01  0.17245345732E+02  0.51100000000E-03 0. -1.
         12    1    3    3    0    0  0.93234028398E+01  0.74031343837E+00 -0.72349425274E+01  0.11824478757E+02  0.00000000000E+00 0. -1.
</event>
<event>
 7    1  0.8380243E-013  0.5052886E+02  0.7816164E-02  0.1300439E+00
        -11   -1    0    0    0    0  0.00000000000E+00  0.00000000000E+00  0.45593999997E+02  0.45594000000E+02  0.51100000000E-03 0. -1.
         11   -1    0    0    0    0 -0.00000000000E+00 -0.00000000000E+00 -0.45593999997E+02  0.45594000000E+02  0.51100000000E-03 0.  1.
    9900012    2    1    2    0    0 -0.13146774178E+02 -0.51098340167E+01 -0.38134206017E+02  0.50528859041E+02  0.29999997542E+02 0.  0.
         12    1    1    2    0    0  0.13146774178E+02  0.51098340167E+01  0.38134206017E+02  0.40659140959E+02  0.00000000000E+00 0. -1.
         11    1    3    3    0    0 -0.10553191496E+02 -0.31714938959E+01 -0.49892973055E+01  0.12096334658E+02  0.51100000000E-03 0. -1.
        -11    1    3    3    0    0  0.26153123346E+01 -0.68119500008E+01 -0.37880287770E+01  0.82214161613E+01  0.51100000000E-03 0.  1.
        -12    1    3    3    0    0 -0.52088950166E+01  0.48736098801E+01 -0.29356879934E+02  0.30211108222E+02  0.00000000000E+00 0.  1.
</event>
<event>
 7    1  0.4971907E-013  0.5052883E+02  0.7816164E-02  0.1300439E+00
        -11   -1    0    0    0    0  0.00000000000E+00  0.00000000000E+00  0.45593999997E+02  0.45594000000E+02  0.51100000000E-03 0.  1.
         11   -1    0    0    0    0 -0.00000000000E+00 -0.00000000000E+00 -0.45593999997E+02  0.45594000000E+02  0.51100000000E-03 0. -1.
    9900012    2    1    2    0    0 -0.25225416011E+02  0.79677284586E+01  0.30876561678E+02  0.50528826733E+02  0.29999899337E+02 0.  0.
         12    1    1    2    0    0  0.25225416011E+02 -0.79677284586E+01 -0.30876561678E+02  0.40659173267E+02  0.00000000000E+00 0. -1.
         11    1    3    3    0    0  0.16896300449E+01 -0.21870593805E+01  0.35889842041E+00  0.27869134826E+01  0.51100000000E-03 0. -1.
        -11    1    3    3    0    0 -0.10844109497E+02  0.58104582800E+01 -0.74259751399E+00  0.12325079616E+02  0.51100000000E-03 0.  1.
        -12    1    3    3    0    0 -0.16070936559E+02  0.43443295591E+01  0.31260260771E+02  0.35416833634E+02  0.00000000000E+00 0.  1.
</event>
<event>
 7    1  0.4971907E-013  0.5052886E+02  0.7816164E-02  0.1300439E+00
        -11   -1    0    0    0    0  0.00000000000E+00  0.00000000000E+00  0.45593999997E+02  0.45594000000E+02  0.51100000000E-03 0. -1.
         11   -1    0    0    0    0 -0.00000000000E+00 -0.00000000000E+00 -0.45593999997E+02  0.45594000000E+02  0.51100000000E-03 0.  1.
    9900012    2    1    2    0    0  0.46736947359E+01  0.25570318838E+02 -0.31264687327E+02  0.50528864475E+02  0.30000014057E+02 0.  0.
         12    1    1    2    0    0 -0.46736947359E+01 -0.25570318838E+02  0.31264687327E+02  0.40659135525E+02  0.00000000000E+00 0. -1.
         11    1    3    3    0    0 -0.21587823955E+01 -0.72157230753E+00 -0.12804911905E+01  0.26116404760E+01  0.51100000000E-03 0. -1.
        -11    1    3    3    0    0  0.31381569305E+00  0.21438083509E+02 -0.55217062546E+01  0.22139989726E+02  0.51100000000E-03 0.  1.
         12    1    3    3    0    0  0.65186614383E+01  0.48538076367E+01 -0.24462489882E+02  0.25777234273E+02  0.00000000000E+00 0. -1.
</event>
<event>
 7    1  0.4971907E-013  0.5052886E+02  0.7816164E-02  0.1300439E+00
        -11   -1    0    0    0    0  0.00000000000E+00  0.00000000000E+00  0.45593999997E+02  0.45594000000E+02  0.51100000000E-03 0.  1.
         11   -1    0    0    0    0 -0.00000000000E+00 -0.00000000000E+00 -0.45593999997E+02  0.45594000000E+02  0.51100000000E-03 0. -1.
    9900012    2    1    2    0    0 -0.33825003098E+02 -0.18184351374E+02  0.13355295354E+02  0.50528863468E+02  0.30000010998E+02 0.  0.
         12    1    1    2    0    0  0.33825003098E+02  0.18184351374E+02 -0.13355295354E+02  0.40659136532E+02  0.00000000000E+00 0. -1.
         11    1    3    3    0    0  0.72717516828E+00 -0.27082139329E+01  0.20613461763E+01  0.34802808438E+01  0.51100000000E-03 0. -1.
        -11    1    3    3    0    0 -0.71138950500E+01  0.64671390076E+01 -0.13513933897E+01  0.97086381167E+01  0.51100000000E-03 0.  1.
        -12    1    3    3    0    0 -0.27438283217E+02 -0.21943276449E+02  0.12645342568E+02  0.37339944508E+02  0.00000000000E+00 0.  1.
</event>
<event>
 7    1  0.4971907E-013  0.5052887E+02  0.7816164E-02  0.1300439E+00
        -11   -1    0    0    0    0  0.00000000000E+00  0.00000000000E+00  0.45593999997E+02  0.45594000000E+02  0.51100000000E-03 0. -1.
         11   -1    0    0    0    0 -0.00000000000E+00 -0.00000000000E+00 -0.45593999997E+02  0.45594000000E+02  0.51100000000E-03 0.  1.
    9900012    2    1    2    0    0 -0.14515834662E+01  0.37995558351E+02  0.14401235735E+02  0.50528866467E+02  0.30000020114E+02 0.  0.
         12    1    1    2    0    0  0.14515834662E+01 -0.37995558351E+02 -0.14401235735E+02  0.40659133533E+02  0.00000000000E+00 0. -1.
         11    1    3    3    0    0  0.33964524933E+01  0.28256796417E+01 -0.29599238389E+01  0.53180357624E+01  0.51100000000E-03 0. -1.
        -11    1    3    3    0    0 -0.39240917424E+01  0.25673048534E+02  0.66406808768E+00  0.25979701763E+02  0.51100000000E-03 0.  1.
        -12    1    3    3    0    0 -0.92394421707E+00  0.94968301751E+01  0.16697091486E+02  0.19231128942E+02  0.00000000000E+00 0.  1.
</event>
<event>
 7    1  0.4971907E-013  0.5052885E+02  0.7816164E-02  0.1300439E+00
        -11   -1    0    0    0    0  0.00000000000E+00  0.00000000000E+00  0.45593999997E+02  0.45594000000E+02  0.51100000000E-03 0.  1.
         11   -1    0    0    0    0 -0.00000000000E+00 -0.00000000000E+00 -0.45593999997E+02  0.45594000000E+02  0.51100000000E-03 0. -1.
    9900012    2    1    2    0    0  0.34475779860E+02  0.12165357792E+02 -0.17793011448E+02  0.50528848711E+02  0.29999966141E+02 0.  0.
         12    1    1    2    0    0 -0.34475779860E+02 -0.12165357792E+02  0.17793011448E+02  0.40659151289E+02  0.00000000000E+00 0. -1.
         11    1    3    3    0    0  0.23352500548E+02  0.53172634911E+01 -0.22124128001E+02  0.32605055022E+02  0.51100000000E-03 0. -1.
        -11    1    3    3    0    0  0.81278982381E+00 -0.24474981787E+01 -0.13656713935E+01  0.29182071977E+01  0.51100000000E-03 0.  1.
         12    1    3    3    0    0  0.10310489488E+02  0.92955924798E+01  0.56967879466E+01  0.15005586491E+02  0.00000000000E+00 0. -1.
</event>
<event>
 7    1  0.4971907E-013  0.5052886E+02  0.7816164E-02  0.1300439E+00
        -11   -1    0    0    0    0  0.00000000000E+00  0.00000000000E+00  0.45593999997E+02  0.45594000000E+02  0.51100000000E-03 0.  1.
         11   -1    0    0    0    0 -0.00000000000E+00 -0.00000000000E+00 -0.45593999997E+02  0.45594000000E+02  0.51100000000E-03 0. -1.
    9900012    2    1    2    0    0 -0.15322037966E+02 -0.30539368494E+02  0.22039679650E+02  0.50528863825E+02  0.30000012082E+02 0.  0.
         12    1    1    2    0    0  0.15322037966E+02  0.30539368494E+02 -0.22039679650E+02  0.40659136175E+02  0.00000000000E+00 0. -1.
         11    1    3    3    0    0 -0.18312934091E+01 -0.61312977642E+01  0.11798892674E+02  0.13422381176E+02  0.51100000000E-03 0. -1.
        -11    1    3    3    0    0  0.54623497942E+01 -0.39558109102E+01  0.57509747391E+01  0.88633749747E+01  0.51100000000E-03 0.  1.
         12    1    3    3    0    0 -0.18953094351E+02 -0.20452259820E+02  0.44898122366E+01  0.28243107674E+02  0.00000000000E+00 0. -1.
</event>
<event>
 7    1  0.4971907E-013  0.5052885E+02  0.7816164E-02  0.1300439E+00
        -11   -1    0    0    0    0  0.00000000000E+00  0.00000000000E+00  0.45593999997E+02  0.45594000000E+02  0.51100000000E-03 0.  1.
         11   -1    0    0    0    0 -0.00000000000E+00 -0.00000000000E+00 -0.45593999997E+02  0.45594000000E+02  0.51100000000E-03 0. -1.
    9900012    2    1    2    0    0  0.10895193779E+01 -0.26806486396E+02  0.30551457324E+02  0.50528852075E+02  0.29999976367E+02 0.  0.
         12    1    1    2    0    0 -0.10895193779E+01  0.26806486396E+02 -0.30551457324E+02  0.40659147925E+02  0.00000000000E+00 0. -1.
         11    1    3    3    0    0  0.12943099231E+00 -0.76035965179E+01 -0.22000514771E+01  0.79165433840E+01  0.51100000000E-03 0. -1.
        -11    1    3    3    0    0 -0.69566961572E+01 -0.17411064419E+02  0.19345684722E+02  0.26940606958E+02  0.51100000000E-03 0.  1.
        -12    1    3    3    0    0  0.79167845428E+01 -0.17918254590E+01  0.13405824079E+02  0.15671701733E+02  0.00000000000E+00 0.  1.
</event>
<event>
 7    1  0.4971907E-013  0.5052885E+02  0.7816164E-02  0.1300439E+00
        -11   -1    0    0    0    0  0.00000000000E+00  0.00000000000E+00  0.45593999997E+02  0.45594000000E+02  0.51100000000E-03 0. -1.
         11   -1    0    0    0    0 -0.00000000000E+00 -0.00000000000E+00 -0.45593999997E+02  0.45594000000E+02  0.51100000000E-03 0.  1.
    9900012    2    1    2    0    0 -0.25424271849E+02 -0.28726212923E+02 -0.13475065985E+02  0.50528852059E+02  0.29999976320E+02 0.  0.
         12    1    1    2    0    0  0.25424271849E+02  0.28726212923E+02  0.13475065985E+02  0.40659147941E+02  0.00000000000E+00 0. -1.
         11    1    3    3    0    0 -0.22083075461E+00 -0.32983016499E+01 -0.41131103316E+01  0.52768586163E+01  0.51100000000E-03 0. -1.
        -11    1    3    3    0    0 -0.30594274697E+02 -0.20039748623E+02 -0.87512902419E+01  0.37605667795E+02  0.51100000000E-03 0.  1.
         12    1    3    3    0    0  0.53908336029E+01 -0.53881626497E+01 -0.61066541191E+00  0.76463256482E+01  0.00000000000E+00 0. -1.
</event>
<event>
 7    1  0.4971907E-013  0.5052886E+02  0.7816164E-02  0.1300439E+00
        -11   -1    0    0    0    0  0.00000000000E+00  0.00000000000E+00  0.45593999997E+02  0.45594000000E+02  0.51100000000E-03 0. -1.
         11   -1    0    0    0    0 -0.00000000000E+00 -0.00000000000E+00 -0.45593999997E+02  0.45594000000E+02  0.51100000000E-03 0.  1.
    9900012    2    1    2    0    0  0.27337473995E+02  0.78726994795E+01 -0.29049071514E+02  0.50528862806E+02  0.30000008986E+02 0.  0.
         12    1    1    2    0    0 -0.27337473995E+02 -0.78726994795E+01  0.29049071514E+02  0.40659137194E+02  0.00000000000E+00 0. -1.
         11    1    3    3    0    0  0.10648563295E+02  0.51492913724E+01 -0.67032382340E+01  0.13595606090E+02  0.51100000000E-03 0.  1.
        -11    1    3    3    0    0  0.18313690314E+02 -0.65117585729E+01 -0.11452871798E+02  0.22560197812E+02  0.51100000000E-03 0. -1.
         12    1    3    3    0    0 -0.16247796142E+01  0.92351666799E+01 -0.10892961483E+02  0.14373058904E+02  0.00000000000E+00 0. -1.
</event>
<event>
 7    1  0.4971907E-013  0.5052886E+02  0.7816164E-02  0.1300439E+00
        -11   -1    0    0    0    0  0.00000000000E+00  0.00000000000E+00  0.45593999997E+02  0.45594000000E+02  0.51100000000E-03 0. -1.
         11   -1    0    0    0    0 -0.00000000000E+00 -0.00000000000E+00 -0.45593999997E+02  0.45594000000E+02  0.51100000000E-03 0.  1.
    9900012    2    1    2    0    0  0.46090952857E+01 -0.19881336746E+02 -0.35166096162E+02  0.50528860444E+02  0.30000001805E+02 0.  0.
         12    1    1    2    0    0 -0.46090952857E+01  0.19881336746E+02  0.35166096162E+02  0.40659139556E+02  0.00000000000E+00 0. -1.
         11    1    3    3    0    0 -0.81265977667E+00 -0.16737741676E+02 -0.38402579450E+01  0.17191858354E+02  0.51100000000E-03 0. -1.
        -11    1    3    3    0    0  0.46665647057E+01 -0.90048372824E+00 -0.49757382022E+01  0.68808188477E+01  0.51100000000E-03 0.  1.
        -12    1    3    3    0    0  0.75519035666E+00 -0.22431113423E+01 -0.26350100015E+02  0.26456183242E+02  0.00000000000E+00 0.  1.
</event>
<event>
 7    1  0.4971907E-013  0.5052887E+02  0.7816164E-02  0.1300439E+00
        -11   -1    0    0    0    0  0.00000000000E+00  0.00000000000E+00  0.45593999997E+02  0.45594000000E+02  0.51100000000E-03 0. -1.
         11   -1    0    0    0    0 -0.00000000000E+00 -0.00000000000E+00 -0.45593999997E+02  0.45594000000E+02  0.51100000000E-03 0.  1.
    9900012    2    1    2    0    0  0.11157524889E+02  0.38755010151E+02 -0.51695129323E+01  0.50528867724E+02  0.30000023935E+02 0.  0.
         12    1    1    2    0    0 -0.11157524889E+02 -0.38755010151E+02  0.51695129323E+01  0.40659132276E+02  0.00000000000E+00 0. -1.
         11    1    3    3    0    0 -0.20257139476E+01  0.95499550853E+01 -0.60558020480E+01  0.11488163380E+02  0.51100000000E-03 0. -1.
        -11    1    3    3    0    0 -0.19219154416E+00  0.23858121993E+02  0.42849277336E+01  0.24240617331E+02  0.51100000000E-03 0.  1.
        -12    1    3    3    0    0  0.13375430381E+02  0.53469330724E+01 -0.33986386179E+01  0.14800087014E+02  0.00000000000E+00 0.  1.
</event>
<event>
 7    1  0.4971907E-013  0.5052884E+02  0.7816164E-02  0.1300439E+00
        -11   -1    0    0    0    0  0.00000000000E+00  0.00000000000E+00  0.45593999997E+02  0.45594000000E+02  0.51100000000E-03 0.  1.
         11   -1    0    0    0    0 -0.00000000000E+00 -0.00000000000E+00 -0.45593999997E+02  0.45594000000E+02  0.51100000000E-03 0. -1.
    9900012    2    1    2    0    0 -0.15504184711E+02  0.37304563237E+02  0.45996437702E+01  0.50528844762E+02  0.29999954138E+02 0.  0.
         12    1    1    2    0    0  0.15504184711E+02 -0.37304563237E+02 -0.45996437702E+01  0.40659155238E+02  0.00000000000E+00 0. -1.
         11    1    3    3    0    0 -0.59613575276E+00 -0.22003444602E+01  0.37695326897E+01  0.44052548779E+01  0.51100000000E-03 0. -1.
        -11    1    3    3    0    0  0.34164567553E+01  0.10763512547E+02 -0.33576410925E+01  0.11781304388E+02  0.51100000000E-03 0.  1.
        -12    1    3    3    0    0 -0.18324505714E+02  0.28741395150E+02  0.41877521730E+01  0.34342285496E+02  0.00000000000E+00 0.  1.
</event>
<event>
 7    1  0.4971907E-013  0.5052886E+02  0.7816164E-02  0.1300439E+00
        -11   -1    0    0    0    0  0.00000000000E+00  0.00000000000E+00  0.45593999997E+02  0.45594000000E+02  0.51100000000E-03 0. -1.
         11   -1    0    0    0    0 -0.00000000000E+00 -0.00000000000E+00 -0.45593999997E+02  0.45594000000E+02  0.51100000000E-03 0.  1.
    9900012    2    1    2    0    0 -0.29905309534E+02  0.75762680535E+01 -0.26484683326E+02  0.50528858016E+02  0.29999994426E+02 0.  0.
         12    1    1    2    0    0  0.29905309534E+02 -0.75762680535E+01  0.26484683326E+02  0.40659141984E+02  0.00000000000E+00 0. -1.
         11    1    3    3    0    0 -0.32862487186E+01  0.41249949901E+01 -0.86541046676E+01  0.10134522296E+02  0.51100000000E-03 0.  1.
        -11    1    3    3    0    0  0.96224302383E+00 -0.59187770814E+01 -0.72366647359E+01  0.93982525258E+01  0.51100000000E-03 0. -1.
        -12    1    3    3    0    0 -0.27581303840E+02  0.93700501448E+01 -0.10593913923E+02  0.30996083195E+02  0.00000000000E+00 0.  1.
</event>
<event>
 7    1  0.4971907E-013  0.5052886E+02  0.7816164E-02  0.1300439E+00
        -11   -1    0    0    0    0  0.00000000000E+00  0.00000000000E+00  0.45593999997E+02  0.45594000000E+02  0.51100000000E-03 0.  1.
         11   -1    0    0    0    0 -0.00000000000E+00 -0.00000000000E+00 -0.45593999997E+02  0.45594000000E+02  0.51100000000E-03 0. -1.
    9900012    2    1    2    0    0  0.73219154580E+01  0.23309776597E+02  0.32499374044E+02  0.50528862722E+02  0.30000008730E+02 0.  0.
         12    1    1    2    0    0 -0.73219154580E+01 -0.23309776597E+02 -0.32499374044E+02  0.40659137278E+02  0.00000000000E+00 0. -1.
         11    1    3    3    0    0  0.80551983810E+01  0.11111322005E+02  0.20312743623E+02  0.24514388661E+02  0.51100000000E-03 0. -1.
        -11    1    3    3    0    0  0.22291231597E+01  0.16860095857E+02  0.68509228500E+01  0.18334856600E+02  0.51100000000E-03 0.  1.
         12    1    3    3    0    0 -0.29624060828E+01 -0.46616412647E+01  0.53357075706E+01  0.76796174618E+01  0.00000000000E+00 0. -1.
</event>
<event>
 7    1  0.4971907E-013  0.5052886E+02  0.7816164E-02  0.1300439E+00
        -11   -1    0    0    0    0  0.00000000000E+00  0.00000000000E+00  0.45593999997E+02  0.45594000000E+02  0.51100000000E-03 0.  1.
         11   -1    0    0    0    0 -0.00000000000E+00 -0.00000000000E+00 -0.45593999997E+02  0.45594000000E+02  0.51100000000E-03 0. -1.
    9900012    2    1    2    0    0  0.16979213143E+02 -0.14648738272E+02  0.33915874414E+02  0.50528858971E+02  0.29999997329E+02 0.  0.
         12    1    1    2    0    0 -0.16979213143E+02  0.14648738272E+02 -0.33915874414E+02  0.40659141029E+02  0.00000000000E+00 0. -1.
         11    1    3    3    0    0 -0.56928212746E+01  0.11607731889E+01  0.91834565137E+01  0.10866990488E+02  0.51100000000E-03 0. -1.
        -11    1    3    3    0    0  0.79702857641E+01 -0.35435897025E+01  0.16815156756E+02  0.18942860928E+02  0.51100000000E-03 0.  1.
         12    1    3    3    0    0  0.14701748654E+02 -0.12265921759E+02  0.79172611441E+01  0.20719007556E+02  0.00000000000E+00 0. -1.
</event>
<event>
 7    1  0.4971907E-013  0.5052886E+02  0.7816164E-02  0.1300439E+00
        -11   -1    0    0    0    0  0.00000000000E+00  0.00000000000E+00  0.45593999997E+02  0.45594000000E+02  0.51100000000E-03 0.  1.
         11   -1    0    0    0    0 -0.00000000000E+00 -0.00000000000E+00 -0.45593999997E+02  0.45594000000E+02  0.51100000000E-03 0. -1.
    9900012    2    1    2    0    0 -0.84699762897E+01  0.38661794981E+02  0.93107954775E+01  0.50528858323E+02  0.29999995358E+02 0.  0.
         12    1    1    2    0    0  0.84699762897E+01 -0.38661794981E+02 -0.93107954775E+01  0.40659141677E+02  0.00000000000E+00 0. -1.
         11    1    3    3    0    0 -0.12731790995E+02  0.87581234482E+01  0.10393666237E+02  0.18623413392E+02  0.51100000000E-03 0. -1.
        -11    1    3    3    0    0  0.46748647344E+01  0.45287389995E+01 -0.23484298660E+00  0.65129861584E+01  0.51100000000E-03 0.  1.
        -12    1    3    3    0    0 -0.41305002905E+00  0.25374932533E+02 -0.84802777293E+00  0.25392458772E+02  0.00000000000E+00 0.  1.
</event>
<event>
 7    1  0.4971907E-013  0.5052884E+02  0.7816164E-02  0.1300439E+00
        -11   -1    0    0    0    0  0.00000000000E+00  0.00000000000E+00  0.45593999997E+02  0.45594000000E+02  0.51100000000E-03 0.  1.
         11   -1    0    0    0    0 -0.00000000000E+00 -0.00000000000E+00 -0.45593999997E+02  0.45594000000E+02  0.51100000000E-03 0. -1.
    9900012    2    1    2    0    0 -0.28131632254E+02  0.76136823831E+01  0.28351544597E+02  0.50528843913E+02  0.29999951557E+02 0.  0.
         12    1    1    2    0    0  0.28131632254E+02 -0.76136823831E+01 -0.28351544597E+02  0.40659156087E+02  0.00000000000E+00 0. -1.
         11    1    3    3    0    0  0.29167206089E+01  0.65524071534E+01  0.83985430653E+01  0.11044311862E+02  0.51100000000E-03 0. -1.
        -11    1    3    3    0    0 -0.24889452317E+01  0.27772585496E+01  0.73065524178E+01  0.82032750724E+01  0.51100000000E-03 0.  1.
         12    1    3    3    0    0 -0.28559407631E+02 -0.17159833200E+01  0.12646449114E+02  0.31281256979E+02  0.00000000000E+00 0. -1.
</event>
<event>
 7    1  0.4971907E-013  0.5052887E+02  0.7816164E-02  0.1300439E+00
        -11   -1    0    0    0    0  0.00000000000E+00  0.00000000000E+00  0.45593999997E+02  0.45594000000E+02  0.51100000000E-03 0.  1.
         11   -1    0    0    0    0 -0.00000000000E+00 -0.00000000000E+00 -0.45593999997E+02  0.45594000000E+02  0.51100000000E-03 0. -1.
    9900012    2    1    2    0    0 -0.15675718915E+02 -0.15642044682E+02  0.34099309626E+02  0.50528872583E+02  0.30000038704E+02 0.  0.
         12    1    1    2    0    0  0.15675718915E+02  0.15642044682E+02 -0.34099309626E+02  0.40659127417E+02  0.00000000000E+00 0. -1.
         11    1    3    3    0    0 -0.26431874125E+01 -0.10604904671E+01  0.95633090980E+01  0.99783746619E+01  0.51100000000E-03 0. -1.
        -11    1    3    3    0    0 -0.41940161186E+01  0.65558781348E+01  0.12483947039E+01  0.78821189359E+01  0.51100000000E-03 0.  1.
        -12    1    3    3    0    0 -0.88385153839E+01 -0.21137432350E+02  0.23287605824E+02  0.32668378985E+02  0.00000000000E+00 0.  1.
</event>
<event>
 7    1  0.4971907E-013  0.5052887E+02  0.7816164E-02  0.1300439E+00
        -11   -1    0    0    0    0  0.00000000000E+00  0.00000000000E+00  0.45593999997E+02  0.45594000000E+02  0.51100000000E-03 0.  1.
         11   -1    0    0    0    0 -0.00000000000E+00 -0.00000000000E+00 -0.45593999997E+02  0.45594000000E+02  0.51100000000E-03 0. -1.
    9900012    2    1    2    0    0 -0.29461098410E+02  0.26354589011E+02  0.95207340157E+01  0.50528867475E+02  0.30000023178E+02 0.  0.
         12    1    1    2    0    0  0.29461098410E+02 -0.26354589011E+02 -0.95207340157E+01  0.40659132525E+02  0.00000000000E+00 0. -1.
         11    1    3    3    0    0 -0.16820329878E+02  0.11032732131E+02 -0.10340336618E+01  0.20142341009E+02  0.51100000000E-03 0. -1.
        -11    1    3    3    0    0 -0.17113599863E+02  0.80058637576E+01  0.33537014901E+01  0.19188967370E+02  0.51100000000E-03 0.  1.
        -12    1    3    3    0    0  0.44728313307E+01  0.73159931224E+01  0.72010661873E+01  0.11197559096E+02  0.00000000000E+00 0.  1.
</event>
<event>
 7    1  0.4971907E-013  0.5052886E+02  0.7816164E-02  0.1300439E+00
        -11   -1    0    0    0    0  0.00000000000E+00  0.00000000000E+00  0.45593999997E+02  0.45594000000E+02  0.51100000000E-03 0.  1.
         11   -1    0    0    0    0 -0.00000000000E+00 -0.00000000000E+00 -0.45593999997E+02  0.45594000000E+02  0.51100000000E-03 0. -1.
    9900012    2    1    2    0    0  0.40195827930E+02 -0.19332585717E+01  0.58072032723E+01  0.50528859803E+02  0.29999999858E+02 0.  0.
         12    1    1    2    0    0 -0.40195827930E+02  0.19332585717E+01 -0.58072032723E+01  0.40659140197E+02  0.00000000000E+00 0. -1.
         11    1    3    3    0    0  0.95268485222E+01  0.33678455904E+01  0.74555032468E+01  0.12557378533E+02  0.51100000000E-03 0. -1.
        -11    1    3    3    0    0  0.32417671321E+02 -0.29036111865E+01  0.27525375812E+01  0.32663631690E+02  0.51100000000E-03 0.  1.
        -12    1    3    3    0    0 -0.17486919132E+01 -0.23974929756E+01 -0.44008375557E+01  0.53078495803E+01  0.00000000000E+00 0.  1.
</event>
<event>
 7    1  0.4971907E-013  0.5052886E+02  0.7816164E-02  0.1300439E+00
        -11   -1    0    0    0    0  0.00000000000E+00  0.00000000000E+00  0.45593999997E+02  0.45594000000E+02  0.51100000000E-03 0.  1.
         11   -1    0    0    0    0 -0.00000000000E+00 -0.00000000000E+00 -0.45593999997E+02  0.45594000000E+02  0.51100000000E-03 0. -1.
    9900012    2    1    2    0    0  0.32746129101E+02 -0.12715054029E+02  0.20473987989E+02  0.50528858909E+02  0.29999997140E+02 0.  0.
         12    1    1    2    0    0 -0.32746129101E+02  0.12715054029E+02 -0.20473987989E+02  0.40659141091E+02  0.00000000000E+00 0. -1.
         11    1    3    3    0    0  0.56369583818E+01 -0.96790859204E+01  0.12868051436E+02  0.17060092382E+02  0.51100000000E-03 0. -1.
        -11    1    3    3    0    0  0.34326935204E+00  0.12761155532E+01 -0.38246915388E+01  0.40465504298E+01  0.51100000000E-03 0.  1.
        -12    1    3    3    0    0  0.26765901367E+02 -0.43120836622E+01  0.11430628092E+02  0.29422216098E+02  0.00000000000E+00 0.  1.
</event>
<event>
 7    1  0.4971907E-013  0.5052884E+02  0.7816164E-02  0.1300439E+00
        -11   -1    0    0    0    0  0.00000000000E+00  0.00000000000E+00  0.45593999997E+02  0.45594000000E+02  0.51100000000E-03 0.  1.
         11   -1    0    0    0    0 -0.00000000000E+00 -0.00000000000E+00 -0.45593999997E+02  0.45594000000E+02  0.51100000000E-03 0. -1.
    9900012    2    1    2    0    0  0.33333123861E+02  0.74522805917E+01  0.22057500697E+02  0.50528843967E+02  0.29999951722E+02 0.  0.
         12    1    1    2    0    0 -0.33333123861E+02 -0.74522805917E+01 -0.22057500697E+02  0.40659156033E+02  0.00000000000E+00 0. -1.
         11    1    3    3    0    0 -0.11197470720E+01 -0.34586579520E-01 -0.35111248318E+01  0.36855159181E+01  0.51100000000E-03 0. -1.
        -11    1    3    3    0    0  0.10758136992E+02 -0.42396844750E+01  0.26700689870E+01  0.11867674779E+02  0.51100000000E-03 0.  1.
         12    1    3    3    0    0  0.23694733940E+02  0.11726551646E+02  0.22898556542E+02  0.34975653270E+02  0.00000000000E+00 0. -1.
</event>
<event>
 7    1  0.4971907E-013  0.5052885E+02  0.7816164E-02  0.1300439E+00
        -11   -1    0    0    0    0  0.00000000000E+00  0.00000000000E+00  0.45593999997E+02  0.45594000000E+02  0.51100000000E-03 0.  1.
         11   -1    0    0    0    0 -0.00000000000E+00 -0.00000000000E+00 -0.45593999997E+02  0.45594000000E+02  0.51100000000E-03 0. -1.
    9900012    2    1    2    0    0 -0.39471174650E+02  0.72292624899E+01 -0.65521203358E+01  0.50528854100E+02  0.29999982522E+02 0.  0.
         12    1    1    2    0    0  0.39471174650E+02 -0.72292624899E+01  0.65521203358E+01  0.40659145900E+02  0.00000000000E+00 0. -1.
         11    1    3    3    0    0 -0.22364445861E+02 -0.40611121008E+01  0.13508688210E+01  0.22770285835E+02  0.51100000000E-03 0. -1.
        -11    1    3    3    0    0 -0.18968323511E+02  0.67963475152E+01 -0.22092675189E+01  0.20269891455E+02  0.51100000000E-03 0.  1.
         12    1    3    3    0    0  0.18615947225E+01  0.44940270755E+01 -0.56937216379E+01  0.74886768094E+01  0.00000000000E+00 0. -1.
</event>
<event>
 7    1  0.4971907E-013  0.5052886E+02  0.7816164E-02  0.1300439E+00
        -11   -1    0    0    0    0  0.00000000000E+00  0.00000000000E+00  0.45593999997E+02  0.45594000000E+02  0.51100000000E-03 0. -1.
         11   -1    0    0    0    0 -0.00000000000E+00 -0.00000000000E+00 -0.45593999997E+02  0.45594000000E+02  0.51100000000E-03 0.  1.
    9900012    2    1    2    0    0  0.27803017457E+02  0.14148254222E+02 -0.26076518390E+02  0.50528859717E+02  0.29999999595E+02 0.  0.
         12    1    1    2    0    0 -0.27803017457E+02 -0.14148254222E+02  0.26076518390E+02  0.40659140283E+02  0.00000000000E+00 0. -1.
         11    1    3    3    0    0  0.11226531304E+02  0.41063324593E+01 -0.20653274155E+02  0.23863250092E+02  0.51100000000E-03 0. -1.
        -11    1    3    3    0    0  0.19515110835E+02  0.51754802967E+01 -0.56845705530E+01  0.20974734559E+02  0.51100000000E-03 0.  1.
         12    1    3    3    0    0 -0.29386246816E+01  0.48664414658E+01  0.26132631869E+00  0.56908750649E+01  0.00000000000E+00 0. -1.
</event>
<event>
 7    1  0.4971907E-013  0.5052886E+02  0.7816164E-02  0.1300439E+00
        -11   -1    0    0    0    0  0.00000000000E+00  0.00000000000E+00  0.45593999997E+02  0.45594000000E+02  0.51100000000E-03 0.  1.
         11   -1    0    0    0    0 -0.00000000000E+00 -0.00000000000E+00 -0.45593999997E+02  0.45594000000E+02  0.51100000000E-03 0. -1.
    9900012    2    1    2    0    0  0.39353015585E+02 -0.78900999952E+01 -0.65001784182E+01  0.50528857940E+02  0.29999994196E+02 0.  0.
         12    1    1    2    0    0 -0.39353015585E+02  0.78900999952E+01  0.65001784182E+01  0.40659142060E+02  0.00000000000E+00 0. -1.
         11    1    3    3    0    0  0.84038229032E+01 -0.71474785901E+01  0.74846224529E+01  0.13331551414E+02  0.51100000000E-03 0. -1.
        -11    1    3    3    0    0  0.15660034255E+02 -0.17770249791E+00  0.11157005779E+01  0.15700733712E+02  0.51100000000E-03 0.  1.
        -12    1    3    3    0    0  0.15289158427E+02 -0.56491890715E+00 -0.15100501449E+02  0.21496572815E+02  0.00000000000E+00 0.  1.
</event>
<event>
 7    1  0.4971907E-013  0.5052886E+02  0.7816164E-02  0.1300439E+00
        -11   -1    0    0    0    0  0.00000000000E+00  0.00000000000E+00  0.45593999997E+02  0.45594000000E+02  0.51100000000E-03 0.  1.
         11   -1    0    0    0    0 -0.00000000000E+00 -0.00000000000E+00 -0.45593999997E+02  0.45594000000E+02  0.51100000000E-03 0. -1.
    9900012    2    1    2    0    0  0.60236967389E+01  0.25267420528E+02  0.31280001484E+02  0.50528856436E+02  0.29999989622E+02 0.  0.
         12    1    1    2    0    0 -0.60236967389E+01 -0.25267420528E+02 -0.31280001484E+02  0.40659143564E+02  0.00000000000E+00 0. -1.
         11    1    3    3    0    0  0.74858828244E+01  0.14322623425E+02  0.40106960060E+01  0.16651176119E+02  0.51100000000E-03 0. -1.
        -11    1    3    3    0    0  0.34157796063E-01  0.14148529090E+02  0.26806956355E+02  0.30311630630E+02  0.51100000000E-03 0.  1.
         12    1    3    3    0    0 -0.14963438815E+01 -0.32037319869E+01  0.46234912262E+00  0.35660496865E+01  0.00000000000E+00 0. -1.
</event>
<event>
 7    1  0.4971907E-013  0.5052885E+02  0.7816164E-02  0.1300439E+00
        -11   -1    0    0    0    0  0.00000000000E+00  0.00000000000E+00  0.45593999997E+02  0.45594000000E+02  0.51100000000E-03 0.  1.
         11   -1    0    0    0    0 -0.00000000000E+00 -0.00000000000E+00 -0.45593999997E+02  0.45594000000E+02  0.51100000000E-03 0. -1.
    9900012    2    1    2    0    0  0.83665837222E+00 -0.22763542775E+02  0.33679192190E+02  0.50528845269E+02  0.29999955679E+02 0.  0.
         12    1    1    2    0    0 -0.83665837222E+00  0.22763542775E+02 -0.33679192190E+02  0.40659154731E+02  0.00000000000E+00 0. -1.
         11    1    3    3    0    0 -0.70923285989E+01 -0.30692946388E+00  0.62365169349E+01  0.94493107892E+01  0.51100000000E-03 0. -1.
        -11    1    3    3    0    0  0.84758203491E+00 -0.73897727888E+01  0.22523565823E+02  0.23719994832E+02  0.51100000000E-03 0.  1.
        -12    1    3    3    0    0  0.70814049362E+01 -0.15066840522E+02  0.49191094318E+01  0.17359539648E+02  0.00000000000E+00 0.  1.
</event>
<event>
 7    1  0.4971907E-013  0.5052885E+02  0.7816164E-02  0.1300439E+00
        -11   -1    0    0    0    0  0.00000000000E+00  0.00000000000E+00  0.45593999997E+02  0.45594000000E+02  0.51100000000E-03 0. -1.
         11   -1    0    0    0    0 -0.00000000000E+00 -0.00000000000E+00 -0.45593999997E+02  0.45594000000E+02  0.51100000000E-03 0.  1.
    9900012    2    1    2    0    0  0.33578967671E+02  0.47999220920E+01 -0.22418294274E+02  0.50528852935E+02  0.29999978981E+02 0.  0.
         12    1    1    2    0    0 -0.33578967671E+02 -0.47999220920E+01  0.22418294274E+02  0.40659147065E+02  0.00000000000E+00 0. -1.
         11    1    3    3    0    0 -0.13897300500E+01  0.18380009169E+01  0.93314935874E+00  0.24860339839E+01  0.51100000000E-03 0. -1.
        -11    1    3    3    0    0  0.12550592035E+02  0.91952172872E+01 -0.18678674130E+02  0.24309715113E+02  0.51100000000E-03 0.  1.
         12    1    3    3    0    0  0.22418105685E+02 -0.62332961121E+01 -0.46727695028E+01  0.23733103838E+02  0.00000000000E+00 0. -1.
</event>
<event>
 7    1  0.4971907E-013  0.5052888E+02  0.7816164E-02  0.1300439E+00
        -11   -1    0    0    0    0  0.00000000000E+00  0.00000000000E+00  0.45593999997E+02  0.45594000000E+02  0.51100000000E-03 0.  1.
         11   -1    0    0    0    0 -0.00000000000E+00 -0.00000000000E+00 -0.45593999997E+02  0.45594000000E+02  0.51100000000E-03 0. -1.
    9900012    2    1    2    0    0 -0.11316468202E+02 -0.88901855783E+01  0.38027182046E+02  0.50528875236E+02  0.30000046769E+02 0.  0.
         12    1    1    2    0    0  0.11316468202E+02  0.88901855783E+01 -0.38027182046E+02  0.40659124764E+02  0.00000000000E+00 0. -1.
         11    1    3    3    0    0  0.40033719513E+01  0.85385251495E-01  0.70218447432E+01  0.80833521190E+01  0.51100000000E-03 0. -1.
        -11    1    3    3    0    0  0.43555234052E+01 -0.67094360551E+01  0.14927482144E+02  0.16935667679E+02  0.51100000000E-03 0.  1.
        -12    1    3    3    0    0 -0.19675363559E+02 -0.22661347747E+01  0.16077855158E+02  0.25509855438E+02  0.00000000000E+00 0.  1.
</event>
<event>
 7    1  0.4971907E-013  0.5052892E+02  0.7816164E-02  0.1300439E+00
        -11   -1    0    0    0    0  0.00000000000E+00  0.00000000000E+00  0.45593999997E+02  0.45594000000E+02  0.51100000000E-03 0.  1.
         11   -1    0    0    0    0 -0.00000000000E+00 -0.00000000000E+00 -0.45593999997E+02  0.45594000000E+02  0.51100000000E-03 0. -1.
    9900012    2    1    2    0    0 -0.18194512019E+02 -0.96522030021E+01  0.35056467277E+02  0.50528915058E+02  0.30000167809E+02 0.  0.
         12    1    1    2    0    0  0.18194512019E+02  0.96522030021E+01 -0.35056467277E+02  0.40659084942E+02  0.00000000000E+00 0. -1.
         11    1    3    3    0    0 -0.93953588903E+01  0.33207387701E+01  0.24267928382E+02  0.26234184243E+02  0.51100000000E-03 0. -1.
        -11    1    3    3    0    0 -0.41645289778E+01  0.28616204992E+01  0.11337826753E+01  0.51785747947E+01  0.51100000000E-03 0.  1.
         12    1    3    3    0    0 -0.46346241505E+01 -0.15834562271E+02  0.96547562195E+01  0.19116156021E+02  0.00000000000E+00 0. -1.
</event>
<event>
 7    1  0.4971907E-013  0.5052886E+02  0.7816164E-02  0.1300439E+00
        -11   -1    0    0    0    0  0.00000000000E+00  0.00000000000E+00  0.45593999997E+02  0.45594000000E+02  0.51100000000E-03 0.  1.
         11   -1    0    0    0    0 -0.00000000000E+00 -0.00000000000E+00 -0.45593999997E+02  0.45594000000E+02  0.51100000000E-03 0. -1.
    9900012    2    1    2    0    0 -0.36478116912E+02  0.11220674438E+02  0.14021742368E+02  0.50528858257E+02  0.29999995157E+02 0.  0.
         12    1    1    2    0    0  0.36478116912E+02 -0.11220674438E+02 -0.14021742368E+02  0.40659141743E+02  0.00000000000E+00 0. -1.
         11    1    3    3    0    0 -0.13346435208E+02 -0.45661957491E+01  0.84913387639E+01  0.16464516714E+02  0.51100000000E-03 0. -1.
        -11    1    3    3    0    0 -0.10865183377E+02  0.67433595845E+01  0.11973694386E+02  0.17518403631E+02  0.51100000000E-03 0.  1.
         12    1    3    3    0    0 -0.12266498328E+02  0.90435106028E+01 -0.64432907820E+01  0.16545937911E+02  0.00000000000E+00 0. -1.
</event>
<event>
 7    1  0.4971907E-013  0.5052886E+02  0.7816164E-02  0.1300439E+00
        -11   -1    0    0    0    0  0.00000000000E+00  0.00000000000E+00  0.45593999997E+02  0.45594000000E+02  0.51100000000E-03 0.  1.
         11   -1    0    0    0    0 -0.00000000000E+00 -0.00000000000E+00 -0.45593999997E+02  0.45594000000E+02  0.51100000000E-03 0. -1.
    9900012    2    1    2    0    0  0.19985058451E+01  0.23464590963E+02  0.33144904006E+02  0.50528859377E+02  0.29999998562E+02 0.  0.
         12    1    1    2    0    0 -0.19985058451E+01 -0.23464590963E+02 -0.33144904006E+02  0.40659140623E+02  0.00000000000E+00 0. -1.
         11    1    3    3    0    0  0.19056981862E+01  0.13946283775E+01 -0.22598987585E+01  0.32686107978E+01  0.51100000000E-03 0. -1.
        -11    1    3    3    0    0 -0.86659735132E+01  0.20699156756E+02  0.25408971186E+02  0.33899410088E+02  0.51100000000E-03 0.  1.
         12    1    3    3    0    0  0.87587811721E+01  0.13708058290E+01  0.99958315780E+01  0.13360838491E+02  0.00000000000E+00 0. -1.
</event>
<event>
 7    1  0.4971907E-013  0.5052886E+02  0.7816164E-02  0.1300439E+00
        -11   -1    0    0    0    0  0.00000000000E+00  0.00000000000E+00  0.45593999997E+02  0.45594000000E+02  0.51100000000E-03 0.  1.
         11   -1    0    0    0    0 -0.00000000000E+00 -0.00000000000E+00 -0.45593999997E+02  0.45594000000E+02  0.51100000000E-03 0. -1.
    9900012    2    1    2    0    0 -0.69443551107E+01 -0.32758494823E+02  0.23061281680E+02  0.50528858793E+02  0.29999996786E+02 0.  0.
         12    1    1    2    0    0  0.69443551107E+01  0.32758494823E+02 -0.23061281680E+02  0.40659141207E+02  0.00000000000E+00 0. -1.
         11    1    3    3    0    0 -0.32992386975E+01  0.27608434223E+01 -0.34883776220E+01  0.55385928790E+01  0.51100000000E-03 0. -1.
        -11    1    3    3    0    0  0.13109787951E+01 -0.62142627163E+01  0.27787417687E+01  0.69323251934E+01  0.51100000000E-03 0.  1.
         12    1    3    3    0    0 -0.49560952084E+01 -0.29305075529E+02  0.23770917534E+02  0.38057940720E+02  0.00000000000E+00 0. -1.
</event>
<event>
 7    1  0.4971907E-013  0.5052885E+02  0.7816164E-02  0.1300439E+00
        -11   -1    0    0    0    0  0.00000000000E+00  0.00000000000E+00  0.45593999997E+02  0.45594000000E+02  0.51100000000E-03 0.  1.
         11   -1    0    0    0    0 -0.00000000000E+00 -0.00000000000E+00 -0.45593999997E+02  0.45594000000E+02  0.51100000000E-03 0. -1.
    9900012    2    1    2    0    0  0.30836071693E+02  0.13671213974E+02  0.22702442107E+02  0.50528852363E+02  0.29999977243E+02 0.  0.
         12    1    1    2    0    0 -0.30836071693E+02 -0.13671213974E+02 -0.22702442107E+02  0.40659147637E+02  0.00000000000E+00 0. -1.
         11    1    3    3    0    0  0.29850024168E+01 -0.44733780099E+01 -0.11364647732E+01  0.54966264826E+01  0.51100000000E-03 0. -1.
        -11    1    3    3    0    0  0.91184313311E+00  0.58743851457E+01 -0.14271889381E+01  0.61136508950E+01  0.51100000000E-03 0.  1.
        -12    1    3    3    0    0  0.26939226143E+02  0.12270206838E+02  0.25266095818E+02  0.38918574986E+02  0.00000000000E+00 0.  1.
</event>
<event>
 7    1  0.4971907E-013  0.5052889E+02  0.7816164E-02  0.1300439E+00
        -11   -1    0    0    0    0  0.00000000000E+00  0.00000000000E+00  0.45593999997E+02  0.45594000000E+02  0.51100000000E-03 0.  1.
         11   -1    0    0    0    0 -0.00000000000E+00 -0.00000000000E+00 -0.45593999997E+02  0.45594000000E+02  0.51100000000E-03 0. -1.
    9900012    2    1    2    0    0  0.16944607598E+02 -0.21973933411E+02  0.29718503141E+02  0.50528893945E+02  0.30000103635E+02 0.  0.
         12    1    1    2    0    0 -0.16944607598E+02  0.21973933411E+02 -0.29718503141E+02  0.40659106055E+02  0.00000000000E+00 0. -1.
         11    1    3    3    0    0  0.61717286723E+01 -0.38722508255E+01  0.39174619870E+01  0.82723074133E+01  0.51100000000E-03 0. -1.
        -11    1    3    3    0    0  0.11528125382E+02 -0.92874478344E+01 -0.18600822303E+00  0.14805031625E+02  0.51100000000E-03 0.  1.
        -12    1    3    3    0    0 -0.75524645605E+00 -0.88142347516E+01  0.25987049377E+02  0.27451554907E+02  0.00000000000E+00 0.  1.
</event>
<event>
 7    1  0.4971907E-013  0.5052901E+02  0.7816164E-02  0.1300438E+00
        -11   -1    0    0    0    0  0.00000000000E+00  0.00000000000E+00  0.45593999997E+02  0.45594000000E+02  0.51100000000E-03 0.  1.
         11   -1    0    0    0    0 -0.00000000000E+00 -0.00000000000E+00 -0.45593999997E+02  0.45594000000E+02  0.51100000000E-03 0. -1.
    9900012    2    1    2    0    0  0.23377599334E+02  0.17250359418E+01  0.33221467502E+02  0.50529005883E+02  0.30000443878E+02 0.  0.
         12    1    1    2    0    0 -0.23377599334E+02 -0.17250359418E+01 -0.33221467502E+02  0.40658994117E+02  0.00000000000E+00 0. -1.
         11    1    3    3    0    0  0.95508830299E+01  0.51991727381E+01  0.23859873081E+02  0.26221066102E+02  0.51100000000E-03 0. -1.
        -11    1    3    3    0    0  0.16267202716E+02 -0.32180483009E+01  0.12177012777E+02  0.20573219474E+02  0.51100000000E-03 0.  1.
         12    1    3    3    0    0 -0.24404864123E+01 -0.25608849542E+00 -0.28154183567E+01  0.37347203067E+01  0.00000000000E+00 0. -1.
</event>
<event>
 7    1  0.4971907E-013  0.5052886E+02  0.7816164E-02  0.1300439E+00
        -11   -1    0    0    0    0  0.00000000000E+00  0.00000000000E+00  0.45593999997E+02  0.45594000000E+02  0.51100000000E-03 0. -1.
         11   -1    0    0    0    0 -0.00000000000E+00 -0.00000000000E+00 -0.45593999997E+02  0.45594000000E+02  0.51100000000E-03 0.  1.
    9900012    2    1    2    0    0  0.36673820648E+02  0.44285826372E+01 -0.16987773184E+02  0.50528857082E+02  0.29999991587E+02 0.  0.
         12    1    1    2    0    0 -0.36673820648E+02 -0.44285826372E+01  0.16987773184E+02  0.40659142918E+02  0.00000000000E+00 0. -1.
         11    1    3    3    0    0  0.63036802708E+01  0.32226851298E+01  0.15016146927E+01  0.72371908465E+01  0.51100000000E-03 0. -1.
        -11    1    3    3    0    0  0.33312960380E+02  0.52269419665E+01 -0.18155868181E+02  0.38297647464E+02  0.51100000000E-03 0.  1.
        -12    1    3    3    0    0 -0.29428200028E+01 -0.40210444590E+01 -0.33351969530E+00  0.49940187722E+01  0.00000000000E+00 0.  1.
</event>
<event>
 7    1  0.4971907E-013  0.5052884E+02  0.7816164E-02  0.1300439E+00
        -11   -1    0    0    0    0  0.00000000000E+00  0.00000000000E+00  0.45593999997E+02  0.45594000000E+02  0.51100000000E-03 0. -1.
         11   -1    0    0    0    0 -0.00000000000E+00 -0.00000000000E+00 -0.45593999997E+02  0.45594000000E+02  0.51100000000E-03 0.  1.
    9900012    2    1    2    0    0 -0.21123115459E+02  0.36102695846E+00 -0.34739762922E+02  0.50528837748E+02  0.29999932818E+02 0.  0.
         12    1    1    2    0    0  0.21123115459E+02 -0.36102695846E+00  0.34739762922E+02  0.40659162252E+02  0.00000000000E+00 0. -1.
         11    1    3    3    0    0  0.60067660724E+01  0.41878557059E+01 -0.39033763859E+01  0.82979347751E+01  0.51100000000E-03 0. -1.
        -11    1    3    3    0    0 -0.69030655722E+01 -0.32536620873E+01 -0.13841761574E+02  0.15806106257E+02  0.51100000000E-03 0.  1.
        -12    1    3    3    0    0 -0.20226815959E+02 -0.57316666014E+00 -0.16994624962E+02  0.26424796716E+02  0.00000000000E+00 0.  1.
</event>
<event>
 7    1  0.4971907E-013  0.5052886E+02  0.7816164E-02  0.1300439E+00
        -11   -1    0    0    0    0  0.00000000000E+00  0.00000000000E+00  0.45593999997E+02  0.45594000000E+02  0.51100000000E-03 0.  1.
         11   -1    0    0    0    0 -0.00000000000E+00 -0.00000000000E+00 -0.45593999997E+02  0.45594000000E+02  0.51100000000E-03 0. -1.
    9900012    2    1    2    0    0  0.49761249545E+01  0.36376174435E+02  0.17469331288E+02  0.50528862998E+02  0.30000009568E+02 0.  0.
         12    1    1    2    0    0 -0.49761249545E+01 -0.36376174435E+02 -0.17469331288E+02  0.40659137002E+02  0.00000000000E+00 0. -1.
         11    1    3    3    0    0  0.35422304238E+01  0.16132344263E+02  0.50218869302E+01  0.17263234819E+02  0.51100000000E-03 0. -1.
        -11    1    3    3    0    0 -0.97561681727E+01  0.16039869990E+02  0.90320621662E+01  0.20833588120E+02  0.51100000000E-03 0.  1.
         12    1    3    3    0    0  0.11190062703E+02  0.42039601821E+01  0.34153821915E+01  0.12432040059E+02  0.00000000000E+00 0. -1.
</event>
<event>
 7    1  0.4971907E-013  0.5052886E+02  0.7816164E-02  0.1300439E+00
        -11   -1    0    0    0    0  0.00000000000E+00  0.00000000000E+00  0.45593999997E+02  0.45594000000E+02  0.51100000000E-03 0.  1.
         11   -1    0    0    0    0 -0.00000000000E+00 -0.00000000000E+00 -0.45593999997E+02  0.45594000000E+02  0.51100000000E-03 0. -1.
    9900012    2    1    2    0    0 -0.23488393965E+02  0.24209283315E+02  0.22701790324E+02  0.50528864082E+02  0.30000012863E+02 0.  0.
         12    1    1    2    0    0  0.23488393965E+02 -0.24209283315E+02 -0.22701790324E+02  0.40659135918E+02  0.00000000000E+00 0. -1.
         11    1    3    3    0    0 -0.29235138491E+01 -0.61920695625E+01  0.80305258864E+01  0.10553577828E+02  0.51100000000E-03 0. -1.
        -11    1    3    3    0    0 -0.87583951581E+01  0.10481252250E+02  0.27588373664E+01  0.13934752181E+02  0.51100000000E-03 0.  1.
        -12    1    3    3    0    0 -0.11806484957E+02  0.19920100628E+02  0.11912427072E+02  0.26040534073E+02  0.00000000000E+00 0.  1.
</event>
<event>
 7    1  0.4971907E-013  0.5052885E+02  0.7816164E-02  0.1300439E+00
        -11   -1    0    0    0    0  0.00000000000E+00  0.00000000000E+00  0.45593999997E+02  0.45594000000E+02  0.51100000000E-03 0. -1.
         11   -1    0    0    0    0 -0.00000000000E+00 -0.00000000000E+00 -0.45593999997E+02  0.45594000000E+02  0.51100000000E-03 0.  1.
    9900012    2    1    2    0    0  0.39187819986E+02 -0.76319312902E+01 -0.76964438480E+01  0.50528845331E+02  0.29999955869E+02 0.  0.
         12    1    1    2    0    0 -0.39187819986E+02  0.76319312902E+01  0.76964438480E+01  0.40659154669E+02  0.00000000000E+00 0. -1.
         11    1    3    3    0    0  0.16090124702E+00 -0.29700187325E+01 -0.43782280911E+01  0.52929936673E+01  0.51100000000E-03 0. -1.
        -11    1    3    3    0    0  0.90866732490E+01  0.66887410844E+01 -0.65618165825E+01  0.13052368565E+02  0.51100000000E-03 0.  1.
         12    1    3    3    0    0  0.29940245490E+02 -0.11350653642E+02  0.32436008257E+01  0.32183483099E+02  0.00000000000E+00 0. -1.
</event>
<event>
 7    1  0.4971907E-013  0.5052885E+02  0.7816164E-02  0.1300439E+00
        -11   -1    0    0    0    0  0.00000000000E+00  0.00000000000E+00  0.45593999997E+02  0.45594000000E+02  0.51100000000E-03 0.  1.
         11   -1    0    0    0    0 -0.00000000000E+00 -0.00000000000E+00 -0.45593999997E+02  0.45594000000E+02  0.51100000000E-03 0. -1.
    9900012    2    1    2    0    0  0.64874910572E+01 -0.59900885666E+01  0.39688756986E+02  0.50528854259E+02  0.29999983006E+02 0.  0.
         12    1    1    2    0    0 -0.64874910572E+01  0.59900885666E+01 -0.39688756986E+02  0.40659145741E+02  0.00000000000E+00 0. -1.
         11    1    3    3    0    0  0.39447644420E+01  0.96384998472E+01  0.82593706883E+01  0.13292067192E+02  0.51100000000E-03 0. -1.
        -11    1    3    3    0    0 -0.35301720174E+01 -0.34578978456E+01  0.15612241398E+02  0.16375629873E+02  0.51100000000E-03 0.  1.
        -12    1    3    3    0    0  0.60728986326E+01 -0.12170690568E+02  0.15817144900E+02  0.20861157194E+02  0.00000000000E+00 0.  1.
</event>
<event>
 7    1  0.4971907E-013  0.5052891E+02  0.7816164E-02  0.1300439E+00
        -11   -1    0    0    0    0  0.00000000000E+00  0.00000000000E+00  0.45593999997E+02  0.45594000000E+02  0.51100000000E-03 0.  1.
         11   -1    0    0    0    0 -0.00000000000E+00 -0.00000000000E+00 -0.45593999997E+02  0.45594000000E+02  0.51100000000E-03 0. -1.
    9900012    2    1    2    0    0  0.25363554606E+02  0.30225993708E+02  0.98102667116E+01  0.50528905927E+02  0.30000140054E+02 0.  0.
         12    1    1    2    0    0 -0.25363554606E+02 -0.30225993708E+02 -0.98102667116E+01  0.40659094073E+02  0.00000000000E+00 0. -1.
         11    1    3    3    0    0  0.14165725374E+02  0.10556814867E+01 -0.59698178606E+01  0.15408470538E+02  0.51100000000E-03 0. -1.
        -11    1    3    3    0    0  0.19824074910E+01  0.43276316389E+01  0.13437973417E+01  0.49461223822E+01  0.51100000000E-03 0.  1.
         12    1    3    3    0    0  0.92154217410E+01  0.24842680583E+02  0.14436287230E+02  0.30174313006E+02  0.00000000000E+00 0. -1.
</event>
<event>
 7    1  0.4971907E-013  0.5052886E+02  0.7816164E-02  0.1300439E+00
        -11   -1    0    0    0    0  0.00000000000E+00  0.00000000000E+00  0.45593999997E+02  0.45594000000E+02  0.51100000000E-03 0.  1.
         11   -1    0    0    0    0 -0.00000000000E+00 -0.00000000000E+00 -0.45593999997E+02  0.45594000000E+02  0.51100000000E-03 0. -1.
    9900012    2    1    2    0    0  0.28324198784E+02 -0.19662577088E+02 -0.21547352542E+02  0.50528861100E+02  0.30000003801E+02 0.  0.
         12    1    1    2    0    0 -0.28324198784E+02  0.19662577088E+02  0.21547352542E+02  0.40659138900E+02  0.00000000000E+00 0. -1.
         11    1    3    3    0    0  0.66670164746E+01  0.63018988060E+01 -0.90912938942E+01  0.12915675057E+02  0.51100000000E-03 0.  1.
        -11    1    3    3    0    0  0.91964574150E+01 -0.37991873382E+01 -0.48687515840E+01  0.11077607849E+02  0.51100000000E-03 0. -1.
         12    1    3    3    0    0  0.12460724895E+02 -0.22165288555E+02 -0.75873070633E+01  0.26535578195E+02  0.00000000000E+00 0. -1.
</event>
<event>
 7    1  0.4971907E-013  0.5052887E+02  0.7816164E-02  0.1300439E+00
        -11   -1    0    0    0    0  0.00000000000E+00  0.00000000000E+00  0.45593999997E+02  0.45594000000E+02  0.51100000000E-03 0.  1.
         11   -1    0    0    0    0 -0.00000000000E+00 -0.00000000000E+00 -0.45593999997E+02  0.45594000000E+02  0.51100000000E-03 0. -1.
    9900012    2    1    2    0    0 -0.10329341013E+02 -0.10917900940E+02  0.37779218752E+02  0.50528865526E+02  0.30000017252E+02 0.  0.
         12    1    1    2    0    0  0.10329341013E+02  0.10917900940E+02 -0.37779218752E+02  0.40659134474E+02  0.00000000000E+00 0. -1.
         11    1    3    3    0    0  0.74423960563E+00  0.49242072681E+01 -0.18807209703E+01  0.53234219670E+01  0.51100000000E-03 0. -1.
        -11    1    3    3    0    0  0.12871821404E+01 -0.85107459590E+00  0.72928050143E+01  0.74542720012E+01  0.51100000000E-03 0.  1.
        -12    1    3    3    0    0 -0.12360762759E+02 -0.14991033612E+02  0.32367134708E+02  0.37751171557E+02  0.00000000000E+00 0.  1.
</event>
<event>
 7    1  0.4971907E-013  0.5052885E+02  0.7816164E-02  0.1300439E+00
        -11   -1    0    0    0    0  0.00000000000E+00  0.00000000000E+00  0.45593999997E+02  0.45594000000E+02  0.51100000000E-03 0. -1.
         11   -1    0    0    0    0 -0.00000000000E+00 -0.00000000000E+00 -0.45593999997E+02  0.45594000000E+02  0.51100000000E-03 0.  1.
    9900012    2    1    2    0    0  0.59949612036E+00  0.24398930808E+02 -0.32519213045E+02  0.50528850510E+02  0.29999971611E+02 0.  0.
         12    1    1    2    0    0 -0.59949612036E+00 -0.24398930808E+02  0.32519213045E+02  0.40659149490E+02  0.00000000000E+00 0. -1.
         11    1    3    3    0    0  0.12912005070E+02  0.98574342979E+01 -0.17461630660E+02  0.23849474448E+02  0.51100000000E-03 0. -1.
        -11    1    3    3    0    0 -0.14565651979E+00  0.83778248091E+01 -0.60314782131E+01  0.10324141323E+02  0.51100000000E-03 0.  1.
         12    1    3    3    0    0 -0.12166852430E+02  0.61636717009E+01 -0.90261041715E+01  0.16355234740E+02  0.00000000000E+00 0. -1.
</event>
<event>
 7    1  0.4971907E-013  0.5052885E+02  0.7816164E-02  0.1300439E+00
        -11   -1    0    0    0    0  0.00000000000E+00  0.00000000000E+00  0.45593999997E+02  0.45594000000E+02  0.51100000000E-03 0.  1.
         11   -1    0    0    0    0 -0.00000000000E+00 -0.00000000000E+00 -0.45593999997E+02  0.45594000000E+02  0.51100000000E-03 0. -1.
    9900012    2    1    2    0    0  0.79974309185E+01 -0.29253983670E+02  0.27081585551E+02  0.50528846814E+02  0.29999960376E+02 0.  0.
         12    1    1    2    0    0 -0.79974309185E+01  0.29253983670E+02 -0.27081585551E+02  0.40659153186E+02  0.00000000000E+00 0. -1.
         11    1    3    3    0    0  0.39481046778E+00 -0.78153482119E+01  0.45745113783E+01  0.90643089968E+01  0.51100000000E-03 0. -1.
        -11    1    3    3    0    0 -0.33891416024E+01 -0.20388795615E+01  0.18364629177E+02  0.18785710414E+02  0.51100000000E-03 0.  1.
         12    1    3    3    0    0  0.10991762053E+02 -0.19399755896E+02  0.41424449958E+01  0.22678827404E+02  0.00000000000E+00 0. -1.
</event>
<event>
 7    1  0.4971907E-013  0.5052885E+02  0.7816164E-02  0.1300439E+00
        -11   -1    0    0    0    0  0.00000000000E+00  0.00000000000E+00  0.45593999997E+02  0.45594000000E+02  0.51100000000E-03 0.  1.
         11   -1    0    0    0    0 -0.00000000000E+00 -0.00000000000E+00 -0.45593999997E+02  0.45594000000E+02  0.51100000000E-03 0. -1.
    9900012    2    1    2    0    0  0.11749249020E+02  0.34811035078E+02 -0.17415903505E+02  0.50528847148E+02  0.29999961392E+02 0.  0.
         12    1    1    2    0    0 -0.11749249020E+02 -0.34811035078E+02  0.17415903505E+02  0.40659152852E+02  0.00000000000E+00 0. -1.
         11    1    3    3    0    0 -0.49246013402E+01  0.13661639201E+02 -0.80265739658E+01  0.16592708456E+02  0.51100000000E-03 0. -1.
        -11    1    3    3    0    0  0.41799166010E+01  0.44925866015E+01  0.55782568740E+01  0.82928877466E+01  0.51100000000E-03 0.  1.
        -12    1    3    3    0    0  0.12493933759E+02  0.16656809275E+02 -0.14967586413E+02  0.25643250946E+02  0.00000000000E+00 0.  1.
</event>
<event>
 7    1  0.4971907E-013  0.5052886E+02  0.7816164E-02  0.1300439E+00
        -11   -1    0    0    0    0  0.00000000000E+00  0.00000000000E+00  0.45593999997E+02  0.45594000000E+02  0.51100000000E-03 0. -1.
         11   -1    0    0    0    0 -0.00000000000E+00 -0.00000000000E+00 -0.45593999997E+02  0.45594000000E+02  0.51100000000E-03 0.  1.
    9900012    2    1    2    0    0 -0.18283680410E+02  0.26489365024E+02 -0.24843239460E+02  0.50528856188E+02  0.29999988869E+02 0.  0.
         12    1    1    2    0    0  0.18283680410E+02 -0.26489365024E+02  0.24843239460E+02  0.40659143812E+02  0.00000000000E+00 0. -1.
         11    1    3    3    0    0 -0.41976514185E+01 -0.13932514813E+01  0.11176013928E+01  0.45618483376E+01  0.51100000000E-03 0. -1.
        -11    1    3    3    0    0 -0.17653496009E+02  0.28101076582E+02 -0.19253547098E+02  0.38366854217E+02  0.51100000000E-03 0.  1.
         12    1    3    3    0    0  0.35674670181E+01 -0.21846007703E+00 -0.67072937551E+01  0.76001536332E+01  0.00000000000E+00 0. -1.
</event>
<event>
 7    1  0.5326090E-013  0.5052887E+02  0.7816164E-02  0.1300439E+00
        -11   -1    0    0    0    0  0.00000000000E+00  0.00000000000E+00  0.45593999997E+02  0.45594000000E+02  0.51100000000E-03 0.  1.
         11   -1    0    0    0    0 -0.00000000000E+00 -0.00000000000E+00 -0.45593999997E+02  0.45594000000E+02  0.51100000000E-03 0. -1.
    9900012    2    1    2    0    0 -0.35379263322E+02 -0.44444695711E+01 -0.19537632374E+02  0.50528872344E+02  0.30000037976E+02 0.  0.
         12    1    1    2    0    0  0.35379263322E+02  0.44444695711E+01  0.19537632374E+02  0.40659127656E+02  0.00000000000E+00 0. -1.
         11    1    3    3    0    0 -0.17139755614E+01  0.28806836908E+01  0.39637192859E+01  0.51910617016E+01  0.51100000000E-03 0.  1.
        -11    1    3    3    0    0 -0.21816348057E+02  0.23935843110E+01 -0.75293889926E+01  0.23202887476E+02  0.51100000000E-03 0. -1.
        -12    1    3    3    0    0 -0.11848939704E+02 -0.97187375729E+01 -0.15971962667E+02  0.22134923166E+02  0.00000000000E+00 0.  1.
</event>
<event>
 7    1  0.4971907E-013  0.5052886E+02  0.7816164E-02  0.1300439E+00
        -11   -1    0    0    0    0  0.00000000000E+00  0.00000000000E+00  0.45593999997E+02  0.45594000000E+02  0.51100000000E-03 0.  1.
         11   -1    0    0    0    0 -0.00000000000E+00 -0.00000000000E+00 -0.45593999997E+02  0.45594000000E+02  0.51100000000E-03 0. -1.
    9900012    2    1    2    0    0  0.11385077362E+02 -0.24185507630E+02  0.30636689235E+02  0.50528862120E+02  0.30000006899E+02 0.  0.
         12    1    1    2    0    0 -0.11385077362E+02  0.24185507630E+02 -0.30636689235E+02  0.40659137880E+02  0.00000000000E+00 0. -1.
         11    1    3    3    0    0  0.10545075712E+02 -0.34759662619E+01  0.12730948323E+01  0.11175944431E+02  0.51100000000E-03 0. -1.
        -11    1    3    3    0    0  0.68395590275E-02 -0.23389596055E+02  0.26010772620E+02  0.34980473738E+02  0.51100000000E-03 0.  1.
         12    1    3    3    0    0  0.83316209165E+00  0.26800546864E+01  0.33528217828E+01  0.43724439505E+01  0.00000000000E+00 0. -1.
</event>
<event>
 7    1  0.4971907E-013  0.5052886E+02  0.7816164E-02  0.1300439E+00
        -11   -1    0    0    0    0  0.00000000000E+00  0.00000000000E+00  0.45593999997E+02  0.45594000000E+02  0.51100000000E-03 0. -1.
         11   -1    0    0    0    0 -0.00000000000E+00 -0.00000000000E+00 -0.45593999997E+02  0.45594000000E+02  0.51100000000E-03 0.  1.
    9900012    2    1    2    0    0 -0.23994656399E+02  0.20776319258E+02  0.25411945039E+02  0.50528856769E+02  0.29999990635E+02 0.  0.
         12    1    1    2    0    0  0.23994656399E+02 -0.20776319258E+02 -0.25411945039E+02  0.40659143231E+02  0.00000000000E+00 0. -1.
         11    1    3    3    0    0 -0.32731353415E+01  0.62392491646E+01  0.17890892256E+02  0.19228251899E+02  0.51100000000E-03 0. -1.
        -11    1    3    3    0    0 -0.80436824458E+01 -0.31358442969E+01  0.22015467321E+01  0.89096102618E+01  0.51100000000E-03 0.  1.
        -12    1    3    3    0    0 -0.12677838612E+02  0.17672914391E+02  0.53195060504E+01  0.22390994608E+02  0.00000000000E+00 0.  1.
</event>
<event>
 7    1  0.4971907E-013  0.5052887E+02  0.7816164E-02  0.1300439E+00
        -11   -1    0    0    0    0  0.00000000000E+00  0.00000000000E+00  0.45593999997E+02  0.45594000000E+02  0.51100000000E-03 0.  1.
         11   -1    0    0    0    0 -0.00000000000E+00 -0.00000000000E+00 -0.45593999997E+02  0.45594000000E+02  0.51100000000E-03 0. -1.
    9900012    2    1    2    0    0 -0.10720204007E+01 -0.30858114026E+02  0.26453586809E+02  0.50528872070E+02  0.30000037143E+02 0.  0.
         12    1    1    2    0    0  0.10720204007E+01  0.30858114026E+02 -0.26453586809E+02  0.40659127930E+02  0.00000000000E+00 0. -1.
         11    1    3    3    0    0 -0.37590065716E+00 -0.17888852448E+01 -0.28869580366E+01  0.34170072709E+01  0.51100000000E-03 0. -1.
        -11    1    3    3    0    0  0.99763639357E+01 -0.14269606661E+02  0.83826837126E+01  0.19324049734E+02  0.51100000000E-03 0.  1.
        -12    1    3    3    0    0 -0.10672483679E+02 -0.14799622120E+02  0.20957861133E+02  0.27787815065E+02  0.00000000000E+00 0.  1.
</event>
<event>
 7    1  0.4971907E-013  0.5052886E+02  0.7816164E-02  0.1300439E+00
        -11   -1    0    0    0    0  0.00000000000E+00  0.00000000000E+00  0.45593999997E+02  0.45594000000E+02  0.51100000000E-03 0.  1.
         11   -1    0    0    0    0 -0.00000000000E+00 -0.00000000000E+00 -0.45593999997E+02  0.45594000000E+02  0.51100000000E-03 0. -1.
    9900012    2    1    2    0    0  0.58999909834E+01  0.24549554167E+02  0.31869664352E+02  0.50528855772E+02  0.29999987606E+02 0.  0.
         12    1    1    2    0    0 -0.58999909834E+01 -0.24549554167E+02 -0.31869664352E+02  0.40659144228E+02  0.00000000000E+00 0. -1.
         11    1    3    3    0    0  0.10976524129E+02  0.55321522702E+01  0.55189182362E+01  0.13473947063E+02  0.51100000000E-03 0. -1.
        -11    1    3    3    0    0 -0.33471809537E+01  0.14102168743E+02  0.28050738140E+02  0.31574019289E+02  0.51100000000E-03 0.  1.
        -12    1    3    3    0    0 -0.17293521923E+01  0.49152331536E+01 -0.16999920238E+01  0.54808894205E+01  0.00000000000E+00 0.  1.
</event>
<event>
 7    1  0.4971907E-013  0.5052886E+02  0.7816164E-02  0.1300439E+00
        -11   -1    0    0    0    0  0.00000000000E+00  0.00000000000E+00  0.45593999997E+02  0.45594000000E+02  0.51100000000E-03 0.  1.
         11   -1    0    0    0    0 -0.00000000000E+00 -0.00000000000E+00 -0.45593999997E+02  0.45594000000E+02  0.51100000000E-03 0. -1.
    9900012    2    1    2    0    0 -0.13025284608E+02  0.37807930976E+02  0.73531171733E+01  0.50528855691E+02  0.29999987358E+02 0.  0.
         12    1    1    2    0    0  0.13025284608E+02 -0.37807930976E+02 -0.73531171733E+01  0.40659144309E+02  0.00000000000E+00 0. -1.
         11    1    3    3    0    0 -0.83800496765E+01  0.35819660184E+00 -0.30575550526E+01  0.89276077729E+01  0.51100000000E-03 0. -1.
        -11    1    3    3    0    0 -0.34557960622E+01  0.13782622180E+02 -0.27825531836E+01  0.14479150633E+02  0.51100000000E-03 0.  1.
        -12    1    3    3    0    0 -0.11894388695E+01  0.23667112194E+02  0.13193225410E+02  0.27122097285E+02  0.00000000000E+00 0.  1.
</event>
<event>
 7    1  0.4971907E-013  0.5052883E+02  0.7816164E-02  0.1300439E+00
        -11   -1    0    0    0    0  0.00000000000E+00  0.00000000000E+00  0.45593999997E+02  0.45594000000E+02  0.51100000000E-03 0.  1.
         11   -1    0    0    0    0 -0.00000000000E+00 -0.00000000000E+00 -0.45593999997E+02  0.45594000000E+02  0.51100000000E-03 0. -1.
    9900012    2    1    2    0    0  0.12097617206E+02 -0.24825379610E+01  0.38738258136E+02  0.50528831536E+02  0.29999913937E+02 0.  0.
         12    1    1    2    0    0 -0.12097617206E+02  0.24825379610E+01 -0.38738258136E+02  0.40659168464E+02  0.00000000000E+00 0. -1.
         11    1    3    3    0    0  0.11724537940E+02 -0.14770801538E+01  0.35400837039E+01  0.12336075088E+02  0.51100000000E-03 0. -1.
        -11    1    3    3    0    0 -0.52924197147E+01  0.37356084338E+01  0.98441715346E+01  0.11784404536E+02  0.51100000000E-03 0.  1.
        -12    1    3    3    0    0  0.56654989812E+01 -0.47410662410E+01  0.25354002897E+02  0.26408351912E+02  0.00000000000E+00 0.  1.
</event>
<event>
 7    1  0.4971907E-013  0.5052886E+02  0.7816164E-02  0.1300439E+00
        -11   -1    0    0    0    0  0.00000000000E+00  0.00000000000E+00  0.45593999997E+02  0.45594000000E+02  0.51100000000E-03 0.  1.
         11   -1    0    0    0    0 -0.00000000000E+00 -0.00000000000E+00 -0.45593999997E+02  0.45594000000E+02  0.51100000000E-03 0. -1.
    9900012    2    1    2    0    0  0.13197772621E+01  0.23128938996E+02  0.33413709915E+02  0.50528860297E+02  0.30000001358E+02 0.  0.
         12    1    1    2    0    0 -0.13197772621E+01 -0.23128938996E+02 -0.33413709915E+02  0.40659139703E+02  0.00000000000E+00 0. -1.
         11    1    3    3    0    0 -0.22204653586E+01  0.13701377852E+02  0.12457372131E+02  0.18650585571E+02  0.51100000000E-03 0. -1.
        -11    1    3    3    0    0 -0.33751421698E+01  0.75456452284E+01 -0.14155779838E+01  0.83864299835E+01  0.51100000000E-03 0.  1.
        -12    1    3    3    0    0  0.69153847905E+01  0.18819159164E+01  0.22371915767E+02  0.23491844743E+02  0.00000000000E+00 0.  1.
</event>
<event>
 7    1  0.4971907E-013  0.5052885E+02  0.7816164E-02  0.1300439E+00
        -11   -1    0    0    0    0  0.00000000000E+00  0.00000000000E+00  0.45593999997E+02  0.45594000000E+02  0.51100000000E-03 0.  1.
         11   -1    0    0    0    0 -0.00000000000E+00 -0.00000000000E+00 -0.45593999997E+02  0.45594000000E+02  0.51100000000E-03 0. -1.
    9900012    2    1    2    0    0 -0.19264665827E+02 -0.91068623766E+01  0.34628089163E+02  0.50528845424E+02  0.29999956150E+02 0.  0.
         12    1    1    2    0    0  0.19264665827E+02  0.91068623766E+01 -0.34628089163E+02  0.40659154576E+02  0.00000000000E+00 0. -1.
         11    1    3    3    0    0 -0.33204592902E+01  0.61983505504E+00  0.33769571350E+00  0.33946552180E+01  0.51100000000E-03 0. -1.
        -11    1    3    3    0    0 -0.21944766626E+02 -0.97655451742E+01  0.33289926625E+02  0.41050674413E+02  0.51100000000E-03 0.  1.
         12    1    3    3    0    0  0.60005600893E+01  0.38847742555E-01  0.10004668244E+01  0.60835157926E+01  0.00000000000E+00 0. -1.
</event>
<event>
 7    1  0.4971907E-013  0.5052886E+02  0.7816164E-02  0.1300439E+00
        -11   -1    0    0    0    0  0.00000000000E+00  0.00000000000E+00  0.45593999997E+02  0.45594000000E+02  0.51100000000E-03 0. -1.
         11   -1    0    0    0    0 -0.00000000000E+00 -0.00000000000E+00 -0.45593999997E+02  0.45594000000E+02  0.51100000000E-03 0.  1.
    9900012    2    1    2    0    0  0.21449801389E+02  0.27764543467E+02  0.20547543688E+02  0.50528863202E+02  0.30000010188E+02 0.  0.
         12    1    1    2    0    0 -0.21449801389E+02 -0.27764543467E+02 -0.20547543688E+02  0.40659136798E+02  0.00000000000E+00 0. -1.
         11    1    3    3    0    0  0.16095652911E+02  0.19919101405E+02  0.16086251904E+02  0.30242489051E+02  0.51100000000E-03 0. -1.
        -11    1    3    3    0    0  0.11171222598E+02  0.20731169506E+01  0.41146088456E+01  0.12084040485E+02  0.51100000000E-03 0.  1.
         12    1    3    3    0    0 -0.58170741201E+01  0.57723251117E+01  0.34668293843E+00  0.82023336663E+01  0.00000000000E+00 0. -1.
</event>
<event>
 7    1  0.4971907E-013  0.5052889E+02  0.7816164E-02  0.1300439E+00
        -11   -1    0    0    0    0  0.00000000000E+00  0.00000000000E+00  0.45593999997E+02  0.45594000000E+02  0.51100000000E-03 0.  1.
         11   -1    0    0    0    0 -0.00000000000E+00 -0.00000000000E+00 -0.45593999997E+02  0.45594000000E+02  0.51100000000E-03 0. -1.
    9900012    2    1    2    0    0  0.24567367303E+02  0.79775993368E+01  0.31400082931E+02  0.50528894802E+02  0.30000106241E+02 0.  0.
         12    1    1    2    0    0 -0.24567367303E+02 -0.79775993368E+01 -0.31400082931E+02  0.40659105198E+02  0.00000000000E+00 0. -1.
         11    1    3    3    0    0  0.35956034347E+01 -0.43900247584E+01  0.48745356283E+01  0.74807606092E+01  0.51100000000E-03 0. -1.
        -11    1    3    3    0    0 -0.46120632160E+01  0.50169607507E+01  0.85260374485E+01  0.10914867710E+02  0.51100000000E-03 0.  1.
        -12    1    3    3    0    0  0.25583827085E+02  0.73506633445E+01  0.17999509854E+02  0.32133266483E+02  0.00000000000E+00 0.  1.
</event>
<event>
 7    1  0.4971907E-013  0.5052886E+02  0.7816164E-02  0.1300439E+00
        -11   -1    0    0    0    0  0.00000000000E+00  0.00000000000E+00  0.45593999997E+02  0.45594000000E+02  0.51100000000E-03 0. -1.
         11   -1    0    0    0    0 -0.00000000000E+00 -0.00000000000E+00 -0.45593999997E+02  0.45594000000E+02  0.51100000000E-03 0.  1.
    9900012    2    1    2    0    0 -0.50908330958E+01  0.38832857783E+02  0.10920547564E+02  0.50528858540E+02  0.29999996018E+02 0.  0.
         12    1    1    2    0    0  0.50908330958E+01 -0.38832857783E+02 -0.10920547564E+02  0.40659141460E+02  0.00000000000E+00 0. -1.
         11    1    3    3    0    0 -0.27788542163E+01  0.41445700479E+01  0.97948960539E+01  0.10992701242E+02  0.51100000000E-03 0. -1.
        -11    1    3    3    0    0 -0.24407041755E+01  0.27454935604E+02  0.88537081201E+01  0.28950279336E+02  0.51100000000E-03 0.  1.
        -12    1    3    3    0    0  0.12872529597E+00  0.72333521311E+01 -0.77280566104E+01  0.10585877962E+02  0.00000000000E+00 0.  1.
</event>
<event>
 7    1  0.4971907E-013  0.5052886E+02  0.7816164E-02  0.1300439E+00
        -11   -1    0    0    0    0  0.00000000000E+00  0.00000000000E+00  0.45593999997E+02  0.45594000000E+02  0.51100000000E-03 0.  1.
         11   -1    0    0    0    0 -0.00000000000E+00 -0.00000000000E+00 -0.45593999997E+02  0.45594000000E+02  0.51100000000E-03 0. -1.
    9900012    2    1    2    0    0  0.59254012454E+01 -0.32352158227E+02  0.23903829632E+02  0.50528860893E+02  0.30000003169E+02 0.  0.
         12    1    1    2    0    0 -0.59254012454E+01  0.32352158227E+02 -0.23903829632E+02  0.40659139107E+02  0.00000000000E+00 0. -1.
         11    1    3    3    0    0  0.29156247187E+01 -0.13500716132E+01  0.57775100469E+01  0.66108383329E+01  0.51100000000E-03 0. -1.
        -11    1    3    3    0    0  0.19956165124E+01 -0.32797290406E+02  0.21990847438E+02  0.39537856727E+02  0.51100000000E-03 0.  1.
         12    1    3    3    0    0  0.10141600142E+01  0.17952037920E+01 -0.38645278536E+01  0.43801658325E+01  0.00000000000E+00 0. -1.
</event>
<event>
 7    1  0.4971907E-013  0.5052888E+02  0.7816164E-02  0.1300439E+00
        -11   -1    0    0    0    0  0.00000000000E+00  0.00000000000E+00  0.45593999997E+02  0.45594000000E+02  0.51100000000E-03 0.  1.
         11   -1    0    0    0    0 -0.00000000000E+00 -0.00000000000E+00 -0.45593999997E+02  0.45594000000E+02  0.51100000000E-03 0. -1.
    9900012    2    1    2    0    0  0.77371348455E+01 -0.17776929309E+02 -0.35739081748E+02  0.50528875127E+02  0.30000046436E+02 0.  0.
         12    1    1    2    0    0 -0.77371348455E+01  0.17776929309E+02  0.35739081748E+02  0.40659124873E+02  0.00000000000E+00 0. -1.
         11    1    3    3    0    0 -0.19830492486E+01  0.13545231440E+00 -0.14062891315E+02  0.14202666794E+02  0.51100000000E-03 0. -1.
        -11    1    3    3    0    0 -0.46360519994E+01 -0.11076477157E+02 -0.14650634749E+02  0.18942608668E+02  0.51100000000E-03 0.  1.
         12    1    3    3    0    0  0.14356236093E+02 -0.68359044664E+01 -0.70255556836E+01  0.17383599665E+02  0.00000000000E+00 0. -1.
</event>
<event>
 7    1  0.4971907E-013  0.5052888E+02  0.7816164E-02  0.1300439E+00
        -11   -1    0    0    0    0  0.00000000000E+00  0.00000000000E+00  0.45593999997E+02  0.45594000000E+02  0.51100000000E-03 0.  1.
         11   -1    0    0    0    0 -0.00000000000E+00 -0.00000000000E+00 -0.45593999997E+02  0.45594000000E+02  0.51100000000E-03 0. -1.
    9900012    2    1    2    0    0  0.12906820094E+02 -0.24344684080E+02  0.29898402920E+02  0.50528878698E+02  0.30000057291E+02 0.  0.
         12    1    1    2    0    0 -0.12906820094E+02  0.24344684080E+02 -0.29898402920E+02  0.40659121302E+02  0.00000000000E+00 0. -1.
         11    1    3    3    0    0  0.48615730798E+01 -0.85329727242E+01  0.11782468170E+01  0.98911466547E+01  0.51100000000E-03 0. -1.
        -11    1    3    3    0    0  0.11374522653E+02  0.76209157839E+00  0.81564819386E+01  0.14017444383E+02  0.51100000000E-03 0.  1.
        -12    1    3    3    0    0 -0.33292756392E+01 -0.16573802934E+02  0.20563674164E+02  0.26620287660E+02  0.00000000000E+00 0.  1.
</event>
<event>
 7    1  0.4971907E-013  0.5052886E+02  0.7816164E-02  0.1300439E+00
        -11   -1    0    0    0    0  0.00000000000E+00  0.00000000000E+00  0.45593999997E+02  0.45594000000E+02  0.51100000000E-03 0. -1.
         11   -1    0    0    0    0 -0.00000000000E+00 -0.00000000000E+00 -0.45593999997E+02  0.45594000000E+02  0.51100000000E-03 0.  1.
    9900012    2    1    2    0    0  0.56913739911E+01 -0.36298348329E+02 -0.17412747450E+02  0.50528860768E+02  0.30000002791E+02 0.  0.
         12    1    1    2    0    0 -0.56913739911E+01  0.36298348329E+02  0.17412747450E+02  0.40659139232E+02  0.00000000000E+00 0. -1.
         11    1    3    3    0    0  0.21044655310E+01 -0.98484421867E+01  0.75676143863E+01  0.12597197166E+02  0.51100000000E-03 0. -1.
        -11    1    3    3    0    0  0.45649797560E+01 -0.53605591255E+01 -0.36935407231E+01  0.79509042030E+01  0.51100000000E-03 0.  1.
        -12    1    3    3    0    0 -0.97807129587E+00 -0.21089347016E+02 -0.21286821114E+02  0.29980759399E+02  0.00000000000E+00 0.  1.
</event>
<event>
 7    1  0.4971907E-013  0.5052886E+02  0.7816164E-02  0.1300439E+00
        -11   -1    0    0    0    0  0.00000000000E+00  0.00000000000E+00  0.45593999997E+02  0.45594000000E+02  0.51100000000E-03 0.  1.
         11   -1    0    0    0    0 -0.00000000000E+00 -0.00000000000E+00 -0.45593999997E+02  0.45594000000E+02  0.51100000000E-03 0. -1.
    9900012    2    1    2    0    0 -0.27718625163E+02  0.70771723995E+01  0.28892170030E+02  0.50528855406E+02  0.29999986491E+02 0.  0.
         12    1    1    2    0    0  0.27718625163E+02 -0.70771723995E+01 -0.28892170030E+02  0.40659144594E+02  0.00000000000E+00 0. -1.
         11    1    3    3    0    0 -0.10979879727E+02  0.13751244662E+02  0.15469645066E+02  0.23429989486E+02  0.51100000000E-03 0. -1.
        -11    1    3    3    0    0 -0.13674948528E+02  0.24469682384E+01  0.72880106920E+01  0.15687796879E+02  0.51100000000E-03 0.  1.
        -12    1    3    3    0    0 -0.30637969085E+01 -0.91210405009E+01  0.61345142713E+01  0.11411069041E+02  0.00000000000E+00 0.  1.
</event>
<event>
 7    1  0.4971907E-013  0.5052885E+02  0.7816164E-02  0.1300439E+00
        -11   -1    0    0    0    0  0.00000000000E+00  0.00000000000E+00  0.45593999997E+02  0.45594000000E+02  0.51100000000E-03 0. -1.
         11   -1    0    0    0    0 -0.00000000000E+00 -0.00000000000E+00 -0.45593999997E+02  0.45594000000E+02  0.51100000000E-03 0.  1.
    9900012    2    1    2    0    0 -0.15379462163E+02 -0.32709354339E+02 -0.18620863617E+02  0.50528852449E+02  0.29999977504E+02 0.  0.
         12    1    1    2    0    0  0.15379462163E+02  0.32709354339E+02  0.18620863617E+02  0.40659147551E+02  0.00000000000E+00 0. -1.
         11    1    3    3    0    0 -0.39599444623E+01 -0.84063076499E+01 -0.12140012655E+01  0.93712842121E+01  0.51100000000E-03 0. -1.
        -11    1    3    3    0    0 -0.82979902663E+01 -0.29392216997E+02 -0.11159086452E+02  0.32515908001E+02  0.51100000000E-03 0.  1.
         12    1    3    3    0    0 -0.31215274346E+01  0.50891703073E+01 -0.62477758995E+01  0.86416602358E+01  0.00000000000E+00 0. -1.
</event>
<event>
 7    1  0.4971907E-013  0.5052885E+02  0.7816164E-02  0.1300439E+00
        -11   -1    0    0    0    0  0.00000000000E+00  0.00000000000E+00  0.45593999997E+02  0.45594000000E+02  0.51100000000E-03 0.  1.
         11   -1    0    0    0    0 -0.00000000000E+00 -0.00000000000E+00 -0.45593999997E+02  0.45594000000E+02  0.51100000000E-03 0. -1.
    9900012    2    1    2    0    0  0.57294873136E+01 -0.40215707213E+02 -0.17423957812E+01  0.50528854970E+02  0.29999985167E+02 0.  0.
         12    1    1    2    0    0 -0.57294873136E+01  0.40215707213E+02  0.17423957812E+01  0.40659145030E+02  0.00000000000E+00 0. -1.
         11    1    3    3    0    0  0.25571094714E+01 -0.66022369169E-01 -0.12321706594E+01  0.28392626855E+01  0.51100000000E-03 0. -1.
        -11    1    3    3    0    0  0.57094503226E+01 -0.39193958961E+02 -0.73933728274E+01  0.40291763477E+02  0.51100000000E-03 0.  1.
         12    1    3    3    0    0 -0.25370724804E+01 -0.95572588264E+00  0.68831477056E+01  0.73978288079E+01  0.00000000000E+00 0. -1.
</event>
<event>
 7    1  0.4971907E-013  0.5052886E+02  0.7816164E-02  0.1300439E+00
        -11   -1    0    0    0    0  0.00000000000E+00  0.00000000000E+00  0.45593999997E+02  0.45594000000E+02  0.51100000000E-03 0.  1.
         11   -1    0    0    0    0 -0.00000000000E+00 -0.00000000000E+00 -0.45593999997E+02  0.45594000000E+02  0.51100000000E-03 0. -1.
    9900012    2    1    2    0    0  0.24065284560E+02 -0.22329192994E+02  0.23988228019E+02  0.50528857557E+02  0.29999993030E+02 0.  0.
         12    1    1    2    0    0 -0.24065284560E+02  0.22329192994E+02 -0.23988228019E+02  0.40659142443E+02  0.00000000000E+00 0. -1.
         11    1    3    3    0    0  0.83997413753E+01 -0.18451089803E+02  0.61325909177E+01  0.21180345647E+02  0.51100000000E-03 0. -1.
        -11    1    3    3    0    0  0.66839194264E+01 -0.99528469481E+01  0.64602105460E+01  0.13618673277E+02  0.51100000000E-03 0.  1.
        -12    1    3    3    0    0  0.89816237582E+01  0.60747437569E+01  0.11395426555E+02  0.15729838633E+02  0.00000000000E+00 0.  1.
</event>
<event>
 7    1  0.4971907E-013  0.5052887E+02  0.7816164E-02  0.1300439E+00
        -11   -1    0    0    0    0  0.00000000000E+00  0.00000000000E+00  0.45593999997E+02  0.45594000000E+02  0.51100000000E-03 0.  1.
         11   -1    0    0    0    0 -0.00000000000E+00 -0.00000000000E+00 -0.45593999997E+02  0.45594000000E+02  0.51100000000E-03 0. -1.
    9900012    2    1    2    0    0  0.15390385494E+02 -0.37535836671E+02  0.27132701725E+01  0.50528870210E+02  0.30000031491E+02 0.  0.
         12    1    1    2    0    0 -0.15390385494E+02  0.37535836671E+02 -0.27132701725E+01  0.40659129790E+02  0.00000000000E+00 0. -1.
         11    1    3    3    0    0  0.94189689315E+01 -0.35558735958E+02 -0.55023364347E+01  0.37194305816E+02  0.51100000000E-03 0. -1.
        -11    1    3    3    0    0  0.48364200619E+01 -0.40652387263E+01  0.19169171344E+01  0.66024008117E+01  0.51100000000E-03 0.  1.
        -12    1    3    3    0    0  0.11349965009E+01  0.20881380135E+01  0.62986894729E+01  0.67321635821E+01  0.00000000000E+00 0.  1.
</event>
<event>
 7    1  0.4971907E-013  0.5052890E+02  0.7816164E-02  0.1300439E+00
        -11   -1    0    0    0    0  0.00000000000E+00  0.00000000000E+00  0.45593999997E+02  0.45594000000E+02  0.51100000000E-03 0. -1.
         11   -1    0    0    0    0 -0.00000000000E+00 -0.00000000000E+00 -0.45593999997E+02  0.45594000000E+02  0.51100000000E-03 0.  1.
    9900012    2    1    2    0    0  0.39414244523E+02 -0.99692466569E+01 -0.54193945271E+00  0.50528902020E+02  0.30000128179E+02 0.  0.
         12    1    1    2    0    0 -0.39414244523E+02  0.99692466569E+01  0.54193945271E+00  0.40659097980E+02  0.00000000000E+00 0. -1.
         11    1    3    3    0    0  0.88592702153E+01  0.53059053607E+01 -0.60977724046E+01  0.11992586418E+02  0.51100000000E-03 0. -1.
        -11    1    3    3    0    0  0.14897198516E+02 -0.16391030479E+02  0.91924666161E+00  0.22168387819E+02  0.51100000000E-03 0.  1.
         12    1    3    3    0    0  0.15657775791E+02  0.11158784618E+01  0.46365862903E+01  0.16367927782E+02  0.00000000000E+00 0. -1.
</event>
<event>
 7    1  0.4971907E-013  0.5052886E+02  0.7816164E-02  0.1300439E+00
        -11   -1    0    0    0    0  0.00000000000E+00  0.00000000000E+00  0.45593999997E+02  0.45594000000E+02  0.51100000000E-03 0.  1.
         11   -1    0    0    0    0 -0.00000000000E+00 -0.00000000000E+00 -0.45593999997E+02  0.45594000000E+02  0.51100000000E-03 0. -1.
    9900012    2    1    2    0    0 -0.38148655118E+02  0.56626047575E+01  0.12875600017E+02  0.50528855202E+02  0.29999985871E+02 0.  0.
         12    1    1    2    0    0  0.38148655118E+02 -0.56626047575E+01 -0.12875600017E+02  0.40659144798E+02  0.00000000000E+00 0. -1.
         11    1    3    3    0    0 -0.76265204824E+01  0.27458985764E+01 -0.72178610037E+01  0.10853630332E+02  0.51100000000E-03 0. -1.
        -11    1    3    3    0    0 -0.24880748102E+01 -0.18288938116E+00 -0.25037670946E+01  0.35345176067E+01  0.51100000000E-03 0.  1.
        -12    1    3    3    0    0 -0.28034059825E+02  0.30995955622E+01  0.22597228116E+02  0.36140707263E+02  0.00000000000E+00 0.  1.
</event>
<event>
 7    1  0.4971907E-013  0.5052886E+02  0.7816164E-02  0.1300439E+00
        -11   -1    0    0    0    0  0.00000000000E+00  0.00000000000E+00  0.45593999997E+02  0.45594000000E+02  0.51100000000E-03 0. -1.
         11   -1    0    0    0    0 -0.00000000000E+00 -0.00000000000E+00 -0.45593999997E+02  0.45594000000E+02  0.51100000000E-03 0.  1.
    9900012    2    1    2    0    0 -0.24364486704E+02  0.77351443073E+01 -0.31618105660E+02  0.50528864799E+02  0.30000015042E+02 0.  0.
         12    1    1    2    0    0  0.24364486704E+02 -0.77351443073E+01  0.31618105660E+02  0.40659135201E+02  0.00000000000E+00 0. -1.
         11    1    3    3    0    0 -0.65556214187E-01  0.94466743622E+01 -0.10021923836E+02  0.13772541950E+02  0.51100000000E-03 0. -1.
        -11    1    3    3    0    0  0.14091056696E+01 -0.17223970988E+01  0.10825695664E+01  0.24747096156E+01  0.51100000000E-03 0.  1.
         12    1    3    3    0    0 -0.25708036159E+02  0.10867043879E-01 -0.22678751390E+02  0.34281613233E+02  0.00000000000E+00 0. -1.
</event>
<event>
 7    1  0.4971907E-013  0.5052887E+02  0.7816164E-02  0.1300439E+00
        -11   -1    0    0    0    0  0.00000000000E+00  0.00000000000E+00  0.45593999997E+02  0.45594000000E+02  0.51100000000E-03 0.  1.
         11   -1    0    0    0    0 -0.00000000000E+00 -0.00000000000E+00 -0.45593999997E+02  0.45594000000E+02  0.51100000000E-03 0. -1.
    9900012    2    1    2    0    0 -0.23257384859E+02 -0.54274673597E+01  0.32905954027E+02  0.50528866182E+02  0.30000019245E+02 0.  0.
         12    1    1    2    0    0  0.23257384859E+02  0.54274673597E+01 -0.32905954027E+02  0.40659133818E+02  0.00000000000E+00 0. -1.
         11    1    3    3    0    0 -0.75055367112E+01 -0.37583441946E+01  0.18689712529E+02  0.20488132835E+02  0.51100000000E-03 0. -1.
        -11    1    3    3    0    0 -0.18339880796E+02 -0.69345151124E+01  0.14138724292E+02  0.24173172161E+02  0.51100000000E-03 0.  1.
         12    1    3    3    0    0  0.25880326480E+01  0.52653919473E+01  0.77517206438E-01  0.58675611853E+01  0.00000000000E+00 0. -1.
</event>
<event>
 7    1  0.4971907E-013  0.5052886E+02  0.7816164E-02  0.1300439E+00
        -11   -1    0    0    0    0  0.00000000000E+00  0.00000000000E+00  0.45593999997E+02  0.45594000000E+02  0.51100000000E-03 0.  1.
         11   -1    0    0    0    0 -0.00000000000E+00 -0.00000000000E+00 -0.45593999997E+02  0.45594000000E+02  0.51100000000E-03 0. -1.
    9900012    2    1    2    0    0 -0.28104611387E+02 -0.11635987346E+02  0.26979623711E+02  0.50528862302E+02  0.30000007453E+02 0.  0.
         12    1    1    2    0    0  0.28104611387E+02  0.11635987346E+02 -0.26979623711E+02  0.40659137698E+02  0.00000000000E+00 0. -1.
         11    1    3    3    0    0 -0.10579022842E+01 -0.85353363765E+01  0.48076878610E+01  0.98531714251E+01  0.51100000000E-03 0. -1.
        -11    1    3    3    0    0 -0.18645060771E+02 -0.96309336659E+01  0.69565771008E+01  0.22108530925E+02  0.51100000000E-03 0.  1.
         12    1    3    3    0    0 -0.84016483320E+01  0.65302826967E+01  0.15215358750E+02  0.18567159952E+02  0.00000000000E+00 0. -1.
</event>
<event>
 7    1  0.4971907E-013  0.5052884E+02  0.7816164E-02  0.1300439E+00
        -11   -1    0    0    0    0  0.00000000000E+00  0.00000000000E+00  0.45593999997E+02  0.45594000000E+02  0.51100000000E-03 0.  1.
         11   -1    0    0    0    0 -0.00000000000E+00 -0.00000000000E+00 -0.45593999997E+02  0.45594000000E+02  0.51100000000E-03 0. -1.
    9900012    2    1    2    0    0 -0.28523517778E+01 -0.33210181754E+02  0.23283368809E+02  0.50528839336E+02  0.29999937646E+02 0.  0.
         12    1    1    2    0    0  0.28523517778E+01  0.33210181754E+02 -0.23283368809E+02  0.40659160664E+02  0.00000000000E+00 0. -1.
         11    1    3    3    0    0  0.42854399876E+01 -0.42229793234E+00  0.25347383726E+01  0.49968220210E+01  0.51100000000E-03 0. -1.
        -11    1    3    3    0    0 -0.23731206578E+01 -0.17339216547E+02  0.23325795307E+02  0.29161153254E+02  0.51100000000E-03 0.  1.
        -12    1    3    3    0    0 -0.47646711076E+01 -0.15448667275E+02 -0.25771648709E+01  0.16370864061E+02  0.00000000000E+00 0.  1.
</event>
<event>
 7    1  0.4971907E-013  0.5052885E+02  0.7816164E-02  0.1300439E+00
        -11   -1    0    0    0    0  0.00000000000E+00  0.00000000000E+00  0.45593999997E+02  0.45594000000E+02  0.51100000000E-03 0.  1.
         11   -1    0    0    0    0 -0.00000000000E+00 -0.00000000000E+00 -0.45593999997E+02  0.45594000000E+02  0.51100000000E-03 0. -1.
    9900012    2    1    2    0    0 -0.37357973989E+02 -0.14332291886E+02  0.72203476333E+01  0.50528853044E+02  0.29999979311E+02 0.  0.
         12    1    1    2    0    0  0.37357973989E+02  0.14332291886E+02 -0.72203476333E+01  0.40659146956E+02  0.00000000000E+00 0. -1.
         11    1    3    3    0    0 -0.79816867124E+00  0.44031892941E+01  0.45638219063E+01  0.63916836469E+01  0.51100000000E-03 0. -1.
        -11    1    3    3    0    0 -0.10665227477E+02  0.90590745261E+00 -0.30707984563E+01  0.11135418666E+02  0.51100000000E-03 0.  1.
        -12    1    3    3    0    0 -0.25894577841E+02 -0.19641388633E+02  0.57273241833E+01  0.33001750730E+02  0.00000000000E+00 0.  1.
</event>
<event>
 7    1  0.4971907E-013  0.5052884E+02  0.7816164E-02  0.1300439E+00
        -11   -1    0    0    0    0  0.00000000000E+00  0.00000000000E+00  0.45593999997E+02  0.45594000000E+02  0.51100000000E-03 0. -1.
         11   -1    0    0    0    0 -0.00000000000E+00 -0.00000000000E+00 -0.45593999997E+02  0.45594000000E+02  0.51100000000E-03 0.  1.
    9900012    2    1    2    0    0  0.31255550533E+02  0.25999527564E+02  0.53135333364E+00  0.50528841019E+02  0.29999942762E+02 0.  0.
         12    1    1    2    0    0 -0.31255550533E+02 -0.25999527564E+02 -0.53135333364E+00  0.40659158981E+02  0.00000000000E+00 0. -1.
         11    1    3    3    0    0  0.26650079755E+02  0.10550609676E+02 -0.34629646419E+01  0.28870993052E+02  0.51100000000E-03 0.  1.
        -11    1    3    3    0    0  0.39989335992E+01 -0.81106377620E+00  0.35052230714E+01  0.53792084381E+01  0.51100000000E-03 0. -1.
         12    1    3    3    0    0  0.60653717862E+00  0.16259981665E+02  0.48909490417E+00  0.16278639529E+02  0.00000000000E+00 0. -1.
</event>
<event>
 7    1  0.4971907E-013  0.5052886E+02  0.7816164E-02  0.1300439E+00
        -11   -1    0    0    0    0  0.00000000000E+00  0.00000000000E+00  0.45593999997E+02  0.45594000000E+02  0.51100000000E-03 0.  1.
         11   -1    0    0    0    0 -0.00000000000E+00 -0.00000000000E+00 -0.45593999997E+02  0.45594000000E+02  0.51100000000E-03 0. -1.
    9900012    2    1    2    0    0  0.19999448818E+02  0.35020777639E+01  0.35226743299E+02  0.50528856562E+02  0.29999990005E+02 0.  0.
         12    1    1    2    0    0 -0.19999448818E+02 -0.35020777639E+01 -0.35226743299E+02  0.40659143438E+02  0.00000000000E+00 0. -1.
         11    1    3    3    0    0 -0.51099253122E+01 -0.20362430349E+01  0.83718465855E-02  0.55006992958E+01  0.51100000000E-03 0. -1.
        -11    1    3    3    0    0  0.11223379197E+01  0.97936789319E+00  0.93065587627E+01  0.94250114133E+01  0.51100000000E-03 0.  1.
        -12    1    3    3    0    0  0.23987036210E+02  0.45589529056E+01  0.25911812690E+02  0.35603145853E+02  0.00000000000E+00 0.  1.
</event>
<event>
 7    1  0.4971907E-013  0.5052885E+02  0.7816164E-02  0.1300439E+00
        -11   -1    0    0    0    0  0.00000000000E+00  0.00000000000E+00  0.45593999997E+02  0.45594000000E+02  0.51100000000E-03 0.  1.
         11   -1    0    0    0    0 -0.00000000000E+00 -0.00000000000E+00 -0.45593999997E+02  0.45594000000E+02  0.51100000000E-03 0. -1.
    9900012    2    1    2    0    0 -0.16414793202E+01 -0.38806794705E+02 -0.12020996368E+02  0.50528854371E+02  0.29999983346E+02 0.  0.
         12    1    1    2    0    0  0.16414793202E+01  0.38806794705E+02  0.12020996368E+02  0.40659145629E+02  0.00000000000E+00 0. -1.
         11    1    3    3    0    0  0.25392783830E+01 -0.21538019164E+02 -0.33065963053E+01  0.21937816291E+02  0.51100000000E-03 0. -1.
        -11    1    3    3    0    0  0.56144710212E+01 -0.64064787041E+01  0.38130405304E+01  0.93329809054E+01  0.51100000000E-03 0.  1.
         12    1    3    3    0    0 -0.97952287245E+01 -0.10862296836E+02 -0.12527440593E+02  0.19258057175E+02  0.00000000000E+00 0. -1.
</event>
<event>
 7    1  0.4971907E-013  0.5052885E+02  0.7816164E-02  0.1300439E+00
        -11   -1    0    0    0    0  0.00000000000E+00  0.00000000000E+00  0.45593999997E+02  0.45594000000E+02  0.51100000000E-03 0.  1.
         11   -1    0    0    0    0 -0.00000000000E+00 -0.00000000000E+00 -0.45593999997E+02  0.45594000000E+02  0.51100000000E-03 0. -1.
    9900012    2    1    2    0    0 -0.21487808164E+02 -0.32975516762E+02  0.10200774059E+02  0.50528851007E+02  0.29999973121E+02 0.  0.
         12    1    1    2    0    0  0.21487808164E+02  0.32975516762E+02 -0.10200774059E+02  0.40659148993E+02  0.00000000000E+00 0. -1.
         11    1    3    3    0    0 -0.11554530866E+02 -0.31412791647E+01 -0.13619746735E+01  0.12051132461E+02  0.51100000000E-03 0. -1.
        -11    1    3    3    0    0 -0.36638363024E+01 -0.20873963721E+02 -0.17312830722E+01  0.21263663823E+02  0.51100000000E-03 0.  1.
        -12    1    3    3    0    0 -0.62694409953E+01 -0.89602738771E+01  0.13294031805E+02  0.17214054722E+02  0.00000000000E+00 0.  1.
</event>
<event>
 7    1  0.4971907E-013  0.5052886E+02  0.7816164E-02  0.1300439E+00
        -11   -1    0    0    0    0  0.00000000000E+00  0.00000000000E+00  0.45593999997E+02  0.45594000000E+02  0.51100000000E-03 0. -1.
         11   -1    0    0    0    0 -0.00000000000E+00 -0.00000000000E+00 -0.45593999997E+02  0.45594000000E+02  0.51100000000E-03 0.  1.
    9900012    2    1    2    0    0 -0.29997641426E+02 -0.45966892510E+00 -0.27442587301E+02  0.50528863457E+02  0.30000010965E+02 0.  0.
         12    1    1    2    0    0  0.29997641426E+02  0.45966892510E+00  0.27442587301E+02  0.40659136543E+02  0.00000000000E+00 0. -1.
         11    1    3    3    0    0 -0.11264811924E+02 -0.55843099489E+01 -0.69607536411E+01  0.14371242006E+02  0.51100000000E-03 0. -1.
        -11    1    3    3    0    0  0.11847517914E+01 -0.42430342414E+01 -0.11625436184E+02  0.12432125446E+02  0.51100000000E-03 0.  1.
        -12    1    3    3    0    0 -0.19917581293E+02  0.93676752652E+01 -0.88563974763E+01  0.23725496006E+02  0.00000000000E+00 0.  1.
</event>
<event>
 7    1  0.4971907E-013  0.5052886E+02  0.7816164E-02  0.1300439E+00
        -11   -1    0    0    0    0  0.00000000000E+00  0.00000000000E+00  0.45593999997E+02  0.45594000000E+02  0.51100000000E-03 0. -1.
         11   -1    0    0    0    0 -0.00000000000E+00 -0.00000000000E+00 -0.45593999997E+02  0.45594000000E+02  0.51100000000E-03 0.  1.
    9900012    2    1    2    0    0 -0.30932531489E+01 -0.19730906237E+02 -0.35415941072E+02  0.50528858863E+02  0.29999997000E+02 0.  0.
         12    1    1    2    0    0  0.30932531489E+01  0.19730906237E+02  0.35415941072E+02  0.40659141137E+02  0.00000000000E+00 0. -1.
         11    1    3    3    0    0  0.82418227192E+01  0.23351440245E+01 -0.96478344210E+01  0.12901986228E+02  0.51100000000E-03 0. -1.
        -11    1    3    3    0    0 -0.27668119617E+01 -0.44338039524E+01 -0.13560567436E+02  0.14532819938E+02  0.51100000000E-03 0.  1.
        -12    1    3    3    0    0 -0.85682639064E+01 -0.17632246309E+02 -0.12207539215E+02  0.23094052697E+02  0.00000000000E+00 0.  1.
</event>
<event>
 7    1  0.4971907E-013  0.5052886E+02  0.7816164E-02  0.1300439E+00
        -11   -1    0    0    0    0  0.00000000000E+00  0.00000000000E+00  0.45593999997E+02  0.45594000000E+02  0.51100000000E-03 0.  1.
         11   -1    0    0    0    0 -0.00000000000E+00 -0.00000000000E+00 -0.45593999997E+02  0.45594000000E+02  0.51100000000E-03 0. -1.
    9900012    2    1    2    0    0  0.38318786404E+02 -0.77463697310E+01  0.11172743617E+02  0.50528857911E+02  0.29999994107E+02 0.  0.
         12    1    1    2    0    0 -0.38318786404E+02  0.77463697310E+01 -0.11172743617E+02  0.40659142089E+02  0.00000000000E+00 0. -1.
         11    1    3    3    0    0 -0.24363933818E+01 -0.32368078156E+01  0.44872605517E+01  0.60455309996E+01  0.51100000000E-03 0. -1.
        -11    1    3    3    0    0  0.20353653071E+02 -0.10223765546E+02  0.40305197090E+01  0.23130967655E+02  0.51100000000E-03 0.  1.
         12    1    3    3    0    0  0.20401526714E+02  0.57142036304E+01  0.26549633561E+01  0.21352359257E+02  0.00000000000E+00 0. -1.
</event>
<event>
 7    1  0.4971907E-013  0.5052886E+02  0.7816164E-02  0.1300439E+00
        -11   -1    0    0    0    0  0.00000000000E+00  0.00000000000E+00  0.45593999997E+02  0.45594000000E+02  0.51100000000E-03 0.  1.
         11   -1    0    0    0    0 -0.00000000000E+00 -0.00000000000E+00 -0.45593999997E+02  0.45594000000E+02  0.51100000000E-03 0. -1.
    9900012    2    1    2    0    0  0.18122836497E+02 -0.22743591516E+02  0.28415794402E+02  0.50528861676E+02  0.30000005549E+02 0.  0.
         12    1    1    2    0    0 -0.18122836497E+02  0.22743591516E+02 -0.28415794402E+02  0.40659138324E+02  0.00000000000E+00 0. -1.
         11    1    3    3    0    0 -0.20189125156E+01 -0.12332453912E+02  0.87812035654E+01  0.15273341597E+02  0.51100000000E-03 0. -1.
        -11    1    3    3    0    0  0.12812913128E+02 -0.10788777325E+02  0.21903595629E+02  0.27574190120E+02  0.51100000000E-03 0.  1.
         12    1    3    3    0    0  0.73288358849E+01  0.37763972071E+00 -0.22690047925E+01  0.76813299587E+01  0.00000000000E+00 0. -1.
</event>
<event>
 7    1  0.4971907E-013  0.5052886E+02  0.7816164E-02  0.1300439E+00
        -11   -1    0    0    0    0  0.00000000000E+00  0.00000000000E+00  0.45593999997E+02  0.45594000000E+02  0.51100000000E-03 0. -1.
         11   -1    0    0    0    0 -0.00000000000E+00 -0.00000000000E+00 -0.45593999997E+02  0.45594000000E+02  0.51100000000E-03 0.  1.
    9900012    2    1    2    0    0 -0.38812724988E+02 -0.95624960935E+01 -0.74361997301E+01  0.50528855654E+02  0.29999987245E+02 0.  0.
         12    1    1    2    0    0  0.38812724988E+02  0.95624960935E+01  0.74361997301E+01  0.40659144346E+02  0.00000000000E+00 0. -1.
         11    1    3    3    0    0 -0.20896645284E+01  0.24448586762E+01 -0.44456076948E+01  0.54870265012E+01  0.51100000000E-03 0. -1.
        -11    1    3    3    0    0 -0.25912049395E+02 -0.11818895582E+02 -0.12060755971E+02  0.30928666823E+02  0.51100000000E-03 0.  1.
         12    1    3    3    0    0 -0.10811011065E+02 -0.18845918752E+00  0.90701639354E+01  0.14113162329E+02  0.00000000000E+00 0. -1.
</event>
<event>
 7    1  0.4971907E-013  0.5052886E+02  0.7816164E-02  0.1300439E+00
        -11   -1    0    0    0    0  0.00000000000E+00  0.00000000000E+00  0.45593999997E+02  0.45594000000E+02  0.51100000000E-03 0.  1.
         11   -1    0    0    0    0 -0.00000000000E+00 -0.00000000000E+00 -0.45593999997E+02  0.45594000000E+02  0.51100000000E-03 0. -1.
    9900012    2    1    2    0    0 -0.16736383658E+02  0.30924443569E+02  0.20414154584E+02  0.50528862584E+02  0.30000008312E+02 0.  0.
         12    1    1    2    0    0  0.16736383658E+02 -0.30924443569E+02 -0.20414154584E+02  0.40659137416E+02  0.00000000000E+00 0. -1.
         11    1    3    3    0    0 -0.13473943011E+02  0.22103469823E+01  0.16229984054E+01  0.13750159931E+02  0.51100000000E-03 0. -1.
        -11    1    3    3    0    0 -0.53104791746E+01  0.59408104665E+01  0.86641674519E+01  0.11771245302E+02  0.51100000000E-03 0.  1.
        -12    1    3    3    0    0  0.20480385274E+01  0.22773286120E+02  0.10126988727E+02  0.25007457351E+02  0.00000000000E+00 0.  1.
</event>
<event>
 7    1  0.4971907E-013  0.5052886E+02  0.7816164E-02  0.1300439E+00
        -11   -1    0    0    0    0  0.00000000000E+00  0.00000000000E+00  0.45593999997E+02  0.45594000000E+02  0.51100000000E-03 0.  1.
         11   -1    0    0    0    0 -0.00000000000E+00 -0.00000000000E+00 -0.45593999997E+02  0.45594000000E+02  0.51100000000E-03 0. -1.
    9900012    2    1    2    0    0  0.26632922669E+02 -0.19461765815E+02 -0.23771676922E+02  0.50528861763E+02  0.30000005815E+02 0.  0.
         12    1    1    2    0    0 -0.26632922669E+02  0.19461765815E+02  0.23771676922E+02  0.40659138237E+02  0.00000000000E+00 0. -1.
         11    1    3    3    0    0  0.12964576885E+02 -0.82106351192E+01 -0.56425828994E+01  0.16350337149E+02  0.51100000000E-03 0. -1.
        -11    1    3    3    0    0 -0.56765750997E+01 -0.33497117759E+01 -0.11960856074E+00  0.65922970438E+01  0.51100000000E-03 0.  1.
         12    1    3    3    0    0  0.19344920884E+02 -0.79014189200E+01 -0.18009485462E+02  0.27586227570E+02  0.00000000000E+00 0. -1.
</event>
<event>
 7    1  0.4971907E-013  0.5052887E+02  0.7816164E-02  0.1300439E+00
        -11   -1    0    0    0    0  0.00000000000E+00  0.00000000000E+00  0.45593999997E+02  0.45594000000E+02  0.51100000000E-03 0.  1.
         11   -1    0    0    0    0 -0.00000000000E+00 -0.00000000000E+00 -0.45593999997E+02  0.45594000000E+02  0.51100000000E-03 0. -1.
    9900012    2    1    2    0    0  0.36476888673E+02  0.16374987572E+02 -0.73797723010E+01  0.50528872311E+02  0.30000037876E+02 0.  0.
         12    1    1    2    0    0 -0.36476888673E+02 -0.16374987572E+02  0.73797723010E+01  0.40659127689E+02  0.00000000000E+00 0. -1.
         11    1    3    3    0    0  0.24064216339E+02  0.13365900432E+02 -0.15336600021E+01  0.27569655704E+02  0.51100000000E-03 0. -1.
        -11    1    3    3    0    0 -0.41096646148E+00  0.75691981238E+01  0.11318342914E+01  0.76643788263E+01  0.51100000000E-03 0.  1.
         12    1    3    3    0    0  0.12823638795E+02 -0.45601109833E+01 -0.69779465903E+01  0.15294837781E+02  0.00000000000E+00 0. -1.
</event>
<event>
 7    1  0.4971907E-013  0.5052886E+02  0.7816164E-02  0.1300439E+00
        -11   -1    0    0    0    0  0.00000000000E+00  0.00000000000E+00  0.45593999997E+02  0.45594000000E+02  0.51100000000E-03 0.  1.
         11   -1    0    0    0    0 -0.00000000000E+00 -0.00000000000E+00 -0.45593999997E+02  0.45594000000E+02  0.51100000000E-03 0. -1.
    9900012    2    1    2    0    0 -0.19010497139E+02  0.34006243915E+02  0.11633655617E+02  0.50528861178E+02  0.30000004038E+02 0.  0.
         12    1    1    2    0    0  0.19010497139E+02 -0.34006243915E+02 -0.11633655617E+02  0.40659138822E+02  0.00000000000E+00 0. -1.
         11    1    3    3    0    0 -0.85900089927E+01 -0.35841578291E+01  0.34776112063E+01  0.99362076167E+01  0.51100000000E-03 0. -1.
        -11    1    3    3    0    0 -0.24695254061E+01  0.68698295187E+01 -0.14395182361E+01  0.74407880201E+01  0.51100000000E-03 0.  1.
        -12    1    3    3    0    0 -0.79509627404E+01  0.30720572226E+02  0.95955626464E+01  0.33151865542E+02  0.00000000000E+00 0.  1.
</event>
<event>
 7    1  0.4971907E-013  0.5052884E+02  0.7816164E-02  0.1300439E+00
        -11   -1    0    0    0    0  0.00000000000E+00  0.00000000000E+00  0.45593999997E+02  0.45594000000E+02  0.51100000000E-03 0.  1.
         11   -1    0    0    0    0 -0.00000000000E+00 -0.00000000000E+00 -0.45593999997E+02  0.45594000000E+02  0.51100000000E-03 0. -1.
    9900012    2    1    2    0    0  0.31308870864E+01 -0.49125714694E+01  0.40239673519E+02  0.50528841902E+02  0.29999945444E+02 0.  0.
         12    1    1    2    0    0 -0.31308870864E+01  0.49125714694E+01 -0.40239673519E+02  0.40659158098E+02  0.00000000000E+00 0. -1.
         11    1    3    3    0    0 -0.68763088990E+01 -0.28320136648E+01  0.55289682121E+01  0.92667909884E+01  0.51100000000E-03 0. -1.
        -11    1    3    3    0    0  0.96462573772E+01 -0.51778866898E+01  0.36190666169E+02  0.37810383627E+02  0.51100000000E-03 0.  1.
         12    1    3    3    0    0  0.36093860807E+00  0.30973288852E+01 -0.14799608626E+01  0.34516672865E+01  0.00000000000E+00 0. -1.
</event>
<event>
 7    1  0.4971907E-013  0.5052886E+02  0.7816164E-02  0.1300439E+00
        -11   -1    0    0    0    0  0.00000000000E+00  0.00000000000E+00  0.45593999997E+02  0.45594000000E+02  0.51100000000E-03 0. -1.
         11   -1    0    0    0    0 -0.00000000000E+00 -0.00000000000E+00 -0.45593999997E+02  0.45594000000E+02  0.51100000000E-03 0.  1.
    9900012    2    1    2    0    0 -0.38799605832E+02 -0.11490047411E+02  0.39667522351E+01  0.50528859262E+02  0.29999998213E+02 0.  0.
         12    1    1    2    0    0  0.38799605832E+02  0.11490047411E+02 -0.39667522351E+01  0.40659140738E+02  0.00000000000E+00 0. -1.
         11    1    3    3    0    0 -0.18182323707E+02 -0.11455634704E+02 -0.65745966609E+00  0.21500249192E+02  0.51100000000E-03 0. -1.
        -11    1    3    3    0    0 -0.15513205914E+02 -0.15798780682E+01 -0.63425057237E+01  0.16833982047E+02  0.51100000000E-03 0.  1.
        -12    1    3    3    0    0 -0.51040762117E+01  0.15454653608E+01  0.10966717625E+02  0.12194628023E+02  0.00000000000E+00 0.  1.
</event>
<event>
 7    1  0.4971907E-013  0.5052885E+02  0.7816164E-02  0.1300439E+00
        -11   -1    0    0    0    0  0.00000000000E+00  0.00000000000E+00  0.45593999997E+02  0.45594000000E+02  0.51100000000E-03 0.  1.
         11   -1    0    0    0    0 -0.00000000000E+00 -0.00000000000E+00 -0.45593999997E+02  0.45594000000E+02  0.51100000000E-03 0. -1.
    9900012    2    1    2    0    0 -0.26508212838E+02 -0.30275686605E+02  0.58192757433E+01  0.50528849523E+02  0.29999968612E+02 0.  0.
         12    1    1    2    0    0  0.26508212838E+02  0.30275686605E+02 -0.58192757433E+01  0.40659150477E+02  0.00000000000E+00 0. -1.
         11    1    3    3    0    0 -0.20044050159E+02 -0.15615011127E+02 -0.80300245097E+01  0.26647210232E+02  0.51100000000E-03 0. -1.
        -11    1    3    3    0    0 -0.30090367014E+01 -0.36559338510E+01 -0.12343665893E+01  0.48932418018E+01  0.51100000000E-03 0.  1.
        -12    1    3    3    0    0 -0.34551259778E+01 -0.11004741627E+02  0.15083666842E+02  0.18988397489E+02  0.00000000000E+00 0.  1.
</event>
<event>
 7    1  0.4971907E-013  0.5052885E+02  0.7816164E-02  0.1300439E+00
        -11   -1    0    0    0    0  0.00000000000E+00  0.00000000000E+00  0.45593999997E+02  0.45594000000E+02  0.51100000000E-03 0.  1.
         11   -1    0    0    0    0 -0.00000000000E+00 -0.00000000000E+00 -0.45593999997E+02  0.45594000000E+02  0.51100000000E-03 0. -1.
    9900012    2    1    2    0    0 -0.37938887516E+02 -0.28338337383E+01  0.14344916023E+02  0.50528850780E+02  0.29999972430E+02 0.  0.
         12    1    1    2    0    0  0.37938887516E+02  0.28338337383E+01 -0.14344916023E+02  0.40659149220E+02  0.00000000000E+00 0. -1.
         11    1    3    3    0    0 -0.42191624829E+01 -0.83004605302E+01  0.54708785986E+01  0.10799513414E+02  0.51100000000E-03 0. -1.
        -11    1    3    3    0    0 -0.12099698229E+02  0.73063398558E+01  0.11023570982E+02  0.17924966298E+02  0.51100000000E-03 0.  1.
        -12    1    3    3    0    0 -0.21620026804E+02 -0.18397130640E+01 -0.21495335575E+01  0.21804371068E+02  0.00000000000E+00 0.  1.
</event>
<event>
 7    1  0.4971907E-013  0.5052886E+02  0.7816164E-02  0.1300439E+00
        -11   -1    0    0    0    0  0.00000000000E+00  0.00000000000E+00  0.45593999997E+02  0.45594000000E+02  0.51100000000E-03 0.  1.
         11   -1    0    0    0    0 -0.00000000000E+00 -0.00000000000E+00 -0.45593999997E+02  0.45594000000E+02  0.51100000000E-03 0. -1.
    9900012    2    1    2    0    0 -0.37047366373E+02 -0.14645763263E+02 -0.81338845403E+01  0.50528858169E+02  0.29999994891E+02 0.  0.
         12    1    1    2    0    0  0.37047366373E+02  0.14645763263E+02  0.81338845403E+01  0.40659141831E+02  0.00000000000E+00 0. -1.
         11    1    3    3    0    0 -0.13042657903E+02  0.52957552193E+01 -0.88908932644E+01  0.16649442387E+02  0.51100000000E-03 0. -1.
        -11    1    3    3    0    0 -0.42178776431E+01 -0.66421924863E+01 -0.50397193614E+01  0.93438741612E+01  0.51100000000E-03 0.  1.
        -12    1    3    3    0    0 -0.19786830827E+02 -0.13299325996E+02  0.57967280855E+01  0.24535541621E+02  0.00000000000E+00 0.  1.
</event>
<event>
 7    1  0.4971907E-013  0.5052886E+02  0.7816164E-02  0.1300439E+00
        -11   -1    0    0    0    0  0.00000000000E+00  0.00000000000E+00  0.45593999997E+02  0.45594000000E+02  0.51100000000E-03 0. -1.
         11   -1    0    0    0    0 -0.00000000000E+00 -0.00000000000E+00 -0.45593999997E+02  0.45594000000E+02  0.51100000000E-03 0.  1.
    9900012    2    1    2    0    0 -0.51254616416E+01 -0.30294981912E+02 -0.26629105279E+02  0.50528861617E+02  0.30000005371E+02 0.  0.
         12    1    1    2    0    0  0.51254616416E+01  0.30294981912E+02  0.26629105279E+02  0.40659138383E+02  0.00000000000E+00 0. -1.
         11    1    3    3    0    0 -0.86075894797E+01 -0.31052736038E+00 -0.19915871867E+01  0.88404436357E+01  0.51100000000E-03 0. -1.
        -11    1    3    3    0    0 -0.18231133836E+00  0.16854059570E+01 -0.17928457374E+01  0.24674129697E+01  0.51100000000E-03 0.  1.
        -12    1    3    3    0    0  0.36644391764E+01 -0.31669860508E+02 -0.22844672355E+02  0.39221005012E+02  0.00000000000E+00 0.  1.
</event>
<event>
 7    1  0.4971907E-013  0.5052885E+02  0.7816164E-02  0.1300439E+00
        -11   -1    0    0    0    0  0.00000000000E+00  0.00000000000E+00  0.45593999997E+02  0.45594000000E+02  0.51100000000E-03 0. -1.
         11   -1    0    0    0    0 -0.00000000000E+00 -0.00000000000E+00 -0.45593999997E+02  0.45594000000E+02  0.51100000000E-03 0.  1.
    9900012    2    1    2    0    0  0.26879583869E+02  0.21803653687E+02  0.21336712201E+02  0.50528848132E+02  0.29999964381E+02 0.  0.
         12    1    1    2    0    0 -0.26879583869E+02 -0.21803653687E+02 -0.21336712201E+02  0.40659151868E+02  0.00000000000E+00 0. -1.
         11    1    3    3    0    0  0.52497338315E+00  0.88342115106E+01 -0.13583422243E+01  0.89534341974E+01  0.51100000000E-03 0.  1.
        -11    1    3    3    0    0 -0.10070196934E+01  0.52935285522E+01  0.30553390450E+00  0.53971181591E+01  0.51100000000E-03 0. -1.
        -12    1    3    3    0    0  0.27361630179E+02  0.76759136243E+01  0.22389520521E+02  0.36178295775E+02  0.00000000000E+00 0.  1.
</event>
<event>
 7    1  0.4971907E-013  0.5052881E+02  0.7816164E-02  0.1300439E+00
        -11   -1    0    0    0    0  0.00000000000E+00  0.00000000000E+00  0.45593999997E+02  0.45594000000E+02  0.51100000000E-03 0.  1.
         11   -1    0    0    0    0 -0.00000000000E+00 -0.00000000000E+00 -0.45593999997E+02  0.45594000000E+02  0.51100000000E-03 0. -1.
    9900012    2    1    2    0    0  0.36566725841E+02  0.10422715047E+02  0.14401779876E+02  0.50528810494E+02  0.29999849978E+02 0.  0.
         12    1    1    2    0    0 -0.36566725841E+02 -0.10422715047E+02 -0.14401779876E+02  0.40659189506E+02  0.00000000000E+00 0. -1.
         11    1    3    3    0    0  0.63293585972E-01 -0.23825638702E+01  0.53908480094E+01  0.58942225268E+01  0.51100000000E-03 0. -1.
        -11    1    3    3    0    0  0.99766143731E+01 -0.18046351628E+01 -0.49559550165E+01  0.11284991485E+02  0.51100000000E-03 0.  1.
         12    1    3    3    0    0  0.26526817882E+02  0.14609914080E+02  0.13966886883E+02  0.33349596483E+02  0.00000000000E+00 0. -1.
</event>
<event>
 7    1  0.4971907E-013  0.5052879E+02  0.7816164E-02  0.1300439E+00
        -11   -1    0    0    0    0  0.00000000000E+00  0.00000000000E+00  0.45593999997E+02  0.45594000000E+02  0.51100000000E-03 0.  1.
         11   -1    0    0    0    0 -0.00000000000E+00 -0.00000000000E+00 -0.45593999997E+02  0.45594000000E+02  0.51100000000E-03 0. -1.
    9900012    2    1    2    0    0 -0.33530799952E+02 -0.20679317690E+02  0.10060962289E+02  0.50528785943E+02  0.29999775351E+02 0.  0.
         12    1    1    2    0    0  0.33530799952E+02  0.20679317690E+02 -0.10060962289E+02  0.40659214057E+02  0.00000000000E+00 0. -1.
         11    1    3    3    0    0 -0.10547056090E+02 -0.18278576775E+02 -0.33723643374E+00  0.21105934942E+02  0.51100000000E-03 0. -1.
        -11    1    3    3    0    0  0.12351871911E+01  0.23548995673E+01  0.49443647661E-01  0.26596398826E+01  0.51100000000E-03 0.  1.
        -12    1    3    3    0    0 -0.24218931053E+02 -0.47556404821E+01  0.10348755075E+02  0.26763211118E+02  0.00000000000E+00 0.  1.
</event>
<event>
 7    1  0.4971907E-013  0.5052886E+02  0.7816164E-02  0.1300439E+00
        -11   -1    0    0    0    0  0.00000000000E+00  0.00000000000E+00  0.45593999997E+02  0.45594000000E+02  0.51100000000E-03 0. -1.
         11   -1    0    0    0    0 -0.00000000000E+00 -0.00000000000E+00 -0.45593999997E+02  0.45594000000E+02  0.51100000000E-03 0.  1.
    9900012    2    1    2    0    0  0.33741778546E+02  0.34022597858E+01 -0.22429501260E+02  0.50528861816E+02  0.30000005977E+02 0.  0.
         12    1    1    2    0    0 -0.33741778546E+02 -0.34022597858E+01  0.22429501260E+02  0.40659138184E+02  0.00000000000E+00 0. -1.
         11    1    3    3    0    0  0.34806509483E+02  0.45498545329E+00 -0.12326323027E+02  0.36927474240E+02  0.51100000000E-03 0.  1.
        -11    1    3    3    0    0 -0.68340279912E+00 -0.30046038132E+01 -0.42073700987E+01  0.52150404475E+01  0.51100000000E-03 0. -1.
        -12    1    3    3    0    0 -0.38132813799E+00  0.59518781457E+01 -0.58958081342E+01  0.83863471288E+01  0.00000000000E+00 0.  1.
</event>
<event>
 7    1  0.7901334E-013  0.5052886E+02  0.7816164E-02  0.1300439E+00
        -11   -1    0    0    0    0  0.00000000000E+00  0.00000000000E+00  0.45593999997E+02  0.45594000000E+02  0.51100000000E-03 0. -1.
         11   -1    0    0    0    0 -0.00000000000E+00 -0.00000000000E+00 -0.45593999997E+02  0.45594000000E+02  0.51100000000E-03 0.  1.
    9900012    2    1    2    0    0 -0.28529727518E+02 -0.54759534922E+01 -0.28447044135E+02  0.50528859097E+02  0.29999997712E+02 0.  0.
         12    1    1    2    0    0  0.28529727518E+02  0.54759534922E+01  0.28447044135E+02  0.40659140903E+02  0.00000000000E+00 0. -1.
         11    1    3    3    0    0 -0.28053142834E+01 -0.16199338150E+01  0.33637490405E+01  0.46699873300E+01  0.51100000000E-03 0. -1.
        -11    1    3    3    0    0 -0.13428234171E+02  0.61308745446E+01 -0.67975861022E+01  0.16251531396E+02  0.51100000000E-03 0.  1.
        -12    1    3    3    0    0 -0.12296179064E+02 -0.99868942218E+01 -0.25013207073E+02  0.29607340372E+02  0.00000000000E+00 0.  1.
</event>
<event>
 7    1  0.5910846E-013  0.5052886E+02  0.7816164E-02  0.1300439E+00
        -11   -1    0    0    0    0  0.00000000000E+00  0.00000000000E+00  0.45593999997E+02  0.45594000000E+02  0.51100000000E-03 0. -1.
         11   -1    0    0    0    0 -0.00000000000E+00 -0.00000000000E+00 -0.45593999997E+02  0.45594000000E+02  0.51100000000E-03 0.  1.
    9900012    2    1    2    0    0 -0.29204414173E+02  0.83572601046E+01 -0.27026362413E+02  0.50528857500E+02  0.29999992856E+02 0.  0.
         12    1    1    2    0    0  0.29204414173E+02 -0.83572601046E+01  0.27026362413E+02  0.40659142500E+02  0.00000000000E+00 0. -1.
         11    1    3    3    0    0 -0.61230433930E+00  0.16572804449E+01  0.44000263534E+01  0.47414899820E+01  0.51100000000E-03 0. -1.
        -11    1    3    3    0    0 -0.90495021942E+01 -0.51645954316E+01 -0.91494148889E+01  0.13866446156E+02  0.51100000000E-03 0.  1.
        -12    1    3    3    0    0 -0.19542607639E+02  0.11864575091E+02 -0.22276973877E+02  0.31920921361E+02  0.00000000000E+00 0.  1.
</event>
<event>
 7    1  0.4971907E-013  0.5052886E+02  0.7816164E-02  0.1300439E+00
        -11   -1    0    0    0    0  0.00000000000E+00  0.00000000000E+00  0.45593999997E+02  0.45594000000E+02  0.51100000000E-03 0.  1.
         11   -1    0    0    0    0 -0.00000000000E+00 -0.00000000000E+00 -0.45593999997E+02  0.45594000000E+02  0.51100000000E-03 0. -1.
    9900012    2    1    2    0    0  0.82753443951E+00 -0.30857307035E+02  0.26463327363E+02  0.50528857046E+02  0.29999991476E+02 0.  0.
         12    1    1    2    0    0 -0.82753443951E+00  0.30857307035E+02 -0.26463327363E+02  0.40659142954E+02  0.00000000000E+00 0. -1.
         11    1    3    3    0    0  0.22448543969E+01 -0.33961931402E+01 -0.66444128316E+00  0.41249220100E+01  0.51100000000E-03 0. -1.
        -11    1    3    3    0    0  0.93159891226E+01 -0.44237546225E+01  0.16990755521E+01  0.10451991020E+02  0.51100000000E-03 0.  1.
        -12    1    3    3    0    0 -0.10733309080E+02 -0.23037359272E+02  0.25428693094E+02  0.35951944015E+02  0.00000000000E+00 0.  1.
</event>
<event>
 7    1  0.4971907E-013  0.5052886E+02  0.7816164E-02  0.1300439E+00
        -11   -1    0    0    0    0  0.00000000000E+00  0.00000000000E+00  0.45593999997E+02  0.45594000000E+02  0.51100000000E-03 0. -1.
         11   -1    0    0    0    0 -0.00000000000E+00 -0.00000000000E+00 -0.45593999997E+02  0.45594000000E+02  0.51100000000E-03 0.  1.
    9900012    2    1    2    0    0  0.38414140527E+02 -0.85029094181E+01 -0.10257672125E+02  0.50528862055E+02  0.30000006704E+02 0.  0.
         12    1    1    2    0    0 -0.38414140527E+02  0.85029094181E+01  0.10257672125E+02  0.40659137945E+02  0.00000000000E+00 0. -1.
         11    1    3    3    0    0 -0.27679654042E+01  0.49541782779E+00 -0.89508765163E+00  0.29509750030E+01  0.51100000000E-03 0. -1.
        -11    1    3    3    0    0  0.22435266972E+02 -0.15769357296E+01 -0.14514782166E+02  0.26767645245E+02  0.51100000000E-03 0.  1.
        -12    1    3    3    0    0  0.18746838959E+02 -0.74213915163E+01  0.51521976930E+01  0.20810241807E+02  0.00000000000E+00 0.  1.
</event>
<event>
 7    1  0.4971907E-013  0.5052886E+02  0.7816164E-02  0.1300439E+00
        -11   -1    0    0    0    0  0.00000000000E+00  0.00000000000E+00  0.45593999997E+02  0.45594000000E+02  0.51100000000E-03 0. -1.
         11   -1    0    0    0    0 -0.00000000000E+00 -0.00000000000E+00 -0.45593999997E+02  0.45594000000E+02  0.51100000000E-03 0.  1.
    9900012    2    1    2    0    0  0.11476667904E+02 -0.38414851743E+02 -0.67639592446E+01  0.50528857298E+02  0.29999992242E+02 0.  0.
         12    1    1    2    0    0 -0.11476667904E+02  0.38414851743E+02  0.67639592446E+01  0.40659142702E+02  0.00000000000E+00 0. -1.
         11    1    3    3    0    0  0.13904487547E+02 -0.79611052879E+01 -0.40397677709E+01  0.16523731275E+02  0.51100000000E-03 0. -1.
        -11    1    3    3    0    0  0.54531131877E+01 -0.13570236401E+02  0.20578314322E+01  0.14768968477E+02  0.51100000000E-03 0.  1.
        -12    1    3    3    0    0 -0.78809328307E+01 -0.16883510054E+02 -0.47820229059E+01  0.19236157545E+02  0.00000000000E+00 0.  1.
</event>
<event>
 7    1  0.6303637E-013  0.5052886E+02  0.7816164E-02  0.1300439E+00
        -11   -1    0    0    0    0  0.00000000000E+00  0.00000000000E+00  0.45593999997E+02  0.45594000000E+02  0.51100000000E-03 0.  1.
         11   -1    0    0    0    0 -0.00000000000E+00 -0.00000000000E+00 -0.45593999997E+02  0.45594000000E+02  0.51100000000E-03 0. -1.
    9900012    2    1    2    0    0 -0.10347631866E+01 -0.40299740584E+02  0.52939155996E+01  0.50528863655E+02  0.30000011565E+02 0.  0.
         12    1    1    2    0    0  0.10347631866E+01  0.40299740584E+02 -0.52939155996E+01  0.40659136345E+02  0.00000000000E+00 0. -1.
         11    1    3    3    0    0 -0.21313656254E+01 -0.10366672714E+02 -0.98218539671E+01  0.14438817064E+02  0.51100000000E-03 0. -1.
        -11    1    3    3    0    0  0.42933968880E+01 -0.31904079160E+01  0.49937648273E+01  0.73177624258E+01  0.51100000000E-03 0.  1.
        -12    1    3    3    0    0 -0.31967944492E+01 -0.26742659953E+02  0.10122004739E+02  0.28772284165E+02  0.00000000000E+00 0.  1.
</event>
<event>
 7    1  0.4971907E-013  0.5052887E+02  0.7816164E-02  0.1300439E+00
        -11   -1    0    0    0    0  0.00000000000E+00  0.00000000000E+00  0.45593999997E+02  0.45594000000E+02  0.51100000000E-03 0. -1.
         11   -1    0    0    0    0 -0.00000000000E+00 -0.00000000000E+00 -0.45593999997E+02  0.45594000000E+02  0.51100000000E-03 0.  1.
    9900012    2    1    2    0    0  0.28090887828E+02 -0.16040733500E+01 -0.29351214673E+02  0.50528870237E+02  0.30000031573E+02 0.  0.
         12    1    1    2    0    0 -0.28090887828E+02  0.16040733500E+01  0.29351214673E+02  0.40659129763E+02  0.00000000000E+00 0. -1.
         11    1    3    3    0    0  0.12131454397E+02 -0.28382057841E+01 -0.22855831271E+01  0.12666944713E+02  0.51100000000E-03 0. -1.
        -11    1    3    3    0    0  0.87300232052E+01 -0.80780385876E+01 -0.22043771238E+02  0.25047871431E+02  0.51100000000E-03 0.  1.
         12    1    3    3    0    0  0.72294102256E+01  0.93121710217E+01 -0.50218603086E+01  0.12814054093E+02  0.00000000000E+00 0. -1.
</event>
<event>
 7    1  0.4971907E-013  0.5052886E+02  0.7816164E-02  0.1300439E+00
        -11   -1    0    0    0    0  0.00000000000E+00  0.00000000000E+00  0.45593999997E+02  0.45594000000E+02  0.51100000000E-03 0.  1.
         11   -1    0    0    0    0 -0.00000000000E+00 -0.00000000000E+00 -0.45593999997E+02  0.45594000000E+02  0.51100000000E-03 0. -1.
    9900012    2    1    2    0    0 -0.27662161925E+02 -0.14910201052E+02  0.25800324892E+02  0.50528855121E+02  0.29999985625E+02 0.  0.
         12    1    1    2    0    0  0.27662161925E+02  0.14910201052E+02 -0.25800324892E+02  0.40659144879E+02  0.00000000000E+00 0. -1.
         11    1    3    3    0    0 -0.78529886205E+01  0.52604716734E+01  0.44219562786E+01  0.10435309775E+02  0.51100000000E-03 0. -1.
        -11    1    3    3    0    0  0.35355536074E+01 -0.26063893327E+01  0.47861165917E+01  0.64961771031E+01  0.51100000000E-03 0.  1.
         12    1    3    3    0    0 -0.23344726912E+02 -0.17564283393E+02  0.16592252021E+02  0.33597368243E+02  0.00000000000E+00 0. -1.
</event>
<event>
 7    1  0.4971907E-013  0.5052877E+02  0.7816164E-02  0.1300439E+00
        -11   -1    0    0    0    0  0.00000000000E+00  0.00000000000E+00  0.45593999997E+02  0.45594000000E+02  0.51100000000E-03 0.  1.
         11   -1    0    0    0    0 -0.00000000000E+00 -0.00000000000E+00 -0.45593999997E+02  0.45594000000E+02  0.51100000000E-03 0. -1.
    9900012    2    1    2    0    0 -0.82576967384E+01 -0.39512195616E+02 -0.48754549732E+01  0.50528767113E+02  0.29999718114E+02 0.  0.
         12    1    1    2    0    0  0.82576967384E+01  0.39512195616E+02  0.48754549732E+01  0.40659232887E+02  0.00000000000E+00 0. -1.
         11    1    3    3    0    0 -0.14416461201E+02 -0.24986657860E+02 -0.17379583813E+01  0.28899618063E+02  0.51100000000E-03 0. -1.
        -11    1    3    3    0    0 -0.87479329636E+00 -0.45487428804E+01  0.51102097064E+01  0.68971420609E+01  0.51100000000E-03 0.  1.
         12    1    3    3    0    0  0.70335577592E+01 -0.99767948757E+01 -0.82477062983E+01  0.14732006989E+02  0.00000000000E+00 0. -1.
</event>
<event>
 7    1  0.4971907E-013  0.5052887E+02  0.7816164E-02  0.1300439E+00
        -11   -1    0    0    0    0  0.00000000000E+00  0.00000000000E+00  0.45593999997E+02  0.45594000000E+02  0.51100000000E-03 0.  1.
         11   -1    0    0    0    0 -0.00000000000E+00 -0.00000000000E+00 -0.45593999997E+02  0.45594000000E+02  0.51100000000E-03 0. -1.
    9900012    2    1    2    0    0 -0.38472604131E+02  0.28991891243E+00  0.13150640696E+02  0.50528872214E+02  0.30000037582E+02 0.  0.
         12    1    1    2    0    0  0.38472604131E+02 -0.28991891243E+00 -0.13150640696E+02  0.40659127786E+02  0.00000000000E+00 0. -1.
         11    1    3    3    0    0 -0.11393474364E+00  0.67673562564E+01  0.19894552731E+01  0.70546455880E+01  0.51100000000E-03 0. -1.
        -11    1    3    3    0    0 -0.32948517670E+01 -0.49204761757E+01  0.51845799551E+01  0.78706418756E+01  0.51100000000E-03 0.  1.
         12    1    3    3    0    0 -0.35063817620E+02 -0.15569611683E+01  0.59766054680E+01  0.35603584751E+02  0.00000000000E+00 0. -1.
</event>
<event>
 7    1  0.4971907E-013  0.5052887E+02  0.7816164E-02  0.1300439E+00
        -11   -1    0    0    0    0  0.00000000000E+00  0.00000000000E+00  0.45593999997E+02  0.45594000000E+02  0.51100000000E-03 0.  1.
         11   -1    0    0    0    0 -0.00000000000E+00 -0.00000000000E+00 -0.45593999997E+02  0.45594000000E+02  0.51100000000E-03 0. -1.
    9900012    2    1    2    0    0  0.34625680090E+02 -0.12110373863E+02  0.17537568657E+02  0.50528865834E+02  0.30000018188E+02 0.  0.
         12    1    1    2    0    0 -0.34625680090E+02  0.12110373863E+02 -0.17537568657E+02  0.40659134166E+02  0.00000000000E+00 0. -1.
         11    1    3    3    0    0  0.25255543774E+01 -0.11267143471E+01  0.54403484190E+01  0.61028928644E+01  0.51100000000E-03 0. -1.
        -11    1    3    3    0    0  0.24596141985E+02  0.49899325665E+01  0.72934512680E+01  0.26135494241E+02  0.51100000000E-03 0.  1.
        -12    1    3    3    0    0  0.75039837271E+01 -0.15973592082E+02  0.48037689702E+01  0.18290478728E+02  0.00000000000E+00 0.  1.
</event>
<event>
 7    1  0.4971907E-013  0.5052890E+02  0.7816164E-02  0.1300439E+00
        -11   -1    0    0    0    0  0.00000000000E+00  0.00000000000E+00  0.45593999997E+02  0.45594000000E+02  0.51100000000E-03 0.  1.
         11   -1    0    0    0    0 -0.00000000000E+00 -0.00000000000E+00 -0.45593999997E+02  0.45594000000E+02  0.51100000000E-03 0. -1.
    9900012    2    1    2    0    0  0.17411797538E+02 -0.24552202002E+01  0.36660107564E+02  0.50528901556E+02  0.30000126769E+02 0.  0.
         12    1    1    2    0    0 -0.17411797538E+02  0.24552202002E+01 -0.36660107564E+02  0.40659098444E+02  0.00000000000E+00 0. -1.
         11    1    3    3    0    0 -0.15782332453E+01 -0.52631312153E+01 -0.24252142999E+01  0.60060831686E+01  0.51100000000E-03 0. -1.
        -11    1    3    3    0    0  0.18699782821E+01  0.37346122651E+01  0.76139152637E+01  0.86842301587E+01  0.51100000000E-03 0.  1.
        -12    1    3    3    0    0  0.17120052501E+02 -0.92670124989E+00  0.31471406600E+02  0.35838588228E+02  0.00000000000E+00 0.  1.
</event>
<event>
 7    1  0.4971907E-013  0.5052885E+02  0.7816164E-02  0.1300439E+00
        -11   -1    0    0    0    0  0.00000000000E+00  0.00000000000E+00  0.45593999997E+02  0.45594000000E+02  0.51100000000E-03 0.  1.
         11   -1    0    0    0    0 -0.00000000000E+00 -0.00000000000E+00 -0.45593999997E+02  0.45594000000E+02  0.51100000000E-03 0. -1.
    9900012    2    1    2    0    0 -0.24416738728E+02 -0.21859336716E+02  0.24065710426E+02  0.50528854042E+02  0.29999982345E+02 0.  0.
         12    1    1    2    0    0  0.24416738728E+02  0.21859336716E+02 -0.24065710426E+02  0.40659145958E+02  0.00000000000E+00 0. -1.
         11    1    3    3    0    0  0.18217745873E+01 -0.68457410049E-02 -0.22133985072E+01  0.28667128778E+01  0.51100000000E-03 0. -1.
        -11    1    3    3    0    0  0.74453868995E-01 -0.17250309663E+01  0.11079689810E+02  0.11213420609E+02  0.51100000000E-03 0.  1.
        -12    1    3    3    0    0 -0.26312967184E+02 -0.20127460008E+02  0.15199419124E+02  0.36448720555E+02  0.00000000000E+00 0.  1.
</event>
<event>
 7    1  0.4971907E-013  0.5052885E+02  0.7816164E-02  0.1300439E+00
        -11   -1    0    0    0    0  0.00000000000E+00  0.00000000000E+00  0.45593999997E+02  0.45594000000E+02  0.51100000000E-03 0.  1.
         11   -1    0    0    0    0 -0.00000000000E+00 -0.00000000000E+00 -0.45593999997E+02  0.45594000000E+02  0.51100000000E-03 0. -1.
    9900012    2    1    2    0    0  0.26373869447E+02  0.11047219766E+02  0.28905785854E+02  0.50528849615E+02  0.29999968890E+02 0.  0.
         12    1    1    2    0    0 -0.26373869447E+02 -0.11047219766E+02 -0.28905785854E+02  0.40659150385E+02  0.00000000000E+00 0. -1.
         11    1    3    3    0    0 -0.24364362790E+01  0.22764186506E+01  0.71687272768E+01  0.79062604716E+01  0.51100000000E-03 0. -1.
        -11    1    3    3    0    0  0.12780485372E+02  0.13917400528E+02  0.16230697018E+02  0.24909242657E+02  0.51100000000E-03 0.  1.
        -12    1    3    3    0    0  0.16029820354E+02 -0.51465994132E+01  0.55063615595E+01  0.17713346486E+02  0.00000000000E+00 0.  1.
</event>
<event>
 7    1  0.4971907E-013  0.5052885E+02  0.7816164E-02  0.1300439E+00
        -11   -1    0    0    0    0  0.00000000000E+00  0.00000000000E+00  0.45593999997E+02  0.45594000000E+02  0.51100000000E-03 0. -1.
         11   -1    0    0    0    0 -0.00000000000E+00 -0.00000000000E+00 -0.45593999997E+02  0.45594000000E+02  0.51100000000E-03 0.  1.
    9900012    2    1    2    0    0 -0.92036215196E+01  0.19078946876E+02 -0.34705234442E+02  0.50528853911E+02  0.29999981949E+02 0.  0.
         12    1    1    2    0    0  0.92036215196E+01 -0.19078946876E+02  0.34705234442E+02  0.40659146089E+02  0.00000000000E+00 0. -1.
         11    1    3    3    0    0 -0.54980997783E+01  0.76432291210E+01 -0.93002864468E+01  0.13234174731E+02  0.51100000000E-03 0. -1.
        -11    1    3    3    0    0 -0.75195302663E+01  0.15392589599E+00 -0.24180105838E+02  0.25322806858E+02  0.51100000000E-03 0.  1.
         12    1    3    3    0    0  0.38140085251E+01  0.11281791859E+02 -0.12248421576E+01  0.11971872322E+02  0.00000000000E+00 0. -1.
</event>
<event>
 7    1  0.4971907E-013  0.5052885E+02  0.7816164E-02  0.1300439E+00
        -11   -1    0    0    0    0  0.00000000000E+00  0.00000000000E+00  0.45593999997E+02  0.45594000000E+02  0.51100000000E-03 0.  1.
         11   -1    0    0    0    0 -0.00000000000E+00 -0.00000000000E+00 -0.45593999997E+02  0.45594000000E+02  0.51100000000E-03 0. -1.
    9900012    2    1    2    0    0  0.12354645799E+02  0.33586193246E+02  0.19300170872E+02  0.50528852871E+02  0.29999978787E+02 0.  0.
         12    1    1    2    0    0 -0.12354645799E+02 -0.33586193246E+02 -0.19300170872E+02  0.40659147129E+02  0.00000000000E+00 0. -1.
         11    1    3    3    0    0  0.67675577815E+00 -0.19938228282E+01  0.91849620701E+00  0.22971642077E+01  0.51100000000E-03 0. -1.
        -11    1    3    3    0    0 -0.17584460461E+01  0.28804849269E+02  0.15998099880E+02  0.32996222117E+02  0.51100000000E-03 0.  1.
         12    1    3    3    0    0  0.13436336067E+02  0.67751668045E+01  0.23835747849E+01  0.15235466547E+02  0.00000000000E+00 0. -1.
</event>
<event>
 7    1  0.4971907E-013  0.5052886E+02  0.7816164E-02  0.1300439E+00
        -11   -1    0    0    0    0  0.00000000000E+00  0.00000000000E+00  0.45593999997E+02  0.45594000000E+02  0.51100000000E-03 0.  1.
         11   -1    0    0    0    0 -0.00000000000E+00 -0.00000000000E+00 -0.45593999997E+02  0.45594000000E+02  0.51100000000E-03 0. -1.
    9900012    2    1    2    0    0 -0.53820717806E+01  0.11619460576E+01  0.40284596316E+02  0.50528861843E+02  0.30000006059E+02 0.  0.
         12    1    1    2    0    0  0.53820717806E+01 -0.11619460576E+01 -0.40284596316E+02  0.40659138157E+02  0.00000000000E+00 0. -1.
         11    1    3    3    0    0  0.60322788582E+01  0.75479003443E+01  0.10912598395E+02  0.14575458546E+02  0.51100000000E-03 0. -1.
        -11    1    3    3    0    0 -0.20960398462E+01 -0.22075443894E+01  0.24410730325E+02  0.24599804685E+02  0.51100000000E-03 0.  1.
         12    1    3    3    0    0 -0.93183107926E+01 -0.41784098972E+01  0.49612675959E+01  0.11353598613E+02  0.00000000000E+00 0. -1.
</event>
<event>
 7    1  0.4971907E-013  0.5052885E+02  0.7816164E-02  0.1300439E+00
        -11   -1    0    0    0    0  0.00000000000E+00  0.00000000000E+00  0.45593999997E+02  0.45594000000E+02  0.51100000000E-03 0.  1.
         11   -1    0    0    0    0 -0.00000000000E+00 -0.00000000000E+00 -0.45593999997E+02  0.45594000000E+02  0.51100000000E-03 0. -1.
    9900012    2    1    2    0    0 -0.11252844830E+02  0.11871335367E+02  0.37223795949E+02  0.50528854595E+02  0.29999984028E+02 0.  0.
         12    1    1    2    0    0  0.11252844830E+02 -0.11871335367E+02 -0.37223795949E+02  0.40659145405E+02  0.00000000000E+00 0. -1.
         11    1    3    3    0    0 -0.79618263918E+01 -0.50356976968E+01  0.94602752135E+01  0.13350870315E+02  0.51100000000E-03 0. -1.
        -11    1    3    3    0    0 -0.49826773665E+00  0.47106727677E+01 -0.18065399401E+01  0.50697431373E+01  0.51100000000E-03 0.  1.
        -12    1    3    3    0    0 -0.27927507016E+01  0.12196360296E+02  0.29570060676E+02  0.32108241143E+02  0.00000000000E+00 0.  1.
</event>
<event>
 7    1  0.4971907E-013  0.5052895E+02  0.7816164E-02  0.1300438E+00
        -11   -1    0    0    0    0  0.00000000000E+00  0.00000000000E+00  0.45593999997E+02  0.45594000000E+02  0.51100000000E-03 0.  1.
         11   -1    0    0    0    0 -0.00000000000E+00 -0.00000000000E+00 -0.45593999997E+02  0.45594000000E+02  0.51100000000E-03 0. -1.
    9900012    2    1    2    0    0 -0.19477487332E+02  0.35663425934E+02 -0.13805689202E+01  0.50528948946E+02  0.30000270814E+02 0.  0.
         12    1    1    2    0    0  0.19477487332E+02 -0.35663425934E+02  0.13805689202E+01  0.40659051054E+02  0.00000000000E+00 0. -1.
         11    1    3    3    0    0 -0.71856692840E+01  0.18441742972E+01  0.10235476338E+02  0.12641194486E+02  0.51100000000E-03 0.  1.
        -11    1    3    3    0    0 -0.46922286447E+01  0.16185331630E+02 -0.49941220078E+01  0.17576211894E+02  0.51100000000E-03 0. -1.
        -12    1    3    3    0    0 -0.75995894030E+01  0.17633920006E+02 -0.66219232506E+01  0.20311542566E+02  0.00000000000E+00 0.  1.
</event>
<event>
 7    1  0.4971907E-013  0.5052891E+02  0.7816164E-02  0.1300439E+00
        -11   -1    0    0    0    0  0.00000000000E+00  0.00000000000E+00  0.45593999997E+02  0.45594000000E+02  0.51100000000E-03 0.  1.
         11   -1    0    0    0    0 -0.00000000000E+00 -0.00000000000E+00 -0.45593999997E+02  0.45594000000E+02  0.51100000000E-03 0. -1.
    9900012    2    1    2    0    0 -0.24586318350E+02 -0.14147472570E+02  0.29129432421E+02  0.50528906758E+02  0.30000142580E+02 0.  0.
         12    1    1    2    0    0  0.24586318350E+02  0.14147472570E+02 -0.29129432421E+02  0.40659093242E+02  0.00000000000E+00 0. -1.
         11    1    3    3    0    0 -0.13968140030E+02 -0.39491525089E+01  0.29502511108E+02  0.32880129309E+02  0.51100000000E-03 0.  1.
        -11    1    3    3    0    0 -0.10912845813E+02 -0.45504619852E+01  0.87932349258E+00  0.11856226975E+02  0.51100000000E-03 0. -1.
        -12    1    3    3    0    0  0.29466749304E+00 -0.56478580756E+01 -0.12524021792E+01  0.57925504738E+01  0.00000000000E+00 0.  1.
</event>
<event>
 7    1  0.4971907E-013  0.5052886E+02  0.7816164E-02  0.1300439E+00
        -11   -1    0    0    0    0  0.00000000000E+00  0.00000000000E+00  0.45593999997E+02  0.45594000000E+02  0.51100000000E-03 0. -1.
         11   -1    0    0    0    0 -0.00000000000E+00 -0.00000000000E+00 -0.45593999997E+02  0.45594000000E+02  0.51100000000E-03 0.  1.
    9900012    2    1    2    0    0  0.34742199586E+02 -0.21107814478E+02  0.77819479089E+00  0.50528857716E+02  0.29999993515E+02 0.  0.
         12    1    1    2    0    0 -0.34742199586E+02  0.21107814478E+02 -0.77819479089E+00  0.40659142284E+02  0.00000000000E+00 0. -1.
         11    1    3    3    0    0  0.20298752544E+02 -0.34802517400E+01  0.85600552637E+01  0.22303050316E+02  0.51100000000E-03 0. -1.
        -11    1    3    3    0    0  0.15540789293E+02 -0.80695772781E+01 -0.50647704987E+01  0.18228716624E+02  0.51100000000E-03 0.  1.
         12    1    3    3    0    0 -0.10973422509E+01 -0.95579854598E+01 -0.27170899741E+01  0.99970907765E+01  0.00000000000E+00 0. -1.
</event>
<event>
 7    1  0.4971907E-013  0.5052885E+02  0.7816164E-02  0.1300439E+00
        -11   -1    0    0    0    0  0.00000000000E+00  0.00000000000E+00  0.45593999997E+02  0.45594000000E+02  0.51100000000E-03 0.  1.
         11   -1    0    0    0    0 -0.00000000000E+00 -0.00000000000E+00 -0.45593999997E+02  0.45594000000E+02  0.51100000000E-03 0. -1.
    9900012    2    1    2    0    0 -0.54588651597E+01  0.77733444134E+01  0.39534065426E+02  0.50528850706E+02  0.29999972206E+02 0.  0.
         12    1    1    2    0    0  0.54588651597E+01 -0.77733444134E+01 -0.39534065426E+02  0.40659149294E+02  0.00000000000E+00 0. -1.
         11    1    3    3    0    0  0.62985099459E+01  0.42918143685E+01  0.22652054725E+01  0.79512297291E+01  0.51100000000E-03 0.  1.
        -11    1    3    3    0    0 -0.42007066424E+01 -0.52388327879E+01  0.51910552390E+01  0.84875414598E+01  0.51100000000E-03 0. -1.
        -12    1    3    3    0    0 -0.75566684631E+01  0.87203628328E+01  0.32077804714E+02  0.34090079517E+02  0.00000000000E+00 0.  1.
</event>
<event>
 7    1  0.4971907E-013  0.5052884E+02  0.7816164E-02  0.1300439E+00
        -11   -1    0    0    0    0  0.00000000000E+00  0.00000000000E+00  0.45593999997E+02  0.45594000000E+02  0.51100000000E-03 0.  1.
         11   -1    0    0    0    0 -0.00000000000E+00 -0.00000000000E+00 -0.45593999997E+02  0.45594000000E+02  0.51100000000E-03 0. -1.
    9900012    2    1    2    0    0  0.14024203695E+02  0.68119543510E+01  0.37551117651E+02  0.50528838078E+02  0.29999933822E+02 0.  0.
         12    1    1    2    0    0 -0.14024203695E+02 -0.68119543510E+01 -0.37551117651E+02  0.40659161922E+02  0.00000000000E+00 0. -1.
         11    1    3    3    0    0  0.12339100565E+02  0.95404467883E+01  0.14086594094E+02  0.21016794739E+02  0.51100000000E-03 0. -1.
        -11    1    3    3    0    0 -0.46743626728E+01  0.56796674117E+01  0.94944480095E+01  0.12010530029E+02  0.51100000000E-03 0.  1.
         12    1    3    3    0    0  0.63594658021E+01 -0.84081598490E+01  0.13970075547E+02  0.17501513310E+02  0.00000000000E+00 0. -1.
</event>
<event>
 7    1  0.4971907E-013  0.5052884E+02  0.7816164E-02  0.1300439E+00
        -11   -1    0    0    0    0  0.00000000000E+00  0.00000000000E+00  0.45593999997E+02  0.45594000000E+02  0.51100000000E-03 0.  1.
         11   -1    0    0    0    0 -0.00000000000E+00 -0.00000000000E+00 -0.45593999997E+02  0.45594000000E+02  0.51100000000E-03 0. -1.
    9900012    2    1    2    0    0 -0.35963610504E+02  0.13131964894E+02  0.13687123911E+02  0.50528841826E+02  0.29999945214E+02 0.  0.
         12    1    1    2    0    0  0.35963610504E+02 -0.13131964894E+02 -0.13687123911E+02  0.40659158174E+02  0.00000000000E+00 0. -1.
         11    1    3    3    0    0 -0.14680196373E+02  0.83880144017E+01 -0.57606270955E+01  0.17862020489E+02  0.51100000000E-03 0. -1.
        -11    1    3    3    0    0 -0.16995003733E+02  0.24019837570E+01  0.57144696864E+01  0.18090186343E+02  0.51100000000E-03 0.  1.
        -12    1    3    3    0    0 -0.42884103973E+01  0.23419667357E+01  0.13733281320E+02  0.14576634994E+02  0.00000000000E+00 0.  1.
</event>
<event>
 7    1  0.4971907E-013  0.5052886E+02  0.7816164E-02  0.1300439E+00
        -11   -1    0    0    0    0  0.00000000000E+00  0.00000000000E+00  0.45593999997E+02  0.45594000000E+02  0.51100000000E-03 0.  1.
         11   -1    0    0    0    0 -0.00000000000E+00 -0.00000000000E+00 -0.45593999997E+02  0.45594000000E+02  0.51100000000E-03 0. -1.
    9900012    2    1    2    0    0 -0.68293572973E+01 -0.22918276131E+02  0.32882795089E+02  0.50528859394E+02  0.29999998615E+02 0.  0.
         12    1    1    2    0    0  0.68293572973E+01  0.22918276131E+02 -0.32882795089E+02  0.40659140606E+02  0.00000000000E+00 0. -1.
         11    1    3    3    0    0  0.74619468881E+01 -0.29433993300E+01  0.13584661493E+01  0.81357041193E+01  0.51100000000E-03 0.  1.
        -11    1    3    3    0    0 -0.50661782134E+01  0.10600528151E+01  0.39832593272E+01  0.65311736151E+01  0.51100000000E-03 0. -1.
        -12    1    3    3    0    0 -0.92251259720E+01 -0.21034929616E+02  0.27541069613E+02  0.35861981660E+02  0.00000000000E+00 0.  1.
</event>
<event>
 7    1  0.4971907E-013  0.5052886E+02  0.7816164E-02  0.1300439E+00
        -11   -1    0    0    0    0  0.00000000000E+00  0.00000000000E+00  0.45593999997E+02  0.45594000000E+02  0.51100000000E-03 0. -1.
         11   -1    0    0    0    0 -0.00000000000E+00 -0.00000000000E+00 -0.45593999997E+02  0.45594000000E+02  0.51100000000E-03 0.  1.
    9900012    2    1    2    0    0  0.90200910139E+01  0.35788417090E+02 -0.17058506670E+02  0.50528862164E+02  0.30000007035E+02 0.  0.
         12    1    1    2    0    0 -0.90200910139E+01 -0.35788417090E+02  0.17058506670E+02  0.40659137836E+02  0.00000000000E+00 0. -1.
         11    1    3    3    0    0 -0.95643086945E+00 -0.30122788949E+00  0.23087699853E+01  0.25171248192E+01  0.51100000000E-03 0. -1.
        -11    1    3    3    0    0  0.37760266099E+01  0.33012116068E+02 -0.71777095330E+01  0.33993789119E+02  0.51100000000E-03 0.  1.
         12    1    3    3    0    0  0.62004952734E+01  0.30775289115E+01 -0.12189567123E+02  0.14017948226E+02  0.00000000000E+00 0. -1.
</event>
<event>
 7    1  0.4971907E-013  0.5052886E+02  0.7816164E-02  0.1300439E+00
        -11   -1    0    0    0    0  0.00000000000E+00  0.00000000000E+00  0.45593999997E+02  0.45594000000E+02  0.51100000000E-03 0.  1.
         11   -1    0    0    0    0 -0.00000000000E+00 -0.00000000000E+00 -0.45593999997E+02  0.45594000000E+02  0.51100000000E-03 0. -1.
    9900012    2    1    2    0    0  0.35254765358E+02 -0.16770018071E+02  0.11359296732E+02  0.50528860698E+02  0.30000002577E+02 0.  0.
         12    1    1    2    0    0 -0.35254765358E+02  0.16770018071E+02 -0.11359296732E+02  0.40659139302E+02  0.00000000000E+00 0. -1.
         11    1    3    3    0    0  0.19651209109E+02 -0.15302111561E+02  0.12185702989E+02  0.27727531359E+02  0.51100000000E-03 0. -1.
        -11    1    3    3    0    0  0.16670385882E+02 -0.39978785857E+01  0.36712932814E+01  0.17531776671E+02  0.51100000000E-03 0.  1.
         12    1    3    3    0    0 -0.10668296326E+01  0.25299720755E+01 -0.44976995393E+01  0.52695526673E+01  0.00000000000E+00 0. -1.
</event>
<event>
 7    1  0.4971907E-013  0.5052883E+02  0.7816164E-02  0.1300439E+00
        -11   -1    0    0    0    0  0.00000000000E+00  0.00000000000E+00  0.45593999997E+02  0.45594000000E+02  0.51100000000E-03 0.  1.
         11   -1    0    0    0    0 -0.00000000000E+00 -0.00000000000E+00 -0.45593999997E+02  0.45594000000E+02  0.51100000000E-03 0. -1.
    9900012    2    1    2    0    0  0.30744199373E+02  0.26004733635E+02 -0.56316967926E+01  0.50528831596E+02  0.29999914120E+02 0.  0.
         12    1    1    2    0    0 -0.30744199373E+02 -0.26004733635E+02  0.56316967926E+01  0.40659168404E+02  0.00000000000E+00 0. -1.
         11    1    3    3    0    0  0.20258242178E+02  0.21272751325E+02 -0.25375583901E+01  0.29485005137E+02  0.51100000000E-03 0. -1.
        -11    1    3    3    0    0  0.52775779657E+00  0.46547730396E+01  0.59627139341E+01  0.75828357534E+01  0.51100000000E-03 0.  1.
        -12    1    3    3    0    0  0.99581993992E+01  0.77209269853E-01 -0.90568523367E+01  0.13460990706E+02  0.00000000000E+00 0.  1.
</event>
<event>
 7    1  0.4971907E-013  0.5052882E+02  0.7816164E-02  0.1300439E+00
        -11   -1    0    0    0    0  0.00000000000E+00  0.00000000000E+00  0.45593999997E+02  0.45594000000E+02  0.51100000000E-03 0.  1.
         11   -1    0    0    0    0 -0.00000000000E+00 -0.00000000000E+00 -0.45593999997E+02  0.45594000000E+02  0.51100000000E-03 0. -1.
    9900012    2    1    2    0    0  0.24185643199E+01 -0.96620164259E+01  0.39420360771E+02  0.50528820740E+02  0.29999881120E+02 0.  0.
         12    1    1    2    0    0 -0.24185643199E+01  0.96620164259E+01 -0.39420360771E+02  0.40659179260E+02  0.00000000000E+00 0. -1.
         11    1    3    3    0    0 -0.38820959726E+01 -0.25331556700E+01  0.80762333203E+01  0.93119864527E+01  0.51100000000E-03 0. -1.
        -11    1    3    3    0    0  0.51690992879E+01 -0.14968413410E+02  0.28853852871E+02  0.32913793662E+02  0.51100000000E-03 0.  1.
         12    1    3    3    0    0  0.11315610046E+01  0.78395526544E+01  0.24902745798E+01  0.83030406245E+01  0.00000000000E+00 0. -1.
</event>
<event>
 7    1  0.4971907E-013  0.5052886E+02  0.7816164E-02  0.1300439E+00
        -11   -1    0    0    0    0  0.00000000000E+00  0.00000000000E+00  0.45593999997E+02  0.45594000000E+02  0.51100000000E-03 0.  1.
         11   -1    0    0    0    0 -0.00000000000E+00 -0.00000000000E+00 -0.45593999997E+02  0.45594000000E+02  0.51100000000E-03 0. -1.
    9900012    2    1    2    0    0  0.14861540494E+02  0.24804430025E+02  0.28583919282E+02  0.50528861098E+02  0.30000003794E+02 0.  0.
         12    1    1    2    0    0 -0.14861540494E+02 -0.24804430025E+02 -0.28583919282E+02  0.40659138902E+02  0.00000000000E+00 0. -1.
         11    1    3    3    0    0  0.86289897667E+01  0.86912074624E+00  0.19778087988E+02  0.21596008890E+02  0.51100000000E-03 0.  1.
        -11    1    3    3    0    0  0.35955346719E+01  0.68014491530E+00 -0.60217849351E+00  0.37085153204E+01  0.51100000000E-03 0. -1.
         12    1    3    3    0    0  0.26370160557E+01  0.23255164363E+02  0.94080097873E+01  0.25224336887E+02  0.00000000000E+00 0. -1.
</event>
<event>
 7    1  0.4971907E-013  0.5052887E+02  0.7816164E-02  0.1300439E+00
        -11   -1    0    0    0    0  0.00000000000E+00  0.00000000000E+00  0.45593999997E+02  0.45594000000E+02  0.51100000000E-03 0.  1.
         11   -1    0    0    0    0 -0.00000000000E+00 -0.00000000000E+00 -0.45593999997E+02  0.45594000000E+02  0.51100000000E-03 0. -1.
    9900012    2    1    2    0    0 -0.25222064308E+02  0.21455569815E+02  0.23593876032E+02  0.50528868305E+02  0.30000025698E+02 0.  0.
         12    1    1    2    0    0  0.25222064308E+02 -0.21455569815E+02 -0.23593876032E+02  0.40659131695E+02  0.00000000000E+00 0. -1.
         11    1    3    3    0    0 -0.24513915018E+02  0.88553608378E+01  0.18701434152E+02  0.32079480742E+02  0.51100000000E-03 0.  1.
        -11    1    3    3    0    0 -0.48282664595E+00 -0.21281519840E+01  0.28329930443E+01  0.35760316396E+01  0.51100000000E-03 0. -1.
        -12    1    3    3    0    0 -0.22532264369E+00  0.14728360961E+02  0.20594488348E+01  0.14873355922E+02  0.00000000000E+00 0.  1.
</event>
<event>
 7    1  0.4971907E-013  0.5052886E+02  0.7816164E-02  0.1300439E+00
        -11   -1    0    0    0    0  0.00000000000E+00  0.00000000000E+00  0.45593999997E+02  0.45594000000E+02  0.51100000000E-03 0.  1.
         11   -1    0    0    0    0 -0.00000000000E+00 -0.00000000000E+00 -0.45593999997E+02  0.45594000000E+02  0.51100000000E-03 0. -1.
    9900012    2    1    2    0    0 -0.15232702024E+00  0.18973275812E+02  0.35960493944E+02  0.50528861750E+02  0.30000005775E+02 0.  0.
         12    1    1    2    0    0  0.15232702024E+00 -0.18973275812E+02 -0.35960493944E+02  0.40659138250E+02  0.00000000000E+00 0. -1.
         11    1    3    3    0    0 -0.48178327492E+01 -0.15760246632E+01 -0.10897499850E+01  0.51848742925E+01  0.51100000000E-03 0. -1.
        -11    1    3    3    0    0 -0.18685132485E+00  0.10966653420E+02  0.31288011174E+02  0.33154819320E+02  0.51100000000E-03 0.  1.
        -12    1    3    3    0    0  0.48523570538E+01  0.95826470551E+01  0.57622327553E+01  0.12189168138E+02  0.00000000000E+00 0.  1.
</event>
<event>
 7    1  0.4971907E-013  0.5052885E+02  0.7816164E-02  0.1300439E+00
        -11   -1    0    0    0    0  0.00000000000E+00  0.00000000000E+00  0.45593999997E+02  0.45594000000E+02  0.51100000000E-03 0.  1.
         11   -1    0    0    0    0 -0.00000000000E+00 -0.00000000000E+00 -0.45593999997E+02  0.45594000000E+02  0.51100000000E-03 0. -1.
    9900012    2    1    2    0    0 -0.25071458935E+02  0.29788402046E+02  0.11714942025E+02  0.50528845849E+02  0.29999957443E+02 0.  0.
         12    1    1    2    0    0  0.25071458935E+02 -0.29788402046E+02 -0.11714942025E+02  0.40659154151E+02  0.00000000000E+00 0. -1.
         11    1    3    3    0    0  0.53730081104E+00 -0.21177447784E+01 -0.31628832848E+01  0.38441339782E+01  0.51100000000E-03 0. -1.
        -11    1    3    3    0    0 -0.13280368282E+02  0.13948019869E+02 -0.16670309901E+01  0.19331177733E+02  0.51100000000E-03 0.  1.
         12    1    3    3    0    0 -0.12328391464E+02  0.17958126956E+02  0.16544856300E+02  0.27353534138E+02  0.00000000000E+00 0. -1.
</event>
<event>
 7    1  0.4971907E-013  0.5052886E+02  0.7816164E-02  0.1300439E+00
        -11   -1    0    0    0    0  0.00000000000E+00  0.00000000000E+00  0.45593999997E+02  0.45594000000E+02  0.51100000000E-03 0. -1.
         11   -1    0    0    0    0 -0.00000000000E+00 -0.00000000000E+00 -0.45593999997E+02  0.45594000000E+02  0.51100000000E-03 0.  1.
    9900012    2    1    2    0    0  0.32287684809E+02  0.17203664427E+02 -0.17739924936E+02  0.50528860846E+02  0.30000003026E+02 0.  0.
         12    1    1    2    0    0 -0.32287684809E+02 -0.17203664427E+02  0.17739924936E+02  0.40659139154E+02  0.00000000000E+00 0. -1.
         11    1    3    3    0    0 -0.40708623164E+01  0.25150265058E+01 -0.33980285349E-01  0.47852307410E+01  0.51100000000E-03 0. -1.
        -11    1    3    3    0    0  0.61480780292E+01 -0.21483273960E+01  0.72636007599E+00  0.65529972741E+01  0.51100000000E-03 0.  1.
        -12    1    3    3    0    0  0.30210469096E+02  0.16836965317E+02 -0.18432304727E+02  0.39190632830E+02  0.00000000000E+00 0.  1.
</event>
<event>
 7    1  0.5464603E-013  0.5052883E+02  0.7816164E-02  0.1300439E+00
        -11   -1    0    0    0    0  0.00000000000E+00  0.00000000000E+00  0.45593999997E+02  0.45594000000E+02  0.51100000000E-03 0. -1.
         11   -1    0    0    0    0 -0.00000000000E+00 -0.00000000000E+00 -0.45593999997E+02  0.45594000000E+02  0.51100000000E-03 0.  1.
    9900012    2    1    2    0    0 -0.73926195146E+00  0.11992831543E+02 -0.38843188858E+02  0.50528833293E+02  0.29999919278E+02 0.  0.
         12    1    1    2    0    0  0.73926195146E+00 -0.11992831543E+02  0.38843188858E+02  0.40659166707E+02  0.00000000000E+00 0. -1.
         11    1    3    3    0    0 -0.11560599748E+01  0.15121778046E+02 -0.73174481395E+01  0.16838933858E+02  0.51100000000E-03 0. -1.
        -11    1    3    3    0    0  0.46206458655E+01  0.18183795218E+01 -0.18224093343E+02  0.18888474018E+02  0.51100000000E-03 0.  1.
        -12    1    3    3    0    0 -0.42038478421E+01 -0.49473260247E+01 -0.13301647375E+02  0.14801425417E+02  0.00000000000E+00 0.  1.
</event>
<event>
 7    1  0.4971907E-013  0.5052886E+02  0.7816164E-02  0.1300439E+00
        -11   -1    0    0    0    0  0.00000000000E+00  0.00000000000E+00  0.45593999997E+02  0.45594000000E+02  0.51100000000E-03 0.  1.
         11   -1    0    0    0    0 -0.00000000000E+00 -0.00000000000E+00 -0.45593999997E+02  0.45594000000E+02  0.51100000000E-03 0. -1.
    9900012    2    1    2    0    0  0.29338754125E+02  0.12481474626E+02  0.25231248219E+02  0.50528860940E+02  0.30000003313E+02 0.  0.
         12    1    1    2    0    0 -0.29338754125E+02 -0.12481474626E+02 -0.25231248219E+02  0.40659139060E+02  0.00000000000E+00 0. -1.
         11    1    3    3    0    0  0.43732740809E+01 -0.71150661834E+01  0.30226910929E+01  0.88817990681E+01  0.51100000000E-03 0. -1.
        -11    1    3    3    0    0  0.13445636345E+02  0.40225434112E+01  0.16048936194E+02  0.21319811103E+02  0.51100000000E-03 0.  1.
         12    1    3    3    0    0  0.11519843699E+02  0.15573997398E+02  0.61596209312E+01  0.20327250769E+02  0.00000000000E+00 0. -1.
</event>
<event>
 7    1  0.4971907E-013  0.5052886E+02  0.7816164E-02  0.1300439E+00
        -11   -1    0    0    0    0  0.00000000000E+00  0.00000000000E+00  0.45593999997E+02  0.45594000000E+02  0.51100000000E-03 0.  1.
         11   -1    0    0    0    0 -0.00000000000E+00 -0.00000000000E+00 -0.45593999997E+02  0.45594000000E+02  0.51100000000E-03 0. -1.
    9900012    2    1    2    0    0 -0.13676957102E+02  0.36288380928E+02  0.12217209601E+02  0.50528856424E+02  0.29999989586E+02 0.  0.
         12    1    1    2    0    0  0.13676957102E+02 -0.36288380928E+02 -0.12217209601E+02  0.40659143576E+02  0.00000000000E+00 0. -1.
         11    1    3    3    0    0  0.13783166148E+01  0.11474158198E+01  0.48212075477E+01  0.51439636695E+01  0.51100000000E-03 0. -1.
        -11    1    3    3    0    0 -0.18189597562E+02  0.12936984528E+02  0.28172032135E+01  0.22498081304E+02  0.51100000000E-03 0.  1.
         12    1    3    3    0    0  0.31343238455E+01  0.22203980580E+02  0.45787988400E+01  0.22886811451E+02  0.00000000000E+00 0. -1.
</event>
<event>
 7    1  0.4971907E-013  0.5052886E+02  0.7816164E-02  0.1300439E+00
        -11   -1    0    0    0    0  0.00000000000E+00  0.00000000000E+00  0.45593999997E+02  0.45594000000E+02  0.51100000000E-03 0. -1.
         11   -1    0    0    0    0 -0.00000000000E+00 -0.00000000000E+00 -0.45593999997E+02  0.45594000000E+02  0.51100000000E-03 0.  1.
    9900012    2    1    2    0    0 -0.12204972535E+01 -0.29268505498E+01 -0.40535287423E+02  0.50528860877E+02  0.30000003123E+02 0.  0.
         12    1    1    2    0    0  0.12204972535E+01  0.29268505498E+01  0.40535287423E+02  0.40659139123E+02  0.00000000000E+00 0. -1.
         11    1    3    3    0    0  0.20051562034E+01  0.94103439982E+00 -0.89789221061E+00  0.23900643976E+01  0.51100000000E-03 0. -1.
        -11    1    3    3    0    0  0.64809197182E+00 -0.15161028493E+02 -0.25057917727E+02  0.29294641988E+02  0.51100000000E-03 0.  1.
        -12    1    3    3    0    0 -0.38737454288E+01  0.11293143543E+02 -0.14579477486E+02  0.18844154491E+02  0.00000000000E+00 0.  1.
</event>
<event>
 7    1  0.4971907E-013  0.5052886E+02  0.7816164E-02  0.1300439E+00
        -11   -1    0    0    0    0  0.00000000000E+00  0.00000000000E+00  0.45593999997E+02  0.45594000000E+02  0.51100000000E-03 0. -1.
         11   -1    0    0    0    0 -0.00000000000E+00 -0.00000000000E+00 -0.45593999997E+02  0.45594000000E+02  0.51100000000E-03 0.  1.
    9900012    2    1    2    0    0 -0.28131326103E+01 -0.31716967533E+02 -0.25284111302E+02  0.50528855531E+02  0.29999986873E+02 0.  0.
         12    1    1    2    0    0  0.28131326103E+01  0.31716967533E+02  0.25284111302E+02  0.40659144469E+02  0.00000000000E+00 0. -1.
         11    1    3    3    0    0 -0.74513190335E+01 -0.52008131281E+01 -0.15621705053E+01  0.92201404264E+01  0.51100000000E-03 0. -1.
        -11    1    3    3    0    0  0.62697843482E+00 -0.26276392499E+02 -0.11955768278E+02  0.28875288745E+02  0.51100000000E-03 0.  1.
        -12    1    3    3    0    0  0.40112079884E+01 -0.23976190571E+00 -0.11766172519E+02  0.12433426360E+02  0.00000000000E+00 0.  1.
</event>
<event>
 7    1  0.4971907E-013  0.5052887E+02  0.7816164E-02  0.1300439E+00
        -11   -1    0    0    0    0  0.00000000000E+00  0.00000000000E+00  0.45593999997E+02  0.45594000000E+02  0.51100000000E-03 0.  1.
         11   -1    0    0    0    0 -0.00000000000E+00 -0.00000000000E+00 -0.45593999997E+02  0.45594000000E+02  0.51100000000E-03 0. -1.
    9900012    2    1    2    0    0  0.14738152761E+02  0.22441918560E+02 -0.30533789298E+02  0.50528866409E+02  0.30000019936E+02 0.  0.
         12    1    1    2    0    0 -0.14738152761E+02 -0.22441918560E+02  0.30533789298E+02  0.40659133591E+02  0.00000000000E+00 0. -1.
         11    1    3    3    0    0  0.59716821273E+00 -0.28757336932E+01  0.15172174210E+01  0.33058135325E+01  0.51100000000E-03 0. -1.
        -11    1    3    3    0    0  0.14199339570E+02  0.15430037005E+02 -0.10368872568E+02  0.23392751116E+02  0.51100000000E-03 0.  1.
         12    1    3    3    0    0 -0.58355021207E-01  0.98876152481E+01 -0.21682134152E+02  0.23830301760E+02  0.00000000000E+00 0. -1.
</event>
<event>
 7    1  0.4971907E-013  0.5052886E+02  0.7816164E-02  0.1300439E+00
        -11   -1    0    0    0    0  0.00000000000E+00  0.00000000000E+00  0.45593999997E+02  0.45594000000E+02  0.51100000000E-03 0.  1.
         11   -1    0    0    0    0 -0.00000000000E+00 -0.00000000000E+00 -0.45593999997E+02  0.45594000000E+02  0.51100000000E-03 0. -1.
    9900012    2    1    2    0    0 -0.27356683347E+02  0.30017079740E+02 -0.19370403441E+01  0.50528864186E+02  0.30000013180E+02 0.  0.
         12    1    1    2    0    0  0.27356683347E+02 -0.30017079740E+02  0.19370403441E+01  0.40659135814E+02  0.00000000000E+00 0. -1.
         11    1    3    3    0    0 -0.73035429243E+01  0.26926016323E+01 -0.65717432269E+01  0.10187229854E+02  0.51100000000E-03 0. -1.
        -11    1    3    3    0    0 -0.15338044952E+02  0.37501102674E+01  0.40153113753E+01  0.16292380909E+02  0.51100000000E-03 0.  1.
        -12    1    3    3    0    0 -0.47150954700E+01  0.23574367840E+02  0.61939150748E+00  0.24049253423E+02  0.00000000000E+00 0.  1.
</event>
<event>
 7    1  0.4971907E-013  0.5052887E+02  0.7816164E-02  0.1300439E+00
        -11   -1    0    0    0    0  0.00000000000E+00  0.00000000000E+00  0.45593999997E+02  0.45594000000E+02  0.51100000000E-03 0.  1.
         11   -1    0    0    0    0 -0.00000000000E+00 -0.00000000000E+00 -0.45593999997E+02  0.45594000000E+02  0.51100000000E-03 0. -1.
    9900012    2    1    2    0    0 -0.12261639042E+02  0.19680300324E+01  0.38716200914E+02  0.50528866372E+02  0.30000019824E+02 0.  0.
         12    1    1    2    0    0  0.12261639042E+02 -0.19680300324E+01 -0.38716200914E+02  0.40659133628E+02  0.00000000000E+00 0. -1.
         11    1    3    3    0    0 -0.85685085438E+01 -0.50687495517E+01  0.78806540326E+01  0.12697096870E+02  0.51100000000E-03 0. -1.
        -11    1    3    3    0    0 -0.99283202925E+01  0.69511336222E+01  0.28842139861E+02  0.31285121616E+02  0.51100000000E-03 0.  1.
        -12    1    3    3    0    0  0.62351897940E+01  0.85645961924E-01  0.19934070196E+01  0.65466478860E+01  0.00000000000E+00 0.  1.
</event>
<event>
 7    1  0.4971907E-013  0.5052887E+02  0.7816164E-02  0.1300439E+00
        -11   -1    0    0    0    0  0.00000000000E+00  0.00000000000E+00  0.45593999997E+02  0.45594000000E+02  0.51100000000E-03 0. -1.
         11   -1    0    0    0    0 -0.00000000000E+00 -0.00000000000E+00 -0.45593999997E+02  0.45594000000E+02  0.51100000000E-03 0.  1.
    9900012    2    1    2    0    0 -0.16912335049E+02  0.25020799047E+02 -0.27223106335E+02  0.50528868427E+02  0.30000026070E+02 0.  0.
         12    1    1    2    0    0  0.16912335049E+02 -0.25020799047E+02  0.27223106335E+02  0.40659131573E+02  0.00000000000E+00 0. -1.
         11    1    3    3    0    0 -0.93950622148E+01 -0.35619670742E+01 -0.48255296673E+01  0.11146324071E+02  0.51100000000E-03 0. -1.
        -11    1    3    3    0    0 -0.50158117394E+01  0.16139771494E+01 -0.29450443875E+01  0.60362717260E+01  0.51100000000E-03 0.  1.
         12    1    3    3    0    0 -0.25014610951E+01  0.26968788972E+02 -0.19452532280E+02  0.33346272630E+02  0.00000000000E+00 0. -1.
</event>
<event>
 7    1  0.4971907E-013  0.5052887E+02  0.7816164E-02  0.1300439E+00
        -11   -1    0    0    0    0  0.00000000000E+00  0.00000000000E+00  0.45593999997E+02  0.45594000000E+02  0.51100000000E-03 0.  1.
         11   -1    0    0    0    0 -0.00000000000E+00 -0.00000000000E+00 -0.45593999997E+02  0.45594000000E+02  0.51100000000E-03 0. -1.
    9900012    2    1    2    0    0  0.45824304300E+01  0.28054275348E+02  0.29071018208E+02  0.50528866542E+02  0.30000020341E+02 0.  0.
         12    1    1    2    0    0 -0.45824304300E+01 -0.28054275348E+02 -0.29071018208E+02  0.40659133458E+02  0.00000000000E+00 0. -1.
         11    1    3    3    0    0 -0.20319356734E+01 -0.11106746176E+01 -0.24298110595E+01  0.33565373129E+01  0.51100000000E-03 0. -1.
        -11    1    3    3    0    0  0.54054118921E+00  0.22735298688E+02  0.11897197518E+02  0.25665722282E+02  0.51100000000E-03 0.  1.
         12    1    3    3    0    0  0.60738249142E+01  0.64296512776E+01  0.19603631749E+02  0.21506606947E+02  0.00000000000E+00 0. -1.
</event>
<event>
 7    1  0.4971907E-013  0.5052887E+02  0.7816164E-02  0.1300439E+00
        -11   -1    0    0    0    0  0.00000000000E+00  0.00000000000E+00  0.45593999997E+02  0.45594000000E+02  0.51100000000E-03 0.  1.
         11   -1    0    0    0    0 -0.00000000000E+00 -0.00000000000E+00 -0.45593999997E+02  0.45594000000E+02  0.51100000000E-03 0. -1.
    9900012    2    1    2    0    0 -0.15644515286E+02 -0.57703364506E+01  0.37082574888E+02  0.50528868165E+02  0.30000025273E+02 0.  0.
         12    1    1    2    0    0  0.15644515286E+02  0.57703364506E+01 -0.37082574888E+02  0.40659131835E+02  0.00000000000E+00 0. -1.
         11    1    3    3    0    0  0.63754781360E+01 -0.49822530364E+01  0.52032984656E+01  0.96199730750E+01  0.51100000000E-03 0. -1.
        -11    1    3    3    0    0 -0.11632838046E+02 -0.64813960414E+01  0.20750999587E+02  0.24656346035E+02  0.51100000000E-03 0.  1.
        -12    1    3    3    0    0 -0.10387155376E+02  0.56933126271E+01  0.11128276835E+02  0.16252549055E+02  0.00000000000E+00 0.  1.
</event>
<event>
 7    1  0.4971907E-013  0.5052886E+02  0.7816164E-02  0.1300439E+00
        -11   -1    0    0    0    0  0.00000000000E+00  0.00000000000E+00  0.45593999997E+02  0.45594000000E+02  0.51100000000E-03 0.  1.
         11   -1    0    0    0    0 -0.00000000000E+00 -0.00000000000E+00 -0.45593999997E+02  0.45594000000E+02  0.51100000000E-03 0. -1.
    9900012    2    1    2    0    0  0.28183303949E+02  0.17679849714E+02  0.23372845860E+02  0.50528860425E+02  0.30000001747E+02 0.  0.
         12    1    1    2    0    0 -0.28183303949E+02 -0.17679849714E+02 -0.23372845860E+02  0.40659139575E+02  0.00000000000E+00 0. -1.
         11    1    3    3    0    0  0.73977526184E+01 -0.26793535328E+01  0.12214661549E+02  0.14529405913E+02  0.51100000000E-03 0. -1.
        -11    1    3    3    0    0  0.15065326046E+02  0.10418982187E+02  0.15237996335E+02  0.23826786843E+02  0.51100000000E-03 0.  1.
         12    1    3    3    0    0  0.57202252851E+01  0.99402210597E+01 -0.40798120241E+01  0.12172667669E+02  0.00000000000E+00 0. -1.
</event>
<event>
 7    1  0.4971907E-013  0.5052886E+02  0.7816164E-02  0.1300439E+00
        -11   -1    0    0    0    0  0.00000000000E+00  0.00000000000E+00  0.45593999997E+02  0.45594000000E+02  0.51100000000E-03 0. -1.
         11   -1    0    0    0    0 -0.00000000000E+00 -0.00000000000E+00 -0.45593999997E+02  0.45594000000E+02  0.51100000000E-03 0.  1.
    9900012    2    1    2    0    0 -0.12529842613E+02 -0.38439275897E+02 -0.43116833063E+01  0.50528862032E+02  0.30000006632E+02 0.  0.
         12    1    1    2    0    0  0.12529842613E+02  0.38439275897E+02  0.43116833063E+01  0.40659137968E+02  0.00000000000E+00 0. -1.
         11    1    3    3    0    0 -0.73550369475E+01 -0.25204438714E+02 -0.33326097117E+01  0.26466329310E+02  0.51100000000E-03 0.  1.
        -11    1    3    3    0    0  0.69287597982E+01 -0.17742209659E+01 -0.17945357447E+01  0.73740037413E+01  0.51100000000E-03 0. -1.
         12    1    3    3    0    0 -0.12103565464E+02 -0.11460616216E+02  0.81546215009E+00  0.16688528980E+02  0.00000000000E+00 0. -1.
</event>
<event>
 7    1  0.4971907E-013  0.5052886E+02  0.7816164E-02  0.1300439E+00
        -11   -1    0    0    0    0  0.00000000000E+00  0.00000000000E+00  0.45593999997E+02  0.45594000000E+02  0.51100000000E-03 0. -1.
         11   -1    0    0    0    0 -0.00000000000E+00 -0.00000000000E+00 -0.45593999997E+02  0.45594000000E+02  0.51100000000E-03 0.  1.
    9900012    2    1    2    0    0 -0.53381144782E-02 -0.16563827993E+02 -0.37132272154E+02  0.50528855129E+02  0.29999985650E+02 0.  0.
         12    1    1    2    0    0  0.53381144782E-02  0.16563827993E+02  0.37132272154E+02  0.40659144871E+02  0.00000000000E+00 0. -1.
         11    1    3    3    0    0  0.24315931751E+01  0.11385361722E+01 -0.11482740041E+02  0.11792464929E+02  0.51100000000E-03 0. -1.
        -11    1    3    3    0    0  0.76901549953E+01 -0.12931656257E+02 -0.22571593878E+02  0.27126427480E+02  0.51100000000E-03 0.  1.
        -12    1    3    3    0    0 -0.10127086285E+02 -0.47707079087E+01 -0.30779382350E+01  0.11609962720E+02  0.00000000000E+00 0.  1.
</event>
<event>
 7    1  0.4971907E-013  0.5052887E+02  0.7816164E-02  0.1300439E+00
        -11   -1    0    0    0    0  0.00000000000E+00  0.00000000000E+00  0.45593999997E+02  0.45594000000E+02  0.51100000000E-03 0.  1.
         11   -1    0    0    0    0 -0.00000000000E+00 -0.00000000000E+00 -0.45593999997E+02  0.45594000000E+02  0.51100000000E-03 0. -1.
    9900012    2    1    2    0    0 -0.39866830508E+02 -0.69043115776E+01  0.40163891802E+01  0.50528867261E+02  0.30000022525E+02 0.  0.
         12    1    1    2    0    0  0.39866830508E+02  0.69043115776E+01 -0.40163891802E+01  0.40659132739E+02  0.00000000000E+00 0. -1.
         11    1    3    3    0    0 -0.98106851223E+01 -0.30590593490E+01  0.87541975573E+01  0.13499754139E+02  0.51100000000E-03 0. -1.
        -11    1    3    3    0    0 -0.13562863133E+02 -0.11411482608E+02 -0.63113267988E+01  0.18815048177E+02  0.51100000000E-03 0.  1.
         12    1    3    3    0    0 -0.16493282253E+02  0.75662303791E+01  0.15735184217E+01  0.18214064945E+02  0.00000000000E+00 0. -1.
</event>
<event>
 7    1  0.4971907E-013  0.5052887E+02  0.7816164E-02  0.1300439E+00
        -11   -1    0    0    0    0  0.00000000000E+00  0.00000000000E+00  0.45593999997E+02  0.45594000000E+02  0.51100000000E-03 0.  1.
         11   -1    0    0    0    0 -0.00000000000E+00 -0.00000000000E+00 -0.45593999997E+02  0.45594000000E+02  0.51100000000E-03 0. -1.
    9900012    2    1    2    0    0  0.49912236626E+01 -0.18659019212E+02  0.35778389293E+02  0.50528874924E+02  0.30000045818E+02 0.  0.
         12    1    1    2    0    0 -0.49912236626E+01  0.18659019212E+02 -0.35778389293E+02  0.40659125076E+02  0.00000000000E+00 0. -1.
         11    1    3    3    0    0  0.11585958060E+02 -0.94448882440E+01  0.11637293656E+02  0.18943783730E+02  0.51100000000E-03 0. -1.
        -11    1    3    3    0    0 -0.88900455443E+00 -0.12373080394E+02  0.97256889733E+01  0.15763009668E+02  0.51100000000E-03 0.  1.
         12    1    3    3    0    0 -0.57057298428E+01  0.31589494267E+01  0.14415406664E+02  0.15822081526E+02  0.00000000000E+00 0. -1.
</event>
<event>
 7    1  0.4971907E-013  0.5052885E+02  0.7816164E-02  0.1300439E+00
        -11   -1    0    0    0    0  0.00000000000E+00  0.00000000000E+00  0.45593999997E+02  0.45594000000E+02  0.51100000000E-03 0.  1.
         11   -1    0    0    0    0 -0.00000000000E+00 -0.00000000000E+00 -0.45593999997E+02  0.45594000000E+02  0.51100000000E-03 0. -1.
    9900012    2    1    2    0    0  0.23092274559E+02  0.17690389510E+02  0.28407101719E+02  0.50528850311E+02  0.29999971005E+02 0.  0.
         12    1    1    2    0    0 -0.23092274559E+02 -0.17690389510E+02 -0.28407101719E+02  0.40659149689E+02  0.00000000000E+00 0. -1.
         11    1    3    3    0    0  0.17712198388E+02  0.11138174654E+02  0.16594137672E+02  0.26704799413E+02  0.51100000000E-03 0. -1.
        -11    1    3    3    0    0  0.49367141272E+01  0.37453547033E+01  0.16898282467E+02  0.17998632694E+02  0.51100000000E-03 0.  1.
         12    1    3    3    0    0  0.44336204368E+00  0.28068601527E+01 -0.50853184201E+01  0.58254182040E+01  0.00000000000E+00 0. -1.
</event>
<event>
 7    1  0.4971907E-013  0.5052885E+02  0.7816164E-02  0.1300439E+00
        -11   -1    0    0    0    0  0.00000000000E+00  0.00000000000E+00  0.45593999997E+02  0.45594000000E+02  0.51100000000E-03 0.  1.
         11   -1    0    0    0    0 -0.00000000000E+00 -0.00000000000E+00 -0.45593999997E+02  0.45594000000E+02  0.51100000000E-03 0. -1.
    9900012    2    1    2    0    0  0.14577115895E+02  0.37847157809E+02 -0.28751968038E+01  0.50528850738E+02  0.29999972305E+02 0.  0.
         12    1    1    2    0    0 -0.14577115895E+02 -0.37847157809E+02  0.28751968038E+01  0.40659149262E+02  0.00000000000E+00 0. -1.
         11    1    3    3    0    0  0.56761615261E+01  0.10761246509E+02 -0.49562396757E+01  0.13137258012E+02  0.51100000000E-03 0. -1.
        -11    1    3    3    0    0 -0.50326942736E+01  0.16522342012E+02 -0.57898686294E+01  0.18216431490E+02  0.51100000000E-03 0.  1.
        -12    1    3    3    0    0  0.13933648642E+02  0.10563569288E+02  0.78709115014E+01  0.19175161236E+02  0.00000000000E+00 0.  1.
</event>
<event>
 7    1  0.4971907E-013  0.5052886E+02  0.7816164E-02  0.1300439E+00
        -11   -1    0    0    0    0  0.00000000000E+00  0.00000000000E+00  0.45593999997E+02  0.45594000000E+02  0.51100000000E-03 0. -1.
         11   -1    0    0    0    0 -0.00000000000E+00 -0.00000000000E+00 -0.45593999997E+02  0.45594000000E+02  0.51100000000E-03 0.  1.
    9900012    2    1    2    0    0 -0.30025396496E+02 -0.49046145971E+01 -0.26973795864E+02  0.50528863974E+02  0.30000012535E+02 0.  0.
         12    1    1    2    0    0  0.30025396496E+02  0.49046145971E+01  0.26973795864E+02  0.40659136026E+02  0.00000000000E+00 0. -1.
         11    1    3    3    0    0 -0.17399243650E+02 -0.29338130223E+01 -0.22101882454E+02  0.28281339195E+02  0.51100000000E-03 0. -1.
        -11    1    3    3    0    0 -0.10654364050E+01  0.51142133418E+01 -0.67754393671E+01  0.85555193715E+01  0.51100000000E-03 0.  1.
         12    1    3    3    0    0 -0.11560716441E+02 -0.70850149166E+01  0.19035259567E+01  0.13692005407E+02  0.00000000000E+00 0. -1.
</event>
<event>
 7    1  0.4971907E-013  0.5052886E+02  0.7816164E-02  0.1300439E+00
        -11   -1    0    0    0    0  0.00000000000E+00  0.00000000000E+00  0.45593999997E+02  0.45594000000E+02  0.51100000000E-03 0. -1.
         11   -1    0    0    0    0 -0.00000000000E+00 -0.00000000000E+00 -0.45593999997E+02  0.45594000000E+02  0.51100000000E-03 0.  1.
    9900012    2    1    2    0    0 -0.62738250004E+01  0.95850984878E+01 -0.39011930721E+02  0.50528859186E+02  0.29999997982E+02 0.  0.
         12    1    1    2    0    0  0.62738250004E+01 -0.95850984878E+01  0.39011930721E+02  0.40659140814E+02  0.00000000000E+00 0. -1.
         11    1    3    3    0    0 -0.10499203695E+02 -0.27441398074E+01 -0.68155709153E+01  0.12814663034E+02  0.51100000000E-03 0. -1.
        -11    1    3    3    0    0 -0.32653012064E+01  0.64461185934E+01 -0.24269557309E+02  0.25322441611E+02  0.51100000000E-03 0.  1.
         12    1    3    3    0    0  0.74906799009E+01  0.58831197018E+01 -0.79268024963E+01  0.12391754542E+02  0.00000000000E+00 0. -1.
</event>
<event>
 7    1  0.4971907E-013  0.5052887E+02  0.7816164E-02  0.1300439E+00
        -11   -1    0    0    0    0  0.00000000000E+00  0.00000000000E+00  0.45593999997E+02  0.45594000000E+02  0.51100000000E-03 0.  1.
         11   -1    0    0    0    0 -0.00000000000E+00 -0.00000000000E+00 -0.45593999997E+02  0.45594000000E+02  0.51100000000E-03 0. -1.
    9900012    2    1    2    0    0 -0.30354897461E+02  0.26194596143E+02  0.67519269934E+01  0.50528865908E+02  0.30000018414E+02 0.  0.
         12    1    1    2    0    0  0.30354897461E+02 -0.26194596143E+02 -0.67519269934E+01  0.40659134092E+02  0.00000000000E+00 0. -1.
         11    1    3    3    0    0 -0.65064365540E+00 -0.10761405623E+00 -0.26230945746E+01  0.27047261155E+01  0.51100000000E-03 0. -1.
        -11    1    3    3    0    0 -0.26849619597E+02  0.29258383191E+02  0.24685813163E+01  0.39787547718E+02  0.51100000000E-03 0.  1.
         12    1    3    3    0    0 -0.28546342092E+01 -0.29561729912E+01  0.69064402517E+01  0.80365920745E+01  0.00000000000E+00 0. -1.
</event>
<event>
 7    1  0.4971907E-013  0.5052882E+02  0.7816164E-02  0.1300439E+00
        -11   -1    0    0    0    0  0.00000000000E+00  0.00000000000E+00  0.45593999997E+02  0.45594000000E+02  0.51100000000E-03 0.  1.
         11   -1    0    0    0    0 -0.00000000000E+00 -0.00000000000E+00 -0.45593999997E+02  0.45594000000E+02  0.51100000000E-03 0. -1.
    9900012    2    1    2    0    0 -0.32453973313E+02 -0.20493061406E+02  0.13414279442E+02  0.50528820931E+02  0.29999881701E+02 0.  0.
         12    1    1    2    0    0  0.32453973313E+02  0.20493061406E+02 -0.13414279442E+02  0.40659179069E+02  0.00000000000E+00 0. -1.
         11    1    3    3    0    0 -0.60325489872E+01 -0.19093342599E+02  0.75259273391E+01  0.21391282370E+02  0.51100000000E-03 0. -1.
        -11    1    3    3    0    0 -0.98442334365E+01  0.58939606431E+00 -0.28870118664E+01  0.10275755809E+02  0.51100000000E-03 0.  1.
        -12    1    3    3    0    0 -0.16577190889E+02 -0.19891148722E+01  0.87753639696E+01  0.18861782751E+02  0.00000000000E+00 0.  1.
</event>
<event>
 7    1  0.4971907E-013  0.5052886E+02  0.7816164E-02  0.1300439E+00
        -11   -1    0    0    0    0  0.00000000000E+00  0.00000000000E+00  0.45593999997E+02  0.45594000000E+02  0.51100000000E-03 0.  1.
         11   -1    0    0    0    0 -0.00000000000E+00 -0.00000000000E+00 -0.45593999997E+02  0.45594000000E+02  0.51100000000E-03 0. -1.
    9900012    2    1    2    0    0  0.57919025059E+01  0.43640938828E+01  0.40007176449E+02  0.50528860591E+02  0.30000002252E+02 0.  0.
         12    1    1    2    0    0 -0.57919025059E+01 -0.43640938828E+01 -0.40007176449E+02  0.40659139409E+02  0.00000000000E+00 0. -1.
         11    1    3    3    0    0 -0.49398589631E+00  0.36109042651E+01  0.14904782309E+02  0.15343897406E+02  0.51100000000E-03 0. -1.
        -11    1    3    3    0    0  0.12405087069E+02  0.11151851282E+01  0.26151417403E+02  0.28965953386E+02  0.51100000000E-03 0.  1.
         12    1    3    3    0    0 -0.61191986673E+01 -0.36199551053E+00 -0.10490232627E+01  0.62190097994E+01  0.00000000000E+00 0. -1.
</event>
<event>
 7    1  0.4971907E-013  0.5052887E+02  0.7816164E-02  0.1300439E+00
        -11   -1    0    0    0    0  0.00000000000E+00  0.00000000000E+00  0.45593999997E+02  0.45594000000E+02  0.51100000000E-03 0. -1.
         11   -1    0    0    0    0 -0.00000000000E+00 -0.00000000000E+00 -0.45593999997E+02  0.45594000000E+02  0.51100000000E-03 0.  1.
    9900012    2    1    2    0    0  0.19826392895E+02  0.28541406717E+02 -0.21106087745E+02  0.50528871965E+02  0.30000036825E+02 0.  0.
         12    1    1    2    0    0 -0.19826392895E+02 -0.28541406717E+02  0.21106087745E+02  0.40659128035E+02  0.00000000000E+00 0. -1.
         11    1    3    3    0    0  0.70081252275E+01  0.27143040965E+02 -0.23204761656E+02  0.36391200252E+02  0.51100000000E-03 0. -1.
        -11    1    3    3    0    0  0.47956387630E+01  0.31897340059E+01  0.77053292455E+00  0.58108756158E+01  0.51100000000E-03 0.  1.
         12    1    3    3    0    0  0.80226289048E+01 -0.17913682535E+01  0.13281409860E+01  0.83267960971E+01  0.00000000000E+00 0. -1.
</event>
<event>
 7    1  0.4971907E-013  0.5052886E+02  0.7816164E-02  0.1300439E+00
        -11   -1    0    0    0    0  0.00000000000E+00  0.00000000000E+00  0.45593999997E+02  0.45594000000E+02  0.51100000000E-03 0.  1.
         11   -1    0    0    0    0 -0.00000000000E+00 -0.00000000000E+00 -0.45593999997E+02  0.45594000000E+02  0.51100000000E-03 0. -1.
    9900012    2    1    2    0    0  0.30501909315E+02 -0.11845786635E+02  0.24134553375E+02  0.50528858353E+02  0.29999995449E+02 0.  0.
         12    1    1    2    0    0 -0.30501909315E+02  0.11845786635E+02 -0.24134553375E+02  0.40659141647E+02  0.00000000000E+00 0. -1.
         11    1    3    3    0    0  0.27724694890E+02 -0.91191323649E+01  0.17732212936E+02  0.34150382980E+02  0.51100000000E-03 0.  1.
        -11    1    3    3    0    0  0.40391729357E+01  0.50972100460E+01  0.52746221056E+01  0.83736555265E+01  0.51100000000E-03 0. -1.
         12    1    3    3    0    0 -0.12619585108E+01 -0.78238643165E+01  0.11277183335E+01  0.80048198459E+01  0.00000000000E+00 0. -1.
</event>
<event>
 7    1  0.4971907E-013  0.5052886E+02  0.7816164E-02  0.1300439E+00
        -11   -1    0    0    0    0  0.00000000000E+00  0.00000000000E+00  0.45593999997E+02  0.45594000000E+02  0.51100000000E-03 0. -1.
         11   -1    0    0    0    0 -0.00000000000E+00 -0.00000000000E+00 -0.45593999997E+02  0.45594000000E+02  0.51100000000E-03 0.  1.
    9900012    2    1    2    0    0 -0.15233594057E+02 -0.31560299015E+02 -0.20616764618E+02  0.50528857791E+02  0.29999993743E+02 0.  0.
         12    1    1    2    0    0  0.15233594057E+02  0.31560299015E+02  0.20616764618E+02  0.40659142209E+02  0.00000000000E+00 0. -1.
         11    1    3    3    0    0 -0.65957594881E+01 -0.25769307735E+01 -0.11778397448E+02  0.13743189664E+02  0.51100000000E-03 0. -1.
        -11    1    3    3    0    0 -0.12890979905E+02 -0.10375388036E+02 -0.52744291485E+01  0.17367948725E+02  0.51100000000E-03 0.  1.
         12    1    3    3    0    0  0.42531453355E+01 -0.18607980206E+02 -0.35639380216E+01  0.19417719403E+02  0.00000000000E+00 0. -1.
</event>
<event>
 7    1  0.4971907E-013  0.5052885E+02  0.7816164E-02  0.1300439E+00
        -11   -1    0    0    0    0  0.00000000000E+00  0.00000000000E+00  0.45593999997E+02  0.45594000000E+02  0.51100000000E-03 0.  1.
         11   -1    0    0    0    0 -0.00000000000E+00 -0.00000000000E+00 -0.45593999997E+02  0.45594000000E+02  0.51100000000E-03 0. -1.
    9900012    2    1    2    0    0  0.40609798725E+02  0.17430708717E+01 -0.98598958808E+00  0.50528853132E+02  0.29999979581E+02 0.  0.
         12    1    1    2    0    0 -0.40609798725E+02 -0.17430708717E+01  0.98598958808E+00  0.40659146868E+02  0.00000000000E+00 0. -1.
         11    1    3    3    0    0  0.48490039458E+01 -0.44409847200E+01 -0.73809732355E+01  0.98850367077E+01  0.51100000000E-03 0. -1.
        -11    1    3    3    0    0  0.76553115500E+01  0.90399513161E+01  0.10489322369E+01  0.11892214841E+02  0.51100000000E-03 0.  1.
        -12    1    3    3    0    0  0.28105483229E+02 -0.28558957243E+01  0.53460514105E+01  0.28751601584E+02  0.00000000000E+00 0.  1.
</event>
<event>
 7    1  0.4971907E-013  0.5052886E+02  0.7816164E-02  0.1300439E+00
        -11   -1    0    0    0    0  0.00000000000E+00  0.00000000000E+00  0.45593999997E+02  0.45594000000E+02  0.51100000000E-03 0.  1.
         11   -1    0    0    0    0 -0.00000000000E+00 -0.00000000000E+00 -0.45593999997E+02  0.45594000000E+02  0.51100000000E-03 0. -1.
    9900012    2    1    2    0    0  0.24247073379E+02  0.11895685213E+02  0.30393054518E+02  0.50528860104E+02  0.30000000772E+02 0.  0.
         12    1    1    2    0    0 -0.24247073379E+02 -0.11895685213E+02 -0.30393054518E+02  0.40659139896E+02  0.00000000000E+00 0. -1.
         11    1    3    3    0    0  0.19095883930E+02  0.69221541968E+01  0.50833861878E+01  0.20938238159E+02  0.51100000000E-03 0.  1.
        -11    1    3    3    0    0 -0.94482476609E-01  0.58330634960E+01  0.28169590655E+01  0.64783343017E+01  0.51100000000E-03 0. -1.
        -12    1    3    3    0    0  0.52456719254E+01 -0.85953247960E+00  0.22492709265E+02  0.23112287643E+02  0.00000000000E+00 0.  1.
</event>
<event>
 7    1  0.4971907E-013  0.5052884E+02  0.7816164E-02  0.1300439E+00
        -11   -1    0    0    0    0  0.00000000000E+00  0.00000000000E+00  0.45593999997E+02  0.45594000000E+02  0.51100000000E-03 0. -1.
         11   -1    0    0    0    0 -0.00000000000E+00 -0.00000000000E+00 -0.45593999997E+02  0.45594000000E+02  0.51100000000E-03 0.  1.
    9900012    2    1    2    0    0  0.26441552833E+02 -0.22022529154E+02 -0.21656860583E+02  0.50528842152E+02  0.29999946205E+02 0.  0.
         12    1    1    2    0    0 -0.26441552833E+02  0.22022529154E+02  0.21656860583E+02  0.40659157848E+02  0.00000000000E+00 0. -1.
         11    1    3    3    0    0  0.12069795302E+02 -0.56811525194E+01 -0.22738098807E+02  0.26362408657E+02  0.51100000000E-03 0. -1.
        -11    1    3    3    0    0  0.18406423502E+01  0.13600074077E+01  0.95040158887E+00  0.24780734153E+01  0.51100000000E-03 0.  1.
        -12    1    3    3    0    0  0.12531115181E+02 -0.17701384043E+02  0.13083663484E+00  0.21688360079E+02  0.00000000000E+00 0.  1.
</event>
<event>
 7    1  0.4971907E-013  0.5052886E+02  0.7816164E-02  0.1300439E+00
        -11   -1    0    0    0    0  0.00000000000E+00  0.00000000000E+00  0.45593999997E+02  0.45594000000E+02  0.51100000000E-03 0.  1.
         11   -1    0    0    0    0 -0.00000000000E+00 -0.00000000000E+00 -0.45593999997E+02  0.45594000000E+02  0.51100000000E-03 0. -1.
    9900012    2    1    2    0    0  0.34857294211E+02 -0.13526946363E+02  0.15973606646E+02  0.50528863918E+02  0.30000012366E+02 0.  0.
         12    1    1    2    0    0 -0.34857294211E+02  0.13526946363E+02 -0.15973606646E+02  0.40659136082E+02  0.00000000000E+00 0. -1.
         11    1    3    3    0    0  0.37544098059E+01  0.24076373821E+01 -0.44831315615E+01  0.63238263427E+01  0.51100000000E-03 0. -1.
        -11    1    3    3    0    0  0.89540600332E+01  0.89651017691E+00  0.12252728879E+02  0.15202246111E+02  0.51100000000E-03 0.  1.
         12    1    3    3    0    0  0.22148824372E+02 -0.16831093922E+02  0.82040093283E+01  0.29002791465E+02  0.00000000000E+00 0. -1.
</event>
<event>
 7    1  0.4971907E-013  0.5052883E+02  0.7816164E-02  0.1300439E+00
        -11   -1    0    0    0    0  0.00000000000E+00  0.00000000000E+00  0.45593999997E+02  0.45594000000E+02  0.51100000000E-03 0.  1.
         11   -1    0    0    0    0 -0.00000000000E+00 -0.00000000000E+00 -0.45593999997E+02  0.45594000000E+02  0.51100000000E-03 0. -1.
    9900012    2    1    2    0    0  0.20058015353E+02  0.87782475159E+01  0.34260571160E+02  0.50528827043E+02  0.29999900279E+02 0.  0.
         12    1    1    2    0    0 -0.20058015353E+02 -0.87782475159E+01 -0.34260571160E+02  0.40659172957E+02  0.00000000000E+00 0. -1.
         11    1    3    3    0    0  0.83835580199E+01  0.19524216123E+01 -0.94670327839E+00  0.86598061516E+01  0.51100000000E-03 0. -1.
        -11    1    3    3    0    0  0.49712463423E+01 -0.61008640635E+01  0.96239048061E+01  0.12431949827E+02  0.51100000000E-03 0.  1.
        -12    1    3    3    0    0  0.67032109911E+01  0.12926689967E+02  0.25583369632E+02  0.29437071064E+02  0.00000000000E+00 0.  1.
</event>
<event>
 7    1  0.4971907E-013  0.5052886E+02  0.7816164E-02  0.1300439E+00
        -11   -1    0    0    0    0  0.00000000000E+00  0.00000000000E+00  0.45593999997E+02  0.45594000000E+02  0.51100000000E-03 0.  1.
         11   -1    0    0    0    0 -0.00000000000E+00 -0.00000000000E+00 -0.45593999997E+02  0.45594000000E+02  0.51100000000E-03 0. -1.
    9900012    2    1    2    0    0 -0.51988030488E+01 -0.37914338373E+02  0.13734654792E+02  0.50528863884E+02  0.30000012262E+02 0.  0.
         12    1    1    2    0    0  0.51988030488E+01  0.37914338373E+02 -0.13734654792E+02  0.40659136116E+02  0.00000000000E+00 0. -1.
         11    1    3    3    0    0  0.59276101246E+00 -0.59877423845E+01  0.77217668825E+01  0.97892853942E+01  0.51100000000E-03 0. -1.
        -11    1    3    3    0    0 -0.13336916486E+02 -0.19410272998E+02  0.10007560292E+02  0.25588733898E+02  0.51100000000E-03 0.  1.
         12    1    3    3    0    0  0.75453524251E+01 -0.12516322990E+02 -0.39946723818E+01  0.15150844592E+02  0.00000000000E+00 0. -1.
</event>
<event>
 7    1  0.8650869E-013  0.5052886E+02  0.7816164E-02  0.1300439E+00
        -11   -1    0    0    0    0  0.00000000000E+00  0.00000000000E+00  0.45593999997E+02  0.45594000000E+02  0.51100000000E-03 0.  1.
         11   -1    0    0    0    0 -0.00000000000E+00 -0.00000000000E+00 -0.45593999997E+02  0.45594000000E+02  0.51100000000E-03 0. -1.
    9900012    2    1    2    0    0  0.37530600306E+02 -0.31835359605E+01  0.15312902492E+02  0.50528857815E+02  0.29999993813E+02 0.  0.
         12    1    1    2    0    0 -0.37530600306E+02  0.31835359605E+01 -0.15312902492E+02  0.40659142185E+02  0.00000000000E+00 0. -1.
         11    1    3    3    0    0  0.62908316908E+00 -0.34300462695E+01  0.10005606925E+02  0.10595901719E+02  0.51100000000E-03 0. -1.
        -11    1    3    3    0    0  0.88459601916E+01  0.15897954920E+01 -0.46665840063E+01  0.10126967363E+02  0.51100000000E-03 0.  1.
        -12    1    3    3    0    0  0.28055556945E+02 -0.13432851829E+01  0.99738795733E+01  0.29805988733E+02  0.00000000000E+00 0.  1.
</event>
<event>
 7    1  0.4971907E-013  0.5052886E+02  0.7816164E-02  0.1300439E+00
        -11   -1    0    0    0    0  0.00000000000E+00  0.00000000000E+00  0.45593999997E+02  0.45594000000E+02  0.51100000000E-03 0. -1.
         11   -1    0    0    0    0 -0.00000000000E+00 -0.00000000000E+00 -0.45593999997E+02  0.45594000000E+02  0.51100000000E-03 0.  1.
    9900012    2    1    2    0    0 -0.64425754019E+01  0.28384895920E+02 -0.28389373304E+02  0.50528860674E+02  0.30000002503E+02 0.  0.
         12    1    1    2    0    0  0.64425754019E+01 -0.28384895920E+02  0.28389373304E+02  0.40659139326E+02  0.00000000000E+00 0. -1.
         11    1    3    3    0    0  0.98203183551E-01  0.72622060642E+00 -0.12009354133E+02  0.12031692616E+02  0.51100000000E-03 0. -1.
        -11    1    3    3    0    0 -0.63065812349E+01  0.17688321837E+02 -0.20415252051E+02  0.27738641150E+02  0.51100000000E-03 0.  1.
        -12    1    3    3    0    0 -0.23419735056E+00  0.99703534759E+01  0.40352328801E+01  0.10758526908E+02  0.00000000000E+00 0.  1.
</event>
<event>
 7    1  0.4971907E-013  0.5052886E+02  0.7816164E-02  0.1300439E+00
        -11   -1    0    0    0    0  0.00000000000E+00  0.00000000000E+00  0.45593999997E+02  0.45594000000E+02  0.51100000000E-03 0. -1.
         11   -1    0    0    0    0 -0.00000000000E+00 -0.00000000000E+00 -0.45593999997E+02  0.45594000000E+02  0.51100000000E-03 0.  1.
    9900012    2    1    2    0    0  0.26122390097E+02 -0.86485356353E+01 -0.29933084529E+02  0.50528856103E+02  0.29999988611E+02 0.  0.
         12    1    1    2    0    0 -0.26122390097E+02  0.86485356353E+01  0.29933084529E+02  0.40659143897E+02  0.00000000000E+00 0. -1.
         11    1    3    3    0    0  0.16513705240E+02  0.46923294445E+01 -0.45982095684E+01  0.17772561657E+02  0.51100000000E-03 0. -1.
        -11    1    3    3    0    0 -0.20356941417E+01  0.19717024429E+00 -0.39545139780E+00  0.20831007688E+01  0.51100000000E-03 0.  1.
        -12    1    3    3    0    0  0.11644378999E+02 -0.13538035324E+02 -0.24939423563E+02  0.30673193677E+02  0.00000000000E+00 0.  1.
</event>
<event>
 7    1  0.4971907E-013  0.5052885E+02  0.7816164E-02  0.1300439E+00
        -11   -1    0    0    0    0  0.00000000000E+00  0.00000000000E+00  0.45593999997E+02  0.45594000000E+02  0.51100000000E-03 0.  1.
         11   -1    0    0    0    0 -0.00000000000E+00 -0.00000000000E+00 -0.45593999997E+02  0.45594000000E+02  0.51100000000E-03 0. -1.
    9900012    2    1    2    0    0  0.99969543712E+01 -0.11978442817E+02  0.37546561233E+02  0.50528850360E+02  0.29999971154E+02 0.  0.
         12    1    1    2    0    0 -0.99969543712E+01  0.11978442817E+02 -0.37546561233E+02  0.40659149640E+02  0.00000000000E+00 0. -1.
         11    1    3    3    0    0 -0.84007251229E+01 -0.97615922486E+01  0.98083298300E+01  0.16188397084E+02  0.51100000000E-03 0. -1.
        -11    1    3    3    0    0  0.27702285905E+01 -0.23790100455E+01  0.10278572758E+02  0.10907928926E+02  0.51100000000E-03 0.  1.
         12    1    3    3    0    0  0.15627450904E+02  0.16215947706E+00  0.17459658645E+02  0.23432524351E+02  0.00000000000E+00 0. -1.
</event>
<event>
 7    1  0.4971907E-013  0.5052887E+02  0.7816164E-02  0.1300439E+00
        -11   -1    0    0    0    0  0.00000000000E+00  0.00000000000E+00  0.45593999997E+02  0.45594000000E+02  0.51100000000E-03 0.  1.
         11   -1    0    0    0    0 -0.00000000000E+00 -0.00000000000E+00 -0.45593999997E+02  0.45594000000E+02  0.51100000000E-03 0. -1.
    9900012    2    1    2    0    0 -0.98695836292E+01 -0.14010013634E+02  0.36871064733E+02  0.50528873379E+02  0.30000041124E+02 0.  0.
         12    1    1    2    0    0  0.98695836292E+01  0.14010013634E+02 -0.36871064733E+02  0.40659126621E+02  0.00000000000E+00 0. -1.
         11    1    3    3    0    0 -0.13225016871E+01  0.72965133846E+01  0.96374270153E+01  0.12160103537E+02  0.51100000000E-03 0. -1.
        -11    1    3    3    0    0 -0.76336122435E+01 -0.23715812420E+01  0.67854029965E+01  0.10485138414E+02  0.51100000000E-03 0.  1.
        -12    1    3    3    0    0 -0.91346969858E+00 -0.18934945777E+02  0.20448234721E+02  0.27883631429E+02  0.00000000000E+00 0.  1.
</event>
<event>
 7    1  0.4971907E-013  0.5052878E+02  0.7816164E-02  0.1300439E+00
        -11   -1    0    0    0    0  0.00000000000E+00  0.00000000000E+00  0.45593999997E+02  0.45594000000E+02  0.51100000000E-03 0.  1.
         11   -1    0    0    0    0 -0.00000000000E+00 -0.00000000000E+00 -0.45593999997E+02  0.45594000000E+02  0.51100000000E-03 0. -1.
    9900012    2    1    2    0    0  0.18174579575E+02 -0.18209658599E+02  0.31484364464E+02  0.50528779462E+02  0.29999755653E+02 0.  0.
         12    1    1    2    0    0 -0.18174579575E+02  0.18209658599E+02 -0.31484364464E+02  0.40659220538E+02  0.00000000000E+00 0. -1.
         11    1    3    3    0    0 -0.70137783706E+01 -0.99333065922E+01  0.91260926331E+01  0.15203592796E+02  0.51100000000E-03 0. -1.
        -11    1    3    3    0    0  0.49962659816E+01 -0.63658322337E+00  0.13796215899E+01  0.52221899574E+01  0.51100000000E-03 0.  1.
        -12    1    3    3    0    0  0.20192091964E+02 -0.76397687834E+01  0.20978650241E+02  0.30102996709E+02  0.00000000000E+00 0.  1.
</event>
<event>
 7    1  0.4971907E-013  0.5052887E+02  0.7816164E-02  0.1300439E+00
        -11   -1    0    0    0    0  0.00000000000E+00  0.00000000000E+00  0.45593999997E+02  0.45594000000E+02  0.51100000000E-03 0. -1.
         11   -1    0    0    0    0 -0.00000000000E+00 -0.00000000000E+00 -0.45593999997E+02  0.45594000000E+02  0.51100000000E-03 0.  1.
    9900012    2    1    2    0    0  0.16249593287E+02 -0.36003107518E+02 -0.96380557044E+01  0.50528866331E+02  0.30000019700E+02 0.  0.
         12    1    1    2    0    0 -0.16249593287E+02  0.36003107518E+02  0.96380557044E+01  0.40659133669E+02  0.00000000000E+00 0. -1.
         11    1    3    3    0    0  0.18141695505E+01 -0.70640229458E+01  0.49404582773E+01  0.88090725725E+01  0.51100000000E-03 0.  1.
        -11    1    3    3    0    0 -0.40754065756E+01 -0.39654225529E+01  0.25448346127E+01  0.62297430322E+01  0.51100000000E-03 0. -1.
        -12    1    3    3    0    0  0.18510830312E+02 -0.24973662019E+02 -0.17123348594E+02  0.35490050727E+02  0.00000000000E+00 0.  1.
</event>
<event>
 7    1  0.4971907E-013  0.5052886E+02  0.7816164E-02  0.1300439E+00
        -11   -1    0    0    0    0  0.00000000000E+00  0.00000000000E+00  0.45593999997E+02  0.45594000000E+02  0.51100000000E-03 0. -1.
         11   -1    0    0    0    0 -0.00000000000E+00 -0.00000000000E+00 -0.45593999997E+02  0.45594000000E+02  0.51100000000E-03 0.  1.
    9900012    2    1    2    0    0 -0.39826647981E+02 -0.61638721179E+01 -0.53861184637E+01  0.50528862269E+02  0.30000007353E+02 0.  0.
         12    1    1    2    0    0  0.39826647981E+02  0.61638721179E+01  0.53861184637E+01  0.40659137731E+02  0.00000000000E+00 0. -1.
         11    1    3    3    0    0 -0.49232426271E+01  0.24364512627E+01 -0.29466187311E+01  0.62335523522E+01  0.51100000000E-03 0. -1.
        -11    1    3    3    0    0 -0.17163476282E+02  0.14522606951E+01 -0.12765550940E+02  0.21439525887E+02  0.51100000000E-03 0.  1.
        -12    1    3    3    0    0 -0.17739929072E+02 -0.10052584076E+02  0.10326051207E+02  0.22855784030E+02  0.00000000000E+00 0.  1.
</event>
<event>
 7    1  0.4971907E-013  0.5052886E+02  0.7816164E-02  0.1300439E+00
        -11   -1    0    0    0    0  0.00000000000E+00  0.00000000000E+00  0.45593999997E+02  0.45594000000E+02  0.51100000000E-03 0.  1.
         11   -1    0    0    0    0 -0.00000000000E+00 -0.00000000000E+00 -0.45593999997E+02  0.45594000000E+02  0.51100000000E-03 0. -1.
    9900012    2    1    2    0    0  0.74147280852E+01 -0.29179119277E+02  0.27327025933E+02  0.50528861535E+02  0.30000005122E+02 0.  0.
         12    1    1    2    0    0 -0.74147280852E+01  0.29179119277E+02 -0.27327025933E+02  0.40659138465E+02  0.00000000000E+00 0. -1.
         11    1    3    3    0    0  0.31891965761E+01  0.12129893092E+01  0.30251307682E+00  0.34254681852E+01  0.51100000000E-03 0. -1.
        -11    1    3    3    0    0  0.32996434762E+01 -0.58918672312E+01  0.20713443290E+02  0.21786428797E+02  0.51100000000E-03 0.  1.
        -12    1    3    3    0    0  0.92588803285E+00 -0.24500241355E+02  0.63110695663E+01  0.25316964553E+02  0.00000000000E+00 0.  1.
</event>
<event>
 7    1  0.4971907E-013  0.5052886E+02  0.7816164E-02  0.1300439E+00
        -11   -1    0    0    0    0  0.00000000000E+00  0.00000000000E+00  0.45593999997E+02  0.45594000000E+02  0.51100000000E-03 0.  1.
         11   -1    0    0    0    0 -0.00000000000E+00 -0.00000000000E+00 -0.45593999997E+02  0.45594000000E+02  0.51100000000E-03 0. -1.
    9900012    2    1    2    0    0  0.33913234366E+01  0.18156801100E+02  0.36221471936E+02  0.50528861666E+02  0.30000005520E+02 0.  0.
         12    1    1    2    0    0 -0.33913234366E+01 -0.18156801100E+02 -0.36221471936E+02  0.40659138334E+02  0.00000000000E+00 0. -1.
         11    1    3    3    0    0  0.79461522609E+01  0.11024708290E+02  0.16770157184E+02  0.21585265828E+02  0.51100000000E-03 0. -1.
        -11    1    3    3    0    0 -0.49787706729E+01  0.73102917624E+00  0.21599847664E+02  0.22178277220E+02  0.51100000000E-03 0.  1.
         12    1    3    3    0    0  0.42394184856E+00  0.64010636337E+01 -0.21485329117E+01  0.67653186182E+01  0.00000000000E+00 0. -1.
</event>
<event>
 7    1  0.4971907E-013  0.5052886E+02  0.7816164E-02  0.1300439E+00
        -11   -1    0    0    0    0  0.00000000000E+00  0.00000000000E+00  0.45593999997E+02  0.45594000000E+02  0.51100000000E-03 0. -1.
         11   -1    0    0    0    0 -0.00000000000E+00 -0.00000000000E+00 -0.45593999997E+02  0.45594000000E+02  0.51100000000E-03 0.  1.
    9900012    2    1    2    0    0 -0.11559059072E+02 -0.26170200603E+02 -0.28890734517E+02  0.50528858505E+02  0.29999995910E+02 0.  0.
         12    1    1    2    0    0  0.11559059072E+02  0.26170200603E+02  0.28890734517E+02  0.40659141495E+02  0.00000000000E+00 0. -1.
         11    1    3    3    0    0 -0.11147250399E+02 -0.12778152563E+02 -0.13838253732E+01  0.17013446074E+02  0.51100000000E-03 0. -1.
        -11    1    3    3    0    0  0.11695629212E+01 -0.90962149032E+01 -0.47992321273E+01  0.10350924223E+02  0.51100000000E-03 0.  1.
         12    1    3    3    0    0 -0.15813715949E+01 -0.42958331361E+01 -0.22707677016E+02  0.23164488208E+02  0.00000000000E+00 0. -1.
</event>
<event>
 7    1  0.4971907E-013  0.5052885E+02  0.7816164E-02  0.1300439E+00
        -11   -1    0    0    0    0  0.00000000000E+00  0.00000000000E+00  0.45593999997E+02  0.45594000000E+02  0.51100000000E-03 0. -1.
         11   -1    0    0    0    0 -0.00000000000E+00 -0.00000000000E+00 -0.45593999997E+02  0.45594000000E+02  0.51100000000E-03 0.  1.
    9900012    2    1    2    0    0 -0.30324494429E+02  0.27081603097E+02  0.42176992248E+00  0.50528854921E+02  0.29999985019E+02 0.  0.
         12    1    1    2    0    0  0.30324494429E+02 -0.27081603097E+02 -0.42176992248E+00  0.40659145079E+02  0.00000000000E+00 0. -1.
         11    1    3    3    0    0 -0.81936887468E+01  0.97158030183E+01  0.14319191737E+01  0.12789986566E+02  0.51100000000E-03 0.  1.
        -11    1    3    3    0    0  0.21615226203E+01  0.11724273567E+02  0.34353327221E+01  0.12406944905E+02  0.51100000000E-03 0. -1.
         12    1    3    3    0    0 -0.24292328302E+02  0.56415265120E+01 -0.44454819733E+01  0.25331923451E+02  0.00000000000E+00 0. -1.
</event>
<event>
 7    1  0.4971907E-013  0.5052886E+02  0.7816164E-02  0.1300439E+00
        -11   -1    0    0    0    0  0.00000000000E+00  0.00000000000E+00  0.45593999997E+02  0.45594000000E+02  0.51100000000E-03 0. -1.
         11   -1    0    0    0    0 -0.00000000000E+00 -0.00000000000E+00 -0.45593999997E+02  0.45594000000E+02  0.51100000000E-03 0.  1.
    9900012    2    1    2    0    0  0.45274282635E+01  0.16470567993E+02 -0.36896993687E+02  0.50528863760E+02  0.30000011884E+02 0.  0.
         12    1    1    2    0    0 -0.45274282635E+01 -0.16470567993E+02  0.36896993687E+02  0.40659136240E+02  0.00000000000E+00 0. -1.
         11    1    3    3    0    0  0.15199304863E+01  0.56080455513E+01 -0.29739321524E+01  0.65272227093E+01  0.51100000000E-03 0. -1.
        -11    1    3    3    0    0  0.29385690080E+01  0.14657151681E+02 -0.64723839560E+01  0.16289844614E+02  0.51100000000E-03 0.  1.
        -12    1    3    3    0    0  0.68928769198E-01 -0.37946292391E+01 -0.27450677578E+02  0.27711796437E+02  0.00000000000E+00 0.  1.
</event>
<event>
 7    1  0.4971907E-013  0.5052886E+02  0.7816164E-02  0.1300439E+00
        -11   -1    0    0    0    0  0.00000000000E+00  0.00000000000E+00  0.45593999997E+02  0.45594000000E+02  0.51100000000E-03 0.  1.
         11   -1    0    0    0    0 -0.00000000000E+00 -0.00000000000E+00 -0.45593999997E+02  0.45594000000E+02  0.51100000000E-03 0. -1.
    9900012    2    1    2    0    0  0.35856925285E+02 -0.15979810458E+02  0.10587353905E+02  0.50528862086E+02  0.30000006798E+02 0.  0.
         12    1    1    2    0    0 -0.35856925285E+02  0.15979810458E+02 -0.10587353905E+02  0.40659137914E+02  0.00000000000E+00 0. -1.
         11    1    3    3    0    0  0.21681172952E+02 -0.15282205861E+02  0.98938794759E+01  0.28310915349E+02  0.51100000000E-03 0. -1.
        -11    1    3    3    0    0  0.17635982852E+02 -0.18388529377E+01 -0.17700190815E+01  0.17819714899E+02  0.51100000000E-03 0.  1.
         12    1    3    3    0    0 -0.34602305195E+01  0.11412483402E+01  0.24634935110E+01  0.43982318380E+01  0.00000000000E+00 0. -1.
</event>
<event>
 7    1  0.4971907E-013  0.5052885E+02  0.7816164E-02  0.1300439E+00
        -11   -1    0    0    0    0  0.00000000000E+00  0.00000000000E+00  0.45593999997E+02  0.45594000000E+02  0.51100000000E-03 0.  1.
         11   -1    0    0    0    0 -0.00000000000E+00 -0.00000000000E+00 -0.45593999997E+02  0.45594000000E+02  0.51100000000E-03 0. -1.
    9900012    2    1    2    0    0  0.37897322747E+02  0.62645724487E+01  0.13330950528E+02  0.50528853657E+02  0.29999981175E+02 0.  0.
         12    1    1    2    0    0 -0.37897322747E+02 -0.62645724487E+01 -0.13330950528E+02  0.40659146343E+02  0.00000000000E+00 0. -1.
         11    1    3    3    0    0 -0.12969496471E+01  0.38488750208E+01  0.34733239794E+01  0.53441460534E+01  0.51100000000E-03 0. -1.
        -11    1    3    3    0    0  0.16619343561E+02  0.10268060618E+02  0.83208249151E+01  0.21233741469E+02  0.51100000000E-03 0.  1.
         12    1    3    3    0    0  0.22574928834E+02 -0.78523631900E+01  0.15368016332E+01  0.23950966135E+02  0.00000000000E+00 0. -1.
</event>
<event>
 7    1  0.4971907E-013  0.5052887E+02  0.7816164E-02  0.1300439E+00
        -11   -1    0    0    0    0  0.00000000000E+00  0.00000000000E+00  0.45593999997E+02  0.45594000000E+02  0.51100000000E-03 0.  1.
         11   -1    0    0    0    0 -0.00000000000E+00 -0.00000000000E+00 -0.45593999997E+02  0.45594000000E+02  0.51100000000E-03 0. -1.
    9900012    2    1    2    0    0 -0.12671681401E+00  0.12707541508E+02  0.38622112009E+02  0.50528865671E+02  0.30000017693E+02 0.  0.
         12    1    1    2    0    0  0.12671681401E+00 -0.12707541508E+02 -0.38622112009E+02  0.40659134329E+02  0.00000000000E+00 0. -1.
         11    1    3    3    0    0  0.94556166358E+01  0.19536088064E-01  0.11112656639E+02  0.14591100214E+02  0.51100000000E-03 0. -1.
        -11    1    3    3    0    0  0.63750760576E+00  0.11481900921E+02  0.20439632400E+02  0.23452484679E+02  0.51100000000E-03 0.  1.
         12    1    3    3    0    0 -0.10219841056E+02  0.12061044984E+01  0.70698229707E+01  0.12485280778E+02  0.00000000000E+00 0. -1.
</event>
<event>
 7    1  0.4971907E-013  0.5052886E+02  0.7816164E-02  0.1300439E+00
        -11   -1    0    0    0    0  0.00000000000E+00  0.00000000000E+00  0.45593999997E+02  0.45594000000E+02  0.51100000000E-03 0. -1.
         11   -1    0    0    0    0 -0.00000000000E+00 -0.00000000000E+00 -0.45593999997E+02  0.45594000000E+02  0.51100000000E-03 0.  1.
    9900012    2    1    2    0    0  0.38854980495E+02 -0.37063999469E+01 -0.11389431405E+02  0.50528855179E+02  0.29999985802E+02 0.  0.
         12    1    1    2    0    0 -0.38854980495E+02  0.37063999469E+01  0.11389431405E+02  0.40659144821E+02  0.00000000000E+00 0. -1.
         11    1    3    3    0    0 -0.22099629918E+01 -0.54453832336E+01  0.21920701807E+00  0.58808321659E+01  0.51100000000E-03 0. -1.
        -11    1    3    3    0    0  0.76941986939E+01 -0.16722935661E+01 -0.74621249852E+01  0.10848067518E+02  0.51100000000E-03 0.  1.
        -12    1    3    3    0    0  0.33370744793E+02  0.34112768528E+01 -0.41465134383E+01  0.33799955495E+02  0.00000000000E+00 0.  1.
</event>
<event>
 7    1  0.4971907E-013  0.5052891E+02  0.7816164E-02  0.1300439E+00
        -11   -1    0    0    0    0  0.00000000000E+00  0.00000000000E+00  0.45593999997E+02  0.45594000000E+02  0.51100000000E-03 0. -1.
         11   -1    0    0    0    0 -0.00000000000E+00 -0.00000000000E+00 -0.45593999997E+02  0.45594000000E+02  0.51100000000E-03 0.  1.
    9900012    2    1    2    0    0  0.73460522169E+00 -0.36588919069E+02 -0.17716450478E+02  0.50528914164E+02  0.30000165093E+02 0.  0.
         12    1    1    2    0    0 -0.73460522169E+00  0.36588919069E+02  0.17716450478E+02  0.40659085836E+02  0.00000000000E+00 0. -1.
         11    1    3    3    0    0 -0.48813714401E+01 -0.33910130041E-01  0.20997239373E+01  0.53139230241E+01  0.51100000000E-03 0. -1.
        -11    1    3    3    0    0  0.98473305689E+01 -0.15670996306E+02 -0.47184544089E+01  0.19100100964E+02  0.51100000000E-03 0.  1.
         12    1    3    3    0    0 -0.42313539072E+01 -0.20884012633E+02 -0.15097720007E+02  0.26114890177E+02  0.00000000000E+00 0. -1.
</event>
<event>
 7    1  0.4971907E-013  0.5052886E+02  0.7816164E-02  0.1300439E+00
        -11   -1    0    0    0    0  0.00000000000E+00  0.00000000000E+00  0.45593999997E+02  0.45594000000E+02  0.51100000000E-03 0. -1.
         11   -1    0    0    0    0 -0.00000000000E+00 -0.00000000000E+00 -0.45593999997E+02  0.45594000000E+02  0.51100000000E-03 0.  1.
    9900012    2    1    2    0    0  0.17523235135E+02 -0.35458508451E+02 -0.94231746627E+01  0.50528858200E+02  0.29999994984E+02 0.  0.
         12    1    1    2    0    0 -0.17523235135E+02  0.35458508451E+02  0.94231746627E+01  0.40659141800E+02  0.00000000000E+00 0. -1.
         11    1    3    3    0    0  0.49092712630E+01 -0.17354527397E+01 -0.72173078167E+01  0.88995658842E+01  0.51100000000E-03 0. -1.
        -11    1    3    3    0    0 -0.34099713362E+01 -0.20809845298E+01  0.39648850282E+01  0.56283847305E+01  0.51100000000E-03 0.  1.
        -12    1    3    3    0    0  0.16023935209E+02 -0.31642071182E+02 -0.61707518741E+01  0.36000907585E+02  0.00000000000E+00 0.  1.
</event>
<event>
 7    1  0.4971907E-013  0.5052886E+02  0.7816164E-02  0.1300439E+00
        -11   -1    0    0    0    0  0.00000000000E+00  0.00000000000E+00  0.45593999997E+02  0.45594000000E+02  0.51100000000E-03 0.  1.
         11   -1    0    0    0    0 -0.00000000000E+00 -0.00000000000E+00 -0.45593999997E+02  0.45594000000E+02  0.51100000000E-03 0. -1.
    9900012    2    1    2    0    0  0.35436122844E+02  0.16201069198E+02  0.11617770522E+02  0.50528855428E+02  0.29999986560E+02 0.  0.
         12    1    1    2    0    0 -0.35436122844E+02 -0.16201069198E+02 -0.11617770522E+02  0.40659144572E+02  0.00000000000E+00 0. -1.
         11    1    3    3    0    0  0.24884346977E+02  0.54153337121E+01  0.74927114272E+01  0.26546135095E+02  0.51100000000E-03 0. -1.
        -11    1    3    3    0    0  0.11876201715E+02  0.96290820570E+01  0.97203516428E+01  0.18117632979E+02  0.51100000000E-03 0.  1.
         12    1    3    3    0    0 -0.13244258475E+01  0.11566534288E+01 -0.55952925483E+01  0.58650873550E+01  0.00000000000E+00 0. -1.
</event>
<event>
 7    1  0.4971907E-013  0.5052886E+02  0.7816164E-02  0.1300439E+00
        -11   -1    0    0    0    0  0.00000000000E+00  0.00000000000E+00  0.45593999997E+02  0.45594000000E+02  0.51100000000E-03 0.  1.
         11   -1    0    0    0    0 -0.00000000000E+00 -0.00000000000E+00 -0.45593999997E+02  0.45594000000E+02  0.51100000000E-03 0. -1.
    9900012    2    1    2    0    0  0.30208399533E+02  0.10606898403E+02  0.25062167497E+02  0.50528856678E+02  0.29999990358E+02 0.  0.
         12    1    1    2    0    0 -0.30208399533E+02 -0.10606898403E+02 -0.25062167497E+02  0.40659143322E+02  0.00000000000E+00 0. -1.
         11    1    3    3    0    0  0.51821401954E+01  0.11699198177E+02  0.10004579353E+01  0.12834591203E+02  0.51100000000E-03 0. -1.
        -11    1    3    3    0    0  0.16666299443E+01  0.82787969935E+00  0.10399446653E+02  0.10564635873E+02  0.51100000000E-03 0.  1.
        -12    1    3    3    0    0  0.23359629393E+02 -0.19201794736E+01  0.13662262908E+02  0.27129629602E+02  0.00000000000E+00 0.  1.
</event>
<event>
 7    1  0.4971907E-013  0.5052883E+02  0.7816164E-02  0.1300439E+00
        -11   -1    0    0    0    0  0.00000000000E+00  0.00000000000E+00  0.45593999997E+02  0.45594000000E+02  0.51100000000E-03 0. -1.
         11   -1    0    0    0    0 -0.00000000000E+00 -0.00000000000E+00 -0.45593999997E+02  0.45594000000E+02  0.51100000000E-03 0.  1.
    9900012    2    1    2    0    0  0.22662675740E+02 -0.31239889985E+02 -0.12792198875E+02  0.50528831907E+02  0.29999915064E+02 0.  0.
         12    1    1    2    0    0 -0.22662675740E+02  0.31239889985E+02  0.12792198875E+02  0.40659168093E+02  0.00000000000E+00 0. -1.
         11    1    3    3    0    0  0.34018580900E+01  0.12553395720E+01  0.25098634270E+01  0.44099807924E+01  0.51100000000E-03 0. -1.
        -11    1    3    3    0    0  0.18050656825E+02 -0.13608505979E+02 -0.15113305273E+02  0.27192455632E+02  0.51100000000E-03 0.  1.
         12    1    3    3    0    0  0.12101608257E+01 -0.18886723578E+02 -0.18875702970E+00  0.18926395482E+02  0.00000000000E+00 0. -1.
</event>
<event>
 7    1  0.4971907E-013  0.5052884E+02  0.7816164E-02  0.1300439E+00
        -11   -1    0    0    0    0  0.00000000000E+00  0.00000000000E+00  0.45593999997E+02  0.45594000000E+02  0.51100000000E-03 0. -1.
         11   -1    0    0    0    0 -0.00000000000E+00 -0.00000000000E+00 -0.45593999997E+02  0.45594000000E+02  0.51100000000E-03 0.  1.
    9900012    2    1    2    0    0 -0.59204181717E+01 -0.40217632443E+02 -0.81091996530E+00  0.50528844797E+02  0.29999954245E+02 0.  0.
         12    1    1    2    0    0  0.59204181717E+01  0.40217632443E+02  0.81091996530E+00  0.40659155203E+02  0.00000000000E+00 0. -1.
         11    1    3    3    0    0  0.73758573632E+01 -0.23132493221E+02  0.41353727005E+01  0.24629592406E+02  0.51100000000E-03 0. -1.
        -11    1    3    3    0    0 -0.26567090406E+01 -0.48996410818E+01  0.45026445936E+01  0.71650815944E+01  0.51100000000E-03 0.  1.
         12    1    3    3    0    0 -0.10639566494E+02 -0.12185498140E+02 -0.94489372593E+01  0.18734170797E+02  0.00000000000E+00 0. -1.
</event>
<event>
 7    1  0.4971907E-013  0.5052887E+02  0.7816164E-02  0.1300439E+00
        -11   -1    0    0    0    0  0.00000000000E+00  0.00000000000E+00  0.45593999997E+02  0.45594000000E+02  0.51100000000E-03 0. -1.
         11   -1    0    0    0    0 -0.00000000000E+00 -0.00000000000E+00 -0.45593999997E+02  0.45594000000E+02  0.51100000000E-03 0.  1.
    9900012    2    1    2    0    0  0.36476722468E+02  0.13225219784E+02 -0.12153494305E+02  0.50528866411E+02  0.30000019944E+02 0.  0.
         12    1    1    2    0    0 -0.36476722468E+02 -0.13225219784E+02  0.12153494305E+02  0.40659133589E+02  0.00000000000E+00 0. -1.
         11    1    3    3    0    0  0.55807877140E+01  0.63119996861E+01 -0.66946032747E+01  0.10761238071E+02  0.51100000000E-03 0. -1.
        -11    1    3    3    0    0  0.15218421552E+02 -0.64469359275E+01 -0.90740785065E+01  0.18854766994E+02  0.51100000000E-03 0.  1.
         12    1    3    3    0    0  0.15677513202E+02  0.13360156025E+02  0.36151874765E+01  0.20912861347E+02  0.00000000000E+00 0. -1.
</event>
<event>
 7    1  0.4971907E-013  0.5052886E+02  0.7816164E-02  0.1300439E+00
        -11   -1    0    0    0    0  0.00000000000E+00  0.00000000000E+00  0.45593999997E+02  0.45594000000E+02  0.51100000000E-03 0.  1.
         11   -1    0    0    0    0 -0.00000000000E+00 -0.00000000000E+00 -0.45593999997E+02  0.45594000000E+02  0.51100000000E-03 0. -1.
    9900012    2    1    2    0    0  0.23961821326E+02 -0.19531007500E+02  0.26410922206E+02  0.50528856539E+02  0.29999989935E+02 0.  0.
         12    1    1    2    0    0 -0.23961821326E+02  0.19531007500E+02 -0.26410922206E+02  0.40659143461E+02  0.00000000000E+00 0. -1.
         11    1    3    3    0    0  0.18171558903E+02 -0.38178984727E+01  0.11442913015E+02  0.21811055918E+02  0.51100000000E-03 0. -1.
        -11    1    3    3    0    0  0.51322142439E+01 -0.13457128951E+02  0.19125575386E+02  0.23942046211E+02  0.51100000000E-03 0.  1.
         12    1    3    3    0    0  0.65804817958E+00 -0.22559800766E+01 -0.41575661956E+01  0.47757544099E+01  0.00000000000E+00 0. -1.
</event>
<event>
 7    1  0.4971907E-013  0.5052884E+02  0.7816164E-02  0.1300439E+00
        -11   -1    0    0    0    0  0.00000000000E+00  0.00000000000E+00  0.45593999997E+02  0.45594000000E+02  0.51100000000E-03 0. -1.
         11   -1    0    0    0    0 -0.00000000000E+00 -0.00000000000E+00 -0.45593999997E+02  0.45594000000E+02  0.51100000000E-03 0.  1.
    9900012    2    1    2    0    0 -0.35323501330E+02  0.10485511155E+01  0.20107658111E+02  0.50528842110E+02  0.29999946077E+02 0.  0.
         12    1    1    2    0    0  0.35323501330E+02 -0.10485511155E+01 -0.20107658111E+02  0.40659157890E+02  0.00000000000E+00 0. -1.
         11    1    3    3    0    0 -0.17821827982E+02  0.45473238961E+01  0.15205202947E+02  0.23864071408E+02  0.51100000000E-03 0. -1.
        -11    1    3    3    0    0 -0.16470194740E+02 -0.71178516436E+01  0.98345782571E+01  0.20460939777E+02  0.51100000000E-03 0.  1.
         12    1    3    3    0    0 -0.10314786074E+01  0.36190788630E+01 -0.49321230936E+01  0.62038309249E+01  0.00000000000E+00 0. -1.
</event>
<event>
 7    1  0.4971907E-013  0.5052886E+02  0.7816164E-02  0.1300439E+00
        -11   -1    0    0    0    0  0.00000000000E+00  0.00000000000E+00  0.45593999997E+02  0.45594000000E+02  0.51100000000E-03 0. -1.
         11   -1    0    0    0    0 -0.00000000000E+00 -0.00000000000E+00 -0.45593999997E+02  0.45594000000E+02  0.51100000000E-03 0.  1.
    9900012    2    1    2    0    0  0.20992521164E+02  0.24785160452E+02 -0.24457628477E+02  0.50528859402E+02  0.29999998637E+02 0.  0.
         12    1    1    2    0    0 -0.20992521164E+02 -0.24785160452E+02  0.24457628477E+02  0.40659140598E+02  0.00000000000E+00 0. -1.
         11    1    3    3    0    0 -0.44701878773E+01  0.10555526069E+02 -0.36107225116E+01  0.12018278894E+02  0.51100000000E-03 0. -1.
        -11    1    3    3    0    0  0.74466325459E+01  0.79244738127E+01 -0.15039782801E+02  0.18559221116E+02  0.51100000000E-03 0.  1.
         12    1    3    3    0    0  0.18016076495E+02  0.63051605704E+01 -0.58071231645E+01  0.19951359391E+02  0.00000000000E+00 0. -1.
</event>
<event>
 7    1  0.4971907E-013  0.5052887E+02  0.7816164E-02  0.1300439E+00
        -11   -1    0    0    0    0  0.00000000000E+00  0.00000000000E+00  0.45593999997E+02  0.45594000000E+02  0.51100000000E-03 0.  1.
         11   -1    0    0    0    0 -0.00000000000E+00 -0.00000000000E+00 -0.45593999997E+02  0.45594000000E+02  0.51100000000E-03 0. -1.
    9900012    2    1    2    0    0  0.11397174832E+02 -0.18854302930E+02  0.34172863034E+02  0.50528869401E+02  0.30000029032E+02 0.  0.
         12    1    1    2    0    0 -0.11397174832E+02  0.18854302930E+02 -0.34172863034E+02  0.40659130599E+02  0.00000000000E+00 0. -1.
         11    1    3    3    0    0  0.89485101399E+00 -0.30662241128E+01 -0.37640757575E+01  0.49366745099E+01  0.51100000000E-03 0. -1.
        -11    1    3    3    0    0  0.68552171778E+01  0.17691107948E+01  0.78866879974E+01  0.10598283040E+02  0.51100000000E-03 0.  1.
         12    1    3    3    0    0  0.36471066405E+01 -0.17557189612E+02  0.30050250794E+02  0.34993911852E+02  0.00000000000E+00 0. -1.
</event>
<event>
 7    1  0.4971907E-013  0.5052887E+02  0.7816164E-02  0.1300439E+00
        -11   -1    0    0    0    0  0.00000000000E+00  0.00000000000E+00  0.45593999997E+02  0.45594000000E+02  0.51100000000E-03 0.  1.
         11   -1    0    0    0    0 -0.00000000000E+00 -0.00000000000E+00 -0.45593999997E+02  0.45594000000E+02  0.51100000000E-03 0. -1.
    9900012    2    1    2    0    0  0.27071263990E+02 -0.30205995715E+01  0.30185887661E+02  0.50528866097E+02  0.30000018989E+02 0.  0.
         12    1    1    2    0    0 -0.27071263990E+02  0.30205995715E+01 -0.30185887661E+02  0.40659133903E+02  0.00000000000E+00 0. -1.
         11    1    3    3    0    0  0.77107360929E+01 -0.10764647109E+02  0.85533346660E+01  0.15763648456E+02  0.51100000000E-03 0. -1.
        -11    1    3    3    0    0  0.62550741555E+01  0.21322677724E+00  0.18226462623E+02  0.19271101638E+02  0.51100000000E-03 0.  1.
        -12    1    3    3    0    0  0.13105453742E+02  0.75308207599E+01  0.34060903728E+01  0.15494116004E+02  0.00000000000E+00 0.  1.
</event>
<event>
 7    1  0.4971907E-013  0.5052884E+02  0.7816164E-02  0.1300439E+00
        -11   -1    0    0    0    0  0.00000000000E+00  0.00000000000E+00  0.45593999997E+02  0.45594000000E+02  0.51100000000E-03 0. -1.
         11   -1    0    0    0    0 -0.00000000000E+00 -0.00000000000E+00 -0.45593999997E+02  0.45594000000E+02  0.51100000000E-03 0.  1.
    9900012    2    1    2    0    0  0.39490313353E+02 -0.59962057770E+00 -0.96603808173E+01  0.50528839273E+02  0.29999937453E+02 0.  0.
         12    1    1    2    0    0 -0.39490313353E+02  0.59962057770E+00  0.96603808173E+01  0.40659160727E+02  0.00000000000E+00 0. -1.
         11    1    3    3    0    0  0.21060922191E+01  0.79487773415E+01 -0.27241971319E+00  0.82275694116E+01  0.51100000000E-03 0. -1.
        -11    1    3    3    0    0  0.16110800754E+02  0.38418354230E+01 -0.49447097802E+01  0.17284899636E+02  0.51100000000E-03 0.  1.
         12    1    3    3    0    0  0.21273420379E+02 -0.12390233342E+02 -0.44432513239E+01  0.25016370225E+02  0.00000000000E+00 0. -1.
</event>
<event>
 7    1  0.4971907E-013  0.5052886E+02  0.7816164E-02  0.1300439E+00
        -11   -1    0    0    0    0  0.00000000000E+00  0.00000000000E+00  0.45593999997E+02  0.45594000000E+02  0.51100000000E-03 0.  1.
         11   -1    0    0    0    0 -0.00000000000E+00 -0.00000000000E+00 -0.45593999997E+02  0.45594000000E+02  0.51100000000E-03 0. -1.
    9900012    2    1    2    0    0 -0.15026331066E+02 -0.16777093788E+02  0.33851210332E+02  0.50528856598E+02  0.29999990115E+02 0.  0.
         12    1    1    2    0    0  0.15026331066E+02  0.16777093788E+02 -0.33851210332E+02  0.40659143402E+02  0.00000000000E+00 0. -1.
         11    1    3    3    0    0 -0.78868360303E+01 -0.20413637725E+01  0.19190110812E+01  0.83697044400E+01  0.51100000000E-03 0. -1.
        -11    1    3    3    0    0  0.70113453078E+01 -0.11867643606E+01  0.43802126502E+01  0.83518642107E+01  0.51100000000E-03 0.  1.
         12    1    3    3    0    0 -0.14150840343E+02 -0.13548965655E+02  0.27551986600E+02  0.33807287947E+02  0.00000000000E+00 0. -1.
</event>
<event>
 7    1  0.4971907E-013  0.5052887E+02  0.7816164E-02  0.1300439E+00
        -11   -1    0    0    0    0  0.00000000000E+00  0.00000000000E+00  0.45593999997E+02  0.45594000000E+02  0.51100000000E-03 0. -1.
         11   -1    0    0    0    0 -0.00000000000E+00 -0.00000000000E+00 -0.45593999997E+02  0.45594000000E+02  0.51100000000E-03 0.  1.
    9900012    2    1    2    0    0  0.38995512579E+02 -0.78664643288E+01  0.84044015634E+01  0.50528865380E+02  0.30000016811E+02 0.  0.
         12    1    1    2    0    0 -0.38995512579E+02  0.78664643288E+01 -0.84044015634E+01  0.40659134620E+02  0.00000000000E+00 0. -1.
         11    1    3    3    0    0 -0.57774093144E+00 -0.61752149576E+00 -0.10045384858E+01  0.13130937561E+01  0.51100000000E-03 0. -1.
        -11    1    3    3    0    0  0.11123495418E+02 -0.15135057394E+02  0.34165949419E+01  0.19091234478E+02  0.51100000000E-03 0.  1.
        -12    1    3    3    0    0  0.28449758093E+02  0.78861145609E+01  0.59923451073E+01  0.30124537146E+02  0.00000000000E+00 0.  1.
</event>
<event>
 7    1  0.4971907E-013  0.5052886E+02  0.7816164E-02  0.1300439E+00
        -11   -1    0    0    0    0  0.00000000000E+00  0.00000000000E+00  0.45593999997E+02  0.45594000000E+02  0.51100000000E-03 0.  1.
         11   -1    0    0    0    0 -0.00000000000E+00 -0.00000000000E+00 -0.45593999997E+02  0.45594000000E+02  0.51100000000E-03 0. -1.
    9900012    2    1    2    0    0  0.12243353568E+02  0.36043950816E+02 -0.14286331483E+02  0.50528863705E+02  0.30000011717E+02 0.  0.
         12    1    1    2    0    0 -0.12243353568E+02 -0.36043950816E+02  0.14286331483E+02  0.40659136295E+02  0.00000000000E+00 0. -1.
         11    1    3    3    0    0  0.19104888399E+01  0.18561645708E+02  0.26700051314E+01  0.18849763570E+02  0.51100000000E-03 0. -1.
        -11    1    3    3    0    0  0.11592999776E+02  0.61442376643E+01 -0.26572793960E+01  0.13386950150E+02  0.51100000000E-03 0.  1.
         12    1    3    3    0    0 -0.12601350474E+01  0.11338067444E+02 -0.14299057219E+02  0.18292149984E+02  0.00000000000E+00 0. -1.
</event>
<event>
 7    1  0.4971907E-013  0.5052879E+02  0.7816164E-02  0.1300439E+00
        -11   -1    0    0    0    0  0.00000000000E+00  0.00000000000E+00  0.45593999997E+02  0.45594000000E+02  0.51100000000E-03 0.  1.
         11   -1    0    0    0    0 -0.00000000000E+00 -0.00000000000E+00 -0.45593999997E+02  0.45594000000E+02  0.51100000000E-03 0. -1.
    9900012    2    1    2    0    0  0.21749829968E+02  0.70399656325E+01  0.33623726832E+02  0.50528791623E+02  0.29999792617E+02 0.  0.
         12    1    1    2    0    0 -0.21749829968E+02 -0.70399656325E+01 -0.33623726832E+02  0.40659208377E+02  0.00000000000E+00 0. -1.
         11    1    3    3    0    0 -0.30289529138E+01  0.10131539857E+02  0.11889612132E+02  0.15911804817E+02  0.51100000000E-03 0. -1.
        -11    1    3    3    0    0 -0.88146391984E+00  0.52993443791E+00  0.78312999373E+00  0.12927111041E+01  0.51100000000E-03 0.  1.
        -12    1    3    3    0    0  0.25660246802E+02 -0.36215086622E+01  0.20950984706E+02  0.33324275702E+02  0.00000000000E+00 0.  1.
</event>
<event>
 7    1  0.4971907E-013  0.5052886E+02  0.7816164E-02  0.1300439E+00
        -11   -1    0    0    0    0  0.00000000000E+00  0.00000000000E+00  0.45593999997E+02  0.45594000000E+02  0.51100000000E-03 0. -1.
         11   -1    0    0    0    0 -0.00000000000E+00 -0.00000000000E+00 -0.45593999997E+02  0.45594000000E+02  0.51100000000E-03 0.  1.
    9900012    2    1    2    0    0 -0.44515470008E+01 -0.36832266911E+02  0.16635304176E+02  0.50528862017E+02  0.30000006587E+02 0.  0.
         12    1    1    2    0    0  0.44515470008E+01  0.36832266911E+02 -0.16635304176E+02  0.40659137983E+02  0.00000000000E+00 0. -1.
         11    1    3    3    0    0 -0.10552413782E+02 -0.86799273545E+01  0.18528995635E+01  0.13788684221E+02  0.51100000000E-03 0. -1.
        -11    1    3    3    0    0  0.63263605290E+01 -0.11033861497E+02 -0.18719493687E+01  0.12855859822E+02  0.51100000000E-03 0.  1.
         12    1    3    3    0    0 -0.22549374794E+00 -0.17118478060E+02  0.16654353982E+02  0.23884317973E+02  0.00000000000E+00 0. -1.
</event>
<event>
 7    1  0.4971907E-013  0.5052886E+02  0.7816164E-02  0.1300439E+00
        -11   -1    0    0    0    0  0.00000000000E+00  0.00000000000E+00  0.45593999997E+02  0.45594000000E+02  0.51100000000E-03 0.  1.
         11   -1    0    0    0    0 -0.00000000000E+00 -0.00000000000E+00 -0.45593999997E+02  0.45594000000E+02  0.51100000000E-03 0. -1.
    9900012    2    1    2    0    0  0.63279667662E+01 -0.20527420170E+02  0.34521698134E+02  0.50528858540E+02  0.29999996018E+02 0.  0.
         12    1    1    2    0    0 -0.63279667662E+01  0.20527420170E+02 -0.34521698134E+02  0.40659141460E+02  0.00000000000E+00 0. -1.
         11    1    3    3    0    0  0.22064849088E+00  0.42192147963E+01  0.14249905316E+02  0.14863050192E+02  0.51100000000E-03 0. -1.
        -11    1    3    3    0    0  0.41160993474E+01  0.38320626322E+00  0.30044889844E+01  0.51103889476E+01  0.51100000000E-03 0.  1.
         12    1    3    3    0    0  0.19912189280E+01 -0.25129841230E+02  0.17267303834E+02  0.30555419400E+02  0.00000000000E+00 0. -1.
</event>
<event>
 7    1  0.4971907E-013  0.5052886E+02  0.7816164E-02  0.1300439E+00
        -11   -1    0    0    0    0  0.00000000000E+00  0.00000000000E+00  0.45593999997E+02  0.45594000000E+02  0.51100000000E-03 0.  1.
         11   -1    0    0    0    0 -0.00000000000E+00 -0.00000000000E+00 -0.45593999997E+02  0.45594000000E+02  0.51100000000E-03 0. -1.
    9900012    2    1    2    0    0 -0.37987641604E+02  0.48726834216E+01  0.13651450421E+02  0.50528855187E+02  0.29999985826E+02 0.  0.
         12    1    1    2    0    0  0.37987641604E+02 -0.48726834216E+01 -0.13651450421E+02  0.40659144813E+02  0.00000000000E+00 0. -1.
         11    1    3    3    0    0 -0.60022093960E+01  0.23100256225E+01 -0.45752644457E+01  0.78927676400E+01  0.51100000000E-03 0. -1.
        -11    1    3    3    0    0 -0.26031336965E+02  0.10704644261E+02  0.10962939181E+02  0.30206058146E+02  0.51100000000E-03 0.  1.
         12    1    3    3    0    0 -0.59540952425E+01 -0.81419864619E+01  0.72637756856E+01  0.12430029401E+02  0.00000000000E+00 0. -1.
</event>
<event>
 7    1  0.4971907E-013  0.5052881E+02  0.7816164E-02  0.1300439E+00
        -11   -1    0    0    0    0  0.00000000000E+00  0.00000000000E+00  0.45593999997E+02  0.45594000000E+02  0.51100000000E-03 0. -1.
         11   -1    0    0    0    0 -0.00000000000E+00 -0.00000000000E+00 -0.45593999997E+02  0.45594000000E+02  0.51100000000E-03 0.  1.
    9900012    2    1    2    0    0  0.16087181612E+02  0.22803366192E+02 -0.29569900729E+02  0.50528807300E+02  0.29999840268E+02 0.  0.
         12    1    1    2    0    0 -0.16087181612E+02 -0.22803366192E+02  0.29569900729E+02  0.40659192700E+02  0.00000000000E+00 0. -1.
         11    1    3    3    0    0  0.73648933053E+01  0.19917699606E+02 -0.52991370383E+01  0.21886919943E+02  0.51100000000E-03 0.  1.
        -11    1    3    3    0    0  0.80614839569E+01  0.28297989559E+01 -0.61935272154E+01  0.10552490955E+02  0.51100000000E-03 0. -1.
         12    1    3    3    0    0  0.66080434958E+00  0.55867629869E-01 -0.18077236476E+02  0.18089396402E+02  0.00000000000E+00 0. -1.
</event>
<event>
 7    1  0.4971907E-013  0.5052887E+02  0.7816164E-02  0.1300439E+00
        -11   -1    0    0    0    0  0.00000000000E+00  0.00000000000E+00  0.45593999997E+02  0.45594000000E+02  0.51100000000E-03 0. -1.
         11   -1    0    0    0    0 -0.00000000000E+00 -0.00000000000E+00 -0.45593999997E+02  0.45594000000E+02  0.51100000000E-03 0.  1.
    9900012    2    1    2    0    0 -0.35055990034E+02  0.49584880857E+01  0.19991389129E+02  0.50528872111E+02  0.30000037268E+02 0.  0.
         12    1    1    2    0    0  0.35055990034E+02 -0.49584880857E+01 -0.19991389129E+02  0.40659127889E+02  0.00000000000E+00 0. -1.
         11    1    3    3    0    0 -0.79969108366E+01  0.48352444583E+01  0.43525653529E+01  0.10308976541E+02  0.51100000000E-03 0. -1.
        -11    1    3    3    0    0 -0.18637398363E+02  0.11890055641E+02  0.62606176454E+01  0.22976539653E+02  0.51100000000E-03 0.  1.
         12    1    3    3    0    0 -0.84216808352E+01 -0.11766812014E+02  0.93782061310E+01  0.17243355917E+02  0.00000000000E+00 0. -1.
</event>
<event>
 7    1  0.4971907E-013  0.5052886E+02  0.7816164E-02  0.1300439E+00
        -11   -1    0    0    0    0  0.00000000000E+00  0.00000000000E+00  0.45593999997E+02  0.45594000000E+02  0.51100000000E-03 0. -1.
         11   -1    0    0    0    0 -0.00000000000E+00 -0.00000000000E+00 -0.45593999997E+02  0.45594000000E+02  0.51100000000E-03 0.  1.
    9900012    2    1    2    0    0 -0.30431115295E+02  0.22482077514E+02 -0.14888545080E+02  0.50528863732E+02  0.30000011800E+02 0.  0.
         12    1    1    2    0    0  0.30431115295E+02 -0.22482077514E+02  0.14888545080E+02  0.40659136268E+02  0.00000000000E+00 0. -1.
         11    1    3    3    0    0 -0.26598568981E+02  0.23989695643E+02 -0.74061223515E+01  0.36576495423E+02  0.51100000000E-03 0. -1.
        -11    1    3    3    0    0 -0.57543327203E+01 -0.11756247534E+01  0.34725804054E+00  0.58834536647E+01  0.51100000000E-03 0.  1.
        -12    1    3    3    0    0  0.19217864057E+01 -0.33199337585E+00 -0.78296807693E+01  0.80689146444E+01  0.00000000000E+00 0.  1.
</event>
<event>
 7    1  0.4971907E-013  0.5052886E+02  0.7816164E-02  0.1300439E+00
        -11   -1    0    0    0    0  0.00000000000E+00  0.00000000000E+00  0.45593999997E+02  0.45594000000E+02  0.51100000000E-03 0. -1.
         11   -1    0    0    0    0 -0.00000000000E+00 -0.00000000000E+00 -0.45593999997E+02  0.45594000000E+02  0.51100000000E-03 0.  1.
    9900012    2    1    2    0    0  0.26628323194E+02  0.30683523475E+02  0.16184211764E+01  0.50528862085E+02  0.30000006793E+02 0.  0.
         12    1    1    2    0    0 -0.26628323194E+02 -0.30683523475E+02 -0.16184211764E+01  0.40659137915E+02  0.00000000000E+00 0. -1.
         11    1    3    3    0    0  0.26138027539E+02  0.29059194790E+02  0.75599104978E+01  0.39809364884E+02  0.51100000000E-03 0. -1.
        -11    1    3    3    0    0  0.31498873034E+01  0.41778913804E+01 -0.36209579256E+01  0.63630105273E+01  0.51100000000E-03 0.  1.
        -12    1    3    3    0    0 -0.26595916488E+01 -0.25535626955E+01 -0.23205313958E+01  0.43564866736E+01  0.00000000000E+00 0.  1.
</event>
<event>
 7    1  0.4971907E-013  0.5052886E+02  0.7816164E-02  0.1300439E+00
        -11   -1    0    0    0    0  0.00000000000E+00  0.00000000000E+00  0.45593999997E+02  0.45594000000E+02  0.51100000000E-03 0.  1.
         11   -1    0    0    0    0 -0.00000000000E+00 -0.00000000000E+00 -0.45593999997E+02  0.45594000000E+02  0.51100000000E-03 0. -1.
    9900012    2    1    2    0    0 -0.18485659787E+02 -0.31228528052E+01  0.36078993745E+02  0.50528860597E+02  0.30000002269E+02 0.  0.
         12    1    1    2    0    0  0.18485659787E+02  0.31228528052E+01 -0.36078993745E+02  0.40659139403E+02  0.00000000000E+00 0. -1.
         11    1    3    3    0    0 -0.11656611694E+02  0.44282024083E+01  0.32408460859E+01  0.12883658500E+02  0.51100000000E-03 0. -1.
        -11    1    3    3    0    0 -0.81682607398E+00 -0.68847344729E+01  0.36466815615E+01  0.78335854032E+01  0.51100000000E-03 0.  1.
        -12    1    3    3    0    0 -0.60122220192E+01 -0.66632074065E+00  0.29191466097E+02  0.29811616693E+02  0.00000000000E+00 0.  1.
</event>
<event>
 7    1  0.4971907E-013  0.5052886E+02  0.7816164E-02  0.1300439E+00
        -11   -1    0    0    0    0  0.00000000000E+00  0.00000000000E+00  0.45593999997E+02  0.45594000000E+02  0.51100000000E-03 0.  1.
         11   -1    0    0    0    0 -0.00000000000E+00 -0.00000000000E+00 -0.45593999997E+02  0.45594000000E+02  0.51100000000E-03 0. -1.
    9900012    2    1    2    0    0 -0.18263399522E+02  0.81923201703E+01  0.35390669730E+02  0.50528863563E+02  0.30000011285E+02 0.  0.
         12    1    1    2    0    0  0.18263399522E+02 -0.81923201703E+01 -0.35390669730E+02  0.40659136437E+02  0.00000000000E+00 0. -1.
         11    1    3    3    0    0 -0.41210973294E+01 -0.39815058136E+01 -0.24042732681E+01  0.62142064619E+01  0.51100000000E-03 0. -1.
        -11    1    3    3    0    0 -0.85999406512E+01  0.30558197060E+00  0.22986081311E+02  0.24544088776E+02  0.51100000000E-03 0.  1.
        -12    1    3    3    0    0 -0.55423615411E+01  0.11868244013E+02  0.14808861688E+02  0.19770568325E+02  0.00000000000E+00 0.  1.
</event>
<event>
 7    1  0.4971907E-013  0.5052886E+02  0.7816164E-02  0.1300439E+00
        -11   -1    0    0    0    0  0.00000000000E+00  0.00000000000E+00  0.45593999997E+02  0.45594000000E+02  0.51100000000E-03 0.  1.
         11   -1    0    0    0    0 -0.00000000000E+00 -0.00000000000E+00 -0.45593999997E+02  0.45594000000E+02  0.51100000000E-03 0. -1.
    9900012    2    1    2    0    0  0.10518380095E+02  0.97690248243E+01  0.38040707344E+02  0.50528861039E+02  0.30000003615E+02 0.  0.
         12    1    1    2    0    0 -0.10518380095E+02 -0.97690248243E+01 -0.38040707344E+02  0.40659138961E+02  0.00000000000E+00 0. -1.
         11    1    3    3    0    0  0.12383270275E+02 -0.22208116716E+01  0.24613917639E+02  0.27642762687E+02  0.51100000000E-03 0. -1.
        -11    1    3    3    0    0 -0.24711365431E+01  0.99890003989E+00  0.11382283106E+02  0.11690196152E+02  0.51100000000E-03 0.  1.
         12    1    3    3    0    0  0.60624636267E+00  0.10990936456E+02  0.20445065986E+01  0.11195902200E+02  0.00000000000E+00 0. -1.
</event>
<event>
 7    1  0.4971907E-013  0.5052887E+02  0.7816164E-02  0.1300439E+00
        -11   -1    0    0    0    0  0.00000000000E+00  0.00000000000E+00  0.45593999997E+02  0.45594000000E+02  0.51100000000E-03 0.  1.
         11   -1    0    0    0    0 -0.00000000000E+00 -0.00000000000E+00 -0.45593999997E+02  0.45594000000E+02  0.51100000000E-03 0. -1.
    9900012    2    1    2    0    0 -0.33357865584E+02 -0.50322370006E+01  0.22695690574E+02  0.50528868478E+02  0.30000026225E+02 0.  0.
         12    1    1    2    0    0  0.33357865584E+02  0.50322370006E+01 -0.22695690574E+02  0.40659131522E+02  0.00000000000E+00 0. -1.
         11    1    3    3    0    0 -0.19488008816E+02 -0.46857612206E+01  0.92956932549E+01  0.22094088784E+02  0.51100000000E-03 0. -1.
        -11    1    3    3    0    0 -0.87812863619E+01 -0.53826364355E+01  0.17410297242E+02  0.20228747254E+02  0.51100000000E-03 0.  1.
         12    1    3    3    0    0 -0.50885704057E+01  0.50361606556E+01 -0.40102999232E+01  0.82060324394E+01  0.00000000000E+00 0. -1.
</event>
<event>
 7    1  0.4971907E-013  0.5052891E+02  0.7816164E-02  0.1300439E+00
        -11   -1    0    0    0    0  0.00000000000E+00  0.00000000000E+00  0.45593999997E+02  0.45594000000E+02  0.51100000000E-03 0.  1.
         11   -1    0    0    0    0 -0.00000000000E+00 -0.00000000000E+00 -0.45593999997E+02  0.45594000000E+02  0.51100000000E-03 0. -1.
    9900012    2    1    2    0    0 -0.26609768336E+02  0.48639550368E+01  0.30354958780E+02  0.50528913044E+02  0.30000161690E+02 0.  0.
         12    1    1    2    0    0  0.26609768336E+02 -0.48639550368E+01 -0.30354958780E+02  0.40659086956E+02  0.00000000000E+00 0. -1.
         11    1    3    3    0    0 -0.69803027679E+01  0.89805690537E+01  0.23418899524E+01  0.11612910749E+02  0.51100000000E-03 0. -1.
        -11    1    3    3    0    0 -0.14264040930E+02  0.59842579394E+00  0.55040204551E+01  0.15300824112E+02  0.51100000000E-03 0.  1.
        -12    1    3    3    0    0 -0.53654246383E+01 -0.47150398109E+01  0.22509048373E+02  0.23615178183E+02  0.00000000000E+00 0.  1.
</event>
<event>
 7    1  0.4971907E-013  0.5052886E+02  0.7816164E-02  0.1300439E+00
        -11   -1    0    0    0    0  0.00000000000E+00  0.00000000000E+00  0.45593999997E+02  0.45594000000E+02  0.51100000000E-03 0.  1.
         11   -1    0    0    0    0 -0.00000000000E+00 -0.00000000000E+00 -0.45593999997E+02  0.45594000000E+02  0.51100000000E-03 0. -1.
    9900012    2    1    2    0    0 -0.41692268442E+01  0.37538986682E+02  0.15053489570E+02  0.50528861768E+02  0.30000005829E+02 0.  0.
         12    1    1    2    0    0  0.41692268442E+01 -0.37538986682E+02 -0.15053489570E+02  0.40659138232E+02  0.00000000000E+00 0. -1.
         11    1    3    3    0    0  0.52688494981E+00 -0.39477422541E+01  0.13828152712E+01  0.42159761610E+01  0.51100000000E-03 0. -1.
        -11    1    3    3    0    0  0.41444927737E+01  0.77447205272E+01  0.58864502447E+01  0.10573921370E+02  0.51100000000E-03 0.  1.
         12    1    3    3    0    0 -0.88406045677E+01  0.33742008409E+02  0.77842240542E+01  0.35738964236E+02  0.00000000000E+00 0. -1.
</event>
<event>
 7    1  0.4971907E-013  0.5052886E+02  0.7816164E-02  0.1300439E+00
        -11   -1    0    0    0    0  0.00000000000E+00  0.00000000000E+00  0.45593999997E+02  0.45594000000E+02  0.51100000000E-03 0. -1.
         11   -1    0    0    0    0 -0.00000000000E+00 -0.00000000000E+00 -0.45593999997E+02  0.45594000000E+02  0.51100000000E-03 0.  1.
    9900012    2    1    2    0    0  0.20460897605E+01  0.40612001633E+01 -0.40404032856E+02  0.50528859563E+02  0.29999999128E+02 0.  0.
         12    1    1    2    0    0 -0.20460897605E+01 -0.40612001633E+01  0.40404032856E+02  0.40659140437E+02  0.00000000000E+00 0. -1.
         11    1    3    3    0    0  0.38198964362E+01  0.40726839011E+01 -0.16649055483E+01  0.58266863385E+01  0.51100000000E-03 0. -1.
        -11    1    3    3    0    0  0.18919872676E+01  0.70517121595E+01 -0.35275697676E+02  0.36023341141E+02  0.51100000000E-03 0.  1.
        -12    1    3    3    0    0 -0.36657939433E+01 -0.70631958973E+01 -0.34634296317E+01  0.86788320834E+01  0.00000000000E+00 0.  1.
</event>
<event>
 7    1  0.4971907E-013  0.5052886E+02  0.7816164E-02  0.1300439E+00
        -11   -1    0    0    0    0  0.00000000000E+00  0.00000000000E+00  0.45593999997E+02  0.45594000000E+02  0.51100000000E-03 0. -1.
         11   -1    0    0    0    0 -0.00000000000E+00 -0.00000000000E+00 -0.45593999997E+02  0.45594000000E+02  0.51100000000E-03 0.  1.
    9900012    2    1    2    0    0 -0.38352488115E+02 -0.81624493682E+00  0.13475379615E+02  0.50528862575E+02  0.30000008283E+02 0.  0.
         12    1    1    2    0    0  0.38352488115E+02  0.81624493682E+00 -0.13475379615E+02  0.40659137425E+02  0.00000000000E+00 0. -1.
         11    1    3    3    0    0 -0.20341293432E+02 -0.69475918653E+00  0.13443278470E+02  0.24392061108E+02  0.51100000000E-03 0. -1.
        -11    1    3    3    0    0 -0.58651563641E+01 -0.91969878856E+01  0.93346393702E+00  0.10947876530E+02  0.51100000000E-03 0.  1.
         12    1    3    3    0    0 -0.12146038319E+02  0.90755021353E+01 -0.90136279268E+00  0.15188924937E+02  0.00000000000E+00 0. -1.
</event>
<event>
 7    1  0.4971907E-013  0.5052885E+02  0.7816164E-02  0.1300439E+00
        -11   -1    0    0    0    0  0.00000000000E+00  0.00000000000E+00  0.45593999997E+02  0.45594000000E+02  0.51100000000E-03 0. -1.
         11   -1    0    0    0    0 -0.00000000000E+00 -0.00000000000E+00 -0.45593999997E+02  0.45594000000E+02  0.51100000000E-03 0.  1.
    9900012    2    1    2    0    0 -0.93084771198E+01  0.39489507314E+02 -0.26641071042E+01  0.50528850958E+02  0.29999972972E+02 0.  0.
         12    1    1    2    0    0  0.93084771198E+01 -0.39489507314E+02  0.26641071042E+01  0.40659149042E+02  0.00000000000E+00 0. -1.
         11    1    3    3    0    0  0.75263072195E+01  0.11418303762E+02  0.42109399514E+01  0.14309261920E+02  0.51100000000E-03 0. -1.
        -11    1    3    3    0    0 -0.30275514721E+01  0.16100529175E+02  0.79332294295E+00  0.16401904438E+02  0.51100000000E-03 0.  1.
         12    1    3    3    0    0 -0.13807232867E+02  0.11970674377E+02 -0.76683699985E+01  0.19817684600E+02  0.00000000000E+00 0. -1.
</event>
<event>
 7    1  0.5359119E-013  0.5052892E+02  0.7816164E-02  0.1300439E+00
        -11   -1    0    0    0    0  0.00000000000E+00  0.00000000000E+00  0.45593999997E+02  0.45594000000E+02  0.51100000000E-03 0. -1.
         11   -1    0    0    0    0 -0.00000000000E+00 -0.00000000000E+00 -0.45593999997E+02  0.45594000000E+02  0.51100000000E-03 0.  1.
    9900012    2    1    2    0    0 -0.20853909800E+02  0.40352718262E+01 -0.34669750036E+02  0.50528923028E+02  0.30000192035E+02 0.  0.
         12    1    1    2    0    0  0.20853909800E+02 -0.40352718262E+01  0.34669750036E+02  0.40659076972E+02  0.00000000000E+00 0. -1.
         11    1    3    3    0    0  0.43131555232E+01 -0.85029089838E+00 -0.20747602501E+01  0.48611660675E+01  0.51100000000E-03 0. -1.
        -11    1    3    3    0    0 -0.17044399688E+02 -0.41429105400E+01 -0.10467399580E+02  0.20426495605E+02  0.51100000000E-03 0.  1.
        -12    1    3    3    0    0 -0.81226656355E+01  0.90284732646E+01 -0.22127590206E+02  0.25241261356E+02  0.00000000000E+00 0.  1.
</event>
<event>
 7    1  0.4971907E-013  0.5052886E+02  0.7816164E-02  0.1300439E+00
        -11   -1    0    0    0    0  0.00000000000E+00  0.00000000000E+00  0.45593999997E+02  0.45594000000E+02  0.51100000000E-03 0. -1.
         11   -1    0    0    0    0 -0.00000000000E+00 -0.00000000000E+00 -0.45593999997E+02  0.45594000000E+02  0.51100000000E-03 0.  1.
    9900012    2    1    2    0    0 -0.11685697111E+02 -0.38279125731E+02 -0.71637023096E+01  0.50528860628E+02  0.30000002364E+02 0.  0.
         12    1    1    2    0    0  0.11685697111E+02  0.38279125731E+02  0.71637023096E+01  0.40659139372E+02  0.00000000000E+00 0. -1.
         11    1    3    3    0    0 -0.85707943305E+01 -0.17066445076E+02 -0.11267419287E+02  0.22173786340E+02  0.51100000000E-03 0.  1.
        -11    1    3    3    0    0  0.39502157851E+01 -0.87262328202E+01 -0.55428544309E+01  0.11066823369E+02  0.51100000000E-03 0. -1.
         12    1    3    3    0    0 -0.70651185660E+01 -0.12486447835E+02  0.96465714084E+01  0.17288250919E+02  0.00000000000E+00 0. -1.
</event>
<event>
 7    1  0.4971907E-013  0.5052886E+02  0.7816164E-02  0.1300439E+00
        -11   -1    0    0    0    0  0.00000000000E+00  0.00000000000E+00  0.45593999997E+02  0.45594000000E+02  0.51100000000E-03 0.  1.
         11   -1    0    0    0    0 -0.00000000000E+00 -0.00000000000E+00 -0.45593999997E+02  0.45594000000E+02  0.51100000000E-03 0. -1.
    9900012    2    1    2    0    0  0.34562526067E+02 -0.48550961119E+01 -0.20857261508E+02  0.50528861740E+02  0.30000005745E+02 0.  0.
         12    1    1    2    0    0 -0.34562526067E+02  0.48550961119E+01  0.20857261508E+02  0.40659138260E+02  0.00000000000E+00 0. -1.
         11    1    3    3    0    0 -0.16434998567E+01  0.49773611640E+01 -0.21079968051E+01  0.56496784623E+01  0.51100000000E-03 0. -1.
        -11    1    3    3    0    0  0.31662903264E+01 -0.50511260580E+01 -0.76499518857E+01  0.96985067407E+01  0.51100000000E-03 0.  1.
         12    1    3    3    0    0  0.33039735598E+02 -0.47813312179E+01 -0.11099312818E+02  0.35180676537E+02  0.00000000000E+00 0. -1.
</event>
<event>
 7    1  0.4971907E-013  0.5052881E+02  0.7816164E-02  0.1300439E+00
        -11   -1    0    0    0    0  0.00000000000E+00  0.00000000000E+00  0.45593999997E+02  0.45594000000E+02  0.51100000000E-03 0. -1.
         11   -1    0    0    0    0 -0.00000000000E+00 -0.00000000000E+00 -0.45593999997E+02  0.45594000000E+02  0.51100000000E-03 0.  1.
    9900012    2    1    2    0    0 -0.32533913414E+02 -0.24206802801E+02  0.29572424242E+01  0.50528805386E+02  0.29999834450E+02 0.  0.
         12    1    1    2    0    0  0.32533913414E+02  0.24206802801E+02 -0.29572424242E+01  0.40659194614E+02  0.00000000000E+00 0. -1.
         11    1    3    3    0    0  0.34940560665E+01  0.22377271704E+01  0.25842503045E+00  0.41572388002E+01  0.51100000000E-03 0. -1.
        -11    1    3    3    0    0 -0.86818437605E+01 -0.16129224359E+01  0.33047863121E+01  0.94285493420E+01  0.51100000000E-03 0.  1.
         12    1    3    3    0    0 -0.27346125720E+02 -0.24831607536E+02 -0.60596891835E+00  0.36943017244E+02  0.00000000000E+00 0. -1.
</event>
<event>
 7    1  0.4971907E-013  0.5052885E+02  0.7816164E-02  0.1300439E+00
        -11   -1    0    0    0    0  0.00000000000E+00  0.00000000000E+00  0.45593999997E+02  0.45594000000E+02  0.51100000000E-03 0.  1.
         11   -1    0    0    0    0 -0.00000000000E+00 -0.00000000000E+00 -0.45593999997E+02  0.45594000000E+02  0.51100000000E-03 0. -1.
    9900012    2    1    2    0    0 -0.51059822981E+01  0.19375099640E+02  0.35379388086E+02  0.50528847985E+02  0.29999963934E+02 0.  0.
         12    1    1    2    0    0  0.51059822981E+01 -0.19375099640E+02 -0.35379388086E+02  0.40659152015E+02  0.00000000000E+00 0. -1.
         11    1    3    3    0    0 -0.24553045984E+01  0.71744495834E+01  0.18251905264E+02  0.19764445186E+02  0.51100000000E-03 0.  1.
        -11    1    3    3    0    0 -0.45366702607E+01 -0.40420802145E+01 -0.12096923386E+01  0.61954132493E+01  0.51100000000E-03 0. -1.
         12    1    3    3    0    0  0.18859925610E+01  0.16242730271E+02  0.18337175160E+02  0.24568989549E+02  0.00000000000E+00 0. -1.
</event>
<event>
 7    1  0.4971907E-013  0.5052887E+02  0.7816164E-02  0.1300439E+00
        -11   -1    0    0    0    0  0.00000000000E+00  0.00000000000E+00  0.45593999997E+02  0.45594000000E+02  0.51100000000E-03 0. -1.
         11   -1    0    0    0    0 -0.00000000000E+00 -0.00000000000E+00 -0.45593999997E+02  0.45594000000E+02  0.51100000000E-03 0.  1.
    9900012    2    1    2    0    0  0.46720295143E+01 -0.33365401107E+02 -0.22761523326E+02  0.50528870706E+02  0.30000032997E+02 0.  0.
         12    1    1    2    0    0 -0.46720295143E+01  0.33365401107E+02  0.22761523326E+02  0.40659129294E+02  0.00000000000E+00 0. -1.
         11    1    3    3    0    0  0.11575647583E+02 -0.11022947821E+02 -0.12921698730E+01  0.16036542610E+02  0.51100000000E-03 0. -1.
        -11    1    3    3    0    0 -0.25652661711E+01  0.21255861292E+00  0.59606470157E+00  0.26421705247E+01  0.51100000000E-03 0.  1.
         12    1    3    3    0    0 -0.43383518976E+01 -0.22555011899E+02 -0.22065418155E+02  0.31850157571E+02  0.00000000000E+00 0. -1.
</event>
<event>
 7    1  0.4971907E-013  0.5052886E+02  0.7816164E-02  0.1300439E+00
        -11   -1    0    0    0    0  0.00000000000E+00  0.00000000000E+00  0.45593999997E+02  0.45594000000E+02  0.51100000000E-03 0.  1.
         11   -1    0    0    0    0 -0.00000000000E+00 -0.00000000000E+00 -0.45593999997E+02  0.45594000000E+02  0.51100000000E-03 0. -1.
    9900012    2    1    2    0    0  0.10080908138E+02 -0.35289177929E+02  0.17498993886E+02  0.50528861115E+02  0.30000003846E+02 0.  0.
         12    1    1    2    0    0 -0.10080908138E+02  0.35289177929E+02 -0.17498993886E+02  0.40659138885E+02  0.00000000000E+00 0. -1.
         11    1    3    3    0    0  0.11798503929E+02 -0.23401627147E+02  0.17283356139E+02  0.31393554239E+02  0.51100000000E-03 0. -1.
        -11    1    3    3    0    0  0.18785270645E+00 -0.96426382862E+01  0.68816560052E+01  0.11847909157E+02  0.51100000000E-03 0.  1.
         12    1    3    3    0    0 -0.19054484977E+01 -0.22449124963E+01 -0.66660182583E+01  0.72873977189E+01  0.00000000000E+00 0. -1.
</event>
<event>
 7    1  0.4971907E-013  0.5052886E+02  0.7816164E-02  0.1300439E+00
        -11   -1    0    0    0    0  0.00000000000E+00  0.00000000000E+00  0.45593999997E+02  0.45594000000E+02  0.51100000000E-03 0.  1.
         11   -1    0    0    0    0 -0.00000000000E+00 -0.00000000000E+00 -0.45593999997E+02  0.45594000000E+02  0.51100000000E-03 0. -1.
    9900012    2    1    2    0    0  0.24145219873E+02 -0.48675746173E+00  0.32709894958E+02  0.50528858301E+02  0.29999995291E+02 0.  0.
         12    1    1    2    0    0 -0.24145219873E+02  0.48675746173E+00 -0.32709894958E+02  0.40659141699E+02  0.00000000000E+00 0. -1.
         11    1    3    3    0    0 -0.48995889109E+01  0.10645532339E+01  0.94169863664E+01  0.10668593045E+02  0.51100000000E-03 0. -1.
        -11    1    3    3    0    0  0.55758894305E+01 -0.62856494398E+01  0.62561942848E+01  0.10475681315E+02  0.51100000000E-03 0.  1.
         12    1    3    3    0    0  0.23468919354E+02  0.47343387441E+01  0.17036714307E+02  0.29384583940E+02  0.00000000000E+00 0. -1.
</event>
<event>
 7    1  0.4971907E-013  0.5052886E+02  0.7816164E-02  0.1300439E+00
        -11   -1    0    0    0    0  0.00000000000E+00  0.00000000000E+00  0.45593999997E+02  0.45594000000E+02  0.51100000000E-03 0. -1.
         11   -1    0    0    0    0 -0.00000000000E+00 -0.00000000000E+00 -0.45593999997E+02  0.45594000000E+02  0.51100000000E-03 0.  1.
    9900012    2    1    2    0    0 -0.17018835047E+02  0.36443539457E+02 -0.59492643757E+01  0.50528855135E+02  0.29999985669E+02 0.  0.
         12    1    1    2    0    0  0.17018835047E+02 -0.36443539457E+02  0.59492643757E+01  0.40659144865E+02  0.00000000000E+00 0. -1.
         11    1    3    3    0    0  0.35321867350E+01 -0.70292169113E+00  0.10932632925E+00  0.36031090106E+01  0.51100000000E-03 0. -1.
        -11    1    3    3    0    0 -0.91257563105E+01  0.16357634469E+02 -0.12285456502E+02  0.22400537390E+02  0.51100000000E-03 0.  1.
        -12    1    3    3    0    0 -0.11425265471E+02  0.20788826679E+02  0.62268657971E+01  0.24525208734E+02  0.00000000000E+00 0.  1.
</event>
<event>
 7    1  0.4971907E-013  0.5052892E+02  0.7816164E-02  0.1300439E+00
        -11   -1    0    0    0    0  0.00000000000E+00  0.00000000000E+00  0.45593999997E+02  0.45594000000E+02  0.51100000000E-03 0.  1.
         11   -1    0    0    0    0 -0.00000000000E+00 -0.00000000000E+00 -0.45593999997E+02  0.45594000000E+02  0.51100000000E-03 0. -1.
    9900012    2    1    2    0    0  0.27568040872E+01  0.35134764924E+02  0.20275832034E+02  0.50528916886E+02  0.30000173366E+02 0.  0.
         12    1    1    2    0    0 -0.27568040872E+01 -0.35134764924E+02 -0.20275832034E+02  0.40659083114E+02  0.00000000000E+00 0. -1.
         11    1    3    3    0    0  0.27459570981E+01  0.27685913076E+02  0.14118975301E+02  0.31199287284E+02  0.51100000000E-03 0. -1.
        -11    1    3    3    0    0  0.40113163879E+01  0.90722932372E+01 -0.19829010373E+01  0.10115782744E+02  0.51100000000E-03 0.  1.
         12    1    3    3    0    0 -0.40004693988E+01 -0.16234413894E+01  0.81397577699E+01  0.92138468572E+01  0.00000000000E+00 0. -1.
</event>
<event>
 7    1  0.4971907E-013  0.5052886E+02  0.7816164E-02  0.1300439E+00
        -11   -1    0    0    0    0  0.00000000000E+00  0.00000000000E+00  0.45593999997E+02  0.45594000000E+02  0.51100000000E-03 0.  1.
         11   -1    0    0    0    0 -0.00000000000E+00 -0.00000000000E+00 -0.45593999997E+02  0.45594000000E+02  0.51100000000E-03 0. -1.
    9900012    2    1    2    0    0  0.20890381518E+02  0.24689658203E+02  0.24640993482E+02  0.50528858077E+02  0.29999994612E+02 0.  0.
         12    1    1    2    0    0 -0.20890381518E+02 -0.24689658203E+02 -0.24640993482E+02  0.40659141923E+02  0.00000000000E+00 0. -1.
         11    1    3    3    0    0 -0.34739071055E+00  0.30537745136E+01 -0.20703063432E+01  0.37057236407E+01  0.51100000000E-03 0. -1.
        -11    1    3    3    0    0  0.11971449933E+02  0.23514626786E+02  0.11216894006E+02  0.28671797952E+02  0.51100000000E-03 0.  1.
        -12    1    3    3    0    0  0.92663222956E+01 -0.18787430968E+01  0.15494405818E+02  0.18151336484E+02  0.00000000000E+00 0.  1.
</event>
<event>
 7    1  0.4971907E-013  0.5052886E+02  0.7816164E-02  0.1300439E+00
        -11   -1    0    0    0    0  0.00000000000E+00  0.00000000000E+00  0.45593999997E+02  0.45594000000E+02  0.51100000000E-03 0.  1.
         11   -1    0    0    0    0 -0.00000000000E+00 -0.00000000000E+00 -0.45593999997E+02  0.45594000000E+02  0.51100000000E-03 0. -1.
    9900012    2    1    2    0    0  0.10038176103E+02 -0.18993563828E+02  0.34520212495E+02  0.50528861826E+02  0.30000006007E+02 0.  0.
         12    1    1    2    0    0 -0.10038176103E+02  0.18993563828E+02 -0.34520212495E+02  0.40659138174E+02  0.00000000000E+00 0. -1.
         11    1    3    3    0    0  0.12371872117E+02 -0.48623123954E+00  0.14915307009E+02  0.19384685294E+02  0.51100000000E-03 0. -1.
        -11    1    3    3    0    0  0.29636657213E+01  0.65780909894E+00  0.69256935371E+01  0.75618290479E+01  0.51100000000E-03 0.  1.
         12    1    3    3    0    0 -0.52973617357E+01 -0.19165141687E+02  0.12679211949E+02  0.23582347485E+02  0.00000000000E+00 0. -1.
</event>
<event>
 7    1  0.6791466E-013  0.5052887E+02  0.7816164E-02  0.1300439E+00
        -11   -1    0    0    0    0  0.00000000000E+00  0.00000000000E+00  0.45593999997E+02  0.45594000000E+02  0.51100000000E-03 0. -1.
         11   -1    0    0    0    0 -0.00000000000E+00 -0.00000000000E+00 -0.45593999997E+02  0.45594000000E+02  0.51100000000E-03 0.  1.
    9900012    2    1    2    0    0  0.84166624564E+01 -0.88730086362E+01 -0.38776205118E+02  0.50528873441E+02  0.30000041311E+02 0.  0.
         12    1    1    2    0    0 -0.84166624564E+01  0.88730086362E+01  0.38776205118E+02  0.40659126559E+02  0.00000000000E+00 0. -1.
         11    1    3    3    0    0 -0.35951484875E+01  0.12946458796E+01 -0.88701498300E+01  0.96581964605E+01  0.51100000000E-03 0. -1.
        -11    1    3    3    0    0 -0.23196375160E+01 -0.29132606391E+01  0.26479740281E+01  0.45694170822E+01  0.51100000000E-03 0.  1.
        -12    1    3    3    0    0  0.14331448460E+02 -0.72543938767E+01 -0.32554029316E+02  0.36301259898E+02  0.00000000000E+00 0.  1.
</event>
<event>
 7    1  0.4971907E-013  0.5052889E+02  0.7816164E-02  0.1300439E+00
        -11   -1    0    0    0    0  0.00000000000E+00  0.00000000000E+00  0.45593999997E+02  0.45594000000E+02  0.51100000000E-03 0. -1.
         11   -1    0    0    0    0 -0.00000000000E+00 -0.00000000000E+00 -0.45593999997E+02  0.45594000000E+02  0.51100000000E-03 0.  1.
    9900012    2    1    2    0    0 -0.17273279885E+02  0.30492839438E+02 -0.20615143992E+02  0.50528885194E+02  0.30000077036E+02 0.  0.
         12    1    1    2    0    0  0.17273279885E+02 -0.30492839438E+02  0.20615143992E+02  0.40659114806E+02  0.00000000000E+00 0. -1.
         11    1    3    3    0    0  0.25950978864E+00  0.16768980537E+02 -0.91178587096E+01  0.19089300702E+02  0.51100000000E-03 0. -1.
        -11    1    3    3    0    0 -0.15118232138E+01  0.81159594981E+01  0.33295751083E+01  0.89017121200E+01  0.51100000000E-03 0.  1.
        -12    1    3    3    0    0 -0.16020966460E+02  0.56078994029E+01 -0.14826860391E+02  0.22537872372E+02  0.00000000000E+00 0.  1.
</event>
<event>
 7    1  0.4971907E-013  0.5052885E+02  0.7816164E-02  0.1300439E+00
        -11   -1    0    0    0    0  0.00000000000E+00  0.00000000000E+00  0.45593999997E+02  0.45594000000E+02  0.51100000000E-03 0.  1.
         11   -1    0    0    0    0 -0.00000000000E+00 -0.00000000000E+00 -0.45593999997E+02  0.45594000000E+02  0.51100000000E-03 0. -1.
    9900012    2    1    2    0    0  0.21442794347E+02 -0.32278545680E+02 -0.12307241135E+02  0.50528854350E+02  0.29999983283E+02 0.  0.
         12    1    1    2    0    0 -0.21442794347E+02  0.32278545680E+02  0.12307241135E+02  0.40659145650E+02  0.00000000000E+00 0. -1.
         11    1    3    3    0    0  0.11288663786E+02 -0.36019435036E+01  0.37727809974E+01  0.12435505771E+02  0.51100000000E-03 0.  1.
        -11    1    3    3    0    0  0.68578951360E+00 -0.69702359508E+01 -0.12240398481E+02  0.14102547702E+02  0.51100000000E-03 0. -1.
        -12    1    3    3    0    0  0.94683410469E+01 -0.21706366226E+02 -0.38396236519E+01  0.23990800876E+02  0.00000000000E+00 0.  1.
</event>
<event>
 7    1  0.4971907E-013  0.5052884E+02  0.7816164E-02  0.1300439E+00
        -11   -1    0    0    0    0  0.00000000000E+00  0.00000000000E+00  0.45593999997E+02  0.45594000000E+02  0.51100000000E-03 0. -1.
         11   -1    0    0    0    0 -0.00000000000E+00 -0.00000000000E+00 -0.45593999997E+02  0.45594000000E+02  0.51100000000E-03 0.  1.
    9900012    2    1    2    0    0  0.19381090370E+02  0.28411945040E+02  0.21686455752E+02  0.50528835621E+02  0.29999926354E+02 0.  0.
         12    1    1    2    0    0 -0.19381090370E+02 -0.28411945040E+02 -0.21686455752E+02  0.40659164379E+02  0.00000000000E+00 0. -1.
         11    1    3    3    0    0  0.26969428379E+00 -0.30334451951E+01 -0.27738851868E+01  0.41193402444E+01  0.51100000000E-03 0. -1.
        -11    1    3    3    0    0  0.11085051204E+02  0.68431154397E+01  0.11899113960E+02  0.17643568302E+02  0.51100000000E-03 0.  1.
        -12    1    3    3    0    0  0.80263448822E+01  0.24602274795E+02  0.12561226980E+02  0.28765927075E+02  0.00000000000E+00 0.  1.
</event>
<event>
 7    1  0.5905899E-013  0.5052887E+02  0.7816164E-02  0.1300439E+00
        -11   -1    0    0    0    0  0.00000000000E+00  0.00000000000E+00  0.45593999997E+02  0.45594000000E+02  0.51100000000E-03 0.  1.
         11   -1    0    0    0    0 -0.00000000000E+00 -0.00000000000E+00 -0.45593999997E+02  0.45594000000E+02  0.51100000000E-03 0. -1.
    9900012    2    1    2    0    0  0.30401393633E+02 -0.25842500402E+02  0.78157187424E+01  0.50528867922E+02  0.30000024535E+02 0.  0.
         12    1    1    2    0    0 -0.30401393633E+02  0.25842500402E+02 -0.78157187424E+01  0.40659132078E+02  0.00000000000E+00 0. -1.
         11    1    3    3    0    0  0.89065921229E+01  0.48402867878E+00 -0.73209829954E+01  0.11539430631E+02  0.51100000000E-03 0. -1.
        -11    1    3    3    0    0  0.59685363586E+01 -0.15520297441E+02  0.42465941198E+01  0.17162069246E+02  0.51100000000E-03 0.  1.
        -12    1    3    3    0    0  0.15526265152E+02 -0.10806231640E+02  0.10890107618E+02  0.21827368044E+02  0.00000000000E+00 0.  1.
</event>
<event>
 7    1  0.4971907E-013  0.5052886E+02  0.7816164E-02  0.1300439E+00
        -11   -1    0    0    0    0  0.00000000000E+00  0.00000000000E+00  0.45593999997E+02  0.45594000000E+02  0.51100000000E-03 0. -1.
         11   -1    0    0    0    0 -0.00000000000E+00 -0.00000000000E+00 -0.45593999997E+02  0.45594000000E+02  0.51100000000E-03 0.  1.
    9900012    2    1    2    0    0  0.20985882672E+01 -0.31014188046E+02 -0.26208431430E+02  0.50528858212E+02  0.29999995022E+02 0.  0.
         12    1    1    2    0    0 -0.20985882672E+01  0.31014188046E+02  0.26208431430E+02  0.40659141788E+02  0.00000000000E+00 0. -1.
         11    1    3    3    0    0 -0.36819471584E+01 -0.76652213845E+01 -0.97373421229E+01  0.12927806683E+02  0.51100000000E-03 0. -1.
        -11    1    3    3    0    0 -0.89867176406E+01 -0.64394899297E+01 -0.78203582154E+01  0.13542013417E+02  0.51100000000E-03 0.  1.
        -12    1    3    3    0    0  0.14767253066E+02 -0.16909476732E+02 -0.86507310917E+01  0.24059038112E+02  0.00000000000E+00 0.  1.
</event>
<event>
 7    1  0.4971907E-013  0.5052886E+02  0.7816164E-02  0.1300439E+00
        -11   -1    0    0    0    0  0.00000000000E+00  0.00000000000E+00  0.45593999997E+02  0.45594000000E+02  0.51100000000E-03 0.  1.
         11   -1    0    0    0    0 -0.00000000000E+00 -0.00000000000E+00 -0.45593999997E+02  0.45594000000E+02  0.51100000000E-03 0. -1.
    9900012    2    1    2    0    0 -0.45076166788E+01 -0.16053567391E+02  0.37082746509E+02  0.50528859296E+02  0.29999998316E+02 0.  0.
         12    1    1    2    0    0  0.45076166788E+01  0.16053567391E+02 -0.37082746509E+02  0.40659140704E+02  0.00000000000E+00 0. -1.
         11    1    3    3    0    0  0.12159465479E+01 -0.18339287212E+02  0.28552407997E+02  0.33956560252E+02  0.51100000000E-03 0. -1.
        -11    1    3    3    0    0 -0.10584276407E+01 -0.52270209393E+01  0.37506914409E+01  0.65199465885E+01  0.51100000000E-03 0.  1.
         12    1    3    3    0    0 -0.46651355859E+01  0.75127407600E+01  0.47796470711E+01  0.10052352455E+02  0.00000000000E+00 0. -1.
</event>
<event>
 7    1  0.4971907E-013  0.5052885E+02  0.7816164E-02  0.1300439E+00
        -11   -1    0    0    0    0  0.00000000000E+00  0.00000000000E+00  0.45593999997E+02  0.45594000000E+02  0.51100000000E-03 0. -1.
         11   -1    0    0    0    0 -0.00000000000E+00 -0.00000000000E+00 -0.45593999997E+02  0.45594000000E+02  0.51100000000E-03 0.  1.
    9900012    2    1    2    0    0  0.12912847028E+02 -0.15224302925E+02 -0.35420969367E+02  0.50528854795E+02  0.29999984635E+02 0.  0.
         12    1    1    2    0    0 -0.12912847028E+02  0.15224302925E+02  0.35420969367E+02  0.40659145205E+02  0.00000000000E+00 0. -1.
         11    1    3    3    0    0 -0.30643319952E+01  0.62115411294E+01 -0.31096992091E+01  0.75923384547E+01  0.51100000000E-03 0. -1.
        -11    1    3    3    0    0  0.24746365075E+01 -0.63342437583E+01 -0.14278924152E+02  0.15815629770E+02  0.51100000000E-03 0.  1.
        -12    1    3    3    0    0  0.13502542516E+02 -0.15101600296E+02 -0.18032346006E+02  0.27120886570E+02  0.00000000000E+00 0.  1.
</event>
<event>
 7    1  0.4971907E-013  0.5052886E+02  0.7816164E-02  0.1300439E+00
        -11   -1    0    0    0    0  0.00000000000E+00  0.00000000000E+00  0.45593999997E+02  0.45594000000E+02  0.51100000000E-03 0.  1.
         11   -1    0    0    0    0 -0.00000000000E+00 -0.00000000000E+00 -0.45593999997E+02  0.45594000000E+02  0.51100000000E-03 0. -1.
    9900012    2    1    2    0    0 -0.14235879092E+02 -0.99992595637E+01  0.36749424052E+02  0.50528860640E+02  0.30000002400E+02 0.  0.
         12    1    1    2    0    0  0.14235879092E+02  0.99992595637E+01 -0.36749424052E+02  0.40659139360E+02  0.00000000000E+00 0. -1.
         11    1    3    3    0    0 -0.12972803660E+02 -0.11752974990E+01  0.11368634692E+02  0.17289326593E+02  0.51100000000E-03 0. -1.
        -11    1    3    3    0    0 -0.19340589201E+01  0.60188072560E+01  0.10181097925E+02  0.11984213780E+02  0.51100000000E-03 0.  1.
        -12    1    3    3    0    0  0.67098348766E+00 -0.14842769321E+02  0.15199691435E+02  0.21255320267E+02  0.00000000000E+00 0.  1.
</event>
<event>
 7    1  0.4971907E-013  0.5052886E+02  0.7816164E-02  0.1300439E+00
        -11   -1    0    0    0    0  0.00000000000E+00  0.00000000000E+00  0.45593999997E+02  0.45594000000E+02  0.51100000000E-03 0. -1.
         11   -1    0    0    0    0 -0.00000000000E+00 -0.00000000000E+00 -0.45593999997E+02  0.45594000000E+02  0.51100000000E-03 0.  1.
    9900012    2    1    2    0    0 -0.34319406669E+02 -0.21299803977E+02  0.46542806860E+01  0.50528860162E+02  0.30000000950E+02 0.  0.
         12    1    1    2    0    0  0.34319406669E+02  0.21299803977E+02 -0.46542806860E+01  0.40659139838E+02  0.00000000000E+00 0. -1.
         11    1    3    3    0    0 -0.11947664961E+02 -0.15892120517E+02  0.19016729281E+01  0.19973045655E+02  0.51100000000E-03 0. -1.
        -11    1    3    3    0    0 -0.48230350431E+01 -0.69524202191E+01 -0.64881433344E+01  0.10662730331E+02  0.51100000000E-03 0.  1.
        -12    1    3    3    0    0 -0.17548706665E+02  0.15447367589E+01  0.92407510924E+01  0.19893084176E+02  0.00000000000E+00 0.  1.
</event>
<event>
 7    1  0.4971907E-013  0.5052886E+02  0.7816164E-02  0.1300439E+00
        -11   -1    0    0    0    0  0.00000000000E+00  0.00000000000E+00  0.45593999997E+02  0.45594000000E+02  0.51100000000E-03 0.  1.
         11   -1    0    0    0    0 -0.00000000000E+00 -0.00000000000E+00 -0.45593999997E+02  0.45594000000E+02  0.51100000000E-03 0. -1.
    9900012    2    1    2    0    0  0.23211055343E+02 -0.28549355820E+02  0.17301645471E+02  0.50528859037E+02  0.29999997529E+02 0.  0.
         12    1    1    2    0    0 -0.23211055343E+02  0.28549355820E+02 -0.17301645471E+02  0.40659140963E+02  0.00000000000E+00 0. -1.
         11    1    3    3    0    0 -0.17872408625E+01 -0.93844951128E+00 -0.19349165451E+01  0.27962152427E+01  0.51100000000E-03 0. -1.
        -11    1    3    3    0    0  0.19632663408E+02 -0.16872472301E+02  0.10078968820E+01  0.25906324526E+02  0.51100000000E-03 0.  1.
         12    1    3    3    0    0  0.53656327969E+01 -0.10738434007E+02  0.18228665134E+02  0.21826319268E+02  0.00000000000E+00 0. -1.
</event>
<event>
 7    1  0.4971907E-013  0.5052887E+02  0.7816164E-02  0.1300439E+00
        -11   -1    0    0    0    0  0.00000000000E+00  0.00000000000E+00  0.45593999997E+02  0.45594000000E+02  0.51100000000E-03 0.  1.
         11   -1    0    0    0    0 -0.00000000000E+00 -0.00000000000E+00 -0.45593999997E+02  0.45594000000E+02  0.51100000000E-03 0. -1.
    9900012    2    1    2    0    0 -0.49271668448E+01 -0.36049880680E+02  0.18146468111E+02  0.50528866032E+02  0.30000018791E+02 0.  0.
         12    1    1    2    0    0  0.49271668448E+01  0.36049880680E+02 -0.18146468111E+02  0.40659133968E+02  0.00000000000E+00 0. -1.
         11    1    3    3    0    0 -0.11364172901E+01  0.20452105888E+01  0.45895544291E+01  0.51515377052E+01  0.51100000000E-03 0. -1.
        -11    1    3    3    0    0 -0.91981396795E+01 -0.69789616160E+01  0.18417172667E+01  0.11692031541E+02  0.51100000000E-03 0.  1.
         12    1    3    3    0    0  0.54073901248E+01 -0.31116129652E+02  0.11715196415E+02  0.33685296786E+02  0.00000000000E+00 0. -1.
</event>
<event>
 7    1  0.4971907E-013  0.5052887E+02  0.7816164E-02  0.1300439E+00
        -11   -1    0    0    0    0  0.00000000000E+00  0.00000000000E+00  0.45593999997E+02  0.45594000000E+02  0.51100000000E-03 0. -1.
         11   -1    0    0    0    0 -0.00000000000E+00 -0.00000000000E+00 -0.45593999997E+02  0.45594000000E+02  0.51100000000E-03 0.  1.
    9900012    2    1    2    0    0  0.10750285554E+02  0.52803248136E+01 -0.38855040609E+02  0.50528872484E+02  0.30000038402E+02 0.  0.
         12    1    1    2    0    0 -0.10750285554E+02 -0.52803248136E+01  0.38855040609E+02  0.40659127516E+02  0.00000000000E+00 0. -1.
         11    1    3    3    0    0 -0.41075998746E+01 -0.53142176073E+01 -0.15720024572E+02  0.17094807934E+02  0.51100000000E-03 0. -1.
        -11    1    3    3    0    0 -0.74551264581E+00  0.60207847363E+01 -0.12807145205E+02  0.14171401008E+02  0.51100000000E-03 0.  1.
         12    1    3    3    0    0  0.15603398074E+02  0.45737576846E+01 -0.10327870832E+02  0.19262663542E+02  0.00000000000E+00 0. -1.
</event>
<event>
 7    1  0.4971907E-013  0.5052886E+02  0.7816164E-02  0.1300439E+00
        -11   -1    0    0    0    0  0.00000000000E+00  0.00000000000E+00  0.45593999997E+02  0.45594000000E+02  0.51100000000E-03 0.  1.
         11   -1    0    0    0    0 -0.00000000000E+00 -0.00000000000E+00 -0.45593999997E+02  0.45594000000E+02  0.51100000000E-03 0. -1.
    9900012    2    1    2    0    0  0.17335774377E+02  0.20757763699E+02  0.30360365927E+02  0.50528860237E+02  0.30000001177E+02 0.  0.
         12    1    1    2    0    0 -0.17335774377E+02 -0.20757763699E+02 -0.30360365927E+02  0.40659139763E+02  0.00000000000E+00 0. -1.
         11    1    3    3    0    0  0.65551859881E+01  0.11405913017E+02  0.13835576885E+02  0.19091581996E+02  0.51100000000E-03 0. -1.
        -11    1    3    3    0    0  0.13623781741E+02  0.31088163875E+01  0.19475075248E+02  0.23969787743E+02  0.51100000000E-03 0.  1.
         12    1    3    3    0    0 -0.28431933524E+01  0.62430342946E+01 -0.29502862064E+01  0.74674904983E+01  0.00000000000E+00 0. -1.
</event>
<event>
 7    1  0.4971907E-013  0.5052886E+02  0.7816164E-02  0.1300439E+00
        -11   -1    0    0    0    0  0.00000000000E+00  0.00000000000E+00  0.45593999997E+02  0.45594000000E+02  0.51100000000E-03 0.  1.
         11   -1    0    0    0    0 -0.00000000000E+00 -0.00000000000E+00 -0.45593999997E+02  0.45594000000E+02  0.51100000000E-03 0. -1.
    9900012    2    1    2    0    0  0.36640695618E+02 -0.13212586929E+01  0.17574962047E+02  0.50528860918E+02  0.30000003247E+02 0.  0.
         12    1    1    2    0    0 -0.36640695618E+02  0.13212586929E+01 -0.17574962047E+02  0.40659139082E+02  0.00000000000E+00 0. -1.
         11    1    3    3    0    0  0.85368139000E+01 -0.59631108840E+01 -0.27827453607E+01  0.10778662022E+02  0.51100000000E-03 0. -1.
        -11    1    3    3    0    0  0.32327480655E+01  0.76445205605E+01  0.15965721869E+01  0.84521238552E+01  0.51100000000E-03 0.  1.
         12    1    3    3    0    0  0.24871133653E+02 -0.30026683694E+01  0.18761135221E+02  0.31298075041E+02  0.00000000000E+00 0. -1.
</event>
<event>
 7    1  0.4971907E-013  0.5052886E+02  0.7816164E-02  0.1300439E+00
        -11   -1    0    0    0    0  0.00000000000E+00  0.00000000000E+00  0.45593999997E+02  0.45594000000E+02  0.51100000000E-03 0. -1.
         11   -1    0    0    0    0 -0.00000000000E+00 -0.00000000000E+00 -0.45593999997E+02  0.45594000000E+02  0.51100000000E-03 0.  1.
    9900012    2    1    2    0    0  0.10331013384E+02 -0.27781478041E+02 -0.27832089556E+02  0.50528861191E+02  0.30000004075E+02 0.  0.
         12    1    1    2    0    0 -0.10331013384E+02  0.27781478041E+02  0.27832089556E+02  0.40659138809E+02  0.00000000000E+00 0. -1.
         11    1    3    3    0    0 -0.19164933893E+01 -0.76788960699E+01 -0.46581392176E+00  0.79281381569E+01  0.51100000000E-03 0. -1.
        -11    1    3    3    0    0  0.13350128333E+02 -0.24573793620E+02 -0.24472697719E+02  0.37161945500E+02  0.51100000000E-03 0.  1.
         12    1    3    3    0    0 -0.11026215602E+01  0.44712116491E+01 -0.28935779149E+01  0.54387775341E+01  0.00000000000E+00 0. -1.
</event>
<event>
 7    1  0.4971907E-013  0.5052886E+02  0.7816164E-02  0.1300439E+00
        -11   -1    0    0    0    0  0.00000000000E+00  0.00000000000E+00  0.45593999997E+02  0.45594000000E+02  0.51100000000E-03 0. -1.
         11   -1    0    0    0    0 -0.00000000000E+00 -0.00000000000E+00 -0.45593999997E+02  0.45594000000E+02  0.51100000000E-03 0.  1.
    9900012    2    1    2    0    0  0.10779294647E+02  0.30006980793E+02 -0.25230020811E+02  0.50528855401E+02  0.29999986476E+02 0.  0.
         12    1    1    2    0    0 -0.10779294647E+02 -0.30006980793E+02  0.25230020811E+02  0.40659144599E+02  0.00000000000E+00 0. -1.
         11    1    3    3    0    0  0.10819207424E+01  0.64676231198E+01 -0.37906962629E+01  0.75743039107E+01  0.51100000000E-03 0. -1.
        -11    1    3    3    0    0  0.16640673893E+02  0.51461156875E+01 -0.81973640265E+01  0.19250748337E+02  0.51100000000E-03 0.  1.
         12    1    3    3    0    0 -0.69432999879E+01  0.18393241986E+02 -0.13241960521E+02  0.23703803153E+02  0.00000000000E+00 0. -1.
</event>
<event>
 7    1  0.4971907E-013  0.5052887E+02  0.7816164E-02  0.1300439E+00
        -11   -1    0    0    0    0  0.00000000000E+00  0.00000000000E+00  0.45593999997E+02  0.45594000000E+02  0.51100000000E-03 0. -1.
         11   -1    0    0    0    0 -0.00000000000E+00 -0.00000000000E+00 -0.45593999997E+02  0.45594000000E+02  0.51100000000E-03 0.  1.
    9900012    2    1    2    0    0  0.37007386396E+01  0.38605375243E+02 -0.12210437712E+02  0.50528865070E+02  0.30000015867E+02 0.  0.
         12    1    1    2    0    0 -0.37007386396E+01 -0.38605375243E+02  0.12210437712E+02  0.40659134930E+02  0.00000000000E+00 0. -1.
         11    1    3    3    0    0  0.30569048857E+01  0.24694603510E+02 -0.14248476604E+02  0.28673806789E+02  0.51100000000E-03 0. -1.
        -11    1    3    3    0    0 -0.61842916337E+01  0.13072250425E+02  0.33678569818E+01  0.14848287952E+02  0.51100000000E-03 0.  1.
         12    1    3    3    0    0  0.68281253876E+01  0.83852130799E+00 -0.13298180895E+01  0.70067703291E+01  0.00000000000E+00 0. -1.
</event>
<event>
 7    1  0.4971907E-013  0.5052890E+02  0.7816164E-02  0.1300439E+00
        -11   -1    0    0    0    0  0.00000000000E+00  0.00000000000E+00  0.45593999997E+02  0.45594000000E+02  0.51100000000E-03 0.  1.
         11   -1    0    0    0    0 -0.00000000000E+00 -0.00000000000E+00 -0.45593999997E+02  0.45594000000E+02  0.51100000000E-03 0. -1.
    9900012    2    1    2    0    0  0.23657364560E+02  0.32300080211E+02  0.70849623394E+01  0.50528895596E+02  0.30000108655E+02 0.  0.
         12    1    1    2    0    0 -0.23657364560E+02 -0.32300080211E+02 -0.70849623394E+01  0.40659104404E+02  0.00000000000E+00 0. -1.
         11    1    3    3    0    0 -0.92273559036E+00  0.11342376236E+02 -0.41899415145E+01  0.12126687504E+02  0.51100000000E-03 0. -1.
        -11    1    3    3    0    0  0.20796248799E+02  0.24070528307E+02  0.97952606128E+01  0.33283951505E+02  0.51100000000E-03 0.  1.
         12    1    3    3    0    0  0.37838513514E+01 -0.31128243324E+01  0.14796432411E+01  0.51182565874E+01  0.00000000000E+00 0. -1.
</event>
<event>
 7    1  0.5406392E-013  0.5052884E+02  0.7816164E-02  0.1300439E+00
        -11   -1    0    0    0    0  0.00000000000E+00  0.00000000000E+00  0.45593999997E+02  0.45594000000E+02  0.51100000000E-03 0. -1.
         11   -1    0    0    0    0 -0.00000000000E+00 -0.00000000000E+00 -0.45593999997E+02  0.45594000000E+02  0.51100000000E-03 0.  1.
    9900012    2    1    2    0    0 -0.22967216096E+02 -0.19628446745E+02 -0.27210256068E+02  0.50528843933E+02  0.29999951618E+02 0.  0.
         12    1    1    2    0    0  0.22967216096E+02  0.19628446745E+02  0.27210256068E+02  0.40659156067E+02  0.00000000000E+00 0. -1.
         11    1    3    3    0    0 -0.20955801403E+02 -0.44767536098E+01 -0.76651848297E+01  0.22758339001E+02  0.51100000000E-03 0.  1.
        -11    1    3    3    0    0  0.28217231708E+01  0.81088910966E+00 -0.40727146355E+01  0.50206242206E+01  0.51100000000E-03 0. -1.
        -12    1    3    3    0    0 -0.48331378633E+01 -0.15962582245E+02 -0.15472356603E+02  0.22749880711E+02  0.00000000000E+00 0.  1.
</event>
<event>
 7    1  0.4971907E-013  0.5052886E+02  0.7816164E-02  0.1300439E+00
        -11   -1    0    0    0    0  0.00000000000E+00  0.00000000000E+00  0.45593999997E+02  0.45594000000E+02  0.51100000000E-03 0.  1.
         11   -1    0    0    0    0 -0.00000000000E+00 -0.00000000000E+00 -0.45593999997E+02  0.45594000000E+02  0.51100000000E-03 0. -1.
    9900012    2    1    2    0    0  0.10058488187E+02  0.10366618847E+02  0.38006917648E+02  0.50528858838E+02  0.29999996924E+02 0.  0.
         12    1    1    2    0    0 -0.10058488187E+02 -0.10366618847E+02 -0.38006917648E+02  0.40659141162E+02  0.00000000000E+00 0. -1.
         11    1    3    3    0    0  0.95361232051E+01  0.21639500744E+01  0.59773713310E+01  0.11460771963E+02  0.51100000000E-03 0. -1.
        -11    1    3    3    0    0  0.78945315990E+01  0.11775903233E+02  0.20190529435E+02  0.24670893888E+02  0.51100000000E-03 0.  1.
        -12    1    3    3    0    0 -0.73721666172E+01 -0.35732344608E+01  0.11839016882E+02  0.14397192986E+02  0.00000000000E+00 0.  1.
</event>
<event>
 7    1  0.4971907E-013  0.5052884E+02  0.7816164E-02  0.1300439E+00
        -11   -1    0    0    0    0  0.00000000000E+00  0.00000000000E+00  0.45593999997E+02  0.45594000000E+02  0.51100000000E-03 0.  1.
         11   -1    0    0    0    0 -0.00000000000E+00 -0.00000000000E+00 -0.45593999997E+02  0.45594000000E+02  0.51100000000E-03 0. -1.
    9900012    2    1    2    0    0 -0.77327254338E+01 -0.37501669130E+02 -0.13674688963E+02  0.50528839305E+02  0.29999937552E+02 0.  0.
         12    1    1    2    0    0  0.77327254338E+01  0.37501669130E+02  0.13674688963E+02  0.40659160695E+02  0.00000000000E+00 0. -1.
         11    1    3    3    0    0 -0.14195089171E+01  0.30628358301E+01 -0.81733542625E+01  0.88430588062E+01  0.51100000000E-03 0. -1.
        -11    1    3    3    0    0 -0.23995612004E+01 -0.56687920243E+01 -0.87222802374E-01  0.61563548507E+01  0.51100000000E-03 0.  1.
         12    1    3    3    0    0 -0.39136553163E+01 -0.34895712936E+02 -0.54141118981E+01  0.35529425648E+02  0.00000000000E+00 0. -1.
</event>
<event>
 7    1  0.4971907E-013  0.5052886E+02  0.7816164E-02  0.1300439E+00
        -11   -1    0    0    0    0  0.00000000000E+00  0.00000000000E+00  0.45593999997E+02  0.45594000000E+02  0.51100000000E-03 0.  1.
         11   -1    0    0    0    0 -0.00000000000E+00 -0.00000000000E+00 -0.45593999997E+02  0.45594000000E+02  0.51100000000E-03 0. -1.
    9900012    2    1    2    0    0  0.11528845753E+02  0.21097906464E+02  0.32789168209E+02  0.50528862117E+02  0.30000006891E+02 0.  0.
         12    1    1    2    0    0 -0.11528845753E+02 -0.21097906464E+02 -0.32789168209E+02  0.40659137883E+02  0.00000000000E+00 0. -1.
         11    1    3    3    0    0  0.27883205330E+00 -0.87689245675E+00  0.87023240865E+01  0.87508361008E+01  0.51100000000E-03 0. -1.
        -11    1    3    3    0    0  0.82308777622E+01  0.15569308682E+02  0.28450503206E+02  0.33460153235E+02  0.51100000000E-03 0.  1.
         12    1    3    3    0    0  0.30191359373E+01  0.64054902384E+01 -0.43636590840E+01  0.83178727812E+01  0.00000000000E+00 0. -1.
</event>
<event>
 7    1  0.4971907E-013  0.5052887E+02  0.7816164E-02  0.1300439E+00
        -11   -1    0    0    0    0  0.00000000000E+00  0.00000000000E+00  0.45593999997E+02  0.45594000000E+02  0.51100000000E-03 0.  1.
         11   -1    0    0    0    0 -0.00000000000E+00 -0.00000000000E+00 -0.45593999997E+02  0.45594000000E+02  0.51100000000E-03 0. -1.
    9900012    2    1    2    0    0  0.19541265000E+01 -0.39480908928E+02 -0.95186144695E+01  0.50528870624E+02  0.30000032749E+02 0.  0.
         12    1    1    2    0    0 -0.19541265000E+01  0.39480908928E+02  0.95186144695E+01  0.40659129376E+02  0.00000000000E+00 0. -1.
         11    1    3    3    0    0 -0.46948691167E+01 -0.41550825348E+02 -0.65507372725E+01  0.42325229381E+02  0.51100000000E-03 0.  1.
        -11    1    3    3    0    0  0.20047250328E+01  0.16329683825E+01  0.15461345100E+00  0.25902536123E+01  0.51100000000E-03 0. -1.
        -12    1    3    3    0    0  0.46442705838E+01  0.43694803705E+00 -0.31224906479E+01  0.56133876304E+01  0.00000000000E+00 0.  1.
</event>
<event>
 7    1  0.4971907E-013  0.5052882E+02  0.7816164E-02  0.1300439E+00
        -11   -1    0    0    0    0  0.00000000000E+00  0.00000000000E+00  0.45593999997E+02  0.45594000000E+02  0.51100000000E-03 0.  1.
         11   -1    0    0    0    0 -0.00000000000E+00 -0.00000000000E+00 -0.45593999997E+02  0.45594000000E+02  0.51100000000E-03 0. -1.
    9900012    2    1    2    0    0 -0.28055539179E+02  0.54421395597E+00  0.29423788920E+02  0.50528821432E+02  0.29999883225E+02 0.  0.
         12    1    1    2    0    0  0.28055539179E+02 -0.54421395597E+00 -0.29423788920E+02  0.40659178568E+02  0.00000000000E+00 0. -1.
         11    1    3    3    0    0  0.98951296171E+00  0.72028306884E+00  0.35716789581E+01  0.37755575008E+01  0.51100000000E-03 0. -1.
        -11    1    3    3    0    0 -0.13509287581E+02  0.92764647053E+01  0.16359465111E+01  0.16469060982E+02  0.51100000000E-03 0.  1.
        -12    1    3    3    0    0 -0.15535764559E+02 -0.94525338182E+01  0.24216163450E+02  0.30284202949E+02  0.00000000000E+00 0.  1.
</event>
<event>
 7    1  0.4971907E-013  0.5052885E+02  0.7816164E-02  0.1300439E+00
        -11   -1    0    0    0    0  0.00000000000E+00  0.00000000000E+00  0.45593999997E+02  0.45594000000E+02  0.51100000000E-03 0. -1.
         11   -1    0    0    0    0 -0.00000000000E+00 -0.00000000000E+00 -0.45593999997E+02  0.45594000000E+02  0.51100000000E-03 0.  1.
    9900012    2    1    2    0    0 -0.28161721058E+02 -0.28421977768E+02 -0.72301310226E+01  0.50528854069E+02  0.29999982428E+02 0.  0.
         12    1    1    2    0    0  0.28161721058E+02  0.28421977768E+02  0.72301310226E+01  0.40659145931E+02  0.00000000000E+00 0. -1.
         11    1    3    3    0    0  0.32448685064E+00 -0.81299640767E+01  0.37372238429E+01  0.89536835949E+01  0.51100000000E-03 0. -1.
        -11    1    3    3    0    0 -0.12170010916E+02 -0.20104570980E+02 -0.88891770041E+01  0.25126090187E+02  0.51100000000E-03 0.  1.
         12    1    3    3    0    0 -0.16316196993E+02 -0.18744271152E+00 -0.20781778615E+01  0.16449080287E+02  0.00000000000E+00 0. -1.
</event>
<event>
 7    1  0.4971907E-013  0.5052886E+02  0.7816164E-02  0.1300439E+00
        -11   -1    0    0    0    0  0.00000000000E+00  0.00000000000E+00  0.45593999997E+02  0.45594000000E+02  0.51100000000E-03 0.  1.
         11   -1    0    0    0    0 -0.00000000000E+00 -0.00000000000E+00 -0.45593999997E+02  0.45594000000E+02  0.51100000000E-03 0. -1.
    9900012    2    1    2    0    0  0.42357811149E+01 -0.35190851968E+02  0.19920532425E+02  0.50528861839E+02  0.30000006047E+02 0.  0.
         12    1    1    2    0    0 -0.42357811149E+01  0.35190851968E+02 -0.19920532425E+02  0.40659138161E+02  0.00000000000E+00 0. -1.
         11    1    3    3    0    0  0.40270459972E+01 -0.70353556716E+01  0.87081564797E+01  0.11897281976E+02  0.51100000000E-03 0. -1.
        -11    1    3    3    0    0 -0.64027263857E+00 -0.26506507573E+02 -0.75140654232E+00  0.26524884633E+02  0.51100000000E-03 0.  1.
         12    1    3    3    0    0  0.84900775628E+00 -0.16489887234E+01  0.11963782487E+02  0.12106695230E+02  0.00000000000E+00 0. -1.
</event>
<event>
 7    1  0.4971907E-013  0.5052887E+02  0.7816164E-02  0.1300439E+00
        -11   -1    0    0    0    0  0.00000000000E+00  0.00000000000E+00  0.45593999997E+02  0.45594000000E+02  0.51100000000E-03 0. -1.
         11   -1    0    0    0    0 -0.00000000000E+00 -0.00000000000E+00 -0.45593999997E+02  0.45594000000E+02  0.51100000000E-03 0.  1.
    9900012    2    1    2    0    0  0.16719220517E+02  0.31262974029E+02 -0.19906260653E+02  0.50528867041E+02  0.30000021856E+02 0.  0.
         12    1    1    2    0    0 -0.16719220517E+02 -0.31262974029E+02  0.19906260653E+02  0.40659132959E+02  0.00000000000E+00 0. -1.
         11    1    3    3    0    0  0.23454693157E+01  0.14955193714E+01 -0.12125154772E+02  0.12440144010E+02  0.51100000000E-03 0. -1.
        -11    1    3    3    0    0  0.17011345917E+02  0.16605235858E+02 -0.37021335648E+01  0.24058793423E+02  0.51100000000E-03 0.  1.
        -12    1    3    3    0    0 -0.26375947157E+01  0.13162218800E+02 -0.40789723169E+01  0.14029929607E+02  0.00000000000E+00 0.  1.
</event>
<event>
 7    1  0.4971907E-013  0.5052886E+02  0.7816164E-02  0.1300439E+00
        -11   -1    0    0    0    0  0.00000000000E+00  0.00000000000E+00  0.45593999997E+02  0.45594000000E+02  0.51100000000E-03 0.  1.
         11   -1    0    0    0    0 -0.00000000000E+00 -0.00000000000E+00 -0.45593999997E+02  0.45594000000E+02  0.51100000000E-03 0. -1.
    9900012    2    1    2    0    0 -0.40565658259E+02 -0.17793444554E+01 -0.21040256221E+01  0.50528860554E+02  0.30000002140E+02 0.  0.
         12    1    1    2    0    0  0.40565658259E+02  0.17793444554E+01  0.21040256221E+01  0.40659139446E+02  0.00000000000E+00 0. -1.
         11    1    3    3    0    0 -0.24736997838E+02 -0.10253406829E+02 -0.74718657256E+01  0.27800722856E+02  0.51100000000E-03 0. -1.
        -11    1    3    3    0    0 -0.18021903466E+02  0.68796824281E+01  0.53423779887E+01  0.20016494141E+02  0.51100000000E-03 0.  1.
        -12    1    3    3    0    0  0.21932430444E+01  0.15943799458E+01  0.25462114870E-01  0.27116435575E+01  0.00000000000E+00 0.  1.
</event>
<event>
 7    1  0.4971907E-013  0.5052886E+02  0.7816164E-02  0.1300439E+00
        -11   -1    0    0    0    0  0.00000000000E+00  0.00000000000E+00  0.45593999997E+02  0.45594000000E+02  0.51100000000E-03 0.  1.
         11   -1    0    0    0    0 -0.00000000000E+00 -0.00000000000E+00 -0.45593999997E+02  0.45594000000E+02  0.51100000000E-03 0. -1.
    9900012    2    1    2    0    0  0.29311267302E+02 -0.23977488562E+02  0.14801878665E+02  0.50528856372E+02  0.29999989427E+02 0.  0.
         12    1    1    2    0    0 -0.29311267302E+02  0.23977488562E+02 -0.14801878665E+02  0.40659143628E+02  0.00000000000E+00 0. -1.
         11    1    3    3    0    0  0.14060638513E+02  0.17441532934E+01  0.68940484274E+00  0.14185164976E+02  0.51100000000E-03 0. -1.
        -11    1    3    3    0    0  0.80131017485E+01 -0.11118204200E+02  0.14617475252E+02  0.20037336332E+02  0.51100000000E-03 0.  1.
        -12    1    3    3    0    0  0.72375270400E+01 -0.14603437656E+02 -0.50500142952E+00  0.16306355064E+02  0.00000000000E+00 0.  1.
</event>
<event>
 7    1  0.4971907E-013  0.5052884E+02  0.7816164E-02  0.1300439E+00
        -11   -1    0    0    0    0  0.00000000000E+00  0.00000000000E+00  0.45593999997E+02  0.45594000000E+02  0.51100000000E-03 0.  1.
         11   -1    0    0    0    0 -0.00000000000E+00 -0.00000000000E+00 -0.45593999997E+02  0.45594000000E+02  0.51100000000E-03 0. -1.
    9900012    2    1    2    0    0  0.14630488791E+02 -0.29902053111E+02  0.23344881370E+02  0.50528837826E+02  0.29999933055E+02 0.  0.
         12    1    1    2    0    0 -0.14630488791E+02  0.29902053111E+02 -0.23344881370E+02  0.40659162174E+02  0.00000000000E+00 0. -1.
         11    1    3    3    0    0  0.13955628607E+02 -0.30481451552E+02  0.84254815019E+01  0.34566851134E+02  0.51100000000E-03 0. -1.
        -11    1    3    3    0    0 -0.69279808196E+00  0.89002430625E+00  0.16359702439E+00  0.11396827171E+01  0.51100000000E-03 0.  1.
        -12    1    3    3    0    0  0.13676582659E+01 -0.31062586578E+00  0.14755802844E+02  0.14822303975E+02  0.00000000000E+00 0.  1.
</event>
<event>
 7    1  0.4971907E-013  0.5052887E+02  0.7816164E-02  0.1300439E+00
        -11   -1    0    0    0    0  0.00000000000E+00  0.00000000000E+00  0.45593999997E+02  0.45594000000E+02  0.51100000000E-03 0. -1.
         11   -1    0    0    0    0 -0.00000000000E+00 -0.00000000000E+00 -0.45593999997E+02  0.45594000000E+02  0.51100000000E-03 0.  1.
    9900012    2    1    2    0    0 -0.33616238254E+02 -0.17015820685E+02 -0.15283170625E+02  0.50528869017E+02  0.30000027865E+02 0.  0.
         12    1    1    2    0    0  0.33616238254E+02  0.17015820685E+02  0.15283170625E+02  0.40659130983E+02  0.00000000000E+00 0. -1.
         11    1    3    3    0    0 -0.22789946021E+02 -0.21849251904E+02 -0.40324997586E+01  0.31828171530E+02  0.51100000000E-03 0. -1.
        -11    1    3    3    0    0 -0.95328540139E+01  0.51409478948E+01 -0.43475646561E+01  0.11670731323E+02  0.51100000000E-03 0.  1.
        -12    1    3    3    0    0 -0.12934382190E+01 -0.30751667638E+00 -0.69031062100E+01  0.70299661648E+01  0.00000000000E+00 0.  1.
</event>
<event>
 7    1  0.4971907E-013  0.5052886E+02  0.7816164E-02  0.1300439E+00
        -11   -1    0    0    0    0  0.00000000000E+00  0.00000000000E+00  0.45593999997E+02  0.45594000000E+02  0.51100000000E-03 0.  1.
         11   -1    0    0    0    0 -0.00000000000E+00 -0.00000000000E+00 -0.45593999997E+02  0.45594000000E+02  0.51100000000E-03 0. -1.
    9900012    2    1    2    0    0 -0.34544023215E+02  0.13875740199E+02  0.16350538204E+02  0.50528858279E+02  0.29999995225E+02 0.  0.
         12    1    1    2    0    0  0.34544023215E+02 -0.13875740199E+02 -0.16350538204E+02  0.40659141721E+02  0.00000000000E+00 0. -1.
         11    1    3    3    0    0 -0.51659616962E+01 -0.25284045488E+01  0.35328174163E+01  0.67498732556E+01  0.51100000000E-03 0.  1.
        -11    1    3    3    0    0 -0.32384582090E+02  0.18131960058E+02  0.14595977769E+02  0.39881972118E+02  0.51100000000E-03 0. -1.
         12    1    3    3    0    0  0.30065205717E+01 -0.17278153108E+01 -0.17782569809E+01  0.38970129057E+01  0.00000000000E+00 0. -1.
</event>
<event>
 7    1  0.4971907E-013  0.5052887E+02  0.7816164E-02  0.1300439E+00
        -11   -1    0    0    0    0  0.00000000000E+00  0.00000000000E+00  0.45593999997E+02  0.45594000000E+02  0.51100000000E-03 0.  1.
         11   -1    0    0    0    0 -0.00000000000E+00 -0.00000000000E+00 -0.45593999997E+02  0.45594000000E+02  0.51100000000E-03 0. -1.
    9900012    2    1    2    0    0 -0.24455358766E+02  0.10978775874E+02  0.30570688089E+02  0.50528867418E+02  0.30000023004E+02 0.  0.
         12    1    1    2    0    0  0.24455358766E+02 -0.10978775874E+02 -0.30570688089E+02  0.40659132582E+02  0.00000000000E+00 0. -1.
         11    1    3    3    0    0 -0.62159432104E+01 -0.44675320221E+01  0.36541319775E+01  0.84823035276E+01  0.51100000000E-03 0. -1.
        -11    1    3    3    0    0 -0.22559524811E+02  0.91043497910E+01  0.17879080450E+02  0.30190774465E+02  0.51100000000E-03 0.  1.
         12    1    3    3    0    0  0.43201092547E+01  0.63419581047E+01  0.90374756610E+01  0.11855789425E+02  0.00000000000E+00 0. -1.
</event>
<event>
 7    1  0.4971907E-013  0.5052887E+02  0.7816164E-02  0.1300439E+00
        -11   -1    0    0    0    0  0.00000000000E+00  0.00000000000E+00  0.45593999997E+02  0.45594000000E+02  0.51100000000E-03 0. -1.
         11   -1    0    0    0    0 -0.00000000000E+00 -0.00000000000E+00 -0.45593999997E+02  0.45594000000E+02  0.51100000000E-03 0.  1.
    9900012    2    1    2    0    0 -0.32884276303E+02 -0.10864397395E+02 -0.21301503771E+02  0.50528870378E+02  0.30000032000E+02 0.  0.
         12    1    1    2    0    0  0.32884276303E+02  0.10864397395E+02  0.21301503771E+02  0.40659129622E+02  0.00000000000E+00 0. -1.
         11    1    3    3    0    0 -0.10981123961E+02 -0.58915996986E+01  0.40823993077E+00  0.12468467851E+02  0.51100000000E-03 0. -1.
        -11    1    3    3    0    0 -0.21880250658E+02 -0.10464194354E+02 -0.21736788222E+02  0.32568891519E+02  0.51100000000E-03 0.  1.
        -12    1    3    3    0    0 -0.22901684672E-01  0.54913966577E+01  0.27044520241E-01  0.54915110074E+01  0.00000000000E+00 0.  1.
</event>
<event>
 7    1  0.4971907E-013  0.5052885E+02  0.7816164E-02  0.1300439E+00
        -11   -1    0    0    0    0  0.00000000000E+00  0.00000000000E+00  0.45593999997E+02  0.45594000000E+02  0.51100000000E-03 0.  1.
         11   -1    0    0    0    0 -0.00000000000E+00 -0.00000000000E+00 -0.45593999997E+02  0.45594000000E+02  0.51100000000E-03 0. -1.
    9900012    2    1    2    0    0  0.26788543785E+02 -0.47444186163E+01  0.30216402327E+02  0.50528849053E+02  0.29999967182E+02 0.  0.
         12    1    1    2    0    0 -0.26788543785E+02  0.47444186163E+01 -0.30216402327E+02  0.40659150947E+02  0.00000000000E+00 0. -1.
         11    1    3    3    0    0  0.11522174831E+02  0.98962939418E+01  0.83119827889E+01  0.17314335239E+02  0.51100000000E-03 0. -1.
        -11    1    3    3    0    0  0.41593495958E+01  0.19537755640E+01  0.19731658928E+01  0.50010810747E+01  0.51100000000E-03 0.  1.
        -12    1    3    3    0    0  0.11107019358E+02 -0.16594488122E+02  0.19931253645E+02  0.28213432739E+02  0.00000000000E+00 0.  1.
</event>
<event>
 7    1  0.4971907E-013  0.5052886E+02  0.7816164E-02  0.1300439E+00
        -11   -1    0    0    0    0  0.00000000000E+00  0.00000000000E+00  0.45593999997E+02  0.45594000000E+02  0.51100000000E-03 0.  1.
         11   -1    0    0    0    0 -0.00000000000E+00 -0.00000000000E+00 -0.45593999997E+02  0.45594000000E+02  0.51100000000E-03 0. -1.
    9900012    2    1    2    0    0 -0.36529723439E+02  0.11584449270E+02  0.13584763966E+02  0.50528856239E+02  0.29999989023E+02 0.  0.
         12    1    1    2    0    0  0.36529723439E+02 -0.11584449270E+02 -0.13584763966E+02  0.40659143761E+02  0.00000000000E+00 0. -1.
         11    1    3    3    0    0 -0.12865582739E+02 -0.73809743001E+01 -0.40420241152E+01  0.15373352271E+02  0.51100000000E-03 0. -1.
        -11    1    3    3    0    0 -0.13283518438E+02  0.11786276248E+02  0.94426265844E+01  0.20112965146E+02  0.51100000000E-03 0.  1.
        -12    1    3    3    0    0 -0.10380622262E+02  0.71791473218E+01  0.81841614966E+01  0.15042538822E+02  0.00000000000E+00 0.  1.
</event>
<event>
 7    1  0.4971907E-013  0.5052886E+02  0.7816164E-02  0.1300439E+00
        -11   -1    0    0    0    0  0.00000000000E+00  0.00000000000E+00  0.45593999997E+02  0.45594000000E+02  0.51100000000E-03 0. -1.
         11   -1    0    0    0    0 -0.00000000000E+00 -0.00000000000E+00 -0.45593999997E+02  0.45594000000E+02  0.51100000000E-03 0.  1.
    9900012    2    1    2    0    0 -0.77279330645E+01 -0.19581837524E+02 -0.34785003430E+02  0.50528858668E+02  0.29999996406E+02 0.  0.
         12    1    1    2    0    0  0.77279330645E+01  0.19581837524E+02  0.34785003430E+02  0.40659141332E+02  0.00000000000E+00 0. -1.
         11    1    3    3    0    0 -0.97703187469E+01 -0.13644652916E+01 -0.66197096174E+01  0.11880296698E+02  0.51100000000E-03 0. -1.
        -11    1    3    3    0    0 -0.16460907361E+01  0.19144581066E+01 -0.12824133872E+02  0.13070316537E+02  0.51100000000E-03 0.  1.
        -12    1    3    3    0    0  0.36884764184E+01 -0.20131830339E+02 -0.15341159940E+02  0.25578245432E+02  0.00000000000E+00 0.  1.
</event>
<event>
 7    1  0.4971907E-013  0.5052885E+02  0.7816164E-02  0.1300439E+00
        -11   -1    0    0    0    0  0.00000000000E+00  0.00000000000E+00  0.45593999997E+02  0.45594000000E+02  0.51100000000E-03 0. -1.
         11   -1    0    0    0    0 -0.00000000000E+00 -0.00000000000E+00 -0.45593999997E+02  0.45594000000E+02  0.51100000000E-03 0.  1.
    9900012    2    1    2    0    0  0.23937098469E+02  0.31214369384E+02 -0.10288082982E+02  0.50528853543E+02  0.29999980830E+02 0.  0.
         12    1    1    2    0    0 -0.23937098469E+02 -0.31214369384E+02  0.10288082982E+02  0.40659146457E+02  0.00000000000E+00 0. -1.
         11    1    3    3    0    0 -0.53392248649E+01 -0.61685161626E+00 -0.23727636713E+01  0.58751881480E+01  0.51100000000E-03 0. -1.
        -11    1    3    3    0    0  0.18332178672E+02  0.16995758428E+02 -0.79038506258E+01  0.26218227140E+02  0.51100000000E-03 0.  1.
        -12    1    3    3    0    0  0.10944144662E+02  0.14835462572E+02 -0.11468684639E-01  0.18435438255E+02  0.00000000000E+00 0.  1.
</event>
<event>
 7    1  0.4971907E-013  0.5052886E+02  0.7816164E-02  0.1300439E+00
        -11   -1    0    0    0    0  0.00000000000E+00  0.00000000000E+00  0.45593999997E+02  0.45594000000E+02  0.51100000000E-03 0.  1.
         11   -1    0    0    0    0 -0.00000000000E+00 -0.00000000000E+00 -0.45593999997E+02  0.45594000000E+02  0.51100000000E-03 0. -1.
    9900012    2    1    2    0    0 -0.38304081189E+02  0.10909321583E+02  0.81822756809E+01  0.50528861194E+02  0.30000004084E+02 0.  0.
         12    1    1    2    0    0  0.38304081189E+02 -0.10909321583E+02 -0.81822756809E+01  0.40659138806E+02  0.00000000000E+00 0. -1.
         11    1    3    3    0    0  0.13262264472E+01  0.24625028773E+01  0.13501925777E+01  0.31057716059E+01  0.51100000000E-03 0. -1.
        -11    1    3    3    0    0 -0.24758531323E+02 -0.13776055741E+01 -0.59366072042E+01  0.25497568036E+02  0.51100000000E-03 0.  1.
         12    1    3    3    0    0 -0.14871776314E+02  0.98244242795E+01  0.12768690307E+02  0.21925521552E+02  0.00000000000E+00 0. -1.
</event>
<event>
 7    1  0.4971907E-013  0.5052877E+02  0.7816164E-02  0.1300439E+00
        -11   -1    0    0    0    0  0.00000000000E+00  0.00000000000E+00  0.45593999997E+02  0.45594000000E+02  0.51100000000E-03 0.  1.
         11   -1    0    0    0    0 -0.00000000000E+00 -0.00000000000E+00 -0.45593999997E+02  0.45594000000E+02  0.51100000000E-03 0. -1.
    9900012    2    1    2    0    0  0.17939763679E+02  0.32073877255E+02 -0.17395527461E+02  0.50528768592E+02  0.29999722610E+02 0.  0.
         12    1    1    2    0    0 -0.17939763679E+02 -0.32073877255E+02  0.17395527461E+02  0.40659231408E+02  0.00000000000E+00 0. -1.
         11    1    3    3    0    0  0.48984985938E+01  0.14475295251E+02  0.33331054696E+01  0.15640941577E+02  0.51100000000E-03 0. -1.
        -11    1    3    3    0    0  0.84525657473E+01  0.18512346652E+02 -0.89840532750E+01  0.22245585175E+02  0.51100000000E-03 0.  1.
         12    1    3    3    0    0  0.45886993384E+01 -0.91376464780E+00 -0.11744579656E+02  0.12642241840E+02  0.00000000000E+00 0. -1.
</event>
<event>
 7    1  0.4971907E-013  0.5052886E+02  0.7816164E-02  0.1300439E+00
        -11   -1    0    0    0    0  0.00000000000E+00  0.00000000000E+00  0.45593999997E+02  0.45594000000E+02  0.51100000000E-03 0.  1.
         11   -1    0    0    0    0 -0.00000000000E+00 -0.00000000000E+00 -0.45593999997E+02  0.45594000000E+02  0.51100000000E-03 0. -1.
    9900012    2    1    2    0    0  0.20478164420E+02  0.30952984771E+02 -0.16604916436E+02  0.50528859157E+02  0.29999997894E+02 0.  0.
         12    1    1    2    0    0 -0.20478164420E+02 -0.30952984771E+02  0.16604916436E+02  0.40659140843E+02  0.00000000000E+00 0. -1.
         11    1    3    3    0    0  0.44123291881E+00  0.81043673354E+01  0.12296631853E+01  0.82089906935E+01  0.51100000000E-03 0. -1.
        -11    1    3    3    0    0  0.22432990046E+02  0.20532954014E+02 -0.73058863435E+01  0.31276464289E+02  0.51100000000E-03 0.  1.
        -12    1    3    3    0    0 -0.23960585444E+01  0.23156634218E+01 -0.10528693277E+02  0.11043404175E+02  0.00000000000E+00 0.  1.
</event>
<event>
 7    1  0.4971907E-013  0.5052886E+02  0.7816164E-02  0.1300439E+00
        -11   -1    0    0    0    0  0.00000000000E+00  0.00000000000E+00  0.45593999997E+02  0.45594000000E+02  0.51100000000E-03 0. -1.
         11   -1    0    0    0    0 -0.00000000000E+00 -0.00000000000E+00 -0.45593999997E+02  0.45594000000E+02  0.51100000000E-03 0.  1.
    9900012    2    1    2    0    0  0.26718788913E+02 -0.12182831401E+02 -0.28122065910E+02  0.50528860154E+02  0.30000000926E+02 0.  0.
         12    1    1    2    0    0 -0.26718788913E+02  0.12182831401E+02  0.28122065910E+02  0.40659139846E+02  0.00000000000E+00 0. -1.
         11    1    3    3    0    0  0.14143231257E+02 -0.17574206949E+02 -0.12342119819E+02  0.25714036287E+02  0.51100000000E-03 0. -1.
        -11    1    3    3    0    0  0.12058322928E+02 -0.12565424743E+01 -0.78015015956E+01  0.14416847028E+02  0.51100000000E-03 0.  1.
        -12    1    3    3    0    0  0.51723472799E+00  0.66479180218E+01 -0.79784444954E+01  0.10397976839E+02  0.00000000000E+00 0.  1.
</event>
<event>
 7    1  0.4971907E-013  0.5052886E+02  0.7816164E-02  0.1300439E+00
        -11   -1    0    0    0    0  0.00000000000E+00  0.00000000000E+00  0.45593999997E+02  0.45594000000E+02  0.51100000000E-03 0.  1.
         11   -1    0    0    0    0 -0.00000000000E+00 -0.00000000000E+00 -0.45593999997E+02  0.45594000000E+02  0.51100000000E-03 0. -1.
    9900012    2    1    2    0    0  0.58164366341E+01 -0.13285257952E+02  0.37984689826E+02  0.50528859882E+02  0.30000000097E+02 0.  0.
         12    1    1    2    0    0 -0.58164366341E+01  0.13285257952E+02 -0.37984689826E+02  0.40659140118E+02  0.00000000000E+00 0. -1.
         11    1    3    3    0    0 -0.15391688893E+01 -0.88957401268E+01  0.16812061139E+01  0.91831197058E+01  0.51100000000E-03 0. -1.
        -11    1    3    3    0    0 -0.58683360570E+01 -0.22372760340E+01  0.96386224492E+01  0.11504165120E+02  0.51100000000E-03 0.  1.
        -12    1    3    3    0    0  0.13223941580E+02 -0.21522417913E+01  0.26664861263E+02  0.29841575056E+02  0.00000000000E+00 0.  1.
</event>
<event>
 7    1  0.4971907E-013  0.5052883E+02  0.7816164E-02  0.1300439E+00
        -11   -1    0    0    0    0  0.00000000000E+00  0.00000000000E+00  0.45593999997E+02  0.45594000000E+02  0.51100000000E-03 0.  1.
         11   -1    0    0    0    0 -0.00000000000E+00 -0.00000000000E+00 -0.45593999997E+02  0.45594000000E+02  0.51100000000E-03 0. -1.
    9900012    2    1    2    0    0  0.11028874502E+01  0.39762869002E+02 -0.84181977068E+01  0.50528829268E+02  0.29999907042E+02 0.  0.
         12    1    1    2    0    0 -0.11028874502E+01 -0.39762869002E+02  0.84181977068E+01  0.40659170732E+02  0.00000000000E+00 0. -1.
         11    1    3    3    0    0  0.94197278014E+01  0.23880159340E+02 -0.84569979441E+01  0.27028024280E+02  0.51100000000E-03 0. -1.
        -11    1    3    3    0    0  0.14697692322E+01  0.10419150483E+02  0.44908665370E+01  0.11440576948E+02  0.51100000000E-03 0.  1.
        -12    1    3    3    0    0 -0.97866095834E+01  0.54635591784E+01 -0.44520662997E+01  0.12060228040E+02  0.00000000000E+00 0.  1.
</event>
<event>
 7    1  0.4971907E-013  0.5052886E+02  0.7816164E-02  0.1300439E+00
        -11   -1    0    0    0    0  0.00000000000E+00  0.00000000000E+00  0.45593999997E+02  0.45594000000E+02  0.51100000000E-03 0. -1.
         11   -1    0    0    0    0 -0.00000000000E+00 -0.00000000000E+00 -0.45593999997E+02  0.45594000000E+02  0.51100000000E-03 0.  1.
    9900012    2    1    2    0    0 -0.34541844334E+02  0.19905089900E+02  0.79883724577E+01  0.50528859473E+02  0.29999998853E+02 0.  0.
         12    1    1    2    0    0  0.34541844334E+02 -0.19905089900E+02 -0.79883724577E+01  0.40659140527E+02  0.00000000000E+00 0. -1.
         11    1    3    3    0    0  0.22839558558E+01 -0.77438650141E+00  0.48695486251E+01  0.54340254764E+01  0.51100000000E-03 0. -1.
        -11    1    3    3    0    0 -0.15602423924E+02  0.93040992669E+01  0.90500230840E+01  0.20295438245E+02  0.51100000000E-03 0.  1.
        -12    1    3    3    0    0 -0.21223376266E+02  0.11375377135E+02 -0.59311992514E+01  0.24799395751E+02  0.00000000000E+00 0.  1.
</event>
<event>
 7    1  0.4971907E-013  0.5052885E+02  0.7816164E-02  0.1300439E+00
        -11   -1    0    0    0    0  0.00000000000E+00  0.00000000000E+00  0.45593999997E+02  0.45594000000E+02  0.51100000000E-03 0. -1.
         11   -1    0    0    0    0 -0.00000000000E+00 -0.00000000000E+00 -0.45593999997E+02  0.45594000000E+02  0.51100000000E-03 0.  1.
    9900012    2    1    2    0    0 -0.16690261760E+02  0.27537786448E+02 -0.24824833553E+02  0.50528845053E+02  0.29999955023E+02 0.  0.
         12    1    1    2    0    0  0.16690261760E+02 -0.27537786448E+02  0.24824833553E+02  0.40659154947E+02  0.00000000000E+00 0. -1.
         11    1    3    3    0    0  0.16064216394E+00  0.16115008196E+02 -0.38533001378E+01  0.16570069923E+02  0.51100000000E-03 0. -1.
        -11    1    3    3    0    0 -0.19648722084E+02  0.12932904135E+02 -0.18217447991E+02  0.29752440244E+02  0.51100000000E-03 0.  1.
         12    1    3    3    0    0  0.27978181606E+01 -0.15101258833E+01 -0.27540854245E+01  0.42063348854E+01  0.00000000000E+00 0. -1.
</event>
<event>
 7    1  0.4971907E-013  0.5052887E+02  0.7816164E-02  0.1300439E+00
        -11   -1    0    0    0    0  0.00000000000E+00  0.00000000000E+00  0.45593999997E+02  0.45594000000E+02  0.51100000000E-03 0.  1.
         11   -1    0    0    0    0 -0.00000000000E+00 -0.00000000000E+00 -0.45593999997E+02  0.45594000000E+02  0.51100000000E-03 0. -1.
    9900012    2    1    2    0    0 -0.87794592273E+01 -0.26334423213E+01  0.39612510218E+02  0.50528869555E+02  0.30000029499E+02 0.  0.
         12    1    1    2    0    0  0.87794592273E+01  0.26334423213E+01 -0.39612510218E+02  0.40659130445E+02  0.00000000000E+00 0. -1.
         11    1    3    3    0    0 -0.10233546760E+02  0.12678471289E+01  0.72789166364E+01  0.12622026117E+02  0.51100000000E-03 0. -1.
        -11    1    3    3    0    0  0.50997652170E+01  0.52046527613E+01  0.49222752012E+01  0.87934526240E+01  0.51100000000E-03 0.  1.
        -12    1    3    3    0    0 -0.36456776843E+01 -0.91059422114E+01  0.27411318380E+02  0.29113390814E+02  0.00000000000E+00 0.  1.
</event>
<event>
 7    1  0.4971907E-013  0.5052885E+02  0.7816164E-02  0.1300439E+00
        -11   -1    0    0    0    0  0.00000000000E+00  0.00000000000E+00  0.45593999997E+02  0.45594000000E+02  0.51100000000E-03 0. -1.
         11   -1    0    0    0    0 -0.00000000000E+00 -0.00000000000E+00 -0.45593999997E+02  0.45594000000E+02  0.51100000000E-03 0.  1.
    9900012    2    1    2    0    0  0.24355188958E+02 -0.16343104659E+02 -0.28158372691E+02  0.50528852792E+02  0.29999978547E+02 0.  0.
         12    1    1    2    0    0 -0.24355188958E+02  0.16343104659E+02  0.28158372691E+02  0.40659147208E+02  0.00000000000E+00 0. -1.
         11    1    3    3    0    0 -0.24617643397E+01  0.30883228446E+01  0.18976731924E+01  0.43816875132E+01  0.51100000000E-03 0. -1.
        -11    1    3    3    0    0  0.79966904477E+01 -0.28613337281E+01 -0.24212231994E+01  0.88315689921E+01  0.51100000000E-03 0.  1.
        -12    1    3    3    0    0  0.18820262850E+02 -0.16570093776E+02 -0.27634822684E+02  0.37315596287E+02  0.00000000000E+00 0.  1.
</event>
<event>
 7    1  0.4971907E-013  0.5052883E+02  0.7816164E-02  0.1300439E+00
        -11   -1    0    0    0    0  0.00000000000E+00  0.00000000000E+00  0.45593999997E+02  0.45594000000E+02  0.51100000000E-03 0.  1.
         11   -1    0    0    0    0 -0.00000000000E+00 -0.00000000000E+00 -0.45593999997E+02  0.45594000000E+02  0.51100000000E-03 0. -1.
    9900012    2    1    2    0    0  0.99054128897E+01 -0.37815009620E+02  0.11183723387E+02  0.50528833434E+02  0.29999919706E+02 0.  0.
         12    1    1    2    0    0 -0.99054128897E+01  0.37815009620E+02 -0.11183723387E+02  0.40659166566E+02  0.00000000000E+00 0. -1.
         11    1    3    3    0    0  0.87505797956E+01 -0.24299008748E+01 -0.16101448398E+00  0.90831157069E+01  0.51100000000E-03 0. -1.
        -11    1    3    3    0    0  0.16430671433E+01 -0.72754897007E+01  0.11048274429E+02  0.13330295876E+02  0.51100000000E-03 0.  1.
         12    1    3    3    0    0 -0.48823404920E+00 -0.28109619044E+02  0.29646344126E+00  0.28115421851E+02  0.00000000000E+00 0. -1.
</event>
<event>
 7    1  0.4971907E-013  0.5052886E+02  0.7816164E-02  0.1300439E+00
        -11   -1    0    0    0    0  0.00000000000E+00  0.00000000000E+00  0.45593999997E+02  0.45594000000E+02  0.51100000000E-03 0.  1.
         11   -1    0    0    0    0 -0.00000000000E+00 -0.00000000000E+00 -0.45593999997E+02  0.45594000000E+02  0.51100000000E-03 0. -1.
    9900012    2    1    2    0    0  0.29803221961E+02 -0.25886877967E+02  0.97366911720E+01  0.50528860251E+02  0.30000001218E+02 0.  0.
         12    1    1    2    0    0 -0.29803221961E+02  0.25886877967E+02 -0.97366911720E+01  0.40659139749E+02  0.00000000000E+00 0. -1.
         11    1    3    3    0    0  0.23874240810E+02 -0.23689450691E+02 -0.16691705573E+01  0.33674256917E+02  0.51100000000E-03 0. -1.
        -11    1    3    3    0    0  0.78372648460E+01 -0.41449088367E+01  0.57258537256E+01  0.10554069863E+02  0.51100000000E-03 0.  1.
         12    1    3    3    0    0 -0.19082836950E+01  0.19474815604E+01  0.56800080037E+01  0.63005334704E+01  0.00000000000E+00 0. -1.
</event>
<event>
 7    1  0.4971907E-013  0.5052886E+02  0.7816164E-02  0.1300439E+00
        -11   -1    0    0    0    0  0.00000000000E+00  0.00000000000E+00  0.45593999997E+02  0.45594000000E+02  0.51100000000E-03 0. -1.
         11   -1    0    0    0    0 -0.00000000000E+00 -0.00000000000E+00 -0.45593999997E+02  0.45594000000E+02  0.51100000000E-03 0.  1.
    9900012    2    1    2    0    0  0.34887859220E+02 -0.13526545260E+02 -0.15907078941E+02  0.50528864396E+02  0.30000013818E+02 0.  0.
         12    1    1    2    0    0 -0.34887859220E+02  0.13526545260E+02  0.15907078941E+02  0.40659135604E+02  0.00000000000E+00 0. -1.
         11    1    3    3    0    0  0.17240408669E+02 -0.11598992347E+02 -0.37425733829E+01  0.21113388414E+02  0.51100000000E-03 0. -1.
        -11    1    3    3    0    0  0.57551169542E+00 -0.28811475332E+01 -0.11960114153E+02  0.12315703620E+02  0.51100000000E-03 0.  1.
         12    1    3    3    0    0  0.17071938856E+02  0.95359461993E+00 -0.20439140458E+00  0.17099772362E+02  0.00000000000E+00 0. -1.
</event>
<event>
 7    1  0.4971907E-013  0.5052887E+02  0.7816164E-02  0.1300439E+00
        -11   -1    0    0    0    0  0.00000000000E+00  0.00000000000E+00  0.45593999997E+02  0.45594000000E+02  0.51100000000E-03 0.  1.
         11   -1    0    0    0    0 -0.00000000000E+00 -0.00000000000E+00 -0.45593999997E+02  0.45594000000E+02  0.51100000000E-03 0. -1.
    9900012    2    1    2    0    0 -0.27972655507E+02  0.28846041226E+02  0.62130214094E+01  0.50528865903E+02  0.30000018398E+02 0.  0.
         12    1    1    2    0    0  0.27972655507E+02 -0.28846041226E+02 -0.62130214094E+01  0.40659134097E+02  0.00000000000E+00 0. -1.
         11    1    3    3    0    0 -0.21277469579E+02  0.97416062265E+01  0.72996679589E+01  0.24513562697E+02  0.51100000000E-03 0.  1.
        -11    1    3    3    0    0 -0.48348492295E+01  0.97411280159E-01 -0.45106313413E+01  0.66129457421E+01  0.51100000000E-03 0. -1.
        -12    1    3    3    0    0 -0.18603366990E+01  0.19007023719E+02  0.34239847918E+01  0.19402357463E+02  0.00000000000E+00 0.  1.
</event>
<event>
 7    1  0.4971907E-013  0.5052887E+02  0.7816164E-02  0.1300439E+00
        -11   -1    0    0    0    0  0.00000000000E+00  0.00000000000E+00  0.45593999997E+02  0.45594000000E+02  0.51100000000E-03 0. -1.
         11   -1    0    0    0    0 -0.00000000000E+00 -0.00000000000E+00 -0.45593999997E+02  0.45594000000E+02  0.51100000000E-03 0.  1.
    9900012    2    1    2    0    0  0.38117448050E+02  0.24863908953E+01 -0.13929926425E+02  0.50528870204E+02  0.30000031472E+02 0.  0.
         12    1    1    2    0    0 -0.38117448050E+02 -0.24863908953E+01  0.13929926425E+02  0.40659129796E+02  0.00000000000E+00 0. -1.
         11    1    3    3    0    0  0.27504393204E+01 -0.84454452625E+00 -0.50174130306E+01  0.57838227577E+01  0.51100000000E-03 0. -1.
        -11    1    3    3    0    0  0.15944255955E+02 -0.97651155900E+01  0.21844669772E+01  0.18824151420E+02  0.51100000000E-03 0.  1.
         12    1    3    3    0    0  0.19422752776E+02  0.13096051012E+02 -0.11096980371E+02  0.25920896027E+02  0.00000000000E+00 0. -1.
</event>
<event>
 7    1  0.4971907E-013  0.5052886E+02  0.7816164E-02  0.1300439E+00
        -11   -1    0    0    0    0  0.00000000000E+00  0.00000000000E+00  0.45593999997E+02  0.45594000000E+02  0.51100000000E-03 0.  1.
         11   -1    0    0    0    0 -0.00000000000E+00 -0.00000000000E+00 -0.45593999997E+02  0.45594000000E+02  0.51100000000E-03 0. -1.
    9900012    2    1    2    0    0  0.34064569999E+02 -0.14553524474E+02  0.16762032788E+02  0.50528858998E+02  0.29999997410E+02 0.  0.
         12    1    1    2    0    0 -0.34064569999E+02  0.14553524474E+02 -0.16762032788E+02  0.40659141002E+02  0.00000000000E+00 0. -1.
         11    1    3    3    0    0  0.19683609728E+01  0.55916416545E+00 -0.48151850040E+01  0.52319323741E+01  0.51100000000E-03 0. -1.
        -11    1    3    3    0    0  0.15885136328E+01 -0.63983671165E+01  0.90246556026E+01  0.11176174942E+02  0.51100000000E-03 0.  1.
        -12    1    3    3    0    0  0.30507695394E+02 -0.87143215229E+01  0.12552562189E+02  0.34120751682E+02  0.00000000000E+00 0.  1.
</event>
<event>
 7    1  0.4971907E-013  0.5052885E+02  0.7816164E-02  0.1300439E+00
        -11   -1    0    0    0    0  0.00000000000E+00  0.00000000000E+00  0.45593999997E+02  0.45594000000E+02  0.51100000000E-03 0. -1.
         11   -1    0    0    0    0 -0.00000000000E+00 -0.00000000000E+00 -0.45593999997E+02  0.45594000000E+02  0.51100000000E-03 0.  1.
    9900012    2    1    2    0    0 -0.32633573707E+02 -0.19166920259E+02 -0.14860877404E+02  0.50528847988E+02  0.29999963944E+02 0.  0.
         12    1    1    2    0    0  0.32633573707E+02  0.19166920259E+02  0.14860877404E+02  0.40659152012E+02  0.00000000000E+00 0. -1.
         11    1    3    3    0    0 -0.20580097844E+02 -0.10976406455E+01 -0.14953379817E+02  0.25462694486E+02  0.51100000000E-03 0. -1.
        -11    1    3    3    0    0 -0.34019377878E+01  0.82526276886E+00  0.22686531908E+01  0.41714538126E+01  0.51100000000E-03 0.  1.
        -12    1    3    3    0    0 -0.86515380746E+01 -0.18894542383E+02 -0.21761507781E+01  0.20894699689E+02  0.00000000000E+00 0.  1.
</event>
<event>
 7    1  0.4971907E-013  0.5052886E+02  0.7816164E-02  0.1300439E+00
        -11   -1    0    0    0    0  0.00000000000E+00  0.00000000000E+00  0.45593999997E+02  0.45594000000E+02  0.51100000000E-03 0.  1.
         11   -1    0    0    0    0 -0.00000000000E+00 -0.00000000000E+00 -0.45593999997E+02  0.45594000000E+02  0.51100000000E-03 0. -1.
    9900012    2    1    2    0    0  0.11155208929E+02  0.11221073333E+02  0.37454166067E+02  0.50528859222E+02  0.29999998092E+02 0.  0.
         12    1    1    2    0    0 -0.11155208929E+02 -0.11221073333E+02 -0.37454166067E+02  0.40659140778E+02  0.00000000000E+00 0. -1.
         11    1    3    3    0    0  0.12081775263E+02  0.38062249673E+01  0.88348525691E+01  0.15443809834E+02  0.51100000000E-03 0. -1.
        -11    1    3    3    0    0 -0.27577768857E+00  0.13160512523E+02  0.13308661487E+02  0.18718857178E+02  0.51100000000E-03 0.  1.
         12    1    3    3    0    0 -0.65078864492E+00 -0.57456641576E+01  0.15310652011E+02  0.16366192210E+02  0.00000000000E+00 0. -1.
</event>
<event>
 7    1  0.4971907E-013  0.5052888E+02  0.7816164E-02  0.1300439E+00
        -11   -1    0    0    0    0  0.00000000000E+00  0.00000000000E+00  0.45593999997E+02  0.45594000000E+02  0.51100000000E-03 0.  1.
         11   -1    0    0    0    0 -0.00000000000E+00 -0.00000000000E+00 -0.45593999997E+02  0.45594000000E+02  0.51100000000E-03 0. -1.
    9900012    2    1    2    0    0 -0.37439322973E+02  0.11400949916E+02  0.11021761881E+02  0.50528882958E+02  0.30000070240E+02 0.  0.
         12    1    1    2    0    0  0.37439322973E+02 -0.11400949916E+02 -0.11021761881E+02  0.40659117042E+02  0.00000000000E+00 0. -1.
         11    1    3    3    0    0 -0.22406600684E+02  0.85151971671E+01 -0.45362295004E+01  0.24395526544E+02  0.51100000000E-03 0.  1.
        -11    1    3    3    0    0 -0.50149370172E+01 -0.58460105180E+01  0.54022100266E+01  0.94079384403E+01  0.51100000000E-03 0. -1.
        -12    1    3    3    0    0 -0.10017785272E+02  0.87317632665E+01  0.10155781354E+02  0.16725417974E+02  0.00000000000E+00 0.  1.
</event>
<event>
 7    1  0.4971907E-013  0.5052884E+02  0.7816164E-02  0.1300439E+00
        -11   -1    0    0    0    0  0.00000000000E+00  0.00000000000E+00  0.45593999997E+02  0.45594000000E+02  0.51100000000E-03 0.  1.
         11   -1    0    0    0    0 -0.00000000000E+00 -0.00000000000E+00 -0.45593999997E+02  0.45594000000E+02  0.51100000000E-03 0. -1.
    9900012    2    1    2    0    0 -0.37950180482E+02  0.27174494326E+01  0.14337593803E+02  0.50528839580E+02  0.29999938386E+02 0.  0.
         12    1    1    2    0    0  0.37950180482E+02 -0.27174494326E+01 -0.14337593803E+02  0.40659160420E+02  0.00000000000E+00 0. -1.
         11    1    3    3    0    0 -0.95143588182E+01 -0.75385439858E+01 -0.54274944090E+00  0.12151018326E+02  0.51100000000E-03 0. -1.
        -11    1    3    3    0    0 -0.29396063200E+02  0.51814694287E+01  0.14539507665E+02  0.33202009585E+02  0.51100000000E-03 0.  1.
         12    1    3    3    0    0  0.96024153636E+00  0.50745239897E+01  0.34083557941E+00  0.51758116680E+01  0.00000000000E+00 0. -1.
</event>
<event>
 7    1  0.4971907E-013  0.5052886E+02  0.7816164E-02  0.1300439E+00
        -11   -1    0    0    0    0  0.00000000000E+00  0.00000000000E+00  0.45593999997E+02  0.45594000000E+02  0.51100000000E-03 0. -1.
         11   -1    0    0    0    0 -0.00000000000E+00 -0.00000000000E+00 -0.45593999997E+02  0.45594000000E+02  0.51100000000E-03 0.  1.
    9900012    2    1    2    0    0  0.27789631526E+02  0.54187182468E+01 -0.29181157126E+02  0.50528855161E+02  0.29999985747E+02 0.  0.
         12    1    1    2    0    0 -0.27789631526E+02 -0.54187182468E+01  0.29181157126E+02  0.40659144839E+02  0.00000000000E+00 0. -1.
         11    1    3    3    0    0  0.16554318458E+02  0.87656936846E+01 -0.23994410728E+02  0.30440344804E+02  0.51100000000E-03 0. -1.
        -11    1    3    3    0    0  0.15043589133E+01  0.32415734211E+01 -0.73191540763E+01  0.81449929796E+01  0.51100000000E-03 0.  1.
         12    1    3    3    0    0  0.97309541551E+01 -0.65885488588E+01  0.21324076775E+01  0.11943517377E+02  0.00000000000E+00 0. -1.
</event>
<event>
 7    1  0.4971907E-013  0.5052885E+02  0.7816164E-02  0.1300439E+00
        -11   -1    0    0    0    0  0.00000000000E+00  0.00000000000E+00  0.45593999997E+02  0.45594000000E+02  0.51100000000E-03 0.  1.
         11   -1    0    0    0    0 -0.00000000000E+00 -0.00000000000E+00 -0.45593999997E+02  0.45594000000E+02  0.51100000000E-03 0. -1.
    9900012    2    1    2    0    0 -0.10980468595E+02 -0.15492201588E+02  0.35952569729E+02  0.50528852558E+02  0.29999977834E+02 0.  0.
         12    1    1    2    0    0  0.10980468595E+02  0.15492201588E+02 -0.35952569729E+02  0.40659147442E+02  0.00000000000E+00 0. -1.
         11    1    3    3    0    0 -0.67016348575E+01  0.70886985921E+01  0.11269074313E+02  0.14904817799E+02  0.51100000000E-03 0. -1.
        -11    1    3    3    0    0  0.16039510969E+01 -0.44353157536E+01  0.11518620908E+02  0.12446819386E+02  0.51100000000E-03 0.  1.
        -12    1    3    3    0    0 -0.58827848349E+01 -0.18145584426E+02  0.13164874509E+02  0.23177215372E+02  0.00000000000E+00 0.  1.
</event>
<event>
 7    1  0.4971907E-013  0.5052886E+02  0.7816164E-02  0.1300439E+00
        -11   -1    0    0    0    0  0.00000000000E+00  0.00000000000E+00  0.45593999997E+02  0.45594000000E+02  0.51100000000E-03 0.  1.
         11   -1    0    0    0    0 -0.00000000000E+00 -0.00000000000E+00 -0.45593999997E+02  0.45594000000E+02  0.51100000000E-03 0. -1.
    9900012    2    1    2    0    0  0.48672540195E+01 -0.39215787886E+02  0.95706522375E+01  0.50528861230E+02  0.30000004196E+02 0.  0.
         12    1    1    2    0    0 -0.48672540195E+01  0.39215787886E+02 -0.95706522375E+01  0.40659138770E+02  0.00000000000E+00 0. -1.
         11    1    3    3    0    0  0.61954978449E+01 -0.10341502183E+01 -0.31871716356E+01  0.70435590092E+01  0.51100000000E-03 0. -1.
        -11    1    3    3    0    0 -0.76895572102E+01 -0.14158164555E+02  0.14331320716E+01  0.16175190306E+02  0.51100000000E-03 0.  1.
         12    1    3    3    0    0  0.63613133849E+01 -0.24023473114E+02  0.11324691801E+02  0.27310111915E+02  0.00000000000E+00 0. -1.
</event>
<event>
 7    1  0.4971907E-013  0.5052886E+02  0.7816164E-02  0.1300439E+00
        -11   -1    0    0    0    0  0.00000000000E+00  0.00000000000E+00  0.45593999997E+02  0.45594000000E+02  0.51100000000E-03 0.  1.
         11   -1    0    0    0    0 -0.00000000000E+00 -0.00000000000E+00 -0.45593999997E+02  0.45594000000E+02  0.51100000000E-03 0. -1.
    9900012    2    1    2    0    0  0.10693389437E+02 -0.24384394545E+02  0.30728137190E+02  0.50528859697E+02  0.29999999536E+02 0.  0.
         12    1    1    2    0    0 -0.10693389437E+02  0.24384394545E+02 -0.30728137190E+02  0.40659140303E+02  0.00000000000E+00 0. -1.
         11    1    3    3    0    0 -0.40394523319E+01 -0.10200563472E+01  0.59498115477E+00  0.42085262181E+01  0.51100000000E-03 0. -1.
        -11    1    3    3    0    0  0.38223784908E+01 -0.23633510621E+02  0.17678209171E+02  0.29760250022E+02  0.51100000000E-03 0.  1.
        -12    1    3    3    0    0  0.10910463278E+02  0.26917242315E+00  0.12454946865E+02  0.16560083458E+02  0.00000000000E+00 0.  1.
</event>
<event>
 7    1  0.7280537E-013  0.5052886E+02  0.7816164E-02  0.1300439E+00
        -11   -1    0    0    0    0  0.00000000000E+00  0.00000000000E+00  0.45593999997E+02  0.45594000000E+02  0.51100000000E-03 0. -1.
         11   -1    0    0    0    0 -0.00000000000E+00 -0.00000000000E+00 -0.45593999997E+02  0.45594000000E+02  0.51100000000E-03 0.  1.
    9900012    2    1    2    0    0 -0.18252817726E+02 -0.13195737563E+02 -0.33850741965E+02  0.50528861097E+02  0.30000003792E+02 0.  0.
         12    1    1    2    0    0  0.18252817726E+02  0.13195737563E+02  0.33850741965E+02  0.40659138903E+02  0.00000000000E+00 0. -1.
         11    1    3    3    0    0 -0.11089788260E+02 -0.63968232893E+01  0.76909501176E+00  0.12825531539E+02  0.51100000000E-03 0. -1.
        -11    1    3    3    0    0  0.24737766613E+01 -0.37238740471E+01 -0.71769900348E+01  0.84555304452E+01  0.51100000000E-03 0.  1.
        -12    1    3    3    0    0 -0.96368061264E+01 -0.30750402263E+01 -0.27442846942E+02  0.29247799113E+02  0.00000000000E+00 0.  1.
</event>
<event>
 7    1  0.4971907E-013  0.5052886E+02  0.7816164E-02  0.1300439E+00
        -11   -1    0    0    0    0  0.00000000000E+00  0.00000000000E+00  0.45593999997E+02  0.45594000000E+02  0.51100000000E-03 0.  1.
         11   -1    0    0    0    0 -0.00000000000E+00 -0.00000000000E+00 -0.45593999997E+02  0.45594000000E+02  0.51100000000E-03 0. -1.
    9900012    2    1    2    0    0  0.26961097105E+02 -0.10331458283E+02  0.28627357553E+02  0.50528863415E+02  0.30000010837E+02 0.  0.
         12    1    1    2    0    0 -0.26961097105E+02  0.10331458283E+02 -0.28627357553E+02  0.40659136585E+02  0.00000000000E+00 0. -1.
         11    1    3    3    0    0  0.22878588138E+01  0.24572968154E+01  0.49773128935E+01  0.60038528872E+01  0.51100000000E-03 0. -1.
        -11    1    3    3    0    0  0.69947144859E+01  0.71351170302E+01  0.19773304118E+01  0.10185566336E+02  0.51100000000E-03 0.  1.
         12    1    3    3    0    0  0.17678523805E+02 -0.19923872129E+02  0.21672714248E+02  0.34339444192E+02  0.00000000000E+00 0. -1.
</event>
<event>
 7    1  0.4971907E-013  0.5052883E+02  0.7816164E-02  0.1300439E+00
        -11   -1    0    0    0    0  0.00000000000E+00  0.00000000000E+00  0.45593999997E+02  0.45594000000E+02  0.51100000000E-03 0.  1.
         11   -1    0    0    0    0 -0.00000000000E+00 -0.00000000000E+00 -0.45593999997E+02  0.45594000000E+02  0.51100000000E-03 0. -1.
    9900012    2    1    2    0    0  0.30675917518E+02  0.13044150568E+02  0.23281025375E+02  0.50528832250E+02  0.29999916106E+02 0.  0.
         12    1    1    2    0    0 -0.30675917518E+02 -0.13044150568E+02 -0.23281025375E+02  0.40659167750E+02  0.00000000000E+00 0. -1.
         11    1    3    3    0    0  0.12717023279E+02  0.21512485345E+01 -0.96718255674E+00  0.12933908678E+02  0.51100000000E-03 0. -1.
        -11    1    3    3    0    0  0.20188002740E+02  0.33060352000E+01  0.20040738633E+02  0.28637676731E+02  0.51100000000E-03 0.  1.
        -12    1    3    3    0    0 -0.22291085004E+01  0.75868668334E+01  0.42074692991E+01  0.89572468403E+01  0.00000000000E+00 0.  1.
</event>
<event>
 7    1  0.4971907E-013  0.5052886E+02  0.7816164E-02  0.1300439E+00
        -11   -1    0    0    0    0  0.00000000000E+00  0.00000000000E+00  0.45593999997E+02  0.45594000000E+02  0.51100000000E-03 0.  1.
         11   -1    0    0    0    0 -0.00000000000E+00 -0.00000000000E+00 -0.45593999997E+02  0.45594000000E+02  0.51100000000E-03 0. -1.
    9900012    2    1    2    0    0 -0.13661221820E+02  0.37869709487E+02 -0.56939919730E+01  0.50528862985E+02  0.30000009528E+02 0.  0.
         12    1    1    2    0    0  0.13661221820E+02 -0.37869709487E+02  0.56939919730E+01  0.40659137015E+02  0.00000000000E+00 0. -1.
         11    1    3    3    0    0 -0.11468214440E+02  0.12768455258E+02 -0.49838983094E+01  0.17871559382E+02  0.51100000000E-03 0. -1.
        -11    1    3    3    0    0 -0.60012795590E+01  0.13674125367E+02  0.87799289323E+01  0.17322938931E+02  0.51100000000E-03 0.  1.
         12    1    3    3    0    0  0.38082721783E+01  0.11427128862E+02 -0.94900225960E+01  0.15334364672E+02  0.00000000000E+00 0. -1.
</event>
<event>
 7    1  0.4971907E-013  0.5052886E+02  0.7816164E-02  0.1300439E+00
        -11   -1    0    0    0    0  0.00000000000E+00  0.00000000000E+00  0.45593999997E+02  0.45594000000E+02  0.51100000000E-03 0.  1.
         11   -1    0    0    0    0 -0.00000000000E+00 -0.00000000000E+00 -0.45593999997E+02  0.45594000000E+02  0.51100000000E-03 0. -1.
    9900012    2    1    2    0    0 -0.21436644485E+02  0.33710526808E+02  0.75654427798E+01  0.50528864878E+02  0.30000015283E+02 0.  0.
         12    1    1    2    0    0  0.21436644485E+02 -0.33710526808E+02 -0.75654427798E+01  0.40659135122E+02  0.00000000000E+00 0. -1.
         11    1    3    3    0    0  0.16813405674E+01  0.46408102826E+01 -0.68412971531E+01  0.84360756979E+01  0.51100000000E-03 0. -1.
        -11    1    3    3    0    0 -0.95572101370E+00 -0.69558974088E+00  0.30703697397E+01  0.32900483801E+01  0.51100000000E-03 0.  1.
        -12    1    3    3    0    0 -0.22162264039E+02  0.29765306266E+02  0.11336370193E+02  0.38802740800E+02  0.00000000000E+00 0.  1.
</event>
<event>
 7    1  0.4971907E-013  0.5052885E+02  0.7816164E-02  0.1300439E+00
        -11   -1    0    0    0    0  0.00000000000E+00  0.00000000000E+00  0.45593999997E+02  0.45594000000E+02  0.51100000000E-03 0.  1.
         11   -1    0    0    0    0 -0.00000000000E+00 -0.00000000000E+00 -0.45593999997E+02  0.45594000000E+02  0.51100000000E-03 0. -1.
    9900012    2    1    2    0    0 -0.36629540928E+02 -0.17546470867E+02  0.18879361417E+01  0.50528853288E+02  0.29999980053E+02 0.  0.
         12    1    1    2    0    0  0.36629540928E+02  0.17546470867E+02 -0.18879361417E+01  0.40659146712E+02  0.00000000000E+00 0. -1.
         11    1    3    3    0    0 -0.99800737349E+01 -0.99402924665E+01 -0.50126022632E+01  0.14951169445E+02  0.51100000000E-03 0. -1.
        -11    1    3    3    0    0 -0.13671856935E+02 -0.13390944135E+02  0.91157902986E+01  0.21197516126E+02  0.51100000000E-03 0.  1.
        -12    1    3    3    0    0 -0.12977610258E+02  0.57847657341E+01 -0.22152518937E+01  0.14380167716E+02  0.00000000000E+00 0.  1.
</event>
<event>
 7    1  0.4971907E-013  0.5052890E+02  0.7816164E-02  0.1300439E+00
        -11   -1    0    0    0    0  0.00000000000E+00  0.00000000000E+00  0.45593999997E+02  0.45594000000E+02  0.51100000000E-03 0.  1.
         11   -1    0    0    0    0 -0.00000000000E+00 -0.00000000000E+00 -0.45593999997E+02  0.45594000000E+02  0.51100000000E-03 0. -1.
    9900012    2    1    2    0    0 -0.12173857756E+02 -0.19780193033E+02  0.33372194849E+02  0.50528902148E+02  0.30000128568E+02 0.  0.
         12    1    1    2    0    0  0.12173857756E+02  0.19780193033E+02 -0.33372194849E+02  0.40659097852E+02  0.00000000000E+00 0. -1.
         11    1    3    3    0    0 -0.12294973526E+02 -0.95268572920E+01  0.43554439476E+01  0.16152314884E+02  0.51100000000E-03 0. -1.
        -11    1    3    3    0    0 -0.43657484736E+01  0.20289376034E+01  0.11897929415E+02  0.12834994046E+02  0.51100000000E-03 0.  1.
        -12    1    3    3    0    0  0.44868642444E+01 -0.12282273345E+02  0.17118821487E+02  0.21541593218E+02  0.00000000000E+00 0.  1.
</event>
<event>
 7    1  0.4971907E-013  0.5052886E+02  0.7816164E-02  0.1300439E+00
        -11   -1    0    0    0    0  0.00000000000E+00  0.00000000000E+00  0.45593999997E+02  0.45594000000E+02  0.51100000000E-03 0.  1.
         11   -1    0    0    0    0 -0.00000000000E+00 -0.00000000000E+00 -0.45593999997E+02  0.45594000000E+02  0.51100000000E-03 0. -1.
    9900012    2    1    2    0    0  0.16724143186E+01  0.37331632996E+02  0.16022426124E+02  0.50528856739E+02  0.29999990544E+02 0.  0.
         12    1    1    2    0    0 -0.16724143186E+01 -0.37331632996E+02 -0.16022426124E+02  0.40659143261E+02  0.00000000000E+00 0. -1.
         11    1    3    3    0    0 -0.52208779592E+01  0.47463025623E+01  0.34958756543E+01  0.78743953120E+01  0.51100000000E-03 0. -1.
        -11    1    3    3    0    0  0.36621131978E+01  0.26113546784E+02  0.19352639572E+02  0.32708608307E+02  0.51100000000E-03 0.  1.
         12    1    3    3    0    0  0.32311790800E+01  0.64717836496E+01 -0.68260891024E+01  0.99458531202E+01  0.00000000000E+00 0. -1.
</event>
<event>
 7    1  0.4971907E-013  0.5052887E+02  0.7816164E-02  0.1300439E+00
        -11   -1    0    0    0    0  0.00000000000E+00  0.00000000000E+00  0.45593999997E+02  0.45594000000E+02  0.51100000000E-03 0. -1.
         11   -1    0    0    0    0 -0.00000000000E+00 -0.00000000000E+00 -0.45593999997E+02  0.45594000000E+02  0.51100000000E-03 0.  1.
    9900012    2    1    2    0    0  0.57289821696E+01  0.39698302760E+02  0.66624611313E+01  0.50528869819E+02  0.30000030303E+02 0.  0.
         12    1    1    2    0    0 -0.57289821696E+01 -0.39698302760E+02 -0.66624611313E+01  0.40659130181E+02  0.00000000000E+00 0. -1.
         11    1    3    3    0    0  0.24051480964E+01  0.51322618720E+01 -0.40550951720E+01  0.69691209204E+01  0.51100000000E-03 0.  1.
        -11    1    3    3    0    0  0.13577248488E+02  0.22956212258E+02  0.56515354858E+01  0.27262964097E+02  0.51100000000E-03 0. -1.
         12    1    3    3    0    0 -0.10253414415E+02  0.11609828630E+02  0.50660208175E+01  0.16296784802E+02  0.00000000000E+00 0. -1.
</event>
<event>
 7    1  0.4971907E-013  0.5052887E+02  0.7816164E-02  0.1300439E+00
        -11   -1    0    0    0    0  0.00000000000E+00  0.00000000000E+00  0.45593999997E+02  0.45594000000E+02  0.51100000000E-03 0.  1.
         11   -1    0    0    0    0 -0.00000000000E+00 -0.00000000000E+00 -0.45593999997E+02  0.45594000000E+02  0.51100000000E-03 0. -1.
    9900012    2    1    2    0    0  0.11874718720E+02 -0.31277684922E+02  0.23105457718E+02  0.50528871933E+02  0.30000036728E+02 0.  0.
         12    1    1    2    0    0 -0.11874718720E+02  0.31277684922E+02 -0.23105457718E+02  0.40659128067E+02  0.00000000000E+00 0. -1.
         11    1    3    3    0    0 -0.20176435756E+01 -0.80532051142E+01  0.10345051033E+02  0.13264429100E+02  0.51100000000E-03 0. -1.
        -11    1    3    3    0    0  0.75621394059E+01  0.28266153138E+01  0.43298309634E+01  0.91609575350E+01  0.51100000000E-03 0.  1.
         12    1    3    3    0    0  0.63302228899E+01 -0.26051095122E+02  0.84305757214E+01  0.28103485298E+02  0.00000000000E+00 0. -1.
</event>
<event>
 7    1  0.4971907E-013  0.5052889E+02  0.7816164E-02  0.1300439E+00
        -11   -1    0    0    0    0  0.00000000000E+00  0.00000000000E+00  0.45593999997E+02  0.45594000000E+02  0.51100000000E-03 0. -1.
         11   -1    0    0    0    0 -0.00000000000E+00 -0.00000000000E+00 -0.45593999997E+02  0.45594000000E+02  0.51100000000E-03 0.  1.
    9900012    2    1    2    0    0  0.79783784380E+01 -0.26238340603E+02  0.30017636506E+02  0.50528886120E+02  0.30000079850E+02 0.  0.
         12    1    1    2    0    0 -0.79783784380E+01  0.26238340603E+02 -0.30017636506E+02  0.40659113880E+02  0.00000000000E+00 0. -1.
         11    1    3    3    0    0 -0.68612135039E+01 -0.53265570480E+01  0.77039141254E+01  0.11610286553E+02  0.51100000000E-03 0. -1.
        -11    1    3    3    0    0  0.52692368444E+01 -0.15678056054E+02  0.31049277931E+01  0.16828751451E+02  0.51100000000E-03 0.  1.
        -12    1    3    3    0    0  0.95703550975E+01 -0.52337275016E+01  0.19208794588E+02  0.22089848115E+02  0.00000000000E+00 0.  1.
</event>
<event>
 7    1  0.4971907E-013  0.5052886E+02  0.7816164E-02  0.1300439E+00
        -11   -1    0    0    0    0  0.00000000000E+00  0.00000000000E+00  0.45593999997E+02  0.45594000000E+02  0.51100000000E-03 0. -1.
         11   -1    0    0    0    0 -0.00000000000E+00 -0.00000000000E+00 -0.45593999997E+02  0.45594000000E+02  0.51100000000E-03 0.  1.
    9900012    2    1    2    0    0 -0.26586084977E+02 -0.13231198473E+02 -0.27771952531E+02  0.50528857426E+02  0.29999992633E+02 0.  0.
         12    1    1    2    0    0  0.26586084977E+02  0.13231198473E+02  0.27771952531E+02  0.40659142574E+02  0.00000000000E+00 0. -1.
         11    1    3    3    0    0 -0.16194942107E+02 -0.20813097927E+02 -0.20561229640E+02  0.33439876790E+02  0.51100000000E-03 0. -1.
        -11    1    3    3    0    0 -0.87656835206E+01  0.42083953959E+01 -0.87110793527E+01  0.13054911074E+02  0.51100000000E-03 0.  1.
        -12    1    3    3    0    0 -0.16254593495E+01  0.33735040578E+01  0.15003564617E+01  0.40340695628E+01  0.00000000000E+00 0.  1.
</event>
<event>
 7    1  0.4971907E-013  0.5052886E+02  0.7816164E-02  0.1300439E+00
        -11   -1    0    0    0    0  0.00000000000E+00  0.00000000000E+00  0.45593999997E+02  0.45594000000E+02  0.51100000000E-03 0.  1.
         11   -1    0    0    0    0 -0.00000000000E+00 -0.00000000000E+00 -0.45593999997E+02  0.45594000000E+02  0.51100000000E-03 0. -1.
    9900012    2    1    2    0    0  0.22263890449E+01 -0.25162910669E+02  0.31859639592E+02  0.50528861833E+02  0.30000006028E+02 0.  0.
         12    1    1    2    0    0 -0.22263890449E+01  0.25162910669E+02 -0.31859639592E+02  0.40659138167E+02  0.00000000000E+00 0. -1.
         11    1    3    3    0    0  0.31811037387E+01  0.14227136185E+01  0.10446261662E+02  0.11012171357E+02  0.51100000000E-03 0. -1.
        -11    1    3    3    0    0 -0.55097275784E+01 -0.73590602494E+01  0.16915874621E+02  0.19252523996E+02  0.51100000000E-03 0.  1.
         12    1    3    3    0    0  0.45550128847E+01 -0.19226564039E+02  0.44975033091E+01  0.20264166480E+02  0.00000000000E+00 0. -1.
</event>
<event>
 7    1  0.4971907E-013  0.5052887E+02  0.7816164E-02  0.1300439E+00
        -11   -1    0    0    0    0  0.00000000000E+00  0.00000000000E+00  0.45593999997E+02  0.45594000000E+02  0.51100000000E-03 0.  1.
         11   -1    0    0    0    0 -0.00000000000E+00 -0.00000000000E+00 -0.45593999997E+02  0.45594000000E+02  0.51100000000E-03 0. -1.
    9900012    2    1    2    0    0  0.31806688400E+02 -0.17228648702E+02  0.18565374266E+02  0.50528869602E+02  0.30000029643E+02 0.  0.
         12    1    1    2    0    0 -0.31806688400E+02  0.17228648702E+02 -0.18565374266E+02  0.40659130398E+02  0.00000000000E+00 0. -1.
         11    1    3    3    0    0 -0.13758476096E+00 -0.41741998850E+01  0.12747826621E+02  0.13414542782E+02  0.51100000000E-03 0. -1.
        -11    1    3    3    0    0  0.81771700524E+01 -0.79993956600E+01  0.57777153216E+01  0.12815554439E+02  0.51100000000E-03 0.  1.
         12    1    3    3    0    0  0.23767103108E+02 -0.50550531570E+01  0.39832323740E-01  0.24298772381E+02  0.00000000000E+00 0. -1.
</event>
<event>
 7    1  0.4971907E-013  0.5052886E+02  0.7816164E-02  0.1300439E+00
        -11   -1    0    0    0    0  0.00000000000E+00  0.00000000000E+00  0.45593999997E+02  0.45594000000E+02  0.51100000000E-03 0. -1.
         11   -1    0    0    0    0 -0.00000000000E+00 -0.00000000000E+00 -0.45593999997E+02  0.45594000000E+02  0.51100000000E-03 0.  1.
    9900012    2    1    2    0    0  0.20848434495E+02  0.10830539052E+02 -0.33184450027E+02  0.50528861782E+02  0.30000005872E+02 0.  0.
         12    1    1    2    0    0 -0.20848434495E+02 -0.10830539052E+02  0.33184450027E+02  0.40659138218E+02  0.00000000000E+00 0. -1.
         11    1    3    3    0    0  0.14327051127E+02 -0.12511772848E+01 -0.72084483015E+01  0.16086999900E+02  0.51100000000E-03 0. -1.
        -11    1    3    3    0    0  0.95244734233E+01  0.10860398923E+01 -0.56208157349E+01  0.11112544552E+02  0.51100000000E-03 0.  1.
        -12    1    3    3    0    0 -0.30030900553E+01  0.10995676445E+02 -0.20355185991E+02  0.23329317330E+02  0.00000000000E+00 0.  1.
</event>
<event>
 7    1  0.4971907E-013  0.5052887E+02  0.7816164E-02  0.1300439E+00
        -11   -1    0    0    0    0  0.00000000000E+00  0.00000000000E+00  0.45593999997E+02  0.45594000000E+02  0.51100000000E-03 0.  1.
         11   -1    0    0    0    0 -0.00000000000E+00 -0.00000000000E+00 -0.45593999997E+02  0.45594000000E+02  0.51100000000E-03 0. -1.
    9900012    2    1    2    0    0  0.66714759069E+01 -0.93562830045E+01  0.39001486344E+02  0.50528873602E+02  0.30000041799E+02 0.  0.
         12    1    1    2    0    0 -0.66714759069E+01  0.93562830045E+01 -0.39001486344E+02  0.40659126398E+02  0.00000000000E+00 0. -1.
         11    1    3    3    0    0  0.31246650860E+01 -0.10940203262E+01 -0.36593004854E+01  0.49346623672E+01  0.51100000000E-03 0. -1.
        -11    1    3    3    0    0  0.25248875923E+00  0.32651559234E+00 -0.94367960157E+00  0.10299973093E+01  0.51100000000E-03 0.  1.
        -12    1    3    3    0    0  0.32943220616E+01 -0.85887782706E+01  0.43604466431E+02  0.44564213925E+02  0.00000000000E+00 0.  1.
</event>
<event>
 7    1  0.4971907E-013  0.5052885E+02  0.7816164E-02  0.1300439E+00
        -11   -1    0    0    0    0  0.00000000000E+00  0.00000000000E+00  0.45593999997E+02  0.45594000000E+02  0.51100000000E-03 0.  1.
         11   -1    0    0    0    0 -0.00000000000E+00 -0.00000000000E+00 -0.45593999997E+02  0.45594000000E+02  0.51100000000E-03 0. -1.
    9900012    2    1    2    0    0  0.28168526750E+02  0.10057425274E+02  0.27541767078E+02  0.50528848063E+02  0.29999964174E+02 0.  0.
         12    1    1    2    0    0 -0.28168526750E+02 -0.10057425274E+02 -0.27541767078E+02  0.40659151937E+02  0.00000000000E+00 0. -1.
         11    1    3    3    0    0 -0.33679796899E+01  0.52658424454E+01  0.39824621415E+01  0.74116387406E+01  0.51100000000E-03 0. -1.
        -11    1    3    3    0    0 -0.16455096896E+00  0.30671363791E+00  0.71165438642E+01  0.71250506742E+01  0.51100000000E-03 0.  1.
         12    1    3    3    0    0  0.31701057409E+02  0.44848691910E+01  0.16442761072E+02  0.35992158649E+02  0.00000000000E+00 0. -1.
</event>
<event>
 7    1  0.4971907E-013  0.5052886E+02  0.7816164E-02  0.1300439E+00
        -11   -1    0    0    0    0  0.00000000000E+00  0.00000000000E+00  0.45593999997E+02  0.45594000000E+02  0.51100000000E-03 0.  1.
         11   -1    0    0    0    0 -0.00000000000E+00 -0.00000000000E+00 -0.45593999997E+02  0.45594000000E+02  0.51100000000E-03 0. -1.
    9900012    2    1    2    0    0  0.33373142456E+02  0.65700527170E+01  0.22276300224E+02  0.50528858570E+02  0.29999996111E+02 0.  0.
         12    1    1    2    0    0 -0.33373142456E+02 -0.65700527170E+01 -0.22276300224E+02  0.40659141430E+02  0.00000000000E+00 0. -1.
         11    1    3    3    0    0  0.53556759294E+01  0.59923612327E+01  0.44976657223E+01  0.92098129739E+01  0.51100000000E-03 0.  1.
        -11    1    3    3    0    0  0.20791712517E+02 -0.80375200281E+01  0.26189983553E+01  0.22444513589E+02  0.51100000000E-03 0. -1.
         12    1    3    3    0    0  0.72257540098E+01  0.86152115125E+01  0.15159636146E+02  0.18874532008E+02  0.00000000000E+00 0. -1.
</event>
<event>
 7    1  0.4971907E-013  0.5052886E+02  0.7816164E-02  0.1300439E+00
        -11   -1    0    0    0    0  0.00000000000E+00  0.00000000000E+00  0.45593999997E+02  0.45594000000E+02  0.51100000000E-03 0. -1.
         11   -1    0    0    0    0 -0.00000000000E+00 -0.00000000000E+00 -0.45593999997E+02  0.45594000000E+02  0.51100000000E-03 0.  1.
    9900012    2    1    2    0    0  0.14154850684E+02  0.17906161552E+02 -0.33647807816E+02  0.50528863385E+02  0.30000010746E+02 0.  0.
         12    1    1    2    0    0 -0.14154850684E+02 -0.17906161552E+02  0.33647807816E+02  0.40659136615E+02  0.00000000000E+00 0. -1.
         11    1    3    3    0    0  0.31626997230E+00  0.69986711397E+01 -0.10992453332E+02  0.13035162252E+02  0.51100000000E-03 0. -1.
        -11    1    3    3    0    0  0.17866321038E+02  0.12213813676E+02 -0.24659001741E+02  0.32809282819E+02  0.51100000000E-03 0.  1.
         12    1    3    3    0    0 -0.40277403264E+01 -0.13063232641E+01  0.20036472576E+01  0.46844183140E+01  0.00000000000E+00 0. -1.
</event>
<event>
 7    1  0.4971907E-013  0.5052886E+02  0.7816164E-02  0.1300439E+00
        -11   -1    0    0    0    0  0.00000000000E+00  0.00000000000E+00  0.45593999997E+02  0.45594000000E+02  0.51100000000E-03 0.  1.
         11   -1    0    0    0    0 -0.00000000000E+00 -0.00000000000E+00 -0.45593999997E+02  0.45594000000E+02  0.51100000000E-03 0. -1.
    9900012    2    1    2    0    0  0.10749469594E+02 -0.12865663281E+01  0.39191320120E+02  0.50528856843E+02  0.29999990861E+02 0.  0.
         12    1    1    2    0    0 -0.10749469594E+02  0.12865663281E+01 -0.39191320120E+02  0.40659143157E+02  0.00000000000E+00 0. -1.
         11    1    3    3    0    0  0.29597799684E+01 -0.40305778230E+01  0.95790516366E+01  0.10805743175E+02  0.51100000000E-03 0. -1.
        -11    1    3    3    0    0  0.16525509517E+02  0.48978454295E+01  0.21925792901E+02  0.27889455879E+02  0.51100000000E-03 0.  1.
         12    1    3    3    0    0 -0.87358198908E+01 -0.21538339345E+01  0.76864755826E+01  0.11833657789E+02  0.00000000000E+00 0. -1.
</event>
<event>
 7    1  0.4971907E-013  0.5052886E+02  0.7816164E-02  0.1300439E+00
        -11   -1    0    0    0    0  0.00000000000E+00  0.00000000000E+00  0.45593999997E+02  0.45594000000E+02  0.51100000000E-03 0.  1.
         11   -1    0    0    0    0 -0.00000000000E+00 -0.00000000000E+00 -0.45593999997E+02  0.45594000000E+02  0.51100000000E-03 0. -1.
    9900012    2    1    2    0    0 -0.72616848804E+01 -0.22358335042E+01  0.39942889872E+02  0.50528862404E+02  0.30000007763E+02 0.  0.
         12    1    1    2    0    0  0.72616848804E+01  0.22358335042E+01 -0.39942889872E+02  0.40659137596E+02  0.00000000000E+00 0. -1.
         11    1    3    3    0    0 -0.60584541974E+01 -0.28449748324E+01  0.23872148571E+02  0.24792705111E+02  0.51100000000E-03 0. -1.
        -11    1    3    3    0    0  0.20619632629E+01 -0.88394299316E+01  0.11744876415E+02  0.14843494746E+02  0.51100000000E-03 0.  1.
         12    1    3    3    0    0 -0.32651939459E+01  0.94485712598E+01  0.43258648864E+01  0.10892662547E+02  0.00000000000E+00 0. -1.
</event>
<event>
 7    1  0.4971907E-013  0.5052887E+02  0.7816164E-02  0.1300439E+00
        -11   -1    0    0    0    0  0.00000000000E+00  0.00000000000E+00  0.45593999997E+02  0.45594000000E+02  0.51100000000E-03 0.  1.
         11   -1    0    0    0    0 -0.00000000000E+00 -0.00000000000E+00 -0.45593999997E+02  0.45594000000E+02  0.51100000000E-03 0. -1.
    9900012    2    1    2    0    0  0.31072461334E+00  0.35024206420E+02  0.20648815609E+02  0.50528866079E+02  0.30000018934E+02 0.  0.
         12    1    1    2    0    0 -0.31072461334E+00 -0.35024206420E+02 -0.20648815609E+02  0.40659133921E+02  0.00000000000E+00 0. -1.
         11    1    3    3    0    0  0.10878561705E+01 -0.35951447504E+01  0.94923117488E+00  0.38742143601E+01  0.51100000000E-03 0. -1.
        -11    1    3    3    0    0  0.59242348879E+01  0.13754919103E+02  0.13561666698E+01  0.15037737424E+02  0.51100000000E-03 0.  1.
        -12    1    3    3    0    0 -0.67013664451E+01  0.24864432067E+02  0.18343417764E+02  0.31616914295E+02  0.00000000000E+00 0.  1.
</event>
<event>
 7    1  0.4971907E-013  0.5052886E+02  0.7816164E-02  0.1300439E+00
        -11   -1    0    0    0    0  0.00000000000E+00  0.00000000000E+00  0.45593999997E+02  0.45594000000E+02  0.51100000000E-03 0. -1.
         11   -1    0    0    0    0 -0.00000000000E+00 -0.00000000000E+00 -0.45593999997E+02  0.45594000000E+02  0.51100000000E-03 0.  1.
    9900012    2    1    2    0    0 -0.95148300663E+01  0.39241164338E+02 -0.47712098946E+01  0.50528863098E+02  0.30000009871E+02 0.  0.
         12    1    1    2    0    0  0.95148300663E+01 -0.39241164338E+02  0.47712098946E+01  0.40659136902E+02  0.00000000000E+00 0. -1.
         11    1    3    3    0    0 -0.15178861231E+02  0.10478127664E+02 -0.21128786559E+01  0.18564838919E+02  0.51100000000E-03 0. -1.
        -11    1    3    3    0    0 -0.21922973530E+00  0.36632575045E+01 -0.48602250074E+01  0.60900988994E+01  0.51100000000E-03 0.  1.
        -12    1    3    3    0    0  0.58832609001E+01  0.25099779170E+02  0.22018937687E+01  0.25873925279E+02  0.00000000000E+00 0.  1.
</event>
<event>
 7    1  0.4971907E-013  0.5052890E+02  0.7816164E-02  0.1300439E+00
        -11   -1    0    0    0    0  0.00000000000E+00  0.00000000000E+00  0.45593999997E+02  0.45594000000E+02  0.51100000000E-03 0. -1.
         11   -1    0    0    0    0 -0.00000000000E+00 -0.00000000000E+00 -0.45593999997E+02  0.45594000000E+02  0.51100000000E-03 0.  1.
    9900012    2    1    2    0    0  0.37678911141E+02  0.81970387716E+01 -0.12894606295E+02  0.50528896949E+02  0.30000112766E+02 0.  0.
         12    1    1    2    0    0 -0.37678911141E+02 -0.81970387716E+01  0.12894606295E+02  0.40659103051E+02  0.00000000000E+00 0. -1.
         11    1    3    3    0    0  0.18756440419E+02  0.81872814347E+01 -0.94805779216E+01  0.22554755429E+02  0.51100000000E-03 0. -1.
        -11    1    3    3    0    0  0.13841213544E+02  0.65357377208E+01  0.50711192679E+01  0.16124866226E+02  0.51100000000E-03 0.  1.
         12    1    3    3    0    0  0.50812571778E+01 -0.65259803839E+01 -0.84851476418E+01  0.11849275293E+02  0.00000000000E+00 0. -1.
</event>
<event>
 7    1  0.4971907E-013  0.5052887E+02  0.7816164E-02  0.1300439E+00
        -11   -1    0    0    0    0  0.00000000000E+00  0.00000000000E+00  0.45593999997E+02  0.45594000000E+02  0.51100000000E-03 0.  1.
         11   -1    0    0    0    0 -0.00000000000E+00 -0.00000000000E+00 -0.45593999997E+02  0.45594000000E+02  0.51100000000E-03 0. -1.
    9900012    2    1    2    0    0  0.58192065415E+00  0.31391074312E+02  0.25834607845E+02  0.50528866455E+02  0.30000020077E+02 0.  0.
         12    1    1    2    0    0 -0.58192065415E+00 -0.31391074312E+02 -0.25834607845E+02  0.40659133545E+02  0.00000000000E+00 0. -1.
         11    1    3    3    0    0  0.26663522160E+01  0.57117886909E+01 -0.28319750830E+01  0.69104303282E+01  0.51100000000E-03 0. -1.
        -11    1    3    3    0    0  0.44045558393E+01  0.22092556871E+02  0.12336563238E+02  0.25684080167E+02  0.51100000000E-03 0.  1.
         12    1    3    3    0    0 -0.64889874011E+01  0.35867287500E+01  0.16330019691E+02  0.17934355960E+02  0.00000000000E+00 0. -1.
</event>
<event>
 7    1  0.4971907E-013  0.5052886E+02  0.7816164E-02  0.1300439E+00
        -11   -1    0    0    0    0  0.00000000000E+00  0.00000000000E+00  0.45593999997E+02  0.45594000000E+02  0.51100000000E-03 0.  1.
         11   -1    0    0    0    0 -0.00000000000E+00 -0.00000000000E+00 -0.45593999997E+02  0.45594000000E+02  0.51100000000E-03 0. -1.
    9900012    2    1    2    0    0 -0.87014444193E+01  0.37373591552E+02  0.13441172202E+02  0.50528860921E+02  0.30000003255E+02 0.  0.
         12    1    1    2    0    0  0.87014444193E+01 -0.37373591552E+02 -0.13441172202E+02  0.40659139079E+02  0.00000000000E+00 0. -1.
         11    1    3    3    0    0  0.31257576950E+01  0.17746562386E+02  0.60240698349E+01  0.19000006719E+02  0.51100000000E-03 0. -1.
        -11    1    3    3    0    0 -0.86160174710E+01  0.22051597653E+02  0.68384473111E+00  0.23684939518E+02  0.51100000000E-03 0.  1.
         12    1    3    3    0    0 -0.32111846433E+01 -0.24245684872E+01  0.67332576362E+01  0.78439146832E+01  0.00000000000E+00 0. -1.
</event>
<event>
 7    1  0.4971907E-013  0.5052886E+02  0.7816164E-02  0.1300439E+00
        -11   -1    0    0    0    0  0.00000000000E+00  0.00000000000E+00  0.45593999997E+02  0.45594000000E+02  0.51100000000E-03 0.  1.
         11   -1    0    0    0    0 -0.00000000000E+00 -0.00000000000E+00 -0.45593999997E+02  0.45594000000E+02  0.51100000000E-03 0. -1.
    9900012    2    1    2    0    0 -0.30773252307E+02 -0.31401002262E+01  0.26387737465E+02  0.50528856188E+02  0.29999988870E+02 0.  0.
         12    1    1    2    0    0  0.30773252307E+02  0.31401002262E+01 -0.26387737465E+02  0.40659143812E+02  0.00000000000E+00 0. -1.
         11    1    3    3    0    0  0.37693920749E+01 -0.28619717262E+01 -0.89563784569E+00  0.48167796490E+01  0.51100000000E-03 0. -1.
        -11    1    3    3    0    0 -0.20224205966E+02  0.43224629355E+01  0.20810031417E+02  0.29338704822E+02  0.51100000000E-03 0.  1.
        -12    1    3    3    0    0 -0.14318438416E+02 -0.46005914354E+01  0.64733438939E+01  0.16373371718E+02  0.00000000000E+00 0.  1.
</event>
<event>
 7    1  0.4971907E-013  0.5052885E+02  0.7816164E-02  0.1300439E+00
        -11   -1    0    0    0    0  0.00000000000E+00  0.00000000000E+00  0.45593999997E+02  0.45594000000E+02  0.51100000000E-03 0.  1.
         11   -1    0    0    0    0 -0.00000000000E+00 -0.00000000000E+00 -0.45593999997E+02  0.45594000000E+02  0.51100000000E-03 0. -1.
    9900012    2    1    2    0    0 -0.31016324471E+02  0.12105093408E+02  0.23337106740E+02  0.50528853169E+02  0.29999979692E+02 0.  0.
         12    1    1    2    0    0  0.31016324471E+02 -0.12105093408E+02 -0.23337106740E+02  0.40659146831E+02  0.00000000000E+00 0. -1.
         11    1    3    3    0    0 -0.15254392509E+02  0.42067336986E+00  0.18071619125E+02  0.23652840737E+02  0.51100000000E-03 0. -1.
        -11    1    3    3    0    0 -0.17399323986E+02  0.44752310756E+01  0.70021570121E+01  0.19281970113E+02  0.51100000000E-03 0.  1.
        -12    1    3    3    0    0  0.16373920249E+01  0.72091889620E+01 -0.17366693972E+01  0.75940423181E+01  0.00000000000E+00 0.  1.
</event>
<event>
 7    1  0.4971907E-013  0.5052886E+02  0.7816164E-02  0.1300439E+00
        -11   -1    0    0    0    0  0.00000000000E+00  0.00000000000E+00  0.45593999997E+02  0.45594000000E+02  0.51100000000E-03 0.  1.
         11   -1    0    0    0    0 -0.00000000000E+00 -0.00000000000E+00 -0.45593999997E+02  0.45594000000E+02  0.51100000000E-03 0. -1.
    9900012    2    1    2    0    0 -0.30444939640E+02  0.18434465894E+02  0.19658123795E+02  0.50528859408E+02  0.29999998658E+02 0.  0.
         12    1    1    2    0    0  0.30444939640E+02 -0.18434465894E+02 -0.19658123795E+02  0.40659140592E+02  0.00000000000E+00 0. -1.
         11    1    3    3    0    0 -0.13284166095E+02  0.15042236884E+02  0.34444634948E+01  0.20361784999E+02  0.51100000000E-03 0.  1.
        -11    1    3    3    0    0 -0.13030996127E+02  0.10369508989E+02  0.14016301437E+02  0.21766724213E+02  0.51100000000E-03 0. -1.
        -12    1    3    3    0    0 -0.41297774187E+01 -0.69772799799E+01  0.21973588636E+01  0.84003501964E+01  0.00000000000E+00 0.  1.
</event>
<event>
 7    1  0.4971907E-013  0.5052886E+02  0.7816164E-02  0.1300439E+00
        -11   -1    0    0    0    0  0.00000000000E+00  0.00000000000E+00  0.45593999997E+02  0.45594000000E+02  0.51100000000E-03 0. -1.
         11   -1    0    0    0    0 -0.00000000000E+00 -0.00000000000E+00 -0.45593999997E+02  0.45594000000E+02  0.51100000000E-03 0.  1.
    9900012    2    1    2    0    0  0.26486838172E+01 -0.29406122812E+02  0.27954066700E+02  0.50528862898E+02  0.30000009264E+02 0.  0.
         12    1    1    2    0    0 -0.26486838172E+01  0.29406122812E+02 -0.27954066700E+02  0.40659137102E+02  0.00000000000E+00 0. -1.
         11    1    3    3    0    0  0.10608367346E+02 -0.47074950560E+01  0.87817453949E+01  0.14553934859E+02  0.51100000000E-03 0. -1.
        -11    1    3    3    0    0 -0.42017738081E+01  0.66781933486E+00  0.53763027609E+01  0.68560569890E+01  0.51100000000E-03 0.  1.
        -12    1    3    3    0    0 -0.37579097207E+01 -0.25366447091E+02  0.13796018545E+02  0.29118871049E+02  0.00000000000E+00 0.  1.
</event>
<event>
 7    1  0.4971907E-013  0.5052887E+02  0.7816164E-02  0.1300439E+00
        -11   -1    0    0    0    0  0.00000000000E+00  0.00000000000E+00  0.45593999997E+02  0.45594000000E+02  0.51100000000E-03 0. -1.
         11   -1    0    0    0    0 -0.00000000000E+00 -0.00000000000E+00 -0.45593999997E+02  0.45594000000E+02  0.51100000000E-03 0.  1.
    9900012    2    1    2    0    0  0.14887326321E+02  0.40295295353E+00 -0.37833455418E+02  0.50528865664E+02  0.30000017674E+02 0.  0.
         12    1    1    2    0    0 -0.14887326321E+02 -0.40295295353E+00  0.37833455418E+02  0.40659134336E+02  0.00000000000E+00 0. -1.
         11    1    3    3    0    0 -0.44342068388E+01  0.42835520692E+01 -0.60227775924E+01  0.86188664456E+01  0.51100000000E-03 0. -1.
        -11    1    3    3    0    0  0.14795131452E+02 -0.37906005997E+01 -0.71976072358E+01  0.16884019598E+02  0.51100000000E-03 0.  1.
         12    1    3    3    0    0  0.45264017076E+01 -0.89998515974E-01 -0.24613070589E+02  0.25025979621E+02  0.00000000000E+00 0. -1.
</event>
<event>
 7    1  0.4971907E-013  0.5052886E+02  0.7816164E-02  0.1300439E+00
        -11   -1    0    0    0    0  0.00000000000E+00  0.00000000000E+00  0.45593999997E+02  0.45594000000E+02  0.51100000000E-03 0. -1.
         11   -1    0    0    0    0 -0.00000000000E+00 -0.00000000000E+00 -0.45593999997E+02  0.45594000000E+02  0.51100000000E-03 0.  1.
    9900012    2    1    2    0    0  0.20251723421E+02 -0.29111672257E+02 -0.19888285134E+02  0.50528860207E+02  0.30000001086E+02 0.  0.
         12    1    1    2    0    0 -0.20251723421E+02  0.29111672257E+02  0.19888285134E+02  0.40659139793E+02  0.00000000000E+00 0. -1.
         11    1    3    3    0    0 -0.57519150812E+01 -0.36119265649E+01 -0.95183527637E+01  0.11693142444E+02  0.51100000000E-03 0. -1.
        -11    1    3    3    0    0  0.33571818423E+01 -0.21667811236E+01  0.14314418566E+01  0.42443652540E+01  0.51100000000E-03 0.  1.
        -12    1    3    3    0    0  0.22646456660E+02 -0.23332964569E+02 -0.11801374226E+02  0.34591352510E+02  0.00000000000E+00 0.  1.
</event>
<event>
 7    1  0.4971907E-013  0.5052886E+02  0.7816164E-02  0.1300439E+00
        -11   -1    0    0    0    0  0.00000000000E+00  0.00000000000E+00  0.45593999997E+02  0.45594000000E+02  0.51100000000E-03 0.  1.
         11   -1    0    0    0    0 -0.00000000000E+00 -0.00000000000E+00 -0.45593999997E+02  0.45594000000E+02  0.51100000000E-03 0. -1.
    9900012    2    1    2    0    0 -0.35386637882E+01 -0.39631213276E+02  0.83672079137E+01  0.50528863568E+02  0.30000011300E+02 0.  0.
         12    1    1    2    0    0  0.35386637882E+01  0.39631213276E+02 -0.83672079137E+01  0.40659136432E+02  0.00000000000E+00 0. -1.
         11    1    3    3    0    0  0.32255760984E+00 -0.55993965750E+01  0.92572058424E+01  0.10823730673E+02  0.51100000000E-03 0. -1.
        -11    1    3    3    0    0  0.30023818806E+01 -0.25084061311E+02  0.66696515662E+01  0.26128694592E+02  0.51100000000E-03 0.  1.
        -12    1    3    3    0    0 -0.68636032786E+01 -0.89477553907E+01 -0.75596494950E+01  0.13576438303E+02  0.00000000000E+00 0.  1.
</event>
<event>
 7    1  0.4971907E-013  0.5052886E+02  0.7816164E-02  0.1300439E+00
        -11   -1    0    0    0    0  0.00000000000E+00  0.00000000000E+00  0.45593999997E+02  0.45594000000E+02  0.51100000000E-03 0.  1.
         11   -1    0    0    0    0 -0.00000000000E+00 -0.00000000000E+00 -0.45593999997E+02  0.45594000000E+02  0.51100000000E-03 0. -1.
    9900012    2    1    2    0    0  0.52981851170E+01 -0.70164639793E+01  0.39697159775E+02  0.50528855561E+02  0.29999986962E+02 0.  0.
         12    1    1    2    0    0 -0.52981851170E+01  0.70164639793E+01 -0.39697159775E+02  0.40659144439E+02  0.00000000000E+00 0. -1.
         11    1    3    3    0    0 -0.19568911713E+01 -0.38743604309E+01 -0.25632154981E-01  0.43405931707E+01  0.51100000000E-03 0. -1.
        -11    1    3    3    0    0  0.30679012285E+00 -0.10995110444E+02  0.29746597667E+02  0.31715085478E+02  0.51100000000E-03 0.  1.
        -12    1    3    3    0    0  0.69482861655E+01  0.78530068956E+01  0.99761942630E+01  0.14473176912E+02  0.00000000000E+00 0.  1.
</event>
<event>
 7    1  0.6022331E-013  0.5052885E+02  0.7816164E-02  0.1300439E+00
        -11   -1    0    0    0    0  0.00000000000E+00  0.00000000000E+00  0.45593999997E+02  0.45594000000E+02  0.51100000000E-03 0.  1.
         11   -1    0    0    0    0 -0.00000000000E+00 -0.00000000000E+00 -0.45593999997E+02  0.45594000000E+02  0.51100000000E-03 0. -1.
    9900012    2    1    2    0    0  0.38301896271E+02 -0.61198145156E+01 -0.12193419104E+02  0.50528845347E+02  0.29999955918E+02 0.  0.
         12    1    1    2    0    0 -0.38301896271E+02  0.61198145156E+01  0.12193419104E+02  0.40659154653E+02  0.00000000000E+00 0. -1.
         11    1    3    3    0    0 -0.28621652006E+00  0.20536899635E+01 -0.57859793310E+01  0.61463094164E+01  0.51100000000E-03 0. -1.
        -11    1    3    3    0    0  0.78943884815E+01  0.23446867081E+01  0.54080653320E+01  0.98522127541E+01  0.51100000000E-03 0.  1.
        -12    1    3    3    0    0  0.30693724309E+02 -0.10518191187E+02 -0.11815505105E+02  0.34530323177E+02  0.00000000000E+00 0.  1.
</event>
<event>
 7    1  0.4971907E-013  0.5052886E+02  0.7816164E-02  0.1300439E+00
        -11   -1    0    0    0    0  0.00000000000E+00  0.00000000000E+00  0.45593999997E+02  0.45594000000E+02  0.51100000000E-03 0. -1.
         11   -1    0    0    0    0 -0.00000000000E+00 -0.00000000000E+00 -0.45593999997E+02  0.45594000000E+02  0.51100000000E-03 0.  1.
    9900012    2    1    2    0    0 -0.29735663517E+02  0.23139732884E+02 -0.15281001455E+02  0.50528856770E+02  0.29999990639E+02 0.  0.
         12    1    1    2    0    0  0.29735663517E+02 -0.23139732884E+02  0.15281001455E+02  0.40659143230E+02  0.00000000000E+00 0. -1.
         11    1    3    3    0    0 -0.98147699930E+01  0.40899331275E+01 -0.12226154407E+01  0.10702899223E+02  0.51100000000E-03 0. -1.
        -11    1    3    3    0    0 -0.24917997891E+02  0.12655381163E+02 -0.64074630972E+01  0.28672650294E+02  0.51100000000E-03 0.  1.
         12    1    3    3    0    0  0.49971043675E+01  0.63944185934E+01 -0.76509229167E+01  0.11153307253E+02  0.00000000000E+00 0. -1.
</event>
<event>
 7    1  0.4971907E-013  0.5052889E+02  0.7816164E-02  0.1300439E+00
        -11   -1    0    0    0    0  0.00000000000E+00  0.00000000000E+00  0.45593999997E+02  0.45594000000E+02  0.51100000000E-03 0.  1.
         11   -1    0    0    0    0 -0.00000000000E+00 -0.00000000000E+00 -0.45593999997E+02  0.45594000000E+02  0.51100000000E-03 0. -1.
    9900012    2    1    2    0    0 -0.23228606953E+02  0.45155733488E+01  0.33063640697E+02  0.50528893765E+02  0.30000103088E+02 0.  0.
         12    1    1    2    0    0  0.23228606953E+02 -0.45155733488E+01 -0.33063640697E+02  0.40659106235E+02  0.00000000000E+00 0. -1.
         11    1    3    3    0    0  0.19065667083E+01  0.48366926458E+01  0.13369786071E+02  0.14345026045E+02  0.51100000000E-03 0. -1.
        -11    1    3    3    0    0 -0.11996077655E+02 -0.75809584036E+01  0.14527732034E+02  0.20308417165E+02  0.51100000000E-03 0.  1.
        -12    1    3    3    0    0 -0.13139096007E+02  0.72598391066E+01  0.51661225921E+01  0.15875450556E+02  0.00000000000E+00 0.  1.
</event>
<event>
 7    1  0.4971907E-013  0.5052886E+02  0.7816164E-02  0.1300439E+00
        -11   -1    0    0    0    0  0.00000000000E+00  0.00000000000E+00  0.45593999997E+02  0.45594000000E+02  0.51100000000E-03 0.  1.
         11   -1    0    0    0    0 -0.00000000000E+00 -0.00000000000E+00 -0.45593999997E+02  0.45594000000E+02  0.51100000000E-03 0. -1.
    9900012    2    1    2    0    0 -0.13415685500E+02 -0.50073363991E+01  0.38054065141E+02  0.50528857006E+02  0.29999991356E+02 0.  0.
         12    1    1    2    0    0  0.13415685500E+02  0.50073363991E+01 -0.38054065141E+02  0.40659142994E+02  0.00000000000E+00 0. -1.
         11    1    3    3    0    0 -0.10727718354E+02  0.35921447123E+01  0.26550102031E+02  0.28859926591E+02  0.51100000000E-03 0. -1.
        -11    1    3    3    0    0  0.22674365362E+01  0.38309725603E+01  0.52925612333E+01  0.69158386240E+01  0.51100000000E-03 0.  1.
        -12    1    3    3    0    0 -0.49554036820E+01 -0.12430453672E+02  0.62114018766E+01  0.14753091791E+02  0.00000000000E+00 0.  1.
</event>
<event>
 7    1  0.4971907E-013  0.5052885E+02  0.7816164E-02  0.1300439E+00
        -11   -1    0    0    0    0  0.00000000000E+00  0.00000000000E+00  0.45593999997E+02  0.45594000000E+02  0.51100000000E-03 0.  1.
         11   -1    0    0    0    0 -0.00000000000E+00 -0.00000000000E+00 -0.45593999997E+02  0.45594000000E+02  0.51100000000E-03 0. -1.
    9900012    2    1    2    0    0 -0.22336399412E+02  0.23651269103E+02  0.24389946611E+02  0.50528846485E+02  0.29999959375E+02 0.  0.
         12    1    1    2    0    0  0.22336399412E+02 -0.23651269103E+02 -0.24389946611E+02  0.40659153515E+02  0.00000000000E+00 0. -1.
         11    1    3    3    0    0  0.19799895120E+01  0.87496800403E+00  0.60746681788E+00  0.22483201888E+01  0.51100000000E-03 0.  1.
        -11    1    3    3    0    0 -0.18099419278E+02  0.87086389044E+01  0.25878045253E+02  0.32758244705E+02  0.51100000000E-03 0. -1.
         12    1    3    3    0    0 -0.62169696462E+01  0.14067662195E+02 -0.20955654596E+01  0.15522281591E+02  0.00000000000E+00 0. -1.
</event>
<event>
 7    1  0.4971907E-013  0.5052887E+02  0.7816164E-02  0.1300439E+00
        -11   -1    0    0    0    0  0.00000000000E+00  0.00000000000E+00  0.45593999997E+02  0.45594000000E+02  0.51100000000E-03 0.  1.
         11   -1    0    0    0    0 -0.00000000000E+00 -0.00000000000E+00 -0.45593999997E+02  0.45594000000E+02  0.51100000000E-03 0. -1.
    9900012    2    1    2    0    0  0.12432360208E+01  0.37207665810E+02  0.16346533419E+02  0.50528865901E+02  0.30000018393E+02 0.  0.
         12    1    1    2    0    0 -0.12432360208E+01 -0.37207665810E+02 -0.16346533419E+02  0.40659134099E+02  0.00000000000E+00 0. -1.
         11    1    3    3    0    0  0.31721082503E+00  0.59236601028E+01  0.92321864107E+01  0.10973770451E+02  0.51100000000E-03 0. -1.
        -11    1    3    3    0    0  0.41250060606E+01  0.20531710552E+02  0.15071500889E+02  0.25801491284E+02  0.51100000000E-03 0.  1.
         12    1    3    3    0    0 -0.31989808648E+01  0.10752295156E+02 -0.79571538806E+01  0.13753604166E+02  0.00000000000E+00 0. -1.
</event>
<event>
 7    1  0.4971907E-013  0.5052885E+02  0.7816164E-02  0.1300439E+00
        -11   -1    0    0    0    0  0.00000000000E+00  0.00000000000E+00  0.45593999997E+02  0.45594000000E+02  0.51100000000E-03 0.  1.
         11   -1    0    0    0    0 -0.00000000000E+00 -0.00000000000E+00 -0.45593999997E+02  0.45594000000E+02  0.51100000000E-03 0. -1.
    9900012    2    1    2    0    0 -0.26286521182E+02  0.25568799723E+02  0.17561940943E+02  0.50528849925E+02  0.29999969832E+02 0.  0.
         12    1    1    2    0    0  0.26286521182E+02 -0.25568799723E+02 -0.17561940943E+02  0.40659150075E+02  0.00000000000E+00 0. -1.
         11    1    3    3    0    0 -0.10269995045E+02  0.10933582542E+01  0.62943666655E+01  0.12094927965E+02  0.51100000000E-03 0. -1.
        -11    1    3    3    0    0 -0.20153793815E+02  0.19949659463E+02  0.14111234663E+02  0.31674773272E+02  0.51100000000E-03 0.  1.
         12    1    3    3    0    0  0.41372676775E+01  0.45257820055E+01 -0.28436603864E+01  0.67591486883E+01  0.00000000000E+00 0. -1.
</event>
<event>
 7    1  0.4971907E-013  0.5052886E+02  0.7816164E-02  0.1300439E+00
        -11   -1    0    0    0    0  0.00000000000E+00  0.00000000000E+00  0.45593999997E+02  0.45594000000E+02  0.51100000000E-03 0.  1.
         11   -1    0    0    0    0 -0.00000000000E+00 -0.00000000000E+00 -0.45593999997E+02  0.45594000000E+02  0.51100000000E-03 0. -1.
    9900012    2    1    2    0    0  0.25986201997E+02  0.23064112044E+02  0.21117052831E+02  0.50528857376E+02  0.29999992481E+02 0.  0.
         12    1    1    2    0    0 -0.25986201997E+02 -0.23064112044E+02 -0.21117052831E+02  0.40659142624E+02  0.00000000000E+00 0. -1.
         11    1    3    3    0    0 -0.14859680981E+01 -0.10697459617E+01  0.68197755031E+01  0.70612885358E+01  0.51100000000E-03 0. -1.
        -11    1    3    3    0    0  0.10612950232E+02  0.20627105480E+02  0.11931120659E+02  0.26085701707E+02  0.51100000000E-03 0.  1.
        -12    1    3    3    0    0  0.16859219863E+02  0.35067525264E+01  0.23661566692E+01  0.17381867134E+02  0.00000000000E+00 0.  1.
</event>
<event>
 7    1  0.8752420E-013  0.5052886E+02  0.7816164E-02  0.1300439E+00
        -11   -1    0    0    0    0  0.00000000000E+00  0.00000000000E+00  0.45593999997E+02  0.45594000000E+02  0.51100000000E-03 0. -1.
         11   -1    0    0    0    0 -0.00000000000E+00 -0.00000000000E+00 -0.45593999997E+02  0.45594000000E+02  0.51100000000E-03 0.  1.
    9900012    2    1    2    0    0 -0.18032245591E+02 -0.88960716090E+01 -0.35339268685E+02  0.50528857334E+02  0.29999992352E+02 0.  0.
         12    1    1    2    0    0  0.18032245591E+02  0.88960716090E+01  0.35339268685E+02  0.40659142666E+02  0.00000000000E+00 0. -1.
         11    1    3    3    0    0 -0.73093580627E+01  0.77843102457E+00 -0.22879161927E+01  0.76985213460E+01  0.51100000000E-03 0. -1.
        -11    1    3    3    0    0 -0.73830630344E+01  0.53548922906E+01 -0.22182734243E+02  0.23984540646E+02  0.51100000000E-03 0.  1.
        -12    1    3    3    0    0 -0.33398244935E+01 -0.15029394924E+02 -0.10868618249E+02  0.18845795342E+02  0.00000000000E+00 0.  1.
</event>
<event>
 7    1  0.4971907E-013  0.5052886E+02  0.7816164E-02  0.1300439E+00
        -11   -1    0    0    0    0  0.00000000000E+00  0.00000000000E+00  0.45593999997E+02  0.45594000000E+02  0.51100000000E-03 0. -1.
         11   -1    0    0    0    0 -0.00000000000E+00 -0.00000000000E+00 -0.45593999997E+02  0.45594000000E+02  0.51100000000E-03 0.  1.
    9900012    2    1    2    0    0  0.14243939938E+02  0.15388404417E+02 -0.34834936265E+02  0.50528860806E+02  0.30000002904E+02 0.  0.
         12    1    1    2    0    0 -0.14243939938E+02 -0.15388404417E+02  0.34834936265E+02  0.40659139194E+02  0.00000000000E+00 0. -1.
         11    1    3    3    0    0  0.45161847565E+01 -0.38985086420E+01 -0.25185462472E+01  0.64759068745E+01  0.51100000000E-03 0. -1.
        -11    1    3    3    0    0  0.14657469134E+02  0.10856038174E+02 -0.12969811680E+02  0.22381040671E+02  0.51100000000E-03 0.  1.
        -12    1    3    3    0    0 -0.49297139521E+01  0.84308748850E+01 -0.19346578338E+02  0.21671913260E+02  0.00000000000E+00 0.  1.
</event>
<event>
 7    1  0.4971907E-013  0.5052886E+02  0.7816164E-02  0.1300439E+00
        -11   -1    0    0    0    0  0.00000000000E+00  0.00000000000E+00  0.45593999997E+02  0.45594000000E+02  0.51100000000E-03 0.  1.
         11   -1    0    0    0    0 -0.00000000000E+00 -0.00000000000E+00 -0.45593999997E+02  0.45594000000E+02  0.51100000000E-03 0. -1.
    9900012    2    1    2    0    0 -0.33869669201E+02 -0.11036714329E+02  0.19601069860E+02  0.50528862102E+02  0.30000006844E+02 0.  0.
         12    1    1    2    0    0  0.33869669201E+02  0.11036714329E+02 -0.19601069860E+02  0.40659137898E+02  0.00000000000E+00 0. -1.
         11    1    3    3    0    0 -0.28316755849E+02 -0.10471067493E+02  0.12261914806E+02  0.32585832370E+02  0.51100000000E-03 0. -1.
        -11    1    3    3    0    0 -0.63653535068E+01  0.52525753784E+01  0.86164839950E+01  0.11931096767E+02  0.51100000000E-03 0.  1.
         12    1    3    3    0    0  0.81244015480E+00 -0.58182222148E+01 -0.12773289411E+01  0.60119329645E+01  0.00000000000E+00 0. -1.
</event>
<event>
 7    1  0.4971907E-013  0.5052890E+02  0.7816164E-02  0.1300439E+00
        -11   -1    0    0    0    0  0.00000000000E+00  0.00000000000E+00  0.45593999997E+02  0.45594000000E+02  0.51100000000E-03 0.  1.
         11   -1    0    0    0    0 -0.00000000000E+00 -0.00000000000E+00 -0.45593999997E+02  0.45594000000E+02  0.51100000000E-03 0. -1.
    9900012    2    1    2    0    0 -0.16247501644E+02 -0.30281861014E+02  0.21729929043E+02  0.50528902219E+02  0.30000128784E+02 0.  0.
         12    1    1    2    0    0  0.16247501644E+02  0.30281861014E+02 -0.21729929043E+02  0.40659097781E+02  0.00000000000E+00 0. -1.
         11    1    3    3    0    0 -0.41458422976E+01 -0.13916040723E+02  0.62522580302E+01  0.15809330425E+02  0.51100000000E-03 0.  1.
        -11    1    3    3    0    0 -0.14838878848E+01 -0.18629486278E+02  0.14805390559E+02  0.23842383943E+02  0.51100000000E-03 0. -1.
         12    1    3    3    0    0 -0.10617771462E+02  0.22636659870E+01  0.67228045419E+00  0.10877187850E+02  0.00000000000E+00 0. -1.
</event>
<event>
 7    1  0.4971907E-013  0.5052886E+02  0.7816164E-02  0.1300439E+00
        -11   -1    0    0    0    0  0.00000000000E+00  0.00000000000E+00  0.45593999997E+02  0.45594000000E+02  0.51100000000E-03 0. -1.
         11   -1    0    0    0    0 -0.00000000000E+00 -0.00000000000E+00 -0.45593999997E+02  0.45594000000E+02  0.51100000000E-03 0.  1.
    9900012    2    1    2    0    0  0.15139711389E+02 -0.11759554347E+02 -0.35856205782E+02  0.50528862374E+02  0.30000007672E+02 0.  0.
         12    1    1    2    0    0 -0.15139711389E+02  0.11759554347E+02  0.35856205782E+02  0.40659137626E+02  0.00000000000E+00 0. -1.
         11    1    3    3    0    0  0.86863598919E+00 -0.98074557027E+01 -0.94709812428E+01  0.13661632472E+02  0.51100000000E-03 0. -1.
        -11    1    3    3    0    0  0.13694500944E+02 -0.32071337656E+01 -0.29926088605E+02  0.33066536598E+02  0.51100000000E-03 0.  1.
         12    1    3    3    0    0  0.57657445661E+00  0.12550351214E+01  0.35408640658E+01  0.38006933042E+01  0.00000000000E+00 0. -1.
</event>
<event>
 7    1  0.4971907E-013  0.5052887E+02  0.7816164E-02  0.1300439E+00
        -11   -1    0    0    0    0  0.00000000000E+00  0.00000000000E+00  0.45593999997E+02  0.45594000000E+02  0.51100000000E-03 0. -1.
         11   -1    0    0    0    0 -0.00000000000E+00 -0.00000000000E+00 -0.45593999997E+02  0.45594000000E+02  0.51100000000E-03 0.  1.
    9900012    2    1    2    0    0 -0.37418443547E+02 -0.14815598877E+02  0.57899370528E+01  0.50528865004E+02  0.30000015666E+02 0.  0.
         12    1    1    2    0    0  0.37418443547E+02  0.14815598877E+02 -0.57899370528E+01  0.40659134996E+02  0.00000000000E+00 0. -1.
         11    1    3    3    0    0 -0.86690536100E+00  0.13984896985E+01  0.28441452292E+01  0.32857968117E+01  0.51100000000E-03 0. -1.
        -11    1    3    3    0    0 -0.74860587219E+01  0.59092564526E+01  0.47832371852E+01  0.10669570996E+02  0.51100000000E-03 0.  1.
        -12    1    3    3    0    0 -0.29065479464E+02 -0.22123345028E+02 -0.18374453616E+01  0.36573497196E+02  0.00000000000E+00 0.  1.
</event>
<event>
 7    1  0.4971907E-013  0.5052883E+02  0.7816164E-02  0.1300439E+00
        -11   -1    0    0    0    0  0.00000000000E+00  0.00000000000E+00  0.45593999997E+02  0.45594000000E+02  0.51100000000E-03 0. -1.
         11   -1    0    0    0    0 -0.00000000000E+00 -0.00000000000E+00 -0.45593999997E+02  0.45594000000E+02  0.51100000000E-03 0.  1.
    9900012    2    1    2    0    0  0.16472256766E+02  0.63224542959E+01 -0.36631398748E+02  0.50528830733E+02  0.29999911495E+02 0.  0.
         12    1    1    2    0    0 -0.16472256766E+02 -0.63224542959E+01  0.36631398748E+02  0.40659169267E+02  0.00000000000E+00 0. -1.
         11    1    3    3    0    0  0.66503897862E+00 -0.14635651491E+01 -0.28552981756E+02  0.28598200419E+02  0.51100000000E-03 0. -1.
        -11    1    3    3    0    0  0.27551137573E+01  0.14765227472E+01  0.24849283377E+01  0.39931992617E+01  0.51100000000E-03 0.  1.
        -12    1    3    3    0    0  0.13052104030E+02  0.63094966977E+01 -0.10563345329E+02  0.17937431052E+02  0.00000000000E+00 0.  1.
</event>
<event>
 7    1  0.4971907E-013  0.5052880E+02  0.7816164E-02  0.1300439E+00
        -11   -1    0    0    0    0  0.00000000000E+00  0.00000000000E+00  0.45593999997E+02  0.45594000000E+02  0.51100000000E-03 0.  1.
         11   -1    0    0    0    0 -0.00000000000E+00 -0.00000000000E+00 -0.45593999997E+02  0.45594000000E+02  0.51100000000E-03 0. -1.
    9900012    2    1    2    0    0 -0.17474783679E+02  0.33650926428E+02  0.14677103408E+02  0.50528803272E+02  0.29999828025E+02 0.  0.
         12    1    1    2    0    0  0.17474783679E+02 -0.33650926428E+02 -0.14677103408E+02  0.40659196728E+02  0.00000000000E+00 0. -1.
         11    1    3    3    0    0  0.49102706121E+00  0.16565335976E+02  0.14424415224E+02  0.21970781015E+02  0.51100000000E-03 0. -1.
        -11    1    3    3    0    0 -0.10908100814E+02  0.13931671052E+02  0.62591216294E+01  0.18768450269E+02  0.51100000000E-03 0.  1.
        -12    1    3    3    0    0 -0.70577099265E+01  0.31539194004E+01 -0.60064334454E+01  0.97895719888E+01  0.00000000000E+00 0.  1.
</event>
<event>
 7    1  0.4971907E-013  0.5052886E+02  0.7816164E-02  0.1300439E+00
        -11   -1    0    0    0    0  0.00000000000E+00  0.00000000000E+00  0.45593999997E+02  0.45594000000E+02  0.51100000000E-03 0.  1.
         11   -1    0    0    0    0 -0.00000000000E+00 -0.00000000000E+00 -0.45593999997E+02  0.45594000000E+02  0.51100000000E-03 0. -1.
    9900012    2    1    2    0    0  0.13887760511E+00 -0.14999028804E+02  0.37791209659E+02  0.50528859827E+02  0.29999999931E+02 0.  0.
         12    1    1    2    0    0 -0.13887760511E+00  0.14999028804E+02 -0.37791209659E+02  0.40659140173E+02  0.00000000000E+00 0. -1.
         11    1    3    3    0    0  0.43354177117E+01 -0.64649078639E+00  0.22987101576E+01  0.49495318689E+01  0.51100000000E-03 0. -1.
        -11    1    3    3    0    0  0.62600218469E+00 -0.13603588434E+01  0.30963518398E+02  0.30999708495E+02  0.51100000000E-03 0.  1.
         12    1    3    3    0    0 -0.48225422912E+01 -0.12992179175E+02  0.45289811034E+01  0.14579619463E+02  0.00000000000E+00 0. -1.
</event>
<event>
 7    1  0.4971907E-013  0.5052885E+02  0.7816164E-02  0.1300439E+00
        -11   -1    0    0    0    0  0.00000000000E+00  0.00000000000E+00  0.45593999997E+02  0.45594000000E+02  0.51100000000E-03 0. -1.
         11   -1    0    0    0    0 -0.00000000000E+00 -0.00000000000E+00 -0.45593999997E+02  0.45594000000E+02  0.51100000000E-03 0.  1.
    9900012    2    1    2    0    0  0.35453294560E+02  0.69586300706E+01 -0.18649598073E+02  0.50528854216E+02  0.29999982875E+02 0.  0.
         12    1    1    2    0    0 -0.35453294560E+02 -0.69586300706E+01  0.18649598073E+02  0.40659145784E+02  0.00000000000E+00 0. -1.
         11    1    3    3    0    0  0.11696038409E+02  0.14289770159E+02 -0.48580011677E+01  0.19094371455E+02  0.51100000000E-03 0. -1.
        -11    1    3    3    0    0  0.22109411544E+02 -0.15430262066E+01 -0.11710042605E+02  0.25066553548E+02  0.51100000000E-03 0.  1.
         12    1    3    3    0    0  0.16478446076E+01 -0.57881138818E+01 -0.20815542997E+01  0.63679292130E+01  0.00000000000E+00 0. -1.
</event>
<event>
 7    1  0.4971907E-013  0.5052886E+02  0.7816164E-02  0.1300439E+00
        -11   -1    0    0    0    0  0.00000000000E+00  0.00000000000E+00  0.45593999997E+02  0.45594000000E+02  0.51100000000E-03 0. -1.
         11   -1    0    0    0    0 -0.00000000000E+00 -0.00000000000E+00 -0.45593999997E+02  0.45594000000E+02  0.51100000000E-03 0.  1.
    9900012    2    1    2    0    0  0.17383942571E+02 -0.91671762330E+01 -0.35593921496E+02  0.50528858016E+02  0.29999994426E+02 0.  0.
         12    1    1    2    0    0 -0.17383942571E+02  0.91671762330E+01  0.35593921496E+02  0.40659141984E+02  0.00000000000E+00 0. -1.
         11    1    3    3    0    0  0.10672517183E+02 -0.27382119057E+01 -0.30566953001E+02  0.32492138180E+02  0.51100000000E-03 0. -1.
        -11    1    3    3    0    0 -0.36328935978E+01  0.16268779402E+01 -0.24519742495E+01  0.46751284161E+01  0.51100000000E-03 0.  1.
         12    1    3    3    0    0  0.10344318986E+02 -0.80558422676E+01 -0.25749942448E+01  0.13361591420E+02  0.00000000000E+00 0. -1.
</event>
<event>
 7    1  0.4971907E-013  0.5052885E+02  0.7816164E-02  0.1300439E+00
        -11   -1    0    0    0    0  0.00000000000E+00  0.00000000000E+00  0.45593999997E+02  0.45594000000E+02  0.51100000000E-03 0. -1.
         11   -1    0    0    0    0 -0.00000000000E+00 -0.00000000000E+00 -0.45593999997E+02  0.45594000000E+02  0.51100000000E-03 0.  1.
    9900012    2    1    2    0    0  0.14240988068E+02  0.24855336577E+02  0.28854340559E+02  0.50528850149E+02  0.29999970514E+02 0.  0.
         12    1    1    2    0    0 -0.14240988068E+02 -0.24855336577E+02 -0.28854340559E+02  0.40659149851E+02  0.00000000000E+00 0. -1.
         11    1    3    3    0    0  0.14494350910E+02  0.19179915807E+02  0.15173157807E+02  0.28428508522E+02  0.51100000000E-03 0.  1.
        -11    1    3    3    0    0  0.54861314820E+01 -0.19682871570E+01  0.10530308806E+02  0.12035746623E+02  0.51100000000E-03 0. -1.
         12    1    3    3    0    0 -0.57394943244E+01  0.76437079265E+01  0.31508739451E+01  0.10064595003E+02  0.00000000000E+00 0. -1.
</event>
<event>
 7    1  0.4971907E-013  0.5052887E+02  0.7816164E-02  0.1300439E+00
        -11   -1    0    0    0    0  0.00000000000E+00  0.00000000000E+00  0.45593999997E+02  0.45594000000E+02  0.51100000000E-03 0.  1.
         11   -1    0    0    0    0 -0.00000000000E+00 -0.00000000000E+00 -0.45593999997E+02  0.45594000000E+02  0.51100000000E-03 0. -1.
    9900012    2    1    2    0    0  0.19934055014E+02  0.33868785357E+02 -0.10426110213E+02  0.50528868861E+02  0.30000027389E+02 0.  0.
         12    1    1    2    0    0 -0.19934055014E+02 -0.33868785357E+02  0.10426110213E+02  0.40659131139E+02  0.00000000000E+00 0. -1.
         11    1    3    3    0    0  0.83742651644E+01  0.12301958406E+02 -0.10054496153E+02  0.17959938497E+02  0.51100000000E-03 0. -1.
        -11    1    3    3    0    0 -0.56271917250E+01  0.81754019049E+01 -0.35698158366E+01  0.10547325177E+02  0.51100000000E-03 0.  1.
         12    1    3    3    0    0  0.17186981574E+02  0.13391425046E+02  0.31982017767E+01  0.22021605187E+02  0.00000000000E+00 0. -1.
</event>
<event>
 7    1  0.4971907E-013  0.5052885E+02  0.7816164E-02  0.1300439E+00
        -11   -1    0    0    0    0  0.00000000000E+00  0.00000000000E+00  0.45593999997E+02  0.45594000000E+02  0.51100000000E-03 0. -1.
         11   -1    0    0    0    0 -0.00000000000E+00 -0.00000000000E+00 -0.45593999997E+02  0.45594000000E+02  0.51100000000E-03 0.  1.
    9900012    2    1    2    0    0 -0.34492219864E+02  0.59639292838E+01  0.20685379534E+02  0.50528848384E+02  0.29999965148E+02 0.  0.
         12    1    1    2    0    0  0.34492219864E+02 -0.59639292838E+01 -0.20685379534E+02  0.40659151616E+02  0.00000000000E+00 0. -1.
         11    1    3    3    0    0 -0.24357305677E+02  0.10534834397E+02  0.85828019565E+01  0.27891317024E+02  0.51100000000E-03 0.  1.
        -11    1    3    3    0    0 -0.17537636241E+01  0.25071279841E+01 -0.27900238118E+01  0.41407258674E+01  0.51100000000E-03 0. -1.
         12    1    3    3    0    0 -0.83811505626E+01 -0.70780330977E+01  0.14892601390E+02  0.18496805493E+02  0.00000000000E+00 0. -1.
</event>
<event>
 7    1  0.4971907E-013  0.5052885E+02  0.7816164E-02  0.1300439E+00
        -11   -1    0    0    0    0  0.00000000000E+00  0.00000000000E+00  0.45593999997E+02  0.45594000000E+02  0.51100000000E-03 0.  1.
         11   -1    0    0    0    0 -0.00000000000E+00 -0.00000000000E+00 -0.45593999997E+02  0.45594000000E+02  0.51100000000E-03 0. -1.
    9900012    2    1    2    0    0 -0.28156543062E+02  0.21602285911E+02  0.19842288867E+02  0.50528854641E+02  0.29999984168E+02 0.  0.
         12    1    1    2    0    0  0.28156543062E+02 -0.21602285911E+02 -0.19842288867E+02  0.40659145359E+02  0.00000000000E+00 0. -1.
         11    1    3    3    0    0 -0.75299753522E+01  0.20742866487E+02  0.46553733077E+01  0.22553038372E+02  0.51100000000E-03 0. -1.
        -11    1    3    3    0    0 -0.61480799733E+01  0.52918526322E+01  0.72520045571E+01  0.10880908142E+02  0.51100000000E-03 0.  1.
         12    1    3    3    0    0 -0.14478487737E+02 -0.44324332077E+01  0.79349110024E+01  0.17094908128E+02  0.00000000000E+00 0. -1.
</event>
<event>
 7    1  0.4971907E-013  0.5052885E+02  0.7816164E-02  0.1300439E+00
        -11   -1    0    0    0    0  0.00000000000E+00  0.00000000000E+00  0.45593999997E+02  0.45594000000E+02  0.51100000000E-03 0.  1.
         11   -1    0    0    0    0 -0.00000000000E+00 -0.00000000000E+00 -0.45593999997E+02  0.45594000000E+02  0.51100000000E-03 0. -1.
    9900012    2    1    2    0    0  0.11085439367E+01  0.15875541685E+02  0.37415301128E+02  0.50528850330E+02  0.29999971062E+02 0.  0.
         12    1    1    2    0    0 -0.11085439367E+01 -0.15875541685E+02 -0.37415301128E+02  0.40659149670E+02  0.00000000000E+00 0. -1.
         11    1    3    3    0    0  0.71233128145E+01  0.86064487015E+01  0.53589920267E+01  0.12390776429E+02  0.51100000000E-03 0. -1.
        -11    1    3    3    0    0  0.56367350924E+01 -0.99314767809E+00  0.13931800446E+02  0.15061679479E+02  0.51100000000E-03 0.  1.
        -12    1    3    3    0    0 -0.11651503970E+02  0.82622406615E+01  0.18124508655E+02  0.23076394421E+02  0.00000000000E+00 0.  1.
</event>
<event>
 7    1  0.4971907E-013  0.5052885E+02  0.7816164E-02  0.1300439E+00
        -11   -1    0    0    0    0  0.00000000000E+00  0.00000000000E+00  0.45593999997E+02  0.45594000000E+02  0.51100000000E-03 0.  1.
         11   -1    0    0    0    0 -0.00000000000E+00 -0.00000000000E+00 -0.45593999997E+02  0.45594000000E+02  0.51100000000E-03 0. -1.
    9900012    2    1    2    0    0 -0.84192856427E+01  0.28854162511E+02  0.27381005099E+02  0.50528849674E+02  0.29999969070E+02 0.  0.
         12    1    1    2    0    0  0.84192856427E+01 -0.28854162511E+02 -0.27381005099E+02  0.40659150326E+02  0.00000000000E+00 0. -1.
         11    1    3    3    0    0  0.72486613339E+01  0.39131747497E+01 -0.11972507571E+01  0.83240277145E+01  0.51100000000E-03 0. -1.
        -11    1    3    3    0    0 -0.10367561968E+01  0.26555825714E+01 -0.34258671281E+00  0.28712972891E+01  0.51100000000E-03 0.  1.
        -12    1    3    3    0    0 -0.14631190780E+02  0.22285405190E+02  0.28920842569E+02  0.39333524671E+02  0.00000000000E+00 0.  1.
</event>
<event>
 7    1  0.4971907E-013  0.5052887E+02  0.7816164E-02  0.1300439E+00
        -11   -1    0    0    0    0  0.00000000000E+00  0.00000000000E+00  0.45593999997E+02  0.45594000000E+02  0.51100000000E-03 0. -1.
         11   -1    0    0    0    0 -0.00000000000E+00 -0.00000000000E+00 -0.45593999997E+02  0.45594000000E+02  0.51100000000E-03 0.  1.
    9900012    2    1    2    0    0  0.32173818905E+02  0.24546202726E+02  0.39362442109E+01  0.50528871754E+02  0.30000036184E+02 0.  0.
         12    1    1    2    0    0 -0.32173818905E+02 -0.24546202726E+02 -0.39362442109E+01  0.40659128246E+02  0.00000000000E+00 0. -1.
         11    1    3    3    0    0  0.11125570504E+02  0.10036185325E+02 -0.10370221392E+02  0.18222097214E+02  0.51100000000E-03 0.  1.
        -11    1    3    3    0    0 -0.77785713869E-01  0.56548760610E+01  0.79235928076E+00  0.57106485949E+01  0.51100000000E-03 0. -1.
         12    1    3    3    0    0  0.21126034116E+02  0.88551413402E+01  0.13514106322E+02  0.26596125945E+02  0.00000000000E+00 0. -1.
</event>
<event>
 7    1  0.4971907E-013  0.5052885E+02  0.7816164E-02  0.1300439E+00
        -11   -1    0    0    0    0  0.00000000000E+00  0.00000000000E+00  0.45593999997E+02  0.45594000000E+02  0.51100000000E-03 0. -1.
         11   -1    0    0    0    0 -0.00000000000E+00 -0.00000000000E+00 -0.45593999997E+02  0.45594000000E+02  0.51100000000E-03 0.  1.
    9900012    2    1    2    0    0 -0.23785782450E+02 -0.19904824906E+01 -0.32915665959E+02  0.50528849335E+02  0.29999968038E+02 0.  0.
         12    1    1    2    0    0  0.23785782450E+02  0.19904824906E+01  0.32915665959E+02  0.40659150665E+02  0.00000000000E+00 0. -1.
         11    1    3    3    0    0 -0.15487397885E+00 -0.24051023954E+01 -0.16488428556E+02  0.16663636458E+02  0.51100000000E-03 0. -1.
        -11    1    3    3    0    0 -0.11395227720E+02  0.21583982802E+01 -0.17993157824E+02  0.21407092906E+02  0.51100000000E-03 0.  1.
        -12    1    3    3    0    0 -0.12235680751E+02 -0.17437783754E+01  0.15659204212E+01  0.12458119971E+02  0.00000000000E+00 0.  1.
</event>
<event>
 7    1  0.4971907E-013  0.5052886E+02  0.7816164E-02  0.1300439E+00
        -11   -1    0    0    0    0  0.00000000000E+00  0.00000000000E+00  0.45593999997E+02  0.45594000000E+02  0.51100000000E-03 0.  1.
         11   -1    0    0    0    0 -0.00000000000E+00 -0.00000000000E+00 -0.45593999997E+02  0.45594000000E+02  0.51100000000E-03 0. -1.
    9900012    2    1    2    0    0  0.11491898876E+02 -0.24678901741E+02  0.30200226031E+02  0.50528861011E+02  0.30000003530E+02 0.  0.
         12    1    1    2    0    0 -0.11491898876E+02  0.24678901741E+02 -0.30200226031E+02  0.40659138989E+02  0.00000000000E+00 0. -1.
         11    1    3    3    0    0 -0.35633932185E+01 -0.13703306989E+00  0.94192260566E+00  0.36883285847E+01  0.51100000000E-03 0. -1.
        -11    1    3    3    0    0  0.16854026633E+02 -0.26839670096E+02  0.30196770622E+02  0.43775233419E+02  0.51100000000E-03 0.  1.
         12    1    3    3    0    0 -0.17987345385E+01  0.22978014245E+01 -0.93846719664E+00  0.30652990076E+01  0.00000000000E+00 0. -1.
</event>
<event>
 7    1  0.4971907E-013  0.5052887E+02  0.7816164E-02  0.1300439E+00
        -11   -1    0    0    0    0  0.00000000000E+00  0.00000000000E+00  0.45593999997E+02  0.45594000000E+02  0.51100000000E-03 0.  1.
         11   -1    0    0    0    0 -0.00000000000E+00 -0.00000000000E+00 -0.45593999997E+02  0.45594000000E+02  0.51100000000E-03 0. -1.
    9900012    2    1    2    0    0  0.55738881348E+01 -0.31360483355E+02  0.25270859770E+02  0.50528874349E+02  0.30000044072E+02 0.  0.
         12    1    1    2    0    0 -0.55738881348E+01  0.31360483355E+02 -0.25270859770E+02  0.40659125651E+02  0.00000000000E+00 0. -1.
         11    1    3    3    0    0  0.37710929766E+01 -0.21369658534E+02  0.18126539895E+02  0.28274633453E+02  0.51100000000E-03 0. -1.
        -11    1    3    3    0    0 -0.26521883337E+01 -0.13819320821E+02  0.15744635294E+01  0.14159331431E+02  0.51100000000E-03 0.  1.
         12    1    3    3    0    0  0.44549834919E+01  0.38284959999E+01  0.55698563455E+01  0.80949094649E+01  0.00000000000E+00 0. -1.
</event>
<event>
 7    1  0.4971907E-013  0.5052886E+02  0.7816164E-02  0.1300439E+00
        -11   -1    0    0    0    0  0.00000000000E+00  0.00000000000E+00  0.45593999997E+02  0.45594000000E+02  0.51100000000E-03 0. -1.
         11   -1    0    0    0    0 -0.00000000000E+00 -0.00000000000E+00 -0.45593999997E+02  0.45594000000E+02  0.51100000000E-03 0.  1.
    9900012    2    1    2    0    0 -0.22185903013E+01 -0.35115584971E+02 -0.20374960306E+02  0.50528862549E+02  0.30000008204E+02 0.  0.
         12    1    1    2    0    0  0.22185903013E+01  0.35115584971E+02  0.20374960306E+02  0.40659137451E+02  0.00000000000E+00 0. -1.
         11    1    3    3    0    0 -0.56714058995E+01 -0.36972650831E+01 -0.50427002959E+01  0.84417676174E+01  0.51100000000E-03 0. -1.
        -11    1    3    3    0    0 -0.46151563895E+01 -0.29688948465E+02 -0.15554106759E+02  0.33832877010E+02  0.51100000000E-03 0.  1.
         12    1    3    3    0    0  0.80679719877E+01 -0.17293714229E+01  0.22184674865E+00  0.82542179213E+01  0.00000000000E+00 0. -1.
</event>
<event>
 7    1  0.4971907E-013  0.5052884E+02  0.7816164E-02  0.1300439E+00
        -11   -1    0    0    0    0  0.00000000000E+00  0.00000000000E+00  0.45593999997E+02  0.45594000000E+02  0.51100000000E-03 0. -1.
         11   -1    0    0    0    0 -0.00000000000E+00 -0.00000000000E+00 -0.45593999997E+02  0.45594000000E+02  0.51100000000E-03 0.  1.
    9900012    2    1    2    0    0 -0.64931648828E+01  0.19361367542E+02 -0.35158835259E+02  0.50528838178E+02  0.29999934127E+02 0.  0.
         12    1    1    2    0    0  0.64931648828E+01 -0.19361367542E+02  0.35158835259E+02  0.40659161822E+02  0.00000000000E+00 0. -1.
         11    1    3    3    0    0 -0.47997799138E+01 -0.70601084328E+00 -0.22290748845E+01  0.53390180402E+01  0.51100000000E-03 0. -1.
        -11    1    3    3    0    0  0.62195536212E+00 -0.67072740029E+00 -0.21263363712E+02  0.21283029398E+02  0.51100000000E-03 0.  1.
         12    1    3    3    0    0 -0.23153403311E+01  0.20738105786E+02 -0.11666396662E+02  0.23906790741E+02  0.00000000000E+00 0. -1.
</event>
<event>
 7    1  0.4971907E-013  0.5052886E+02  0.7816164E-02  0.1300439E+00
        -11   -1    0    0    0    0  0.00000000000E+00  0.00000000000E+00  0.45593999997E+02  0.45594000000E+02  0.51100000000E-03 0.  1.
         11   -1    0    0    0    0 -0.00000000000E+00 -0.00000000000E+00 -0.45593999997E+02  0.45594000000E+02  0.51100000000E-03 0. -1.
    9900012    2    1    2    0    0  0.13623401276E+02 -0.37931412099E+02 -0.53643447782E+01  0.50528864728E+02  0.30000014828E+02 0.  0.
         12    1    1    2    0    0 -0.13623401276E+02  0.37931412099E+02  0.53643447782E+01  0.40659135272E+02  0.00000000000E+00 0. -1.
         11    1    3    3    0    0  0.37527168753E+01  0.28224801109E+01 -0.28122808652E+00  0.47040798697E+01  0.51100000000E-03 0. -1.
        -11    1    3    3    0    0 -0.12609094113E+01 -0.10018570714E+02  0.54578767892E+01  0.11478243376E+02  0.51100000000E-03 0.  1.
         12    1    3    3    0    0  0.11131593812E+02 -0.30735321496E+02 -0.10540993481E+02  0.34346541483E+02  0.00000000000E+00 0. -1.
</event>
<event>
 7    1  0.4971907E-013  0.5052886E+02  0.7816164E-02  0.1300439E+00
        -11   -1    0    0    0    0  0.00000000000E+00  0.00000000000E+00  0.45593999997E+02  0.45594000000E+02  0.51100000000E-03 0. -1.
         11   -1    0    0    0    0 -0.00000000000E+00 -0.00000000000E+00 -0.45593999997E+02  0.45594000000E+02  0.51100000000E-03 0.  1.
    9900012    2    1    2    0    0 -0.15545309541E+02 -0.19148409138E+02 -0.32324103381E+02  0.50528857355E+02  0.29999992415E+02 0.  0.
         12    1    1    2    0    0  0.15545309541E+02  0.19148409138E+02  0.32324103381E+02  0.40659142645E+02  0.00000000000E+00 0. -1.
         11    1    3    3    0    0 -0.63902157450E+01 -0.56792221434E+01 -0.98279862731E+01  0.13026040683E+02  0.51100000000E-03 0. -1.
        -11    1    3    3    0    0 -0.45738043547E+00 -0.19109274052E+02 -0.11128318477E+02  0.22118160503E+02  0.51100000000E-03 0.  1.
         12    1    3    3    0    0 -0.86977133602E+01  0.56400870572E+01 -0.11367798631E+02  0.15384656169E+02  0.00000000000E+00 0. -1.
</event>
<event>
 7    1  0.4971907E-013  0.5052887E+02  0.7816164E-02  0.1300439E+00
        -11   -1    0    0    0    0  0.00000000000E+00  0.00000000000E+00  0.45593999997E+02  0.45594000000E+02  0.51100000000E-03 0.  1.
         11   -1    0    0    0    0 -0.00000000000E+00 -0.00000000000E+00 -0.45593999997E+02  0.45594000000E+02  0.51100000000E-03 0. -1.
    9900012    2    1    2    0    0  0.34639247215E+02  0.10193647618E+02  0.18691638688E+02  0.50528865034E+02  0.30000015757E+02 0.  0.
         12    1    1    2    0    0 -0.34639247215E+02 -0.10193647618E+02 -0.18691638688E+02  0.40659134966E+02  0.00000000000E+00 0. -1.
         11    1    3    3    0    0  0.21879588966E+02 -0.22159076415E+01  0.27706318934E+00  0.21993258609E+02  0.51100000000E-03 0. -1.
        -11    1    3    3    0    0  0.31831083153E+01  0.43046548823E+01 -0.97436107936E+00  0.54416552607E+01  0.51100000000E-03 0.  1.
        -12    1    3    3    0    0  0.95765499338E+01  0.81049003772E+01  0.19388936578E+02  0.23093951164E+02  0.00000000000E+00 0.  1.
</event>
<event>
 7    1  0.5365458E-013  0.5052886E+02  0.7816164E-02  0.1300439E+00
        -11   -1    0    0    0    0  0.00000000000E+00  0.00000000000E+00  0.45593999997E+02  0.45594000000E+02  0.51100000000E-03 0. -1.
         11   -1    0    0    0    0 -0.00000000000E+00 -0.00000000000E+00 -0.45593999997E+02  0.45594000000E+02  0.51100000000E-03 0.  1.
    9900012    2    1    2    0    0  0.32850510391E+02 -0.61812537140E+01 -0.23147389328E+02  0.50528861259E+02  0.30000004283E+02 0.  0.
         12    1    1    2    0    0 -0.32850510391E+02  0.61812537140E+01  0.23147389328E+02  0.40659138741E+02  0.00000000000E+00 0. -1.
         11    1    3    3    0    0  0.27412180037E+01 -0.59382005899E+00  0.37083039977E+01  0.46495609693E+01  0.51100000000E-03 0. -1.
        -11    1    3    3    0    0  0.55828803858E+01 -0.95004168963E+01 -0.14289056124E+02  0.18044489457E+02  0.51100000000E-03 0.  1.
        -12    1    3    3    0    0  0.24526412001E+02  0.39129832413E+01 -0.12566637202E+02  0.27834810833E+02  0.00000000000E+00 0.  1.
</event>
<event>
 7    1  0.4971907E-013  0.5052887E+02  0.7816164E-02  0.1300439E+00
        -11   -1    0    0    0    0  0.00000000000E+00  0.00000000000E+00  0.45593999997E+02  0.45594000000E+02  0.51100000000E-03 0.  1.
         11   -1    0    0    0    0 -0.00000000000E+00 -0.00000000000E+00 -0.45593999997E+02  0.45594000000E+02  0.51100000000E-03 0. -1.
    9900012    2    1    2    0    0  0.31269632293E+02  0.25983827680E+02 -0.46469424559E+00  0.50528866396E+02  0.30000019898E+02 0.  0.
         12    1    1    2    0    0 -0.31269632293E+02 -0.25983827680E+02  0.46469424559E+00  0.40659133604E+02  0.00000000000E+00 0. -1.
         11    1    3    3    0    0 -0.23624483309E+01  0.84108580514E+01  0.37186741718E+01  0.94948529811E+01  0.51100000000E-03 0. -1.
        -11    1    3    3    0    0  0.18109125707E+02  0.57895196500E+01  0.47482854413E+01  0.19596050279E+02  0.51100000000E-03 0.  1.
         12    1    3    3    0    0  0.15522954917E+02  0.11783449979E+02 -0.89316538587E+01  0.21437963136E+02  0.00000000000E+00 0. -1.
</event>
<event>
 7    1  0.4971907E-013  0.5052887E+02  0.7816164E-02  0.1300439E+00
        -11   -1    0    0    0    0  0.00000000000E+00  0.00000000000E+00  0.45593999997E+02  0.45594000000E+02  0.51100000000E-03 0.  1.
         11   -1    0    0    0    0 -0.00000000000E+00 -0.00000000000E+00 -0.45593999997E+02  0.45594000000E+02  0.51100000000E-03 0. -1.
    9900012    2    1    2    0    0  0.98151267112E+01  0.18524251485E+02  0.34837916489E+02  0.50528867806E+02  0.30000024184E+02 0.  0.
         12    1    1    2    0    0 -0.98151267112E+01 -0.18524251485E+02 -0.34837916489E+02  0.40659132194E+02  0.00000000000E+00 0. -1.
         11    1    3    3    0    0  0.16235853135E+02  0.15817158579E+02  0.12239382179E+02  0.25760200094E+02  0.51100000000E-03 0. -1.
        -11    1    3    3    0    0 -0.13200254368E+01  0.36277451424E+01  0.44337213076E+01  0.58788508117E+01  0.51100000000E-03 0.  1.
        -12    1    3    3    0    0 -0.51007009868E+01 -0.92065223613E+00  0.18164813003E+02  0.18889816900E+02  0.00000000000E+00 0.  1.
</event>
<event>
 7    1  0.4971907E-013  0.5052887E+02  0.7816164E-02  0.1300439E+00
        -11   -1    0    0    0    0  0.00000000000E+00  0.00000000000E+00  0.45593999997E+02  0.45594000000E+02  0.51100000000E-03 0.  1.
         11   -1    0    0    0    0 -0.00000000000E+00 -0.00000000000E+00 -0.45593999997E+02  0.45594000000E+02  0.51100000000E-03 0. -1.
    9900012    2    1    2    0    0 -0.62828262237E+01 -0.44493770823E+00  0.40168311257E+02  0.50528866903E+02  0.30000021440E+02 0.  0.
         12    1    1    2    0    0  0.62828262237E+01  0.44493770823E+00 -0.40168311257E+02  0.40659133097E+02  0.00000000000E+00 0. -1.
         11    1    3    3    0    0  0.28172126115E+01  0.65749863757E+01  0.33841735108E+02  0.34589451688E+02  0.51100000000E-03 0.  1.
        -11    1    3    3    0    0 -0.22591702985E+01 -0.67439872588E+01  0.56042415733E+01  0.90549841777E+01  0.51100000000E-03 0. -1.
        -12    1    3    3    0    0 -0.68408685368E+01 -0.27593682518E+00  0.72233457600E+00  0.68844310374E+01  0.00000000000E+00 0.  1.
</event>
<event>
 7    1  0.4971907E-013  0.5052874E+02  0.7816164E-02  0.1300439E+00
        -11   -1    0    0    0    0  0.00000000000E+00  0.00000000000E+00  0.45593999997E+02  0.45594000000E+02  0.51100000000E-03 0.  1.
         11   -1    0    0    0    0 -0.00000000000E+00 -0.00000000000E+00 -0.45593999997E+02  0.45594000000E+02  0.51100000000E-03 0. -1.
    9900012    2    1    2    0    0 -0.32637990604E+02 -0.36874934401E+01  0.23965373462E+02  0.50528743198E+02  0.29999645423E+02 0.  0.
         12    1    1    2    0    0  0.32637990604E+02  0.36874934401E+01 -0.23965373462E+02  0.40659256802E+02  0.00000000000E+00 0. -1.
         11    1    3    3    0    0  0.10630750180E+01  0.36287216533E+01  0.44890647646E+01  0.58693655580E+01  0.51100000000E-03 0. -1.
        -11    1    3    3    0    0 -0.97064400461E+01 -0.15287643880E+01  0.17280951038E+02  0.19879219500E+02  0.51100000000E-03 0.  1.
        -12    1    3    3    0    0 -0.23994625576E+02 -0.57874507054E+01  0.21953576594E+01  0.24780158140E+02  0.00000000000E+00 0.  1.
</event>
<event>
 7    1  0.4971907E-013  0.5052886E+02  0.7816164E-02  0.1300439E+00
        -11   -1    0    0    0    0  0.00000000000E+00  0.00000000000E+00  0.45593999997E+02  0.45594000000E+02  0.51100000000E-03 0.  1.
         11   -1    0    0    0    0 -0.00000000000E+00 -0.00000000000E+00 -0.45593999997E+02  0.45594000000E+02  0.51100000000E-03 0. -1.
    9900012    2    1    2    0    0  0.59231591466E+01 -0.20297368885E+02  0.34728930818E+02  0.50528860392E+02  0.30000001647E+02 0.  0.
         12    1    1    2    0    0 -0.59231591466E+01  0.20297368885E+02 -0.34728930818E+02  0.40659139608E+02  0.00000000000E+00 0. -1.
         11    1    3    3    0    0  0.40104474823E+01 -0.33639687098E+01  0.13353121690E+01  0.54021322956E+01  0.51100000000E-03 0. -1.
        -11    1    3    3    0    0  0.82810876087E+01  0.81160795856E+00  0.20937648565E+02  0.22530429360E+02  0.51100000000E-03 0.  1.
        -12    1    3    3    0    0 -0.63683759444E+01 -0.17745008134E+02  0.12455970084E+02  0.22596298736E+02  0.00000000000E+00 0.  1.
</event>
<event>
 7    1  0.4971907E-013  0.5052886E+02  0.7816164E-02  0.1300439E+00
        -11   -1    0    0    0    0  0.00000000000E+00  0.00000000000E+00  0.45593999997E+02  0.45594000000E+02  0.51100000000E-03 0.  1.
         11   -1    0    0    0    0 -0.00000000000E+00 -0.00000000000E+00 -0.45593999997E+02  0.45594000000E+02  0.51100000000E-03 0. -1.
    9900012    2    1    2    0    0  0.10040672836E+01 -0.35278514260E+02  0.20188707989E+02  0.50528860194E+02  0.30000001047E+02 0.  0.
         12    1    1    2    0    0 -0.10040672836E+01  0.35278514260E+02 -0.20188707989E+02  0.40659139806E+02  0.00000000000E+00 0. -1.
         11    1    3    3    0    0  0.43139670473E+01 -0.21737371273E+02  0.22503279106E+02  0.31583558892E+02  0.51100000000E-03 0.  1.
        -11    1    3    3    0    0  0.63521883679E+00  0.15240276957E+01  0.21816997818E+01  0.27360514591E+01  0.51100000000E-03 0. -1.
         12    1    3    3    0    0 -0.39451186005E+01 -0.15065170683E+02 -0.44962708988E+01  0.16209249843E+02  0.00000000000E+00 0. -1.
</event>
<event>
 7    1  0.4971907E-013  0.5052886E+02  0.7816164E-02  0.1300439E+00
        -11   -1    0    0    0    0  0.00000000000E+00  0.00000000000E+00  0.45593999997E+02  0.45594000000E+02  0.51100000000E-03 0. -1.
         11   -1    0    0    0    0 -0.00000000000E+00 -0.00000000000E+00 -0.45593999997E+02  0.45594000000E+02  0.51100000000E-03 0.  1.
    9900012    2    1    2    0    0 -0.35966874466E+02 -0.11689154459E+02 -0.14930272363E+02  0.50528862974E+02  0.30000009496E+02 0.  0.
         12    1    1    2    0    0  0.35966874466E+02  0.11689154459E+02  0.14930272363E+02  0.40659137026E+02  0.00000000000E+00 0. -1.
         11    1    3    3    0    0 -0.91457915148E+01 -0.90529184184E+01 -0.19148279797E+01  0.13010280580E+02  0.51100000000E-03 0. -1.
        -11    1    3    3    0    0 -0.28980453622E+02 -0.73881947671E+01 -0.11856668263E+02  0.32171924043E+02  0.51100000000E-03 0.  1.
         12    1    3    3    0    0  0.21593706704E+01  0.47519587262E+01 -0.11587761202E+01  0.53466583512E+01  0.00000000000E+00 0. -1.
</event>
<event>
 7    1  0.4971907E-013  0.5052886E+02  0.7816164E-02  0.1300439E+00
        -11   -1    0    0    0    0  0.00000000000E+00  0.00000000000E+00  0.45593999997E+02  0.45594000000E+02  0.51100000000E-03 0. -1.
         11   -1    0    0    0    0 -0.00000000000E+00 -0.00000000000E+00 -0.45593999997E+02  0.45594000000E+02  0.51100000000E-03 0.  1.
    9900012    2    1    2    0    0  0.87582338431E+01  0.37348493161E+02 -0.13474027453E+02  0.50528855675E+02  0.29999987310E+02 0.  0.
         12    1    1    2    0    0 -0.87582338431E+01 -0.37348493161E+02  0.13474027453E+02  0.40659144325E+02  0.00000000000E+00 0. -1.
         11    1    3    3    0    0  0.94390630476E+01  0.66330858024E+01 -0.82568184854E+01  0.14186923213E+02  0.51100000000E-03 0. -1.
        -11    1    3    3    0    0  0.48168900461E+01  0.96705274253E+01  0.54671700029E+01  0.12108322696E+02  0.51100000000E-03 0.  1.
        -12    1    3    3    0    0 -0.54977192506E+01  0.21044879933E+02 -0.10684378971E+02  0.24233609767E+02  0.00000000000E+00 0.  1.
</event>
<event>
 7    1  0.4971907E-013  0.5052886E+02  0.7816164E-02  0.1300439E+00
        -11   -1    0    0    0    0  0.00000000000E+00  0.00000000000E+00  0.45593999997E+02  0.45594000000E+02  0.51100000000E-03 0.  1.
         11   -1    0    0    0    0 -0.00000000000E+00 -0.00000000000E+00 -0.45593999997E+02  0.45594000000E+02  0.51100000000E-03 0. -1.
    9900012    2    1    2    0    0 -0.35112050689E+01 -0.23020594861E+02  0.33330010126E+02  0.50528856824E+02  0.29999990802E+02 0.  0.
         12    1    1    2    0    0  0.35112050689E+01  0.23020594861E+02 -0.33330010126E+02  0.40659143176E+02  0.00000000000E+00 0. -1.
         11    1    3    3    0    0  0.26069550863E+01 -0.14330845928E+02  0.27673692423E+02  0.31273033310E+02  0.51100000000E-03 0. -1.
        -11    1    3    3    0    0 -0.76724423313E+01 -0.23671658392E+01  0.88958630542E+01  0.11983581484E+02  0.51100000000E-03 0.  1.
         12    1    3    3    0    0  0.15542821761E+01 -0.63225830936E+01 -0.32395453513E+01  0.72722420299E+01  0.00000000000E+00 0. -1.
</event>
<event>
 7    1  0.4971907E-013  0.5052886E+02  0.7816164E-02  0.1300439E+00
        -11   -1    0    0    0    0  0.00000000000E+00  0.00000000000E+00  0.45593999997E+02  0.45594000000E+02  0.51100000000E-03 0.  1.
         11   -1    0    0    0    0 -0.00000000000E+00 -0.00000000000E+00 -0.45593999997E+02  0.45594000000E+02  0.51100000000E-03 0. -1.
    9900012    2    1    2    0    0  0.15499910181E+02 -0.37562600555E+02  0.14034213242E+01  0.50528858747E+02  0.29999996646E+02 0.  0.
         12    1    1    2    0    0 -0.15499910181E+02  0.37562600555E+02 -0.14034213242E+01  0.40659141253E+02  0.00000000000E+00 0. -1.
         11    1    3    3    0    0  0.23859015852E+01  0.17403066173E+01  0.18347752733E+01  0.34767217406E+01  0.51100000000E-03 0. -1.
        -11    1    3    3    0    0  0.13976078470E+02 -0.15805724507E+02  0.72606050653E+01  0.22312957732E+02  0.51100000000E-03 0.  1.
        -12    1    3    3    0    0 -0.86206987406E+00 -0.23497182665E+02 -0.76919590144E+01  0.24739179274E+02  0.00000000000E+00 0.  1.
</event>
<event>
 7    1  0.4971907E-013  0.5052886E+02  0.7816164E-02  0.1300439E+00
        -11   -1    0    0    0    0  0.00000000000E+00  0.00000000000E+00  0.45593999997E+02  0.45594000000E+02  0.51100000000E-03 0.  1.
         11   -1    0    0    0    0 -0.00000000000E+00 -0.00000000000E+00 -0.45593999997E+02  0.45594000000E+02  0.51100000000E-03 0. -1.
    9900012    2    1    2    0    0  0.35683705595E+02 -0.19145654610E+02 -0.36445072001E+01  0.50528863657E+02  0.30000011572E+02 0.  0.
         12    1    1    2    0    0 -0.35683705595E+02  0.19145654610E+02  0.36445072001E+01  0.40659136343E+02  0.00000000000E+00 0. -1.
         11    1    3    3    0    0 -0.56781425343E+00  0.22959816008E+01 -0.86426555346E+00  0.25181143234E+01  0.51100000000E-03 0. -1.
        -11    1    3    3    0    0  0.19337993897E+02 -0.68064986849E+01 -0.12071925756E+02  0.23791129104E+02  0.51100000000E-03 0.  1.
        -12    1    3    3    0    0  0.16913525951E+02 -0.14635137526E+02  0.92916841089E+01  0.24219620230E+02  0.00000000000E+00 0.  1.
</event>
<event>
 7    1  0.4971907E-013  0.5052886E+02  0.7816164E-02  0.1300439E+00
        -11   -1    0    0    0    0  0.00000000000E+00  0.00000000000E+00  0.45593999997E+02  0.45594000000E+02  0.51100000000E-03 0. -1.
         11   -1    0    0    0    0 -0.00000000000E+00 -0.00000000000E+00 -0.45593999997E+02  0.45594000000E+02  0.51100000000E-03 0.  1.
    9900012    2    1    2    0    0 -0.30459287229E+02  0.15719416772E+02 -0.21870011610E+02  0.50528860191E+02  0.30000001038E+02 0.  0.
         12    1    1    2    0    0  0.30459287229E+02 -0.15719416772E+02  0.21870011610E+02  0.40659139809E+02  0.00000000000E+00 0. -1.
         11    1    3    3    0    0 -0.15197324646E+02 -0.11976931378E+01  0.24232069838E+01  0.15435837443E+02  0.51100000000E-03 0. -1.
        -11    1    3    3    0    0 -0.45939120061E+00  0.74257027527E+01 -0.48675082639E+01  0.88907108044E+01  0.51100000000E-03 0.  1.
        -12    1    3    3    0    0 -0.14802571383E+02  0.94914071570E+01 -0.19425710329E+02  0.26202311943E+02  0.00000000000E+00 0.  1.
</event>
<event>
 7    1  0.4971907E-013  0.5052886E+02  0.7816164E-02  0.1300439E+00
        -11   -1    0    0    0    0  0.00000000000E+00  0.00000000000E+00  0.45593999997E+02  0.45594000000E+02  0.51100000000E-03 0. -1.
         11   -1    0    0    0    0 -0.00000000000E+00 -0.00000000000E+00 -0.45593999997E+02  0.45594000000E+02  0.51100000000E-03 0.  1.
    9900012    2    1    2    0    0 -0.32059110990E+02 -0.13379143085E+02 -0.21127655698E+02  0.50528857087E+02  0.29999991601E+02 0.  0.
         12    1    1    2    0    0  0.32059110990E+02  0.13379143085E+02  0.21127655698E+02  0.40659142913E+02  0.00000000000E+00 0. -1.
         11    1    3    3    0    0 -0.49179725929E+01  0.38119456374E+01  0.53583930984E+01  0.82115626300E+01  0.51100000000E-03 0. -1.
        -11    1    3    3    0    0 -0.18535796660E+02 -0.77625333112E+01 -0.14253863308E+02  0.24637477564E+02  0.51100000000E-03 0.  1.
        -12    1    3    3    0    0 -0.86053417369E+01 -0.94285554110E+01 -0.12232185488E+02  0.17679816893E+02  0.00000000000E+00 0.  1.
</event>
<event>
 7    1  0.4971907E-013  0.5052887E+02  0.7816164E-02  0.1300439E+00
        -11   -1    0    0    0    0  0.00000000000E+00  0.00000000000E+00  0.45593999997E+02  0.45594000000E+02  0.51100000000E-03 0.  1.
         11   -1    0    0    0    0 -0.00000000000E+00 -0.00000000000E+00 -0.45593999997E+02  0.45594000000E+02  0.51100000000E-03 0. -1.
    9900012    2    1    2    0    0 -0.33443709262E+02 -0.15817651393E+02  0.16866693160E+02  0.50528866672E+02  0.30000020736E+02 0.  0.
         12    1    1    2    0    0  0.33443709262E+02  0.15817651393E+02 -0.16866693160E+02  0.40659133328E+02  0.00000000000E+00 0. -1.
         11    1    3    3    0    0 -0.14250808507E+02 -0.15653708139E+02  0.77902843711E+01  0.22556875946E+02  0.51100000000E-03 0. -1.
        -11    1    3    3    0    0 -0.73859154234E+01  0.13901127738E+01  0.13349535122E+02  0.15319733954E+02  0.51100000000E-03 0.  1.
        -12    1    3    3    0    0 -0.11806985332E+02 -0.15540560279E+01 -0.42731263331E+01  0.12652256772E+02  0.00000000000E+00 0.  1.
</event>
<event>
 7    1  0.4971907E-013  0.5052885E+02  0.7816164E-02  0.1300439E+00
        -11   -1    0    0    0    0  0.00000000000E+00  0.00000000000E+00  0.45593999997E+02  0.45594000000E+02  0.51100000000E-03 0. -1.
         11   -1    0    0    0    0 -0.00000000000E+00 -0.00000000000E+00 -0.45593999997E+02  0.45594000000E+02  0.51100000000E-03 0.  1.
    9900012    2    1    2    0    0 -0.83448338432E+01  0.25777878716E+02 -0.30315523238E+02  0.50528853032E+02  0.29999979276E+02 0.  0.
         12    1    1    2    0    0  0.83448338432E+01 -0.25777878716E+02  0.30315523238E+02  0.40659146968E+02  0.00000000000E+00 0. -1.
         11    1    3    3    0    0 -0.72270025003E+01  0.11557173349E+02 -0.46758055492E+01  0.14410446861E+02  0.51100000000E-03 0. -1.
        -11    1    3    3    0    0 -0.91973352897E+01  0.10598527403E+02 -0.22886247188E+02  0.26845857598E+02  0.51100000000E-03 0.  1.
         12    1    3    3    0    0  0.80795039468E+01  0.36221779639E+01 -0.27534705007E+01  0.92725485723E+01  0.00000000000E+00 0. -1.
</event>
<event>
 7    1  0.4971907E-013  0.5052886E+02  0.7816164E-02  0.1300439E+00
        -11   -1    0    0    0    0  0.00000000000E+00  0.00000000000E+00  0.45593999997E+02  0.45594000000E+02  0.51100000000E-03 0. -1.
         11   -1    0    0    0    0 -0.00000000000E+00 -0.00000000000E+00 -0.45593999997E+02  0.45594000000E+02  0.51100000000E-03 0.  1.
    9900012    2    1    2    0    0  0.26485383423E+02 -0.30845133401E+02  0.51773612143E+00  0.50528857851E+02  0.29999993923E+02 0.  0.
         12    1    1    2    0    0 -0.26485383423E+02  0.30845133401E+02 -0.51773612143E+00  0.40659142149E+02  0.00000000000E+00 0. -1.
         11    1    3    3    0    0  0.96746798463E+01 -0.58449887647E+01 -0.54290617657E+00  0.11316274615E+02  0.51100000000E-03 0. -1.
        -11    1    3    3    0    0  0.20748496524E+02 -0.12722558410E+02  0.65416925482E+01  0.25202328110E+02  0.51100000000E-03 0.  1.
         12    1    3    3    0    0 -0.39377929467E+01 -0.12277586227E+02 -0.54810502502E+01  0.14010255126E+02  0.00000000000E+00 0. -1.
</event>
<event>
 7    1  0.4971907E-013  0.5052886E+02  0.7816164E-02  0.1300439E+00
        -11   -1    0    0    0    0  0.00000000000E+00  0.00000000000E+00  0.45593999997E+02  0.45594000000E+02  0.51100000000E-03 0.  1.
         11   -1    0    0    0    0 -0.00000000000E+00 -0.00000000000E+00 -0.45593999997E+02  0.45594000000E+02  0.51100000000E-03 0. -1.
    9900012    2    1    2    0    0 -0.35086099270E+02  0.13804409949E+02  0.15217411410E+02  0.50528859502E+02  0.29999998942E+02 0.  0.
         12    1    1    2    0    0  0.35086099270E+02 -0.13804409949E+02 -0.15217411410E+02  0.40659140498E+02  0.00000000000E+00 0. -1.
         11    1    3    3    0    0  0.13373587780E+01  0.87091476008E-01  0.35191396256E+01  0.37656948087E+01  0.51100000000E-03 0. -1.
        -11    1    3    3    0    0 -0.12687667896E+02  0.17104255938E+02  0.58047945333E+01  0.22073244612E+02  0.51100000000E-03 0.  1.
         12    1    3    3    0    0 -0.23735790152E+02 -0.33869374654E+01  0.58934772508E+01  0.24689920081E+02  0.00000000000E+00 0. -1.
</event>
<event>
 7    1  0.4971907E-013  0.5052886E+02  0.7816164E-02  0.1300439E+00
        -11   -1    0    0    0    0  0.00000000000E+00  0.00000000000E+00  0.45593999997E+02  0.45594000000E+02  0.51100000000E-03 0.  1.
         11   -1    0    0    0    0 -0.00000000000E+00 -0.00000000000E+00 -0.45593999997E+02  0.45594000000E+02  0.51100000000E-03 0. -1.
    9900012    2    1    2    0    0 -0.39229324162E+02 -0.10630489170E+02 -0.11037141585E+01  0.50528863768E+02  0.30000011909E+02 0.  0.
         12    1    1    2    0    0  0.39229324162E+02  0.10630489170E+02  0.11037141585E+01  0.40659136232E+02  0.00000000000E+00 0. -1.
         11    1    3    3    0    0 -0.17553096068E+02 -0.54708917113E+00  0.59686386927E+01  0.18548184177E+02  0.51100000000E-03 0. -1.
        -11    1    3    3    0    0 -0.16984259864E+02 -0.14259380237E+02  0.44962574136E+00  0.22181009252E+02  0.51100000000E-03 0.  1.
         12    1    3    3    0    0 -0.46919682298E+01  0.41759802377E+01 -0.75219785926E+01  0.97996703395E+01  0.00000000000E+00 0. -1.
</event>
<event>
 7    1  0.4971907E-013  0.5052887E+02  0.7816164E-02  0.1300439E+00
        -11   -1    0    0    0    0  0.00000000000E+00  0.00000000000E+00  0.45593999997E+02  0.45594000000E+02  0.51100000000E-03 0.  1.
         11   -1    0    0    0    0 -0.00000000000E+00 -0.00000000000E+00 -0.45593999997E+02  0.45594000000E+02  0.51100000000E-03 0. -1.
    9900012    2    1    2    0    0  0.28160426498E+02 -0.15996224952E+02  0.24582022521E+02  0.50528872310E+02  0.30000037874E+02 0.  0.
         12    1    1    2    0    0 -0.28160426498E+02  0.15996224952E+02 -0.24582022521E+02  0.40659127690E+02  0.00000000000E+00 0. -1.
         11    1    3    3    0    0  0.32045702712E+01 -0.43502770114E+01 -0.83532041174E+00  0.54673522980E+01  0.51100000000E-03 0. -1.
        -11    1    3    3    0    0  0.29141331068E+01  0.74132625335E+01  0.41113027654E+01  0.89638966886E+01  0.51100000000E-03 0.  1.
         12    1    3    3    0    0  0.22041723120E+02 -0.19059210474E+02  0.21306040168E+02  0.36097623324E+02  0.00000000000E+00 0. -1.
</event>
<event>
 7    1  0.4971907E-013  0.5052886E+02  0.7816164E-02  0.1300439E+00
        -11   -1    0    0    0    0  0.00000000000E+00  0.00000000000E+00  0.45593999997E+02  0.45594000000E+02  0.51100000000E-03 0.  1.
         11   -1    0    0    0    0 -0.00000000000E+00 -0.00000000000E+00 -0.45593999997E+02  0.45594000000E+02  0.51100000000E-03 0. -1.
    9900012    2    1    2    0    0 -0.35225077515E+02  0.13757693385E+02  0.14936056134E+02  0.50528856058E+02  0.29999988475E+02 0.  0.
         12    1    1    2    0    0  0.35225077515E+02 -0.13757693385E+02 -0.14936056134E+02  0.40659143942E+02  0.00000000000E+00 0. -1.
         11    1    3    3    0    0 -0.72875779101E+01  0.27963425217E+01 -0.77032619784E+01  0.10966702725E+02  0.51100000000E-03 0. -1.
        -11    1    3    3    0    0 -0.70166518922E+00 -0.60031020079E+00  0.50644165652E+01  0.51479143138E+01  0.51100000000E-03 0.  1.
        -12    1    3    3    0    0 -0.27235834416E+02  0.11561661064E+02  0.17574901547E+02  0.34414239019E+02  0.00000000000E+00 0.  1.
</event>
<event>
 7    1  0.4971907E-013  0.5052887E+02  0.7816164E-02  0.1300439E+00
        -11   -1    0    0    0    0  0.00000000000E+00  0.00000000000E+00  0.45593999997E+02  0.45594000000E+02  0.51100000000E-03 0.  1.
         11   -1    0    0    0    0 -0.00000000000E+00 -0.00000000000E+00 -0.45593999997E+02  0.45594000000E+02  0.51100000000E-03 0. -1.
    9900012    2    1    2    0    0 -0.34679698485E+02 -0.18328512814E+02 -0.10702750253E+02  0.50528871481E+02  0.30000035353E+02 0.  0.
         12    1    1    2    0    0  0.34679698485E+02  0.18328512814E+02  0.10702750253E+02  0.40659128519E+02  0.00000000000E+00 0. -1.
         11    1    3    3    0    0  0.10006688896E+01  0.37661746333E+01  0.32857993776E+01  0.50972431182E+01  0.51100000000E-03 0. -1.
        -11    1    3    3    0    0 -0.95355238758E+01 -0.21232313716E+01 -0.23321932320E+00  0.97718329169E+01  0.51100000000E-03 0.  1.
        -12    1    3    3    0    0 -0.26144843499E+02 -0.19971456076E+02 -0.13755330307E+02  0.35659795445E+02  0.00000000000E+00 0.  1.
</event>
<event>
 7    1  0.4971907E-013  0.5052886E+02  0.7816164E-02  0.1300439E+00
        -11   -1    0    0    0    0  0.00000000000E+00  0.00000000000E+00  0.45593999997E+02  0.45594000000E+02  0.51100000000E-03 0.  1.
         11   -1    0    0    0    0 -0.00000000000E+00 -0.00000000000E+00 -0.45593999997E+02  0.45594000000E+02  0.51100000000E-03 0. -1.
    9900012    2    1    2    0    0  0.32739370507E+01  0.85027083655E+00  0.40518192061E+02  0.50528861886E+02  0.30000006188E+02 0.  0.
         12    1    1    2    0    0 -0.32739370507E+01 -0.85027083655E+00 -0.40518192061E+02  0.40659138114E+02  0.00000000000E+00 0. -1.
         11    1    3    3    0    0  0.43030929507E+01 -0.18715150465E+01  0.95803769725E+01  0.10667839552E+02  0.51100000000E-03 0.  1.
        -11    1    3    3    0    0  0.85225312431E+01  0.32206798889E+01  0.19245528373E+01  0.93118323450E+01  0.51100000000E-03 0. -1.
        -12    1    3    3    0    0 -0.95516871432E+01 -0.49889400580E+00  0.29013262251E+02  0.30549189989E+02  0.00000000000E+00 0.  1.
</event>
<event>
 7    1  0.4971907E-013  0.5052887E+02  0.7816164E-02  0.1300439E+00
        -11   -1    0    0    0    0  0.00000000000E+00  0.00000000000E+00  0.45593999997E+02  0.45594000000E+02  0.51100000000E-03 0.  1.
         11   -1    0    0    0    0 -0.00000000000E+00 -0.00000000000E+00 -0.45593999997E+02  0.45594000000E+02  0.51100000000E-03 0. -1.
    9900012    2    1    2    0    0 -0.10368390786E+02 -0.97354750368E+01  0.38090447687E+02  0.50528865643E+02  0.30000017608E+02 0.  0.
         12    1    1    2    0    0  0.10368390786E+02  0.97354750368E+01 -0.38090447687E+02  0.40659134357E+02  0.00000000000E+00 0. -1.
         11    1    3    3    0    0  0.19642027839E+01  0.23139355092E+01  0.63021920845E+01  0.69949993172E+01  0.51100000000E-03 0. -1.
        -11    1    3    3    0    0 -0.93447392636E+01 -0.59197400388E+01  0.34473712647E+02  0.36205031942E+02  0.51100000000E-03 0.  1.
         12    1    3    3    0    0 -0.29878543060E+01 -0.61296705072E+01 -0.26854570443E+01  0.73288343832E+01  0.00000000000E+00 0. -1.
</event>
<event>
 7    1  0.4971907E-013  0.5052886E+02  0.7816164E-02  0.1300439E+00
        -11   -1    0    0    0    0  0.00000000000E+00  0.00000000000E+00  0.45593999997E+02  0.45594000000E+02  0.51100000000E-03 0.  1.
         11   -1    0    0    0    0 -0.00000000000E+00 -0.00000000000E+00 -0.45593999997E+02  0.45594000000E+02  0.51100000000E-03 0. -1.
    9900012    2    1    2    0    0  0.27406109286E+02  0.27301831475E+02  0.12517234652E+02  0.50528855992E+02  0.29999988275E+02 0.  0.
         12    1    1    2    0    0 -0.27406109286E+02 -0.27301831475E+02 -0.12517234652E+02  0.40659144008E+02  0.00000000000E+00 0. -1.
         11    1    3    3    0    0  0.19838994553E+02  0.66528520052E+01  0.76044893323E+01  0.22263746382E+02  0.51100000000E-03 0. -1.
        -11    1    3    3    0    0  0.24939229991E+01  0.16704396848E+02  0.10383044684E+02  0.19825845332E+02  0.51100000000E-03 0.  1.
         12    1    3    3    0    0  0.50731917334E+01  0.39445826223E+01 -0.54702993640E+01  0.84392642784E+01  0.00000000000E+00 0. -1.
</event>
<event>
 7    1  0.4971907E-013  0.5052886E+02  0.7816164E-02  0.1300439E+00
        -11   -1    0    0    0    0  0.00000000000E+00  0.00000000000E+00  0.45593999997E+02  0.45594000000E+02  0.51100000000E-03 0.  1.
         11   -1    0    0    0    0 -0.00000000000E+00 -0.00000000000E+00 -0.45593999997E+02  0.45594000000E+02  0.51100000000E-03 0. -1.
    9900012    2    1    2    0    0 -0.19664157002E+02 -0.35371178741E+02 -0.39199895803E+01  0.50528859890E+02  0.30000000122E+02 0.  0.
         12    1    1    2    0    0  0.19664157002E+02  0.35371178741E+02  0.39199895803E+01  0.40659140110E+02  0.00000000000E+00 0. -1.
         11    1    3    3    0    0  0.22702911309E+01 -0.54348588250E+01  0.42335229090E+01  0.72535941952E+01  0.51100000000E-03 0. -1.
        -11    1    3    3    0    0 -0.10679713720E+02 -0.26881397524E+02  0.20723896116E+00  0.28925918589E+02  0.51100000000E-03 0.  1.
        -12    1    3    3    0    0 -0.11254734414E+02 -0.30549223924E+01 -0.83607514505E+01  0.14349347106E+02  0.00000000000E+00 0.  1.
</event>
<event>
 7    1  0.4971907E-013  0.5052885E+02  0.7816164E-02  0.1300439E+00
        -11   -1    0    0    0    0  0.00000000000E+00  0.00000000000E+00  0.45593999997E+02  0.45594000000E+02  0.51100000000E-03 0.  1.
         11   -1    0    0    0    0 -0.00000000000E+00 -0.00000000000E+00 -0.45593999997E+02  0.45594000000E+02  0.51100000000E-03 0. -1.
    9900012    2    1    2    0    0 -0.15963327275E+02 -0.34903817002E+02  0.13418720882E+02  0.50528851840E+02  0.29999975654E+02 0.  0.
         12    1    1    2    0    0  0.15963327275E+02  0.34903817002E+02 -0.13418720882E+02  0.40659148160E+02  0.00000000000E+00 0. -1.
         11    1    3    3    0    0  0.49581502418E+01 -0.18815943422E+01 -0.31910305690E+01  0.61892105670E+01  0.51100000000E-03 0. -1.
        -11    1    3    3    0    0 -0.26961354481E+01 -0.50540845036E+01  0.80452376322E+01  0.98761715935E+01  0.51100000000E-03 0.  1.
         12    1    3    3    0    0 -0.18225342069E+02 -0.27968138156E+02  0.85645138184E+01  0.34463469680E+02  0.00000000000E+00 0. -1.
</event>
<event>
 7    1  0.4971907E-013  0.5052885E+02  0.7816164E-02  0.1300439E+00
        -11   -1    0    0    0    0  0.00000000000E+00  0.00000000000E+00  0.45593999997E+02  0.45594000000E+02  0.51100000000E-03 0.  1.
         11   -1    0    0    0    0 -0.00000000000E+00 -0.00000000000E+00 -0.45593999997E+02  0.45594000000E+02  0.51100000000E-03 0. -1.
    9900012    2    1    2    0    0  0.24458788745E+02  0.11735666119E+01  0.32458546697E+02  0.50528845322E+02  0.29999955840E+02 0.  0.
         12    1    1    2    0    0 -0.24458788745E+02 -0.11735666119E+01 -0.32458546697E+02  0.40659154678E+02  0.00000000000E+00 0. -1.
         11    1    3    3    0    0  0.14220921957E+02  0.37307684533E+01 -0.11077049594E+01  0.14743821252E+02  0.51100000000E-03 0. -1.
        -11    1    3    3    0    0  0.15980874296E+01 -0.31587894489E+01  0.12911511048E+02  0.13388015239E+02  0.51100000000E-03 0.  1.
        -12    1    3    3    0    0  0.86397793584E+01  0.60158760750E+00  0.20654740608E+02  0.22397008831E+02  0.00000000000E+00 0.  1.
</event>
<event>
 7    1  0.4971907E-013  0.5052885E+02  0.7816164E-02  0.1300439E+00
        -11   -1    0    0    0    0  0.00000000000E+00  0.00000000000E+00  0.45593999997E+02  0.45594000000E+02  0.51100000000E-03 0.  1.
         11   -1    0    0    0    0 -0.00000000000E+00 -0.00000000000E+00 -0.45593999997E+02  0.45594000000E+02  0.51100000000E-03 0. -1.
    9900012    2    1    2    0    0  0.32440682907E+02 -0.21353518245E+02 -0.12033102492E+02  0.50528853372E+02  0.29999980310E+02 0.  0.
         12    1    1    2    0    0 -0.32440682907E+02  0.21353518245E+02  0.12033102492E+02  0.40659146628E+02  0.00000000000E+00 0. -1.
         11    1    3    3    0    0  0.16084643924E+02 -0.32426655061E+01  0.63050087843E+01  0.17577934628E+02  0.51100000000E-03 0. -1.
        -11    1    3    3    0    0 -0.42643529980E+00 -0.57624339813E+01 -0.10415854760E+01  0.58713195296E+01  0.51100000000E-03 0.  1.
        -12    1    3    3    0    0  0.16782474283E+02 -0.12348418758E+02 -0.17296525800E+02  0.27079599215E+02  0.00000000000E+00 0.  1.
</event>
<event>
 7    1  0.4971907E-013  0.5052885E+02  0.7816164E-02  0.1300439E+00
        -11   -1    0    0    0    0  0.00000000000E+00  0.00000000000E+00  0.45593999997E+02  0.45594000000E+02  0.51100000000E-03 0. -1.
         11   -1    0    0    0    0 -0.00000000000E+00 -0.00000000000E+00 -0.45593999997E+02  0.45594000000E+02  0.51100000000E-03 0.  1.
    9900012    2    1    2    0    0 -0.26463180214E+02  0.25884987101E+02 -0.16817660290E+02  0.50528853896E+02  0.29999981903E+02 0.  0.
         12    1    1    2    0    0  0.26463180214E+02 -0.25884987101E+02  0.16817660290E+02  0.40659146104E+02  0.00000000000E+00 0. -1.
         11    1    3    3    0    0 -0.99819106193E+00  0.28349068980E+01  0.49608490202E+01  0.58002677334E+01  0.51100000000E-03 0. -1.
        -11    1    3    3    0    0 -0.83764581525E+01  0.44702453067E+01  0.23793216706E+01  0.97882233401E+01  0.51100000000E-03 0.  1.
        -12    1    3    3    0    0 -0.17088531000E+02  0.18579834896E+02 -0.24157830981E+02  0.34940362823E+02  0.00000000000E+00 0.  1.
</event>
<event>
 7    1  0.4971907E-013  0.5052886E+02  0.7816164E-02  0.1300439E+00
        -11   -1    0    0    0    0  0.00000000000E+00  0.00000000000E+00  0.45593999997E+02  0.45594000000E+02  0.51100000000E-03 0.  1.
         11   -1    0    0    0    0 -0.00000000000E+00 -0.00000000000E+00 -0.45593999997E+02  0.45594000000E+02  0.51100000000E-03 0. -1.
    9900012    2    1    2    0    0 -0.16521944770E+02 -0.12611474073E+02  0.34944838350E+02  0.50528860012E+02  0.30000000493E+02 0.  0.
         12    1    1    2    0    0  0.16521944770E+02  0.12611474073E+02 -0.34944838350E+02  0.40659139988E+02  0.00000000000E+00 0. -1.
         11    1    3    3    0    0 -0.16094619198E+02 -0.12746028494E+02  0.61735836466E+01  0.21438543440E+02  0.51100000000E-03 0. -1.
        -11    1    3    3    0    0 -0.41692861903E+00  0.17293730394E+01  0.58709275479E+01  0.61345212622E+01  0.51100000000E-03 0.  1.
        -12    1    3    3    0    0 -0.10396952307E-01 -0.15948186180E+01  0.22900327155E+02  0.22955795310E+02  0.00000000000E+00 0.  1.
</event>
<event>
 7    1  0.4971907E-013  0.5052888E+02  0.7816164E-02  0.1300439E+00
        -11   -1    0    0    0    0  0.00000000000E+00  0.00000000000E+00  0.45593999997E+02  0.45594000000E+02  0.51100000000E-03 0.  1.
         11   -1    0    0    0    0 -0.00000000000E+00 -0.00000000000E+00 -0.45593999997E+02  0.45594000000E+02  0.51100000000E-03 0. -1.
    9900012    2    1    2    0    0 -0.30391247005E+02 -0.20511952410E+02  0.17572588018E+02  0.50528881270E+02  0.30000065110E+02 0.  0.
         12    1    1    2    0    0  0.30391247005E+02  0.20511952410E+02 -0.17572588018E+02  0.40659118730E+02  0.00000000000E+00 0. -1.
         11    1    3    3    0    0 -0.92198306670E+01 -0.42682161547E+01 -0.47939843489E+01  0.11234110239E+02  0.51100000000E-03 0. -1.
        -11    1    3    3    0    0 -0.13123072743E+01  0.18156907545E+01  0.90639119886E+01  0.93366687901E+01  0.51100000000E-03 0.  1.
        -12    1    3    3    0    0 -0.19859109064E+02 -0.18059427010E+02  0.13302660378E+02  0.29958102241E+02  0.00000000000E+00 0.  1.
</event>
<event>
 7    1  0.4971907E-013  0.5052885E+02  0.7816164E-02  0.1300439E+00
        -11   -1    0    0    0    0  0.00000000000E+00  0.00000000000E+00  0.45593999997E+02  0.45594000000E+02  0.51100000000E-03 0.  1.
         11   -1    0    0    0    0 -0.00000000000E+00 -0.00000000000E+00 -0.45593999997E+02  0.45594000000E+02  0.51100000000E-03 0. -1.
    9900012    2    1    2    0    0 -0.20634006654E+02 -0.47816558887E+01  0.34706481493E+02  0.50528851936E+02  0.29999975945E+02 0.  0.
         12    1    1    2    0    0  0.20634006654E+02  0.47816558887E+01 -0.34706481493E+02  0.40659148064E+02  0.00000000000E+00 0. -1.
         11    1    3    3    0    0 -0.22805511743E+01  0.11753107762E+01  0.10494173809E+02  0.10803238092E+02  0.51100000000E-03 0.  1.
        -11    1    3    3    0    0 -0.12268359672E+02 -0.65564109736E+01 -0.84210236778E+00  0.13935864184E+02  0.51100000000E-03 0. -1.
         12    1    3    3    0    0 -0.60850958074E+01  0.59944430877E+00  0.25054410051E+02  0.25789749659E+02  0.00000000000E+00 0. -1.
</event>
<event>
 7    1  0.4971907E-013  0.5052890E+02  0.7816164E-02  0.1300439E+00
        -11   -1    0    0    0    0  0.00000000000E+00  0.00000000000E+00  0.45593999997E+02  0.45594000000E+02  0.51100000000E-03 0. -1.
         11   -1    0    0    0    0 -0.00000000000E+00 -0.00000000000E+00 -0.45593999997E+02  0.45594000000E+02  0.51100000000E-03 0.  1.
    9900012    2    1    2    0    0  0.92891153076E+01 -0.22584295565E+02 -0.32508838947E+02  0.50528896726E+02  0.30000112089E+02 0.  0.
         12    1    1    2    0    0 -0.92891153076E+01  0.22584295565E+02  0.32508838947E+02  0.40659103274E+02  0.00000000000E+00 0. -1.
         11    1    3    3    0    0  0.23136157620E+01 -0.29767599086E+01 -0.10458844251E+02  0.11117613988E+02  0.51100000000E-03 0.  1.
        -11    1    3    3    0    0  0.30930667531E+01 -0.46652153332E+01 -0.23261379056E+02  0.23925364196E+02  0.51100000000E-03 0. -1.
         12    1    3    3    0    0  0.38824327926E+01 -0.14942320323E+02  0.12113843611E+01  0.15485918542E+02  0.00000000000E+00 0. -1.
</event>
<event>
 7    1  0.4971907E-013  0.5052886E+02  0.7816164E-02  0.1300439E+00
        -11   -1    0    0    0    0  0.00000000000E+00  0.00000000000E+00  0.45593999997E+02  0.45594000000E+02  0.51100000000E-03 0. -1.
         11   -1    0    0    0    0 -0.00000000000E+00 -0.00000000000E+00 -0.45593999997E+02  0.45594000000E+02  0.51100000000E-03 0.  1.
    9900012    2    1    2    0    0 -0.34079693225E+02 -0.21847773398E+02 -0.37966693359E+01  0.50528863379E+02  0.30000010727E+02 0.  0.
         12    1    1    2    0    0  0.34079693225E+02  0.21847773398E+02  0.37966693359E+01  0.40659136621E+02  0.00000000000E+00 0. -1.
         11    1    3    3    0    0  0.21723444634E+01 -0.16015292281E+01 -0.30395673270E+01  0.40648426947E+01  0.51100000000E-03 0. -1.
        -11    1    3    3    0    0 -0.19764613991E+02 -0.18442553521E+02 -0.82509328418E+01  0.28263857479E+02  0.51100000000E-03 0.  1.
        -12    1    3    3    0    0 -0.16487423697E+02 -0.18036906481E+01  0.74938308329E+01  0.18200163205E+02  0.00000000000E+00 0.  1.
</event>
<event>
 7    1  0.4971907E-013  0.5052887E+02  0.7816164E-02  0.1300439E+00
        -11   -1    0    0    0    0  0.00000000000E+00  0.00000000000E+00  0.45593999997E+02  0.45594000000E+02  0.51100000000E-03 0.  1.
         11   -1    0    0    0    0 -0.00000000000E+00 -0.00000000000E+00 -0.45593999997E+02  0.45594000000E+02  0.51100000000E-03 0. -1.
    9900012    2    1    2    0    0  0.34876700859E+02 -0.20676257798E+02  0.30451071984E+01  0.50528873384E+02  0.30000041137E+02 0.  0.
         12    1    1    2    0    0 -0.34876700859E+02  0.20676257798E+02 -0.30451071984E+01  0.40659126616E+02  0.00000000000E+00 0. -1.
         11    1    3    3    0    0  0.19838548000E+02 -0.30440161819E+01  0.12375012003E+02  0.23579120925E+02  0.51100000000E-03 0. -1.
        -11    1    3    3    0    0  0.84431599874E+01 -0.71834694246E+01  0.59466273633E+00  0.11101477720E+02  0.51100000000E-03 0.  1.
         12    1    3    3    0    0  0.65949928716E+01 -0.10448772192E+02 -0.99245675413E+01  0.15848274738E+02  0.00000000000E+00 0. -1.
</event>
<event>
 7    1  0.4971907E-013  0.5052888E+02  0.7816164E-02  0.1300439E+00
        -11   -1    0    0    0    0  0.00000000000E+00  0.00000000000E+00  0.45593999997E+02  0.45594000000E+02  0.51100000000E-03 0. -1.
         11   -1    0    0    0    0 -0.00000000000E+00 -0.00000000000E+00 -0.45593999997E+02  0.45594000000E+02  0.51100000000E-03 0.  1.
    9900012    2    1    2    0    0 -0.37610369387E+02 -0.14375375700E+02 -0.56544199529E+01  0.50528883225E+02  0.30000071051E+02 0.  0.
         12    1    1    2    0    0  0.37610369387E+02  0.14375375700E+02  0.56544199529E+01  0.40659116775E+02  0.00000000000E+00 0. -1.
         11    1    3    3    0    0  0.72874062095E+00 -0.49673487434E+01  0.32920974199E+01  0.60036257474E+01  0.51100000000E-03 0. -1.
        -11    1    3    3    0    0 -0.12299148542E+02 -0.31819061223E+01 -0.12127128833E+02  0.17563053135E+02  0.51100000000E-03 0.  1.
        -12    1    3    3    0    0 -0.26039961465E+02 -0.62261208346E+01  0.31806114598E+01  0.26962204343E+02  0.00000000000E+00 0.  1.
</event>
<event>
 7    1  0.4971907E-013  0.5052887E+02  0.7816164E-02  0.1300439E+00
        -11   -1    0    0    0    0  0.00000000000E+00  0.00000000000E+00  0.45593999997E+02  0.45594000000E+02  0.51100000000E-03 0. -1.
         11   -1    0    0    0    0 -0.00000000000E+00 -0.00000000000E+00 -0.45593999997E+02  0.45594000000E+02  0.51100000000E-03 0.  1.
    9900012    2    1    2    0    0 -0.19112357351E+02  0.35838395908E+02 -0.18686072554E+01  0.50528874113E+02  0.30000043354E+02 0.  0.
         12    1    1    2    0    0  0.19112357351E+02 -0.35838395908E+02  0.18686072554E+01  0.40659125887E+02  0.00000000000E+00 0. -1.
         11    1    3    3    0    0 -0.53791076676E+01 -0.13938393540E+01 -0.18625831881E+01  0.58606146297E+01  0.51100000000E-03 0. -1.
        -11    1    3    3    0    0  0.25664384148E+00  0.79116889262E+01  0.79523901321E+01  0.11220570253E+02  0.51100000000E-03 0.  1.
         12    1    3    3    0    0 -0.13989893525E+02  0.29320546336E+02 -0.79584141994E+01  0.33447689231E+02  0.00000000000E+00 0. -1.
</event>
<event>
 7    1  0.4971907E-013  0.5052886E+02  0.7816164E-02  0.1300439E+00
        -11   -1    0    0    0    0  0.00000000000E+00  0.00000000000E+00  0.45593999997E+02  0.45594000000E+02  0.51100000000E-03 0. -1.
         11   -1    0    0    0    0 -0.00000000000E+00 -0.00000000000E+00 -0.45593999997E+02  0.45594000000E+02  0.51100000000E-03 0.  1.
    9900012    2    1    2    0    0 -0.33738740341E+02  0.16876555468E+02  0.15167236311E+02  0.50528858573E+02  0.29999996118E+02 0.  0.
         12    1    1    2    0    0  0.33738740341E+02 -0.16876555468E+02 -0.15167236311E+02  0.40659141427E+02  0.00000000000E+00 0. -1.
         11    1    3    3    0    0  0.45464145401E+01  0.28059308994E+01  0.18997378604E+01  0.56702854938E+01  0.51100000000E-03 0. -1.
        -11    1    3    3    0    0 -0.79863754129E+01 -0.23913777053E+01  0.18934680368E+01  0.85490409423E+01  0.51100000000E-03 0.  1.
        -12    1    3    3    0    0 -0.30298779468E+02  0.16462002274E+02  0.11374030414E+02  0.36309532137E+02  0.00000000000E+00 0.  1.
</event>
<event>
 7    1  0.4971907E-013  0.5052887E+02  0.7816164E-02  0.1300439E+00
        -11   -1    0    0    0    0  0.00000000000E+00  0.00000000000E+00  0.45593999997E+02  0.45594000000E+02  0.51100000000E-03 0. -1.
         11   -1    0    0    0    0 -0.00000000000E+00 -0.00000000000E+00 -0.45593999997E+02  0.45594000000E+02  0.51100000000E-03 0.  1.
    9900012    2    1    2    0    0 -0.20963948433E+02  0.26802940675E+02  0.22254893170E+02  0.50528867782E+02  0.30000024109E+02 0.  0.
         12    1    1    2    0    0  0.20963948433E+02 -0.26802940675E+02 -0.22254893170E+02  0.40659132218E+02  0.00000000000E+00 0. -1.
         11    1    3    3    0    0  0.19450008816E+01 -0.37860939568E+01  0.48575151266E+01  0.64585593862E+01  0.51100000000E-03 0. -1.
        -11    1    3    3    0    0 -0.12241234949E+02  0.74132484667E+01  0.10159312422E+02  0.17550376493E+02  0.51100000000E-03 0.  1.
        -12    1    3    3    0    0 -0.10667714365E+02  0.23175786165E+02  0.72380656216E+01  0.26519931902E+02  0.00000000000E+00 0.  1.
</event>
<event>
 7    1  0.4971907E-013  0.5052891E+02  0.7816164E-02  0.1300439E+00
        -11   -1    0    0    0    0  0.00000000000E+00  0.00000000000E+00  0.45593999997E+02  0.45594000000E+02  0.51100000000E-03 0.  1.
         11   -1    0    0    0    0 -0.00000000000E+00 -0.00000000000E+00 -0.45593999997E+02  0.45594000000E+02  0.51100000000E-03 0. -1.
    9900012    2    1    2    0    0 -0.33454021611E+02  0.97052742651E+01  0.20971347597E+02  0.50528913309E+02  0.30000162494E+02 0.  0.
         12    1    1    2    0    0  0.33454021611E+02 -0.97052742651E+01 -0.20971347597E+02  0.40659086691E+02  0.00000000000E+00 0. -1.
         11    1    3    3    0    0  0.18436544412E+01 -0.30361134268E+01  0.15888921623E+01  0.38912241009E+01  0.51100000000E-03 0. -1.
        -11    1    3    3    0    0 -0.93661325359E+01  0.13056016881E+02  0.42846368941E+01  0.16629555889E+02  0.51100000000E-03 0.  1.
        -12    1    3    3    0    0 -0.25931543516E+02 -0.31462918919E+00  0.15097818540E+02  0.30008133320E+02  0.00000000000E+00 0.  1.
</event>
<event>
 7    1  0.4971907E-013  0.5052886E+02  0.7816164E-02  0.1300439E+00
        -11   -1    0    0    0    0  0.00000000000E+00  0.00000000000E+00  0.45593999997E+02  0.45594000000E+02  0.51100000000E-03 0.  1.
         11   -1    0    0    0    0 -0.00000000000E+00 -0.00000000000E+00 -0.45593999997E+02  0.45594000000E+02  0.51100000000E-03 0. -1.
    9900012    2    1    2    0    0  0.26682662988E+02  0.27150346817E+02  0.14284940765E+02  0.50528863646E+02  0.30000011537E+02 0.  0.
         12    1    1    2    0    0 -0.26682662988E+02 -0.27150346817E+02 -0.14284940765E+02  0.40659136354E+02  0.00000000000E+00 0. -1.
         11    1    3    3    0    0 -0.72339525472E+00  0.16441440490E+02  0.94057964177E+01  0.18955560466E+02  0.51100000000E-03 0. -1.
        -11    1    3    3    0    0  0.66062357844E+00  0.12965884343E+00  0.26400313760E+01  0.27245184630E+01  0.51100000000E-03 0.  1.
        -12    1    3    3    0    0  0.26745434665E+02  0.10579247483E+02  0.22391129712E+01  0.28848784716E+02  0.00000000000E+00 0.  1.
</event>
<event>
 7    1  0.4971907E-013  0.5052886E+02  0.7816164E-02  0.1300439E+00
        -11   -1    0    0    0    0  0.00000000000E+00  0.00000000000E+00  0.45593999997E+02  0.45594000000E+02  0.51100000000E-03 0.  1.
         11   -1    0    0    0    0 -0.00000000000E+00 -0.00000000000E+00 -0.45593999997E+02  0.45594000000E+02  0.51100000000E-03 0. -1.
    9900012    2    1    2    0    0 -0.89740912021E+01  0.32742915678E+02  0.22372586926E+02  0.50528862211E+02  0.30000007176E+02 0.  0.
         12    1    1    2    0    0  0.89740912021E+01 -0.32742915678E+02 -0.22372586926E+02  0.40659137789E+02  0.00000000000E+00 0. -1.
         11    1    3    3    0    0 -0.51685686033E+01  0.44117525009E+01  0.13215165229E+02  0.14859954705E+02  0.51100000000E-03 0. -1.
        -11    1    3    3    0    0  0.29677691225E+01  0.17157664563E+02  0.13355901081E+02  0.21944776162E+02  0.51100000000E-03 0.  1.
        -12    1    3    3    0    0 -0.67732917212E+01  0.11173498614E+02 -0.41984793845E+01  0.13724131344E+02  0.00000000000E+00 0.  1.
</event>
<event>
 7    1  0.4971907E-013  0.5052895E+02  0.7816164E-02  0.1300438E+00
        -11   -1    0    0    0    0  0.00000000000E+00  0.00000000000E+00  0.45593999997E+02  0.45594000000E+02  0.51100000000E-03 0. -1.
         11   -1    0    0    0    0 -0.00000000000E+00 -0.00000000000E+00 -0.45593999997E+02  0.45594000000E+02  0.51100000000E-03 0.  1.
    9900012    2    1    2    0    0  0.36087231934E+02  0.12519125999E+02 -0.13933469243E+02  0.50528949475E+02  0.30000272423E+02 0.  0.
         12    1    1    2    0    0 -0.36087231934E+02 -0.12519125999E+02  0.13933469243E+02  0.40659050525E+02  0.00000000000E+00 0. -1.
         11    1    3    3    0    0  0.20437698438E+01 -0.32050461715E-01 -0.55971160524E+01  0.59586685402E+01  0.51100000000E-03 0. -1.
        -11    1    3    3    0    0  0.12306616789E+02  0.22624084481E+01 -0.15078483482E+02  0.19594182125E+02  0.51100000000E-03 0.  1.
         12    1    3    3    0    0  0.21736845302E+02  0.10288768013E+02  0.67421302916E+01  0.24976098810E+02  0.00000000000E+00 0. -1.
</event>
<event>
 7    1  0.4971907E-013  0.5052886E+02  0.7816164E-02  0.1300439E+00
        -11   -1    0    0    0    0  0.00000000000E+00  0.00000000000E+00  0.45593999997E+02  0.45594000000E+02  0.51100000000E-03 0.  1.
         11   -1    0    0    0    0 -0.00000000000E+00 -0.00000000000E+00 -0.45593999997E+02  0.45594000000E+02  0.51100000000E-03 0. -1.
    9900012    2    1    2    0    0  0.39374248266E+02  0.71625190732E+01  0.71786270857E+01  0.50528858435E+02  0.29999995698E+02 0.  0.
         12    1    1    2    0    0 -0.39374248266E+02 -0.71625190732E+01 -0.71786270857E+01  0.40659141565E+02  0.00000000000E+00 0. -1.
         11    1    3    3    0    0  0.30350926205E+01  0.26412128867E+01  0.62029160551E+01  0.73935080020E+01  0.51100000000E-03 0. -1.
        -11    1    3    3    0    0  0.33210358428E+02  0.60572067542E+01  0.85269898516E+01  0.34818489582E+02  0.51100000000E-03 0.  1.
         12    1    3    3    0    0  0.31287972178E+01 -0.15359005678E+01 -0.75512788210E+01  0.83168608511E+01  0.00000000000E+00 0. -1.
</event>
<event>
 7    1  0.4971907E-013  0.5052887E+02  0.7816164E-02  0.1300439E+00
        -11   -1    0    0    0    0  0.00000000000E+00  0.00000000000E+00  0.45593999997E+02  0.45594000000E+02  0.51100000000E-03 0.  1.
         11   -1    0    0    0    0 -0.00000000000E+00 -0.00000000000E+00 -0.45593999997E+02  0.45594000000E+02  0.51100000000E-03 0. -1.
    9900012    2    1    2    0    0 -0.29252658406E+02 -0.13292861049E+02 -0.24914792132E+02  0.50528867623E+02  0.30000023627E+02 0.  0.
         12    1    1    2    0    0  0.29252658406E+02  0.13292861049E+02  0.24914792132E+02  0.40659132377E+02  0.00000000000E+00 0. -1.
         11    1    3    3    0    0 -0.43096661861E+01 -0.35732946570E+01  0.56298475160E+01  0.79395743372E+01  0.51100000000E-03 0. -1.
        -11    1    3    3    0    0  0.17781762578E-01  0.20281005282E+00  0.10788329723E+01  0.10978747432E+01  0.51100000000E-03 0.  1.
        -12    1    3    3    0    0 -0.24960773982E+02 -0.99223764450E+01 -0.31623472620E+02  0.41491418543E+02  0.00000000000E+00 0.  1.
</event>
<event>
 7    1  0.4971907E-013  0.5052887E+02  0.7816164E-02  0.1300439E+00
        -11   -1    0    0    0    0  0.00000000000E+00  0.00000000000E+00  0.45593999997E+02  0.45594000000E+02  0.51100000000E-03 0. -1.
         11   -1    0    0    0    0 -0.00000000000E+00 -0.00000000000E+00 -0.45593999997E+02  0.45594000000E+02  0.51100000000E-03 0.  1.
    9900012    2    1    2    0    0 -0.12606495500E+02  0.38480154371E+02  0.36768147654E+01  0.50528868480E+02  0.30000026231E+02 0.  0.
         12    1    1    2    0    0  0.12606495500E+02 -0.38480154371E+02 -0.36768147654E+01  0.40659131520E+02  0.00000000000E+00 0. -1.
         11    1    3    3    0    0  0.33898828637E+01  0.75767222131E+00 -0.88527298251E+00  0.35845615546E+01  0.51100000000E-03 0. -1.
        -11    1    3    3    0    0  0.14388995263E+01  0.79862183609E+00 -0.47805024751E+01  0.50558315695E+01  0.51100000000E-03 0.  1.
         12    1    3    3    0    0 -0.17435277890E+02  0.36923860313E+02  0.93425902230E+01  0.41888475355E+02  0.00000000000E+00 0. -1.
</event>
<event>
 7    1  0.4971907E-013  0.5052886E+02  0.7816164E-02  0.1300439E+00
        -11   -1    0    0    0    0  0.00000000000E+00  0.00000000000E+00  0.45593999997E+02  0.45594000000E+02  0.51100000000E-03 0.  1.
         11   -1    0    0    0    0 -0.00000000000E+00 -0.00000000000E+00 -0.45593999997E+02  0.45594000000E+02  0.51100000000E-03 0. -1.
    9900012    2    1    2    0    0 -0.28221398075E+02 -0.23066559402E+02  0.18018105588E+02  0.50528860795E+02  0.30000002871E+02 0.  0.
         12    1    1    2    0    0  0.28221398075E+02  0.23066559402E+02 -0.18018105588E+02  0.40659139205E+02  0.00000000000E+00 0. -1.
         11    1    3    3    0    0 -0.74191450253E+01 -0.91577112897E+01  0.14209979837E+02  0.18461606544E+02  0.51100000000E-03 0.  1.
        -11    1    3    3    0    0 -0.87124580967E+01 -0.17162396466E+02  0.12433684731E+01  0.19287320808E+02  0.51100000000E-03 0. -1.
         12    1    3    3    0    0 -0.12089794953E+02  0.32535483536E+01  0.25647572784E+01  0.12779933442E+02  0.00000000000E+00 0. -1.
</event>
<event>
 7    1  0.4971907E-013  0.5052887E+02  0.7816164E-02  0.1300439E+00
        -11   -1    0    0    0    0  0.00000000000E+00  0.00000000000E+00  0.45593999997E+02  0.45594000000E+02  0.51100000000E-03 0.  1.
         11   -1    0    0    0    0 -0.00000000000E+00 -0.00000000000E+00 -0.45593999997E+02  0.45594000000E+02  0.51100000000E-03 0. -1.
    9900012    2    1    2    0    0  0.40541310065E+02 -0.10255973639E+01  0.29180738795E+01  0.50528870313E+02  0.30000031804E+02 0.  0.
         12    1    1    2    0    0 -0.40541310065E+02  0.10255973639E+01 -0.29180738795E+01  0.40659129687E+02  0.00000000000E+00 0. -1.
         11    1    3    3    0    0  0.13929372296E+02 -0.21933669372E+01 -0.42768907520E+00  0.14107486994E+02  0.51100000000E-03 0. -1.
        -11    1    3    3    0    0  0.24781981945E+02 -0.83112882488E+01 -0.19268922173E+00  0.26139266839E+02  0.51100000000E-03 0.  1.
         12    1    3    3    0    0  0.18299558238E+01  0.94790578222E+01  0.35384521764E+01  0.10282116480E+02  0.00000000000E+00 0. -1.
</event>
<event>
 7    1  0.4971907E-013  0.5052886E+02  0.7816164E-02  0.1300439E+00
        -11   -1    0    0    0    0  0.00000000000E+00  0.00000000000E+00  0.45593999997E+02  0.45594000000E+02  0.51100000000E-03 0.  1.
         11   -1    0    0    0    0 -0.00000000000E+00 -0.00000000000E+00 -0.45593999997E+02  0.45594000000E+02  0.51100000000E-03 0. -1.
    9900012    2    1    2    0    0  0.23414826518E+02  0.31254889338E+02  0.11315620013E+02  0.50528862470E+02  0.30000007964E+02 0.  0.
         12    1    1    2    0    0 -0.23414826518E+02 -0.31254889338E+02 -0.11315620013E+02  0.40659137530E+02  0.00000000000E+00 0. -1.
         11    1    3    3    0    0  0.42626554770E+01  0.22840802422E+01 -0.63358395838E+01  0.79705782576E+01  0.51100000000E-03 0. -1.
        -11    1    3    3    0    0  0.18631099156E+02  0.15095174998E+02  0.67672396575E+01  0.24915410830E+02  0.51100000000E-03 0.  1.
         12    1    3    3    0    0  0.52107188544E+00  0.13875634097E+02  0.10884219939E+02  0.17642873383E+02  0.00000000000E+00 0. -1.
</event>
<event>
 7    1  0.4971907E-013  0.5052886E+02  0.7816164E-02  0.1300439E+00
        -11   -1    0    0    0    0  0.00000000000E+00  0.00000000000E+00  0.45593999997E+02  0.45594000000E+02  0.51100000000E-03 0.  1.
         11   -1    0    0    0    0 -0.00000000000E+00 -0.00000000000E+00 -0.45593999997E+02  0.45594000000E+02  0.51100000000E-03 0. -1.
    9900012    2    1    2    0    0  0.36695327487E+02 -0.97684829583E+01  0.14532556632E+02  0.50528861778E+02  0.30000005861E+02 0.  0.
         12    1    1    2    0    0 -0.36695327487E+02  0.97684829583E+01 -0.14532556632E+02  0.40659138222E+02  0.00000000000E+00 0. -1.
         11    1    3    3    0    0  0.55814328495E+01  0.54311821956E+01  0.69908523239E+01  0.10465283043E+02  0.51100000000E-03 0. -1.
        -11    1    3    3    0    0  0.14152186633E+02 -0.59750815792E+01  0.12862828992E+02  0.20035926640E+02  0.51100000000E-03 0.  1.
         12    1    3    3    0    0  0.16961708004E+02 -0.92245835747E+01 -0.53211246841E+01  0.20027652095E+02  0.00000000000E+00 0. -1.
</event>
<event>
 7    1  0.4971907E-013  0.5052885E+02  0.7816164E-02  0.1300439E+00
        -11   -1    0    0    0    0  0.00000000000E+00  0.00000000000E+00  0.45593999997E+02  0.45594000000E+02  0.51100000000E-03 0.  1.
         11   -1    0    0    0    0 -0.00000000000E+00 -0.00000000000E+00 -0.45593999997E+02  0.45594000000E+02  0.51100000000E-03 0. -1.
    9900012    2    1    2    0    0 -0.46020582987E+01  0.40115412023E+02 -0.47687416833E+01  0.50528854416E+02  0.29999983483E+02 0.  0.
         12    1    1    2    0    0  0.46020582987E+01 -0.40115412023E+02  0.47687416833E+01  0.40659145584E+02  0.00000000000E+00 0. -1.
         11    1    3    3    0    0  0.66032324375E+01 -0.29309071172E-01 -0.30451943830E+01  0.72716398932E+01  0.51100000000E-03 0. -1.
        -11    1    3    3    0    0  0.20591021920E+01  0.94397779963E+01  0.91957747131E+00  0.97054074331E+01  0.51100000000E-03 0.  1.
        -12    1    3    3    0    0 -0.13264392928E+02  0.30704943098E+02 -0.26431247716E+01  0.33551807090E+02  0.00000000000E+00 0.  1.
</event>
<event>
 7    1  0.4971907E-013  0.5052888E+02  0.7816164E-02  0.1300439E+00
        -11   -1    0    0    0    0  0.00000000000E+00  0.00000000000E+00  0.45593999997E+02  0.45594000000E+02  0.51100000000E-03 0.  1.
         11   -1    0    0    0    0 -0.00000000000E+00 -0.00000000000E+00 -0.45593999997E+02  0.45594000000E+02  0.51100000000E-03 0. -1.
    9900012    2    1    2    0    0 -0.25152496356E+02  0.20666090185E+02  0.24360386686E+02  0.50528882991E+02  0.30000070340E+02 0.  0.
         12    1    1    2    0    0  0.25152496356E+02 -0.20666090185E+02 -0.24360386686E+02  0.40659117009E+02  0.00000000000E+00 0. -1.
         11    1    3    3    0    0  0.13206631435E+01  0.13774617865E+02  0.24315922682E+01  0.14049800343E+02  0.51100000000E-03 0. -1.
        -11    1    3    3    0    0 -0.18478395319E+02  0.37796984002E+00  0.11265060191E+02  0.21644757705E+02  0.51100000000E-03 0.  1.
        -12    1    3    3    0    0 -0.79947641802E+01  0.65135024801E+01  0.10663734227E+02  0.14834324943E+02  0.00000000000E+00 0.  1.
</event>
<event>
 7    1  0.4971907E-013  0.5052886E+02  0.7816164E-02  0.1300439E+00
        -11   -1    0    0    0    0  0.00000000000E+00  0.00000000000E+00  0.45593999997E+02  0.45594000000E+02  0.51100000000E-03 0.  1.
         11   -1    0    0    0    0 -0.00000000000E+00 -0.00000000000E+00 -0.45593999997E+02  0.45594000000E+02  0.51100000000E-03 0. -1.
    9900012    2    1    2    0    0 -0.67554691580E+01  0.12570750070E+02  0.38072368034E+02  0.50528864144E+02  0.30000013052E+02 0.  0.
         12    1    1    2    0    0  0.67554691580E+01 -0.12570750070E+02 -0.38072368034E+02  0.40659135856E+02  0.00000000000E+00 0. -1.
         11    1    3    3    0    0  0.51997419434E+01  0.16546549260E+01 -0.25097922612E+00  0.54624344422E+01  0.51100000000E-03 0. -1.
        -11    1    3    3    0    0 -0.68955953272E+01  0.12497456731E+02  0.13374008607E+02  0.19560157621E+02  0.51100000000E-03 0.  1.
         12    1    3    3    0    0 -0.50596157742E+01 -0.15813615872E+01  0.24949338653E+02  0.25506272081E+02  0.00000000000E+00 0. -1.
</event>
<event>
 7    1  0.4971907E-013  0.5052887E+02  0.7816164E-02  0.1300439E+00
        -11   -1    0    0    0    0  0.00000000000E+00  0.00000000000E+00  0.45593999997E+02  0.45594000000E+02  0.51100000000E-03 0.  1.
         11   -1    0    0    0    0 -0.00000000000E+00 -0.00000000000E+00 -0.45593999997E+02  0.45594000000E+02  0.51100000000E-03 0. -1.
    9900012    2    1    2    0    0  0.11574659572E+02  0.18399346174E+02  0.34360680588E+02  0.50528867517E+02  0.30000023304E+02 0.  0.
         12    1    1    2    0    0 -0.11574659572E+02 -0.18399346174E+02 -0.34360680588E+02  0.40659132483E+02  0.00000000000E+00 0. -1.
         11    1    3    3    0    0 -0.29715917598E+01  0.16004758324E+02  0.21149810188E+02  0.26688895029E+02  0.51100000000E-03 0. -1.
        -11    1    3    3    0    0 -0.20807843280E+01 -0.11507162164E+01  0.11594021816E+00  0.23805994257E+01  0.51100000000E-03 0.  1.
        -12    1    3    3    0    0  0.16627035660E+02  0.35453040659E+01  0.13094930181E+02  0.21459373062E+02  0.00000000000E+00 0.  1.
</event>
<event>
 7    1  0.4971907E-013  0.5052886E+02  0.7816164E-02  0.1300439E+00
        -11   -1    0    0    0    0  0.00000000000E+00  0.00000000000E+00  0.45593999997E+02  0.45594000000E+02  0.51100000000E-03 0.  1.
         11   -1    0    0    0    0 -0.00000000000E+00 -0.00000000000E+00 -0.45593999997E+02  0.45594000000E+02  0.51100000000E-03 0. -1.
    9900012    2    1    2    0    0  0.89972657997E+01  0.26171060160E+02  0.29787419767E+02  0.50528861321E+02  0.30000004471E+02 0.  0.
         12    1    1    2    0    0 -0.89972657997E+01 -0.26171060160E+02 -0.29787419767E+02  0.40659138679E+02  0.00000000000E+00 0. -1.
         11    1    3    3    0    0  0.12047255572E+02  0.23583385961E+01  0.10393700885E+01  0.12319838399E+02  0.51100000000E-03 0.  1.
        -11    1    3    3    0    0 -0.19248242767E+01  0.74665029192E+00  0.26791804037E+01  0.33823723999E+01  0.51100000000E-03 0. -1.
        -12    1    3    3    0    0 -0.11251654954E+01  0.23066071272E+02  0.26068869275E+02  0.34826650522E+02  0.00000000000E+00 0.  1.
</event>
<event>
 7    1  0.4971907E-013  0.5052886E+02  0.7816164E-02  0.1300439E+00
        -11   -1    0    0    0    0  0.00000000000E+00  0.00000000000E+00  0.45593999997E+02  0.45594000000E+02  0.51100000000E-03 0.  1.
         11   -1    0    0    0    0 -0.00000000000E+00 -0.00000000000E+00 -0.45593999997E+02  0.45594000000E+02  0.51100000000E-03 0. -1.
    9900012    2    1    2    0    0 -0.67933442433E+01  0.28243501055E+02  0.28448562784E+02  0.50528860777E+02  0.30000002819E+02 0.  0.
         12    1    1    2    0    0  0.67933442433E+01 -0.28243501055E+02 -0.28448562784E+02  0.40659139223E+02  0.00000000000E+00 0. -1.
         11    1    3    3    0    0 -0.32850533685E+01 -0.15434595437E+00  0.20931944172E+01  0.38983152049E+01  0.51100000000E-03 0. -1.
        -11    1    3    3    0    0  0.81685217422E+01  0.29759179912E+01  0.12979132405E+02  0.15621738494E+02  0.51100000000E-03 0.  1.
        -12    1    3    3    0    0 -0.11676812617E+02  0.25421929018E+02  0.13376235962E+02  0.31008807078E+02  0.00000000000E+00 0.  1.
</event>
<event>
 7    1  0.4971907E-013  0.5052885E+02  0.7816164E-02  0.1300439E+00
        -11   -1    0    0    0    0  0.00000000000E+00  0.00000000000E+00  0.45593999997E+02  0.45594000000E+02  0.51100000000E-03 0.  1.
         11   -1    0    0    0    0 -0.00000000000E+00 -0.00000000000E+00 -0.45593999997E+02  0.45594000000E+02  0.51100000000E-03 0. -1.
    9900012    2    1    2    0    0  0.27216573946E+02  0.29379654896E+02  0.70185874280E+01  0.50528848648E+02  0.29999965950E+02 0.  0.
         12    1    1    2    0    0 -0.27216573946E+02 -0.29379654896E+02 -0.70185874280E+01  0.40659151352E+02  0.00000000000E+00 0. -1.
         11    1    3    3    0    0 -0.83904956441E+00 -0.32492741081E+01 -0.11423059844E+01  0.35449470552E+01  0.51100000000E-03 0. -1.
        -11    1    3    3    0    0  0.56504565372E+01  0.11951085861E+02 -0.45090214651E+01  0.13967368656E+02  0.51100000000E-03 0.  1.
        -12    1    3    3    0    0  0.22405166973E+02  0.20677843144E+02  0.12669914878E+02  0.33016532937E+02  0.00000000000E+00 0.  1.
</event>
<event>
 7    1  0.4971907E-013  0.5052886E+02  0.7816164E-02  0.1300439E+00
        -11   -1    0    0    0    0  0.00000000000E+00  0.00000000000E+00  0.45593999997E+02  0.45594000000E+02  0.51100000000E-03 0.  1.
         11   -1    0    0    0    0 -0.00000000000E+00 -0.00000000000E+00 -0.45593999997E+02  0.45594000000E+02  0.51100000000E-03 0. -1.
    9900012    2    1    2    0    0 -0.18117623931E+02 -0.19832583739E+02  0.30521889014E+02  0.50528863467E+02  0.30000010993E+02 0.  0.
         12    1    1    2    0    0  0.18117623931E+02  0.19832583739E+02 -0.30521889014E+02  0.40659136533E+02  0.00000000000E+00 0. -1.
         11    1    3    3    0    0 -0.10946321897E+01 -0.12867602331E+01 -0.29779916067E+01  0.34237999064E+01  0.51100000000E-03 0. -1.
        -11    1    3    3    0    0 -0.88510150238E+01 -0.18060897404E+02  0.10494111416E+02  0.22686182065E+02  0.51100000000E-03 0.  1.
         12    1    3    3    0    0 -0.81719767170E+01 -0.48492610118E+00  0.23005769205E+02  0.24418881495E+02  0.00000000000E+00 0. -1.
</event>
<event>
 7    1  0.4971907E-013  0.5052886E+02  0.7816164E-02  0.1300439E+00
        -11   -1    0    0    0    0  0.00000000000E+00  0.00000000000E+00  0.45593999997E+02  0.45594000000E+02  0.51100000000E-03 0.  1.
         11   -1    0    0    0    0 -0.00000000000E+00 -0.00000000000E+00 -0.45593999997E+02  0.45594000000E+02  0.51100000000E-03 0. -1.
    9900012    2    1    2    0    0  0.39699535640E+02 -0.83891788254E+01  0.25950705973E+01  0.50528857820E+02  0.29999993829E+02 0.  0.
         12    1    1    2    0    0 -0.39699535640E+02  0.83891788254E+01 -0.25950705973E+01  0.40659142180E+02  0.00000000000E+00 0. -1.
         11    1    3    3    0    0  0.11173984797E+02  0.40300749185E+01  0.67575742215E+01  0.13666171729E+02  0.51100000000E-03 0. -1.
        -11    1    3    3    0    0  0.15085700652E+02  0.11129717787E+01 -0.84324552910E+01  0.17318295899E+02  0.51100000000E-03 0.  1.
        -12    1    3    3    0    0  0.13439850191E+02 -0.13532225523E+02  0.42699516668E+01  0.19544390192E+02  0.00000000000E+00 0.  1.
</event>
<event>
 7    1  0.4971907E-013  0.5052885E+02  0.7816164E-02  0.1300439E+00
        -11   -1    0    0    0    0  0.00000000000E+00  0.00000000000E+00  0.45593999997E+02  0.45594000000E+02  0.51100000000E-03 0. -1.
         11   -1    0    0    0    0 -0.00000000000E+00 -0.00000000000E+00 -0.45593999997E+02  0.45594000000E+02  0.51100000000E-03 0.  1.
    9900012    2    1    2    0    0  0.19731549769E+02  0.35490602932E+02 -0.20613837953E+01  0.50528852740E+02  0.29999978388E+02 0.  0.
         12    1    1    2    0    0 -0.19731549769E+02 -0.35490602932E+02  0.20613837953E+01  0.40659147260E+02  0.00000000000E+00 0. -1.
         11    1    3    3    0    0  0.41210267517E+01 -0.73342633464E+00  0.35361673961E+01  0.54795306178E+01  0.51100000000E-03 0. -1.
        -11    1    3    3    0    0  0.13493591432E+02  0.18003758689E+02 -0.12151333907E+02  0.25570828157E+02  0.51100000000E-03 0.  1.
        -12    1    3    3    0    0  0.21169315855E+01  0.18220270578E+02  0.65537827155E+01  0.19478493965E+02  0.00000000000E+00 0.  1.
</event>
<event>
 7    1  0.5032813E-013  0.5052886E+02  0.7816164E-02  0.1300439E+00
        -11   -1    0    0    0    0  0.00000000000E+00  0.00000000000E+00  0.45593999997E+02  0.45594000000E+02  0.51100000000E-03 0. -1.
         11   -1    0    0    0    0 -0.00000000000E+00 -0.00000000000E+00 -0.45593999997E+02  0.45594000000E+02  0.51100000000E-03 0.  1.
    9900012    2    1    2    0    0 -0.11142490079E+02 -0.93434171487E+01 -0.37969873934E+02  0.50528857661E+02  0.29999993346E+02 0.  0.
         12    1    1    2    0    0  0.11142490079E+02  0.93434171487E+01  0.37969873934E+02  0.40659142339E+02  0.00000000000E+00 0. -1.
         11    1    3    3    0    0 -0.52710851222E+01  0.31810306460E+01 -0.10129254007E+02  0.11853483932E+02  0.51100000000E-03 0. -1.
        -11    1    3    3    0    0 -0.31743739776E+01 -0.68648453888E+01 -0.30819726191E+02  0.31734181495E+02  0.51100000000E-03 0.  1.
         12    1    3    3    0    0 -0.26970309797E+01 -0.56596024059E+01  0.29791062640E+01  0.69411922341E+01  0.00000000000E+00 0. -1.
</event>
<event>
 7    1  0.4971907E-013  0.5052888E+02  0.7816164E-02  0.1300439E+00
        -11   -1    0    0    0    0  0.00000000000E+00  0.00000000000E+00  0.45593999997E+02  0.45594000000E+02  0.51100000000E-03 0.  1.
         11   -1    0    0    0    0 -0.00000000000E+00 -0.00000000000E+00 -0.45593999997E+02  0.45594000000E+02  0.51100000000E-03 0. -1.
    9900012    2    1    2    0    0  0.32998703803E+02  0.13036348752E+02  0.19857077791E+02  0.50528875811E+02  0.30000048514E+02 0.  0.
         12    1    1    2    0    0 -0.32998703803E+02 -0.13036348752E+02 -0.19857077791E+02  0.40659124189E+02  0.00000000000E+00 0. -1.
         11    1    3    3    0    0  0.71258845783E+01  0.14007623141E+02  0.86331967294E+00  0.15739665123E+02  0.51100000000E-03 0. -1.
        -11    1    3    3    0    0  0.14449164872E+02  0.81435365665E+00  0.25619603592E+01  0.14697114633E+02  0.51100000000E-03 0.  1.
         12    1    3    3    0    0  0.11423654352E+02 -0.17856280451E+01  0.16431797759E+02  0.20092096054E+02  0.00000000000E+00 0. -1.
</event>
<event>
 7    1  0.4971907E-013  0.5052886E+02  0.7816164E-02  0.1300439E+00
        -11   -1    0    0    0    0  0.00000000000E+00  0.00000000000E+00  0.45593999997E+02  0.45594000000E+02  0.51100000000E-03 0.  1.
         11   -1    0    0    0    0 -0.00000000000E+00 -0.00000000000E+00 -0.45593999997E+02  0.45594000000E+02  0.51100000000E-03 0. -1.
    9900012    2    1    2    0    0 -0.36960990689E+02  0.16809911682E+02  0.21161118763E+01  0.50528857204E+02  0.29999991957E+02 0.  0.
         12    1    1    2    0    0  0.36960990689E+02 -0.16809911682E+02 -0.21161118763E+01  0.40659142796E+02  0.00000000000E+00 0. -1.
         11    1    3    3    0    0 -0.19408739152E+02  0.17562338599E+02 -0.25381485875E+01  0.26297853354E+02  0.51100000000E-03 0. -1.
        -11    1    3    3    0    0 -0.11916896423E+01 -0.20417532459E+01 -0.47574638645E+01  0.53124705368E+01  0.51100000000E-03 0.  1.
        -12    1    3    3    0    0 -0.16360561894E+02  0.12893263296E+01  0.94117243284E+01  0.18918533313E+02  0.00000000000E+00 0.  1.
</event>
<event>
 7    1  0.4971907E-013  0.5052891E+02  0.7816164E-02  0.1300439E+00
        -11   -1    0    0    0    0  0.00000000000E+00  0.00000000000E+00  0.45593999997E+02  0.45594000000E+02  0.51100000000E-03 0.  1.
         11   -1    0    0    0    0 -0.00000000000E+00 -0.00000000000E+00 -0.45593999997E+02  0.45594000000E+02  0.51100000000E-03 0. -1.
    9900012    2    1    2    0    0  0.13582795098E+02 -0.16365157089E+02  0.34653298461E+02  0.50528907740E+02  0.30000145566E+02 0.  0.
         12    1    1    2    0    0 -0.13582795098E+02  0.16365157089E+02 -0.34653298461E+02  0.40659092260E+02  0.00000000000E+00 0. -1.
         11    1    3    3    0    0  0.48162404880E+00  0.30892897571E+01 -0.21816340582E+01  0.38125057839E+01  0.51100000000E-03 0. -1.
        -11    1    3    3    0    0 -0.20501830638E+01  0.15185031404E+01  0.56242839466E+01  0.61758944742E+01  0.51100000000E-03 0.  1.
         12    1    3    3    0    0  0.15151354113E+02 -0.20972949986E+02  0.31210648572E+02  0.40540507482E+02  0.00000000000E+00 0. -1.
</event>
<event>
 7    1  0.4971907E-013  0.5052886E+02  0.7816164E-02  0.1300439E+00
        -11   -1    0    0    0    0  0.00000000000E+00  0.00000000000E+00  0.45593999997E+02  0.45594000000E+02  0.51100000000E-03 0.  1.
         11   -1    0    0    0    0 -0.00000000000E+00 -0.00000000000E+00 -0.45593999997E+02  0.45594000000E+02  0.51100000000E-03 0. -1.
    9900012    2    1    2    0    0 -0.82419923497E+01 -0.39814813405E+02  0.12746740792E+00  0.50528855244E+02  0.29999986000E+02 0.  0.
         12    1    1    2    0    0  0.82419923497E+01  0.39814813405E+02 -0.12746740792E+00  0.40659144756E+02  0.00000000000E+00 0. -1.
         11    1    3    3    0    0 -0.87235167544E+01 -0.10107060505E+02 -0.87737789862E+01  0.15975969910E+02  0.51100000000E-03 0. -1.
        -11    1    3    3    0    0  0.11508420196E+01 -0.19410093235E+02 -0.19942320502E+01  0.19546179127E+02  0.51100000000E-03 0.  1.
         12    1    3    3    0    0 -0.66931761489E+00 -0.10297659665E+02  0.10895478444E+02  0.15006706207E+02  0.00000000000E+00 0. -1.
</event>
<event>
 7    1  0.4971907E-013  0.5052885E+02  0.7816164E-02  0.1300439E+00
        -11   -1    0    0    0    0  0.00000000000E+00  0.00000000000E+00  0.45593999997E+02  0.45594000000E+02  0.51100000000E-03 0. -1.
         11   -1    0    0    0    0 -0.00000000000E+00 -0.00000000000E+00 -0.45593999997E+02  0.45594000000E+02  0.51100000000E-03 0.  1.
    9900012    2    1    2    0    0 -0.39788150774E+02  0.83158717662E+01 -0.95697406382E+00  0.50528850174E+02  0.29999970588E+02 0.  0.
         12    1    1    2    0    0  0.39788150774E+02 -0.83158717662E+01  0.95697406382E+00  0.40659149826E+02  0.00000000000E+00 0. -1.
         11    1    3    3    0    0 -0.19776570998E+02 -0.40703389354E+01 -0.82450766671E+01  0.21809670080E+02  0.51100000000E-03 0. -1.
        -11    1    3    3    0    0 -0.15974340477E+02  0.13989533902E+01  0.34692403025E+01  0.16406469845E+02  0.51100000000E-03 0.  1.
        -12    1    3    3    0    0 -0.40372392990E+01  0.10987257311E+02  0.38188623007E+01  0.12312710248E+02  0.00000000000E+00 0.  1.
</event>
<event>
 7    1  0.4971907E-013  0.5052884E+02  0.7816164E-02  0.1300439E+00
        -11   -1    0    0    0    0  0.00000000000E+00  0.00000000000E+00  0.45593999997E+02  0.45594000000E+02  0.51100000000E-03 0. -1.
         11   -1    0    0    0    0 -0.00000000000E+00 -0.00000000000E+00 -0.45593999997E+02  0.45594000000E+02  0.51100000000E-03 0.  1.
    9900012    2    1    2    0    0  0.32187015705E+02  0.24653063481E+02 -0.30642462609E+01  0.50528842063E+02  0.29999945936E+02 0.  0.
         12    1    1    2    0    0 -0.32187015705E+02 -0.24653063481E+02  0.30642462609E+01  0.40659157937E+02  0.00000000000E+00 0. -1.
         11    1    3    3    0    0  0.56450049171E+01  0.17598307545E+00  0.64913206357E+01  0.86043183585E+01  0.51100000000E-03 0. -1.
        -11    1    3    3    0    0  0.10849249064E+02 -0.97264403454E+00 -0.32570742842E+01  0.11369290867E+02  0.51100000000E-03 0.  1.
         12    1    3    3    0    0  0.15692761724E+02  0.25449724440E+02 -0.62984926123E+01  0.30555232838E+02  0.00000000000E+00 0. -1.
</event>
<event>
 7    1  0.4971907E-013  0.5052886E+02  0.7816164E-02  0.1300439E+00
        -11   -1    0    0    0    0  0.00000000000E+00  0.00000000000E+00  0.45593999997E+02  0.45594000000E+02  0.51100000000E-03 0.  1.
         11   -1    0    0    0    0 -0.00000000000E+00 -0.00000000000E+00 -0.45593999997E+02  0.45594000000E+02  0.51100000000E-03 0. -1.
    9900012    2    1    2    0    0 -0.14843422567E+02 -0.25564544144E+02  0.27915814560E+02  0.50528858183E+02  0.29999994933E+02 0.  0.
         12    1    1    2    0    0  0.14843422567E+02  0.25564544144E+02 -0.27915814560E+02  0.40659141817E+02  0.00000000000E+00 0. -1.
         11    1    3    3    0    0 -0.27539325465E+01 -0.35269612482E+01  0.13802245727E+02  0.14509499904E+02  0.51100000000E-03 0. -1.
        -11    1    3    3    0    0 -0.82540305758E+01  0.21787191268E+01  0.47864367896E+01  0.97870227946E+01  0.51100000000E-03 0.  1.
         12    1    3    3    0    0 -0.38354594446E+01 -0.24216302022E+02  0.93271320434E+01  0.26232335484E+02  0.00000000000E+00 0. -1.
</event>
<event>
 7    1  0.4971907E-013  0.5052886E+02  0.7816164E-02  0.1300439E+00
        -11   -1    0    0    0    0  0.00000000000E+00  0.00000000000E+00  0.45593999997E+02  0.45594000000E+02  0.51100000000E-03 0.  1.
         11   -1    0    0    0    0 -0.00000000000E+00 -0.00000000000E+00 -0.45593999997E+02  0.45594000000E+02  0.51100000000E-03 0. -1.
    9900012    2    1    2    0    0 -0.19667983228E+01  0.39871097762E+02  0.77196645414E+01  0.50528856465E+02  0.29999989711E+02 0.  0.
         12    1    1    2    0    0  0.19667983228E+01 -0.39871097762E+02 -0.77196645414E+01  0.40659143535E+02  0.00000000000E+00 0. -1.
         11    1    3    3    0    0 -0.53675288867E+01  0.15776379296E+02  0.17445420464E+02  0.24125654509E+02  0.51100000000E-03 0.  1.
        -11    1    3    3    0    0  0.14532441359E+01  0.27370506458E+01 -0.11326711202E+01  0.32994406926E+01  0.51100000000E-03 0. -1.
        -12    1    3    3    0    0  0.19474864280E+01  0.21357667820E+02 -0.85930848027E+01  0.23103761263E+02  0.00000000000E+00 0.  1.
</event>
<event>
 7    1  0.4971907E-013  0.5052886E+02  0.7816164E-02  0.1300439E+00
        -11   -1    0    0    0    0  0.00000000000E+00  0.00000000000E+00  0.45593999997E+02  0.45594000000E+02  0.51100000000E-03 0.  1.
         11   -1    0    0    0    0 -0.00000000000E+00 -0.00000000000E+00 -0.45593999997E+02  0.45594000000E+02  0.51100000000E-03 0. -1.
    9900012    2    1    2    0    0  0.53649345969E+01 -0.19397540317E+02  0.35328716098E+02  0.50528864807E+02  0.30000015066E+02 0.  0.
         12    1    1    2    0    0 -0.53649345969E+01  0.19397540317E+02 -0.35328716098E+02  0.40659135193E+02  0.00000000000E+00 0. -1.
         11    1    3    3    0    0 -0.43797791217E+01  0.23927463936E+01  0.58102118386E+01  0.76593904673E+01  0.51100000000E-03 0. -1.
        -11    1    3    3    0    0 -0.43145384352E+01 -0.97807043015E+01  0.18439199241E+02  0.21313880159E+02  0.51100000000E-03 0.  1.
        -12    1    3    3    0    0  0.14059252154E+02 -0.12009582409E+02  0.11079305018E+02  0.21555594180E+02  0.00000000000E+00 0.  1.
</event>
<event>
 7    1  0.4971907E-013  0.5052886E+02  0.7816164E-02  0.1300439E+00
        -11   -1    0    0    0    0  0.00000000000E+00  0.00000000000E+00  0.45593999997E+02  0.45594000000E+02  0.51100000000E-03 0.  1.
         11   -1    0    0    0    0 -0.00000000000E+00 -0.00000000000E+00 -0.45593999997E+02  0.45594000000E+02  0.51100000000E-03 0. -1.
    9900012    2    1    2    0    0 -0.17548720465E+02 -0.32569012383E+02 -0.16866172751E+02  0.50528856614E+02  0.29999990165E+02 0.  0.
         12    1    1    2    0    0  0.17548720465E+02  0.32569012383E+02  0.16866172751E+02  0.40659143386E+02  0.00000000000E+00 0. -1.
         11    1    3    3    0    0  0.72663041097E+01 -0.90813596557E+01 -0.68461316246E+01  0.13495917423E+02  0.51100000000E-03 0. -1.
        -11    1    3    3    0    0 -0.85282809987E+01 -0.21716538684E+01 -0.18774922765E+01  0.89984795841E+01  0.51100000000E-03 0.  1.
        -12    1    3    3    0    0 -0.16286743577E+02 -0.21315998859E+02 -0.81425488493E+01  0.28034459607E+02  0.00000000000E+00 0.  1.
</event>
<event>
 7    1  0.4971907E-013  0.5052885E+02  0.7816164E-02  0.1300439E+00
        -11   -1    0    0    0    0  0.00000000000E+00  0.00000000000E+00  0.45593999997E+02  0.45594000000E+02  0.51100000000E-03 0.  1.
         11   -1    0    0    0    0 -0.00000000000E+00 -0.00000000000E+00 -0.45593999997E+02  0.45594000000E+02  0.51100000000E-03 0. -1.
    9900012    2    1    2    0    0  0.34735417334E+02 -0.19904942277E+02 -0.71000139167E+01  0.50528854140E+02  0.29999982645E+02 0.  0.
         12    1    1    2    0    0 -0.34735417334E+02  0.19904942277E+02  0.71000139167E+01  0.40659145860E+02  0.00000000000E+00 0. -1.
         11    1    3    3    0    0 -0.11484766401E+01 -0.57995424117E+00 -0.15714381478E+00  0.12961635523E+01  0.51100000000E-03 0. -1.
        -11    1    3    3    0    0  0.24848324656E+02 -0.12524642832E+02  0.84763069534E+01  0.29088721115E+02  0.51100000000E-03 0.  1.
        -12    1    3    3    0    0  0.11035569318E+02 -0.68003452037E+01 -0.15419177055E+02  0.20143969473E+02  0.00000000000E+00 0.  1.
</event>
<event>
 7    1  0.4971907E-013  0.5052886E+02  0.7816164E-02  0.1300439E+00
        -11   -1    0    0    0    0  0.00000000000E+00  0.00000000000E+00  0.45593999997E+02  0.45594000000E+02  0.51100000000E-03 0.  1.
         11   -1    0    0    0    0 -0.00000000000E+00 -0.00000000000E+00 -0.45593999997E+02  0.45594000000E+02  0.51100000000E-03 0. -1.
    9900012    2    1    2    0    0 -0.12814841995E+02  0.36944106819E+02  0.11139069333E+02  0.50528855031E+02  0.29999985351E+02 0.  0.
         12    1    1    2    0    0  0.12814841995E+02 -0.36944106819E+02 -0.11139069333E+02  0.40659144969E+02  0.00000000000E+00 0. -1.
         11    1    3    3    0    0 -0.41968152996E+01  0.22062215201E+02  0.15669761795E+02  0.27384229644E+02  0.51100000000E-03 0. -1.
        -11    1    3    3    0    0 -0.11559504969E+02  0.78158534790E+01  0.53866304539E+00  0.13964235706E+02  0.51100000000E-03 0.  1.
        -12    1    3    3    0    0  0.29414782730E+01  0.70660381392E+01 -0.50693555075E+01  0.91803896800E+01  0.00000000000E+00 0.  1.
</event>
<event>
 7    1  0.4971907E-013  0.5052886E+02  0.7816164E-02  0.1300439E+00
        -11   -1    0    0    0    0  0.00000000000E+00  0.00000000000E+00  0.45593999997E+02  0.45594000000E+02  0.51100000000E-03 0. -1.
         11   -1    0    0    0    0 -0.00000000000E+00 -0.00000000000E+00 -0.45593999997E+02  0.45594000000E+02  0.51100000000E-03 0.  1.
    9900012    2    1    2    0    0 -0.66695580796E+01  0.39157305530E+02 -0.86826277284E+01  0.50528860737E+02  0.30000002697E+02 0.  0.
         12    1    1    2    0    0  0.66695580796E+01 -0.39157305530E+02  0.86826277284E+01  0.40659139263E+02  0.00000000000E+00 0. -1.
         11    1    3    3    0    0  0.43898691200E+01  0.41454751887E+01  0.55777868507E+01  0.82199526667E+01  0.51100000000E-03 0. -1.
        -11    1    3    3    0    0 -0.69046882117E+01  0.39296195596E+01 -0.57771613084E+01  0.98230454660E+01  0.51100000000E-03 0.  1.
        -12    1    3    3    0    0 -0.41547389879E+01  0.31082210781E+02 -0.84832532706E+01  0.32485862605E+02  0.00000000000E+00 0.  1.
</event>
<event>
 7    1  0.4971907E-013  0.5052887E+02  0.7816164E-02  0.1300439E+00
        -11   -1    0    0    0    0  0.00000000000E+00  0.00000000000E+00  0.45593999997E+02  0.45594000000E+02  0.51100000000E-03 0.  1.
         11   -1    0    0    0    0 -0.00000000000E+00 -0.00000000000E+00 -0.45593999997E+02  0.45594000000E+02  0.51100000000E-03 0. -1.
    9900012    2    1    2    0    0  0.32684003611E+02  0.19581156429E+02 -0.14195034260E+02  0.50528870930E+02  0.30000033678E+02 0.  0.
         12    1    1    2    0    0 -0.32684003611E+02 -0.19581156429E+02  0.14195034260E+02  0.40659129070E+02  0.00000000000E+00 0. -1.
         11    1    3    3    0    0  0.78101349566E+01  0.15275471531E+01 -0.83064822553E+01  0.11503445400E+02  0.51100000000E-03 0. -1.
        -11    1    3    3    0    0 -0.13959913286E+01 -0.21467607456E+01  0.37253111611E+01  0.45205438828E+01  0.51100000000E-03 0.  1.
        -12    1    3    3    0    0  0.26269859983E+02  0.20200370021E+02 -0.96138631659E+01  0.34504881647E+02  0.00000000000E+00 0.  1.
</event>
<event>
 7    1  0.4971907E-013  0.5052887E+02  0.7816164E-02  0.1300439E+00
        -11   -1    0    0    0    0  0.00000000000E+00  0.00000000000E+00  0.45593999997E+02  0.45594000000E+02  0.51100000000E-03 0.  1.
         11   -1    0    0    0    0 -0.00000000000E+00 -0.00000000000E+00 -0.45593999997E+02  0.45594000000E+02  0.51100000000E-03 0. -1.
    9900012    2    1    2    0    0  0.22696527182E+02 -0.89435024464E+01  0.32527628904E+02  0.50528865426E+02  0.30000016950E+02 0.  0.
         12    1    1    2    0    0 -0.22696527182E+02  0.89435024464E+01 -0.32527628904E+02  0.40659134574E+02  0.00000000000E+00 0. -1.
         11    1    3    3    0    0  0.17398781598E+02 -0.88966614704E+01  0.16770880249E+02  0.25751322510E+02  0.51100000000E-03 0.  1.
        -11    1    3    3    0    0  0.26994816768E-01  0.87270314490E+01  0.56696965663E+01  0.10407077690E+02  0.51100000000E-03 0. -1.
         12    1    3    3    0    0  0.52707507674E+01 -0.87738724250E+01  0.10087052088E+02  0.14370465226E+02  0.00000000000E+00 0. -1.
</event>
<event>
 7    1  0.4971907E-013  0.5052886E+02  0.7816164E-02  0.1300439E+00
        -11   -1    0    0    0    0  0.00000000000E+00  0.00000000000E+00  0.45593999997E+02  0.45594000000E+02  0.51100000000E-03 0.  1.
         11   -1    0    0    0    0 -0.00000000000E+00 -0.00000000000E+00 -0.45593999997E+02  0.45594000000E+02  0.51100000000E-03 0. -1.
    9900012    2    1    2    0    0 -0.87312104130E+01  0.20031617101E+02  0.34287990189E+02  0.50528856008E+02  0.29999988322E+02 0.  0.
         12    1    1    2    0    0  0.87312104130E+01 -0.20031617101E+02 -0.34287990189E+02  0.40659143992E+02  0.00000000000E+00 0. -1.
         11    1    3    3    0    0 -0.73528991564E+01  0.76330657148E+01  0.19257130376E+02  0.21981034753E+02  0.51100000000E-03 0. -1.
        -11    1    3    3    0    0  0.76647173884E+01  0.62388161898E+01  0.14558480925E+02  0.17596024755E+02  0.51100000000E-03 0.  1.
         12    1    3    3    0    0 -0.90430286450E+01  0.61597351960E+01  0.47237888821E+00  0.10951796500E+02  0.00000000000E+00 0. -1.
</event>
<event>
 7    1  0.4971907E-013  0.5052883E+02  0.7816164E-02  0.1300439E+00
        -11   -1    0    0    0    0  0.00000000000E+00  0.00000000000E+00  0.45593999997E+02  0.45594000000E+02  0.51100000000E-03 0.  1.
         11   -1    0    0    0    0 -0.00000000000E+00 -0.00000000000E+00 -0.45593999997E+02  0.45594000000E+02  0.51100000000E-03 0. -1.
    9900012    2    1    2    0    0 -0.25530945630E+01  0.20621147550E+02  0.34948791731E+02  0.50528830535E+02  0.29999910894E+02 0.  0.
         12    1    1    2    0    0  0.25530945630E+01 -0.20621147550E+02 -0.34948791731E+02  0.40659169465E+02  0.00000000000E+00 0. -1.
         11    1    3    3    0    0 -0.76952111977E+01  0.67729986476E+01  0.24144658609E+02  0.26230789650E+02  0.51100000000E-03 0.  1.
        -11    1    3    3    0    0  0.51545585225E+01  0.82791042375E+01  0.14600483754E+02  0.17558108288E+02  0.51100000000E-03 0. -1.
        -12    1    3    3    0    0 -0.12441887823E-01  0.55690446650E+01 -0.37963506327E+01  0.67399325967E+01  0.00000000000E+00 0.  1.
</event>
<event>
 7    1  0.4971907E-013  0.5052885E+02  0.7816164E-02  0.1300439E+00
        -11   -1    0    0    0    0  0.00000000000E+00  0.00000000000E+00  0.45593999997E+02  0.45594000000E+02  0.51100000000E-03 0.  1.
         11   -1    0    0    0    0 -0.00000000000E+00 -0.00000000000E+00 -0.45593999997E+02  0.45594000000E+02  0.51100000000E-03 0. -1.
    9900012    2    1    2    0    0 -0.17028911735E+02 -0.10977315533E+01  0.36904976246E+02  0.50528854397E+02  0.29999983425E+02 0.  0.
         12    1    1    2    0    0  0.17028911735E+02  0.10977315533E+01 -0.36904976246E+02  0.40659145603E+02  0.00000000000E+00 0. -1.
         11    1    3    3    0    0  0.23311647668E+01  0.32117191819E+01 -0.80542825835E-01  0.39693773669E+01  0.51100000000E-03 0. -1.
        -11    1    3    3    0    0 -0.62216358442E+01  0.70449429611E+01  0.20782921100E+02  0.22809423132E+02  0.51100000000E-03 0.  1.
         12    1    3    3    0    0 -0.13138440658E+02 -0.11354393696E+02  0.16202597971E+02  0.23750053898E+02  0.00000000000E+00 0. -1.
</event>
<event>
 7    1  0.4971907E-013  0.5052886E+02  0.7816164E-02  0.1300439E+00
        -11   -1    0    0    0    0  0.00000000000E+00  0.00000000000E+00  0.45593999997E+02  0.45594000000E+02  0.51100000000E-03 0. -1.
         11   -1    0    0    0    0 -0.00000000000E+00 -0.00000000000E+00 -0.45593999997E+02  0.45594000000E+02  0.51100000000E-03 0.  1.
    9900012    2    1    2    0    0 -0.19397290126E+02 -0.27532402113E+02 -0.22778890885E+02  0.50528857114E+02  0.29999991683E+02 0.  0.
         12    1    1    2    0    0  0.19397290126E+02  0.27532402113E+02  0.22778890885E+02  0.40659142886E+02  0.00000000000E+00 0. -1.
         11    1    3    3    0    0 -0.83148219153E+00  0.16540569964E+01  0.96031256555E+00  0.20855377404E+01  0.51100000000E-03 0. -1.
        -11    1    3    3    0    0  0.33769448015E+01 -0.89669834390E+01 -0.14175345566E+02  0.17109966989E+02  0.51100000000E-03 0.  1.
         12    1    3    3    0    0 -0.21942752736E+02 -0.20219475670E+02 -0.95638578837E+01  0.31333352384E+02  0.00000000000E+00 0. -1.
</event>
<event>
 7    1  0.4971907E-013  0.5052886E+02  0.7816164E-02  0.1300439E+00
        -11   -1    0    0    0    0  0.00000000000E+00  0.00000000000E+00  0.45593999997E+02  0.45594000000E+02  0.51100000000E-03 0.  1.
         11   -1    0    0    0    0 -0.00000000000E+00 -0.00000000000E+00 -0.45593999997E+02  0.45594000000E+02  0.51100000000E-03 0. -1.
    9900012    2    1    2    0    0 -0.13635578885E+02  0.25669414598E+02  0.28430924675E+02  0.50528864062E+02  0.30000012803E+02 0.  0.
         12    1    1    2    0    0  0.13635578885E+02 -0.25669414598E+02 -0.28430924675E+02  0.40659135938E+02  0.00000000000E+00 0. -1.
         11    1    3    3    0    0 -0.11193401278E+02  0.32018269052E+01  0.78857690462E+00  0.11669009448E+02  0.51100000000E-03 0. -1.
        -11    1    3    3    0    0 -0.79601792876E+01  0.15717955055E+02  0.13297602756E+02  0.22073622374E+02  0.51100000000E-03 0.  1.
         12    1    3    3    0    0  0.55180016807E+01  0.67496326386E+01  0.14344745014E+02  0.16786232240E+02  0.00000000000E+00 0. -1.
</event>
<event>
 7    1  0.4971907E-013  0.5052888E+02  0.7816164E-02  0.1300439E+00
        -11   -1    0    0    0    0  0.00000000000E+00  0.00000000000E+00  0.45593999997E+02  0.45594000000E+02  0.51100000000E-03 0. -1.
         11   -1    0    0    0    0 -0.00000000000E+00 -0.00000000000E+00 -0.45593999997E+02  0.45594000000E+02  0.51100000000E-03 0.  1.
    9900012    2    1    2    0    0 -0.24474405152E+02  0.21723369052E+02 -0.24130129138E+02  0.50528875529E+02  0.30000047658E+02 0.  0.
         12    1    1    2    0    0  0.24474405152E+02 -0.21723369052E+02  0.24130129138E+02  0.40659124471E+02  0.00000000000E+00 0. -1.
         11    1    3    3    0    0 -0.71525034746E+00 -0.15999984919E+01  0.53278171247E+00  0.18317846074E+01  0.51100000000E-03 0. -1.
        -11    1    3    3    0    0 -0.25578380178E+02  0.17297800552E+02 -0.95428185530E+01  0.32319233015E+02  0.51100000000E-03 0.  1.
        -12    1    3    3    0    0  0.18192253732E+01  0.60255669915E+01 -0.15120092297E+02  0.16377857907E+02  0.00000000000E+00 0.  1.
</event>
<event>
 7    1  0.4971907E-013  0.5052886E+02  0.7816164E-02  0.1300439E+00
        -11   -1    0    0    0    0  0.00000000000E+00  0.00000000000E+00  0.45593999997E+02  0.45594000000E+02  0.51100000000E-03 0.  1.
         11   -1    0    0    0    0 -0.00000000000E+00 -0.00000000000E+00 -0.45593999997E+02  0.45594000000E+02  0.51100000000E-03 0. -1.
    9900012    2    1    2    0    0 -0.27076251887E+02 -0.20035691543E+02  0.22773087478E+02  0.50528857545E+02  0.29999992995E+02 0.  0.
         12    1    1    2    0    0  0.27076251887E+02  0.20035691543E+02 -0.22773087478E+02  0.40659142455E+02  0.00000000000E+00 0. -1.
         11    1    3    3    0    0 -0.89403519940E+01 -0.15738487964E+02  0.47891229362E+01  0.18723397019E+02  0.51100000000E-03 0. -1.
        -11    1    3    3    0    0 -0.66569360998E+01  0.12888416723E+01 -0.28630637035E+01  0.73602340400E+01  0.51100000000E-03 0.  1.
        -12    1    3    3    0    0 -0.11478963794E+02 -0.55860452510E+01  0.20847028245E+02  0.24445226487E+02  0.00000000000E+00 0.  1.
</event>
<event>
 7    1  0.4971907E-013  0.5052886E+02  0.7816164E-02  0.1300439E+00
        -11   -1    0    0    0    0  0.00000000000E+00  0.00000000000E+00  0.45593999997E+02  0.45594000000E+02  0.51100000000E-03 0.  1.
         11   -1    0    0    0    0 -0.00000000000E+00 -0.00000000000E+00 -0.45593999997E+02  0.45594000000E+02  0.51100000000E-03 0. -1.
    9900012    2    1    2    0    0 -0.33205315334E+02  0.31849261259E+01  0.23247127036E+02  0.50528860359E+02  0.30000001548E+02 0.  0.
         12    1    1    2    0    0  0.33205315334E+02 -0.31849261259E+01 -0.23247127036E+02  0.40659139641E+02  0.00000000000E+00 0. -1.
         11    1    3    3    0    0 -0.66587714903E+01 -0.47788509512E+01  0.21915787717E+01  0.84840834477E+01  0.51100000000E-03 0. -1.
        -11    1    3    3    0    0 -0.27349800453E+02  0.92604217119E+01  0.24760920394E+02  0.38037746701E+02  0.51100000000E-03 0.  1.
         12    1    3    3    0    0  0.80325660938E+00 -0.12966446348E+01 -0.37053721292E+01  0.40070302102E+01  0.00000000000E+00 0. -1.
</event>
<event>
 7    1  0.4971907E-013  0.5052887E+02  0.7816164E-02  0.1300439E+00
        -11   -1    0    0    0    0  0.00000000000E+00  0.00000000000E+00  0.45593999997E+02  0.45594000000E+02  0.51100000000E-03 0. -1.
         11   -1    0    0    0    0 -0.00000000000E+00 -0.00000000000E+00 -0.45593999997E+02  0.45594000000E+02  0.51100000000E-03 0.  1.
    9900012    2    1    2    0    0 -0.25942789487E+02  0.29775923621E+02  0.96711572439E+01  0.50528865278E+02  0.30000016500E+02 0.  0.
         12    1    1    2    0    0  0.25942789487E+02 -0.29775923621E+02 -0.96711572439E+01  0.40659134722E+02  0.00000000000E+00 0. -1.
         11    1    3    3    0    0 -0.10605467435E+01  0.12350093677E+02  0.43179800062E+00  0.12403065065E+02  0.51100000000E-03 0. -1.
        -11    1    3    3    0    0 -0.16005804097E+02  0.64212308180E+01 -0.51044468348E+01  0.17985364822E+02  0.51100000000E-03 0.  1.
         12    1    3    3    0    0 -0.88764386464E+01  0.11004599126E+02  0.14343806078E+02  0.20140435392E+02  0.00000000000E+00 0. -1.
</event>
<event>
 7    1  0.4971907E-013  0.5052886E+02  0.7816164E-02  0.1300439E+00
        -11   -1    0    0    0    0  0.00000000000E+00  0.00000000000E+00  0.45593999997E+02  0.45594000000E+02  0.51100000000E-03 0.  1.
         11   -1    0    0    0    0 -0.00000000000E+00 -0.00000000000E+00 -0.45593999997E+02  0.45594000000E+02  0.51100000000E-03 0. -1.
    9900012    2    1    2    0    0  0.18358766565E+02 -0.28505799771E+02  0.22439712028E+02  0.50528860729E+02  0.30000002671E+02 0.  0.
         12    1    1    2    0    0 -0.18358766565E+02  0.28505799771E+02 -0.22439712028E+02  0.40659139271E+02  0.00000000000E+00 0. -1.
         11    1    3    3    0    0 -0.55368977727E+01 -0.70429741632E+01  0.52889546591E+01  0.10403545725E+02  0.51100000000E-03 0. -1.
        -11    1    3    3    0    0  0.68832026635E+01 -0.15076967615E+01 -0.23702127336E+01  0.74343484647E+01  0.51100000000E-03 0.  1.
        -12    1    3    3    0    0  0.17012461674E+02 -0.19955128846E+02  0.19520970103E+02  0.32690966539E+02  0.00000000000E+00 0.  1.
</event>
<event>
 7    1  0.4971907E-013  0.5052885E+02  0.7816164E-02  0.1300439E+00
        -11   -1    0    0    0    0  0.00000000000E+00  0.00000000000E+00  0.45593999997E+02  0.45594000000E+02  0.51100000000E-03 0.  1.
         11   -1    0    0    0    0 -0.00000000000E+00 -0.00000000000E+00 -0.45593999997E+02  0.45594000000E+02  0.51100000000E-03 0. -1.
    9900012    2    1    2    0    0 -0.40502621814E+02 -0.45260568588E+00  0.35354106321E+01  0.50528851534E+02  0.29999974721E+02 0.  0.
         12    1    1    2    0    0  0.40502621814E+02  0.45260568588E+00 -0.35354106321E+01  0.40659148466E+02  0.00000000000E+00 0. -1.
         11    1    3    3    0    0  0.11172523265E+01 -0.13925062255E+01 -0.16191941112E+01  0.24102108165E+01  0.51100000000E-03 0. -1.
        -11    1    3    3    0    0 -0.21619345091E+02 -0.11091952142E+02  0.48388829573E+01  0.24775840511E+02  0.51100000000E-03 0.  1.
        -12    1    3    3    0    0 -0.20000529049E+02  0.12031852682E+02  0.31572178598E+00  0.23342800206E+02  0.00000000000E+00 0.  1.
</event>
<event>
 7    1  0.4971907E-013  0.5052887E+02  0.7816164E-02  0.1300439E+00
        -11   -1    0    0    0    0  0.00000000000E+00  0.00000000000E+00  0.45593999997E+02  0.45594000000E+02  0.51100000000E-03 0.  1.
         11   -1    0    0    0    0 -0.00000000000E+00 -0.00000000000E+00 -0.45593999997E+02  0.45594000000E+02  0.51100000000E-03 0. -1.
    9900012    2    1    2    0    0 -0.27006409677E+02 -0.15727575430E+02  0.26008885578E+02  0.50528869149E+02  0.30000028264E+02 0.  0.
         12    1    1    2    0    0  0.27006409677E+02  0.15727575430E+02 -0.26008885578E+02  0.40659130851E+02  0.00000000000E+00 0. -1.
         11    1    3    3    0    0 -0.23692134954E+01 -0.52043211302E+01  0.71126003502E+01  0.91261829379E+01  0.51100000000E-03 0. -1.
        -11    1    3    3    0    0  0.42765429415E+01 -0.35599106141E+01  0.79667596137E+01  0.97175635895E+01  0.51100000000E-03 0.  1.
        -12    1    3    3    0    0 -0.28913739123E+02 -0.69633436861E+01  0.10929525614E+02  0.31685122621E+02  0.00000000000E+00 0.  1.
</event>
<event>
 7    1  0.4971907E-013  0.5052899E+02  0.7816164E-02  0.1300438E+00
        -11   -1    0    0    0    0  0.00000000000E+00  0.00000000000E+00  0.45593999997E+02  0.45594000000E+02  0.51100000000E-03 0.  1.
         11   -1    0    0    0    0 -0.00000000000E+00 -0.00000000000E+00 -0.45593999997E+02  0.45594000000E+02  0.51100000000E-03 0. -1.
    9900012    2    1    2    0    0 -0.66926866202E+01 -0.17609718484E+01  0.40065725945E+02  0.50528985359E+02  0.30000381496E+02 0.  0.
         12    1    1    2    0    0  0.66926866202E+01  0.17609718484E+01 -0.40065725945E+02  0.40659014641E+02  0.00000000000E+00 0. -1.
         11    1    3    3    0    0  0.75685057283E+00  0.10980445750E+02  0.88317097192E+01  0.14111771982E+02  0.51100000000E-03 0.  1.
        -11    1    3    3    0    0  0.14222538765E+01  0.56153780900E+00  0.24846194435E+00  0.15491495728E+01  0.51100000000E-03 0. -1.
        -12    1    3    3    0    0 -0.88717910695E+01 -0.13302955407E+02  0.30985554281E+02  0.34868063804E+02  0.00000000000E+00 0.  1.
</event>
<event>
 7    1  0.4971907E-013  0.5052886E+02  0.7816164E-02  0.1300439E+00
        -11   -1    0    0    0    0  0.00000000000E+00  0.00000000000E+00  0.45593999997E+02  0.45594000000E+02  0.51100000000E-03 0.  1.
         11   -1    0    0    0    0 -0.00000000000E+00 -0.00000000000E+00 -0.45593999997E+02  0.45594000000E+02  0.51100000000E-03 0. -1.
    9900012    2    1    2    0    0 -0.34382282334E+02 -0.18577082110E+02 -0.11221236351E+02  0.50528862485E+02  0.30000008010E+02 0.  0.
         12    1    1    2    0    0  0.34382282334E+02  0.18577082110E+02  0.11221236351E+02  0.40659137515E+02  0.00000000000E+00 0. -1.
         11    1    3    3    0    0 -0.10912088815E+02 -0.12468507059E+02  0.23454189328E+01  0.16734346143E+02  0.51100000000E-03 0. -1.
        -11    1    3    3    0    0 -0.19053166193E+02 -0.21268801944E+01 -0.20869518522E+00  0.19172644973E+02  0.51100000000E-03 0.  1.
         12    1    3    3    0    0 -0.44170273262E+01 -0.39816948560E+01 -0.13357960099E+02  0.14621871369E+02  0.00000000000E+00 0. -1.
</event>
<event>
 7    1  0.4971907E-013  0.5052884E+02  0.7816164E-02  0.1300439E+00
        -11   -1    0    0    0    0  0.00000000000E+00  0.00000000000E+00  0.45593999997E+02  0.45594000000E+02  0.51100000000E-03 0.  1.
         11   -1    0    0    0    0 -0.00000000000E+00 -0.00000000000E+00 -0.45593999997E+02  0.45594000000E+02  0.51100000000E-03 0. -1.
    9900012    2    1    2    0    0  0.33160289423E+02  0.13722414486E+02 -0.19111725838E+02  0.50528837214E+02  0.29999931195E+02 0.  0.
         12    1    1    2    0    0 -0.33160289423E+02 -0.13722414486E+02  0.19111725838E+02  0.40659162786E+02  0.00000000000E+00 0. -1.
         11    1    3    3    0    0  0.23554079717E+02  0.53820381996E+01 -0.21787386895E+02  0.32533847521E+02  0.51100000000E-03 0. -1.
        -11    1    3    3    0    0  0.10506575687E+02  0.18128336444E+01  0.37833529024E+01  0.11313189556E+02  0.51100000000E-03 0.  1.
         12    1    3    3    0    0 -0.90036598085E+00  0.65275426424E+01 -0.11076918448E+01  0.66818001370E+01  0.00000000000E+00 0. -1.
</event>
<event>
 7    1  0.4971907E-013  0.5052886E+02  0.7816164E-02  0.1300439E+00
        -11   -1    0    0    0    0  0.00000000000E+00  0.00000000000E+00  0.45593999997E+02  0.45594000000E+02  0.51100000000E-03 0.  1.
         11   -1    0    0    0    0 -0.00000000000E+00 -0.00000000000E+00 -0.45593999997E+02  0.45594000000E+02  0.51100000000E-03 0. -1.
    9900012    2    1    2    0    0 -0.91094496810E+01 -0.13507567858E+02  0.37252241699E+02  0.50528856200E+02  0.29999988907E+02 0.  0.
         12    1    1    2    0    0  0.91094496810E+01  0.13507567858E+02 -0.37252241699E+02  0.40659143800E+02  0.00000000000E+00 0. -1.
         11    1    3    3    0    0 -0.12392560375E+02 -0.99797182340E+01  0.19770666188E+02  0.25378131737E+02  0.51100000000E-03 0. -1.
        -11    1    3    3    0    0 -0.48912827352E+01  0.42283225274E+01  0.88301582607E+01  0.10944178972E+02  0.51100000000E-03 0.  1.
        -12    1    3    3    0    0  0.81743934292E+01 -0.77561721518E+01  0.86514172499E+01  0.14206545492E+02  0.00000000000E+00 0.  1.
</event>
<event>
 7    1  0.4971907E-013  0.5052891E+02  0.7816164E-02  0.1300439E+00
        -11   -1    0    0    0    0  0.00000000000E+00  0.00000000000E+00  0.45593999997E+02  0.45594000000E+02  0.51100000000E-03 0.  1.
         11   -1    0    0    0    0 -0.00000000000E+00 -0.00000000000E+00 -0.45593999997E+02  0.45594000000E+02  0.51100000000E-03 0. -1.
    9900012    2    1    2    0    0 -0.97862904436E+01  0.14482658279E+02  0.36710254871E+02  0.50528908960E+02  0.30000149274E+02 0.  0.
         12    1    1    2    0    0  0.97862904436E+01 -0.14482658279E+02 -0.36710254871E+02  0.40659091040E+02  0.00000000000E+00 0. -1.
         11    1    3    3    0    0 -0.54134652992E+01 -0.37418664752E+01  0.64895389332E+01  0.92423637178E+01  0.51100000000E-03 0. -1.
        -11    1    3    3    0    0 -0.12631698247E+02  0.90994843198E+01  0.14094718021E+02  0.21000511705E+02  0.51100000000E-03 0.  1.
         12    1    3    3    0    0  0.82588731031E+01  0.91250404344E+01  0.16125997917E+02  0.20286033537E+02  0.00000000000E+00 0. -1.
</event>
<event>
 7    1  0.6641349E-013  0.5052885E+02  0.7816164E-02  0.1300439E+00
        -11   -1    0    0    0    0  0.00000000000E+00  0.00000000000E+00  0.45593999997E+02  0.45594000000E+02  0.51100000000E-03 0. -1.
         11   -1    0    0    0    0 -0.00000000000E+00 -0.00000000000E+00 -0.45593999997E+02  0.45594000000E+02  0.51100000000E-03 0.  1.
    9900012    2    1    2    0    0  0.65464780949E+01 -0.62797004867E+01 -0.39634267807E+02  0.50528853449E+02  0.29999980544E+02 0.  0.
         12    1    1    2    0    0 -0.65464780949E+01  0.62797004867E+01  0.39634267807E+02  0.40659146551E+02  0.00000000000E+00 0. -1.
         11    1    3    3    0    0  0.80294006877E+01 -0.31331514689E+01 -0.19024163942E+01  0.88264999819E+01  0.51100000000E-03 0. -1.
        -11    1    3    3    0    0 -0.30041322062E+01  0.60310959908E+01 -0.75501413347E+01  0.10119464590E+02  0.51100000000E-03 0.  1.
        -12    1    3    3    0    0  0.15212096134E+01 -0.91776450085E+01 -0.30181710078E+02  0.31582888877E+02  0.00000000000E+00 0.  1.
</event>
<event>
 7    1  0.4971907E-013  0.5052887E+02  0.7816164E-02  0.1300439E+00
        -11   -1    0    0    0    0  0.00000000000E+00  0.00000000000E+00  0.45593999997E+02  0.45594000000E+02  0.51100000000E-03 0. -1.
         11   -1    0    0    0    0 -0.00000000000E+00 -0.00000000000E+00 -0.45593999997E+02  0.45594000000E+02  0.51100000000E-03 0.  1.
    9900012    2    1    2    0    0 -0.10498181657E+02  0.28334865056E+02 -0.27204569789E+02  0.50528868021E+02  0.30000024837E+02 0.  0.
         12    1    1    2    0    0  0.10498181657E+02 -0.28334865056E+02  0.27204569789E+02  0.40659131979E+02  0.00000000000E+00 0. -1.
         11    1    3    3    0    0 -0.34509014313E+01  0.50030404323E+01  0.49808739399E+01  0.78580048182E+01  0.51100000000E-03 0. -1.
        -11    1    3    3    0    0 -0.10112466516E+02  0.17674518691E+02 -0.18344784684E+02  0.27407694456E+02  0.51100000000E-03 0.  1.
        -12    1    3    3    0    0  0.30651862905E+01  0.56573059323E+01 -0.13840659045E+02  0.15263168747E+02  0.00000000000E+00 0.  1.
</event>
<event>
 7    1  0.4971907E-013  0.5052883E+02  0.7816164E-02  0.1300439E+00
        -11   -1    0    0    0    0  0.00000000000E+00  0.00000000000E+00  0.45593999997E+02  0.45594000000E+02  0.51100000000E-03 0.  1.
         11   -1    0    0    0    0 -0.00000000000E+00 -0.00000000000E+00 -0.45593999997E+02  0.45594000000E+02  0.51100000000E-03 0. -1.
    9900012    2    1    2    0    0  0.33632319330E+02 -0.63439282111E+01  0.21949701537E+02  0.50528834659E+02  0.29999923430E+02 0.  0.
         12    1    1    2    0    0 -0.33632319330E+02  0.63439282111E+01 -0.21949701537E+02  0.40659165341E+02  0.00000000000E+00 0. -1.
         11    1    3    3    0    0  0.94111470948E+01  0.86160324967E+01  0.99885953515E+01  0.16204250769E+02  0.51100000000E-03 0. -1.
        -11    1    3    3    0    0  0.70307108384E+01  0.26922878159E+01  0.30530036926E+01  0.81240470447E+01  0.51100000000E-03 0.  1.
        -12    1    3    3    0    0  0.17190461396E+02 -0.17652248524E+02  0.89081024934E+01  0.26200536846E+02  0.00000000000E+00 0.  1.
</event>
<event>
 7    1  0.4971907E-013  0.5052886E+02  0.7816164E-02  0.1300439E+00
        -11   -1    0    0    0    0  0.00000000000E+00  0.00000000000E+00  0.45593999997E+02  0.45594000000E+02  0.51100000000E-03 0.  1.
         11   -1    0    0    0    0 -0.00000000000E+00 -0.00000000000E+00 -0.45593999997E+02  0.45594000000E+02  0.51100000000E-03 0. -1.
    9900012    2    1    2    0    0  0.64997508701E+01  0.29292924940E+02  0.27437996993E+02  0.50528857216E+02  0.29999991994E+02 0.  0.
         12    1    1    2    0    0 -0.64997508701E+01 -0.29292924940E+02 -0.27437996993E+02  0.40659142784E+02  0.00000000000E+00 0. -1.
         11    1    3    3    0    0  0.39397304728E+01  0.16831521990E+02 -0.92634962427E+00  0.17311260283E+02  0.51100000000E-03 0. -1.
        -11    1    3    3    0    0  0.37783256951E+01 -0.63694706967E+00  0.40668372697E+01  0.55875408068E+01  0.51100000000E-03 0.  1.
        -12    1    3    3    0    0 -0.12183052978E+01  0.13098350020E+02  0.24297509348E+02  0.27630056126E+02  0.00000000000E+00 0.  1.
</event>
<event>
 7    1  0.4971907E-013  0.5052885E+02  0.7816164E-02  0.1300439E+00
        -11   -1    0    0    0    0  0.00000000000E+00  0.00000000000E+00  0.45593999997E+02  0.45594000000E+02  0.51100000000E-03 0. -1.
         11   -1    0    0    0    0 -0.00000000000E+00 -0.00000000000E+00 -0.45593999997E+02  0.45594000000E+02  0.51100000000E-03 0.  1.
    9900012    2    1    2    0    0  0.12123116587E+02 -0.13111220896E+02 -0.36527970041E+02  0.50528847716E+02  0.29999963116E+02 0.  0.
         12    1    1    2    0    0 -0.12123116587E+02  0.13111220896E+02  0.36527970041E+02  0.40659152284E+02  0.00000000000E+00 0. -1.
         11    1    3    3    0    0  0.11080830112E+01 -0.14566293893E+02 -0.83939418620E+01  0.16848235100E+02  0.51100000000E-03 0. -1.
        -11    1    3    3    0    0  0.60889413289E+01 -0.63304755283E+01 -0.17711205254E+02  0.19769595816E+02  0.51100000000E-03 0.  1.
         12    1    3    3    0    0  0.49260922468E+01  0.77855485255E+01 -0.10422822925E+02  0.13911016799E+02  0.00000000000E+00 0. -1.
</event>
<event>
 7    1  0.4971907E-013  0.5052886E+02  0.7816164E-02  0.1300439E+00
        -11   -1    0    0    0    0  0.00000000000E+00  0.00000000000E+00  0.45593999997E+02  0.45594000000E+02  0.51100000000E-03 0.  1.
         11   -1    0    0    0    0 -0.00000000000E+00 -0.00000000000E+00 -0.45593999997E+02  0.45594000000E+02  0.51100000000E-03 0. -1.
    9900012    2    1    2    0    0  0.10671804227E+02 -0.26239799922E+02  0.29167639228E+02  0.50528859779E+02  0.29999999784E+02 0.  0.
         12    1    1    2    0    0 -0.10671804227E+02  0.26239799922E+02 -0.29167639228E+02  0.40659140221E+02  0.00000000000E+00 0. -1.
         11    1    3    3    0    0  0.91572197339E+01 -0.28471646750E+01  0.86248698089E+01  0.12897650927E+02  0.51100000000E-03 0. -1.
        -11    1    3    3    0    0 -0.28686736821E+00 -0.56842588093E+01  0.18920117564E+02  0.19757629919E+02  0.51100000000E-03 0.  1.
         12    1    3    3    0    0  0.18014518609E+01 -0.17708376437E+02  0.16226518552E+01  0.17873578934E+02  0.00000000000E+00 0. -1.
</event>
<event>
 7    1  0.4971907E-013  0.5052886E+02  0.7816164E-02  0.1300439E+00
        -11   -1    0    0    0    0  0.00000000000E+00  0.00000000000E+00  0.45593999997E+02  0.45594000000E+02  0.51100000000E-03 0.  1.
         11   -1    0    0    0    0 -0.00000000000E+00 -0.00000000000E+00 -0.45593999997E+02  0.45594000000E+02  0.51100000000E-03 0. -1.
    9900012    2    1    2    0    0 -0.31659956330E+01 -0.21390249659E+02  0.34432534319E+02  0.50528859226E+02  0.29999998104E+02 0.  0.
         12    1    1    2    0    0  0.31659956330E+01  0.21390249659E+02 -0.34432534319E+02  0.40659140774E+02  0.00000000000E+00 0. -1.
         11    1    3    3    0    0  0.52290126394E+01 -0.10945827038E+02  0.13604635549E+02  0.18227446651E+02  0.51100000000E-03 0. -1.
        -11    1    3    3    0    0 -0.32527003445E+01 -0.10555529698E+02  0.23886918227E+02  0.26316993168E+02  0.51100000000E-03 0.  1.
         12    1    3    3    0    0 -0.51423079279E+01  0.11110707733E+00 -0.30590194569E+01  0.59844194076E+01  0.00000000000E+00 0. -1.
</event>
<event>
 7    1  0.4971907E-013  0.5052887E+02  0.7816164E-02  0.1300439E+00
        -11   -1    0    0    0    0  0.00000000000E+00  0.00000000000E+00  0.45593999997E+02  0.45594000000E+02  0.51100000000E-03 0.  1.
         11   -1    0    0    0    0 -0.00000000000E+00 -0.00000000000E+00 -0.45593999997E+02  0.45594000000E+02  0.51100000000E-03 0. -1.
    9900012    2    1    2    0    0  0.10298739464E+02  0.34766744593E+02  0.18394952453E+02  0.50528870154E+02  0.30000031319E+02 0.  0.
         12    1    1    2    0    0 -0.10298739464E+02 -0.34766744593E+02 -0.18394952453E+02  0.40659129846E+02  0.00000000000E+00 0. -1.
         11    1    3    3    0    0 -0.18996660965E+01  0.13504724413E+02  0.11538830483E+02  0.17864235833E+02  0.51100000000E-03 0. -1.
        -11    1    3    3    0    0  0.89382867252E+01  0.85916253822E+01  0.13213087031E+02  0.18118903539E+02  0.51100000000E-03 0.  1.
         12    1    3    3    0    0  0.32601188352E+01  0.12670394798E+02 -0.63569650619E+01  0.14545730781E+02  0.00000000000E+00 0. -1.
</event>
<event>
 7    1  0.4971907E-013  0.5052887E+02  0.7816164E-02  0.1300439E+00
        -11   -1    0    0    0    0  0.00000000000E+00  0.00000000000E+00  0.45593999997E+02  0.45594000000E+02  0.51100000000E-03 0. -1.
         11   -1    0    0    0    0 -0.00000000000E+00 -0.00000000000E+00 -0.45593999997E+02  0.45594000000E+02  0.51100000000E-03 0.  1.
    9900012    2    1    2    0    0  0.20842658588E+02 -0.19144934964E+02 -0.29192812360E+02  0.50528865168E+02  0.30000016165E+02 0.  0.
         12    1    1    2    0    0 -0.20842658588E+02  0.19144934964E+02  0.29192812360E+02  0.40659134832E+02  0.00000000000E+00 0. -1.
         11    1    3    3    0    0 -0.66386242198E+01 -0.95094096481E+01 -0.10622053010E+02  0.15726672051E+02  0.51100000000E-03 0. -1.
        -11    1    3    3    0    0  0.70194517930E+01 -0.26338872596E+01 -0.26673874608E+01  0.79577020362E+01  0.51100000000E-03 0.  1.
        -12    1    3    3    0    0  0.20461831015E+02 -0.70016380565E+01 -0.15903371890E+02  0.26844491081E+02  0.00000000000E+00 0.  1.
</event>
<event>
 7    1  0.4971907E-013  0.5052884E+02  0.7816164E-02  0.1300439E+00
        -11   -1    0    0    0    0  0.00000000000E+00  0.00000000000E+00  0.45593999997E+02  0.45594000000E+02  0.51100000000E-03 0.  1.
         11   -1    0    0    0    0 -0.00000000000E+00 -0.00000000000E+00 -0.45593999997E+02  0.45594000000E+02  0.51100000000E-03 0. -1.
    9900012    2    1    2    0    0 -0.65545153953E+01 -0.24949631167E+02  0.31428031214E+02  0.50528844654E+02  0.29999953812E+02 0.  0.
         12    1    1    2    0    0  0.65545153953E+01  0.24949631167E+02 -0.31428031214E+02  0.40659155346E+02  0.00000000000E+00 0. -1.
         11    1    3    3    0    0  0.63349129794E+01 -0.33026378239E+01  0.45531831210E+01  0.84717185887E+01  0.51100000000E-03 0. -1.
        -11    1    3    3    0    0 -0.79825994689E+01  0.19171987746E+01  0.56497277439E+01  0.99657899468E+01  0.51100000000E-03 0.  1.
         12    1    3    3    0    0 -0.49068289058E+01 -0.23564192118E+02  0.21225120349E+02  0.32091336119E+02  0.00000000000E+00 0. -1.
</event>
<event>
 7    1  0.4971907E-013  0.5052886E+02  0.7816164E-02  0.1300439E+00
        -11   -1    0    0    0    0  0.00000000000E+00  0.00000000000E+00  0.45593999997E+02  0.45594000000E+02  0.51100000000E-03 0.  1.
         11   -1    0    0    0    0 -0.00000000000E+00 -0.00000000000E+00 -0.45593999997E+02  0.45594000000E+02  0.51100000000E-03 0. -1.
    9900012    2    1    2    0    0 -0.98780702095E+01 -0.34642850854E+01  0.39288524309E+02  0.50528859766E+02  0.29999999744E+02 0.  0.
         12    1    1    2    0    0  0.98780702095E+01  0.34642850854E+01 -0.39288524309E+02  0.40659140234E+02  0.00000000000E+00 0. -1.
         11    1    3    3    0    0 -0.83855910357E+01 -0.13027677749E+01  0.82677240758E+01  0.11847810032E+02  0.51100000000E-03 0.  1.
        -11    1    3    3    0    0 -0.15694122416E+01  0.83995422559E+01  0.35554479499E+01  0.92550837531E+01  0.51100000000E-03 0. -1.
         12    1    3    3    0    0  0.76933067782E-01 -0.10561059566E+02  0.27465352283E+02  0.29425965981E+02  0.00000000000E+00 0. -1.
</event>
<event>
 7    1  0.5587474E-013  0.5052892E+02  0.7816164E-02  0.1300439E+00
        -11   -1    0    0    0    0  0.00000000000E+00  0.00000000000E+00  0.45593999997E+02  0.45594000000E+02  0.51100000000E-03 0. -1.
         11   -1    0    0    0    0 -0.00000000000E+00 -0.00000000000E+00 -0.45593999997E+02  0.45594000000E+02  0.51100000000E-03 0.  1.
    9900012    2    1    2    0    0 -0.32324178351E+02 -0.23651939896E+02  0.69924333642E+01  0.50528918711E+02  0.30000178912E+02 0.  0.
         12    1    1    2    0    0  0.32324178351E+02  0.23651939896E+02 -0.69924333642E+01  0.40659081289E+02  0.00000000000E+00 0. -1.
         11    1    3    3    0    0 -0.67659612272E+01 -0.14379509191E+02  0.69197935821E+00  0.15906833488E+02  0.51100000000E-03 0. -1.
        -11    1    3    3    0    0 -0.19521050700E+02 -0.14269791946E+02  0.97334087860E+01  0.26066024428E+02  0.51100000000E-03 0.  1.
         12    1    3    3    0    0 -0.60371664246E+01  0.49973612411E+01 -0.34329547800E+01  0.85560607954E+01  0.00000000000E+00 0. -1.
</event>
<event>
 7    1  0.4971907E-013  0.5052885E+02  0.7816164E-02  0.1300439E+00
        -11   -1    0    0    0    0  0.00000000000E+00  0.00000000000E+00  0.45593999997E+02  0.45594000000E+02  0.51100000000E-03 0.  1.
         11   -1    0    0    0    0 -0.00000000000E+00 -0.00000000000E+00 -0.45593999997E+02  0.45594000000E+02  0.51100000000E-03 0. -1.
    9900012    2    1    2    0    0 -0.31469951194E+02 -0.22540220119E+02  0.12439744984E+02  0.50528848430E+02  0.29999965287E+02 0.  0.
         12    1    1    2    0    0  0.31469951194E+02  0.22540220119E+02 -0.12439744984E+02  0.40659151570E+02  0.00000000000E+00 0. -1.
         11    1    3    3    0    0 -0.21296892628E+02 -0.97630460917E+01 -0.29983433507E+01  0.23619161029E+02  0.51100000000E-03 0. -1.
        -11    1    3    3    0    0  0.31437076566E+01  0.47324561139E+00  0.30592148895E+01  0.44119899411E+01  0.51100000000E-03 0.  1.
        -12    1    3    3    0    0 -0.13316766222E+02 -0.13250419639E+02  0.12378873446E+02  0.22497697460E+02  0.00000000000E+00 0.  1.
</event>
<event>
 7    1  0.4971907E-013  0.5052886E+02  0.7816164E-02  0.1300439E+00
        -11   -1    0    0    0    0  0.00000000000E+00  0.00000000000E+00  0.45593999997E+02  0.45594000000E+02  0.51100000000E-03 0.  1.
         11   -1    0    0    0    0 -0.00000000000E+00 -0.00000000000E+00 -0.45593999997E+02  0.45594000000E+02  0.51100000000E-03 0. -1.
    9900012    2    1    2    0    0 -0.30323546739E+02 -0.15653722259E+02  0.22104508201E+02  0.50528858467E+02  0.29999995797E+02 0.  0.
         12    1    1    2    0    0  0.30323546739E+02  0.15653722259E+02 -0.22104508201E+02  0.40659141533E+02  0.00000000000E+00 0. -1.
         11    1    3    3    0    0 -0.68431115959E+01 -0.59421790988E+01 -0.19199719798E+01  0.92641222693E+01  0.51100000000E-03 0. -1.
        -11    1    3    3    0    0 -0.24380282777E+02 -0.13332407850E+02  0.15175692153E+02  0.31661536917E+02  0.51100000000E-03 0.  1.
         12    1    3    3    0    0  0.89984763475E+00  0.36208646897E+01  0.88487880276E+01  0.96031992807E+01  0.00000000000E+00 0. -1.
</event>
<event>
 7    1  0.4971907E-013  0.5052884E+02  0.7816164E-02  0.1300439E+00
        -11   -1    0    0    0    0  0.00000000000E+00  0.00000000000E+00  0.45593999997E+02  0.45594000000E+02  0.51100000000E-03 0. -1.
         11   -1    0    0    0    0 -0.00000000000E+00 -0.00000000000E+00 -0.45593999997E+02  0.45594000000E+02  0.51100000000E-03 0.  1.
    9900012    2    1    2    0    0  0.16007868968E+02  0.51497247960E+00  0.37371781057E+02  0.50528842545E+02  0.29999947401E+02 0.  0.
         12    1    1    2    0    0 -0.16007868968E+02 -0.51497247960E+00 -0.37371781057E+02  0.40659157455E+02  0.00000000000E+00 0. -1.
         11    1    3    3    0    0  0.13458426480E+02 -0.51539604309E+01  0.21309472473E+02  0.25725204932E+02  0.51100000000E-03 0. -1.
        -11    1    3    3    0    0 -0.72540802487E-01 -0.64628356834E+01  0.48989250836E+01  0.81100539132E+01  0.51100000000E-03 0.  1.
         12    1    3    3    0    0  0.26219832908E+01  0.12131768594E+02  0.11163383500E+02  0.16693583700E+02  0.00000000000E+00 0. -1.
</event>
<event>
 7    1  0.4971907E-013  0.5052886E+02  0.7816164E-02  0.1300439E+00
        -11   -1    0    0    0    0  0.00000000000E+00  0.00000000000E+00  0.45593999997E+02  0.45594000000E+02  0.51100000000E-03 0.  1.
         11   -1    0    0    0    0 -0.00000000000E+00 -0.00000000000E+00 -0.45593999997E+02  0.45594000000E+02  0.51100000000E-03 0. -1.
    9900012    2    1    2    0    0  0.17175993636E+02 -0.36680440936E+02  0.35631856271E+01  0.50528858391E+02  0.29999995564E+02 0.  0.
         12    1    1    2    0    0 -0.17175993636E+02  0.36680440936E+02 -0.35631856271E+01  0.40659141609E+02  0.00000000000E+00 0. -1.
         11    1    3    3    0    0  0.89529677243E+01 -0.13738077539E+02  0.74882016834E+01  0.18026745970E+02  0.51100000000E-03 0. -1.
        -11    1    3    3    0    0 -0.49942502596E+01 -0.16539691149E+01  0.35576274282E+01  0.63509733638E+01  0.51100000000E-03 0.  1.
         12    1    3    3    0    0  0.13217276171E+02 -0.21288394281E+02 -0.74826434845E+01  0.26151139057E+02  0.00000000000E+00 0. -1.
</event>
<event>
 7    1  0.4971907E-013  0.5052885E+02  0.7816164E-02  0.1300439E+00
        -11   -1    0    0    0    0  0.00000000000E+00  0.00000000000E+00  0.45593999997E+02  0.45594000000E+02  0.51100000000E-03 0. -1.
         11   -1    0    0    0    0 -0.00000000000E+00 -0.00000000000E+00 -0.45593999997E+02  0.45594000000E+02  0.51100000000E-03 0.  1.
    9900012    2    1    2    0    0  0.35941329794E+02  0.56209836568E+01 -0.18160163468E+02  0.50528853651E+02  0.29999981158E+02 0.  0.
         12    1    1    2    0    0 -0.35941329794E+02 -0.56209836568E+01  0.18160163468E+02  0.40659146349E+02  0.00000000000E+00 0. -1.
         11    1    3    3    0    0  0.51458880509E+01 -0.72726410154E+01 -0.22853754823E+01  0.91975220863E+01  0.51100000000E-03 0. -1.
        -11    1    3    3    0    0  0.10878092115E+02  0.11468327388E+01 -0.14505521371E+02  0.18167505715E+02  0.51100000000E-03 0.  1.
         12    1    3    3    0    0  0.19917349628E+02  0.11746791933E+02 -0.13692666146E+01  0.23163825850E+02  0.00000000000E+00 0. -1.
</event>
<event>
 7    1  0.4971907E-013  0.5052885E+02  0.7816164E-02  0.1300439E+00
        -11   -1    0    0    0    0  0.00000000000E+00  0.00000000000E+00  0.45593999997E+02  0.45594000000E+02  0.51100000000E-03 0.  1.
         11   -1    0    0    0    0 -0.00000000000E+00 -0.00000000000E+00 -0.45593999997E+02  0.45594000000E+02  0.51100000000E-03 0. -1.
    9900012    2    1    2    0    0  0.20476753760E+02  0.27183101724E+02  0.22247418545E+02  0.50528854709E+02  0.29999984374E+02 0.  0.
         12    1    1    2    0    0 -0.20476753760E+02 -0.27183101724E+02 -0.22247418545E+02  0.40659145291E+02  0.00000000000E+00 0. -1.
         11    1    3    3    0    0  0.57974406554E+01  0.62085282445E+01 -0.18601800055E+00  0.84965136423E+01  0.51100000000E-03 0. -1.
        -11    1    3    3    0    0  0.16546723189E+02  0.23934753043E+02  0.24438446736E+02  0.37998738541E+02  0.51100000000E-03 0.  1.
        -12    1    3    3    0    0 -0.18674100846E+01 -0.29601795643E+01 -0.20050101906E+01  0.40336025265E+01  0.00000000000E+00 0.  1.
</event>
<event>
 7    1  0.4971907E-013  0.5052885E+02  0.7816164E-02  0.1300439E+00
        -11   -1    0    0    0    0  0.00000000000E+00  0.00000000000E+00  0.45593999997E+02  0.45594000000E+02  0.51100000000E-03 0.  1.
         11   -1    0    0    0    0 -0.00000000000E+00 -0.00000000000E+00 -0.45593999997E+02  0.45594000000E+02  0.51100000000E-03 0. -1.
    9900012    2    1    2    0    0  0.21674021183E+02 -0.14191061237E+01  0.34371341821E+02  0.50528853489E+02  0.29999980665E+02 0.  0.
         12    1    1    2    0    0 -0.21674021183E+02  0.14191061237E+01 -0.34371341821E+02  0.40659146511E+02  0.00000000000E+00 0. -1.
         11    1    3    3    0    0 -0.57125897021E+01 -0.17119662706E+01  0.43027849398E+00  0.59791010578E+01  0.51100000000E-03 0. -1.
        -11    1    3    3    0    0  0.53578671088E+01 -0.22085181840E+01  0.12159449926E+02  0.13469837241E+02  0.51100000000E-03 0.  1.
        -12    1    3    3    0    0  0.22028743776E+02  0.25013783309E+01  0.21781613401E+02  0.31079915190E+02  0.00000000000E+00 0.  1.
</event>
<event>
 7    1  0.4971907E-013  0.5052886E+02  0.7816164E-02  0.1300439E+00
        -11   -1    0    0    0    0  0.00000000000E+00  0.00000000000E+00  0.45593999997E+02  0.45594000000E+02  0.51100000000E-03 0.  1.
         11   -1    0    0    0    0 -0.00000000000E+00 -0.00000000000E+00 -0.45593999997E+02  0.45594000000E+02  0.51100000000E-03 0. -1.
    9900012    2    1    2    0    0  0.25509801043E+02 -0.16476384871E+02  0.27035991358E+02  0.50528855440E+02  0.29999986596E+02 0.  0.
         12    1    1    2    0    0 -0.25509801043E+02  0.16476384871E+02 -0.27035991358E+02  0.40659144560E+02  0.00000000000E+00 0. -1.
         11    1    3    3    0    0  0.21246488457E+01 -0.12604067883E+01 -0.31862998805E+01  0.40317818864E+01  0.51100000000E-03 0. -1.
        -11    1    3    3    0    0  0.25411475378E+02 -0.75828129721E+01  0.18390073154E+02  0.32271301869E+02  0.51100000000E-03 0.  1.
         12    1    3    3    0    0 -0.20263231809E+01 -0.76331651104E+01  0.11832218084E+02  0.14225771685E+02  0.00000000000E+00 0. -1.
</event>
<event>
 7    1  0.4971907E-013  0.5052886E+02  0.7816164E-02  0.1300439E+00
        -11   -1    0    0    0    0  0.00000000000E+00  0.00000000000E+00  0.45593999997E+02  0.45594000000E+02  0.51100000000E-03 0.  1.
         11   -1    0    0    0    0 -0.00000000000E+00 -0.00000000000E+00 -0.45593999997E+02  0.45594000000E+02  0.51100000000E-03 0. -1.
    9900012    2    1    2    0    0 -0.23182503614E+02 -0.20576048364E+02  0.26312801685E+02  0.50528858684E+02  0.29999996455E+02 0.  0.
         12    1    1    2    0    0  0.23182503614E+02  0.20576048364E+02 -0.26312801685E+02  0.40659141316E+02  0.00000000000E+00 0. -1.
         11    1    3    3    0    0 -0.10362147118E+02 -0.10467649945E+02  0.40191474103E+01  0.15267590984E+02  0.51100000000E-03 0. -1.
        -11    1    3    3    0    0 -0.14909335092E+02 -0.14909000036E+02  0.21225435429E+02  0.29917982291E+02  0.51100000000E-03 0.  1.
         12    1    3    3    0    0  0.20889785961E+01  0.48006016172E+01  0.10682188454E+01  0.53432854091E+01  0.00000000000E+00 0. -1.
</event>
<event>
 7    1  0.4971907E-013  0.5052885E+02  0.7816164E-02  0.1300439E+00
        -11   -1    0    0    0    0  0.00000000000E+00  0.00000000000E+00  0.45593999997E+02  0.45594000000E+02  0.51100000000E-03 0.  1.
         11   -1    0    0    0    0 -0.00000000000E+00 -0.00000000000E+00 -0.45593999997E+02  0.45594000000E+02  0.51100000000E-03 0. -1.
    9900012    2    1    2    0    0  0.38542363076E+02 -0.12306635999E+02  0.40248644667E+01  0.50528848815E+02  0.29999966458E+02 0.  0.
         12    1    1    2    0    0 -0.38542363076E+02  0.12306635999E+02 -0.40248644667E+01  0.40659151185E+02  0.00000000000E+00 0. -1.
         11    1    3    3    0    0  0.22469791526E+02 -0.96780622892E+01 -0.37771809159E+01  0.24755272505E+02  0.51100000000E-03 0. -1.
        -11    1    3    3    0    0  0.19143198589E+02 -0.27326036640E+01  0.10212618072E+02  0.21868395990E+02  0.51100000000E-03 0.  1.
         12    1    3    3    0    0 -0.30706270385E+01  0.10402995446E+00 -0.24105726898E+01  0.39051803203E+01  0.00000000000E+00 0. -1.
</event>
<event>
 7    1  0.4971907E-013  0.5052885E+02  0.7816164E-02  0.1300439E+00
        -11   -1    0    0    0    0  0.00000000000E+00  0.00000000000E+00  0.45593999997E+02  0.45594000000E+02  0.51100000000E-03 0.  1.
         11   -1    0    0    0    0 -0.00000000000E+00 -0.00000000000E+00 -0.45593999997E+02  0.45594000000E+02  0.51100000000E-03 0. -1.
    9900012    2    1    2    0    0  0.25874563509E+02  0.12592087964E+02  0.28724775806E+02  0.50528850216E+02  0.29999970716E+02 0.  0.
         12    1    1    2    0    0 -0.25874563509E+02 -0.12592087964E+02 -0.28724775806E+02  0.40659149784E+02  0.00000000000E+00 0. -1.
         11    1    3    3    0    0  0.14619662816E+01 -0.51461591291E-01 -0.59635666579E+01  0.61403681688E+01  0.51100000000E-03 0. -1.
        -11    1    3    3    0    0  0.39134600381E+01  0.76921214596E+00  0.55680448406E+01  0.68490860999E+01  0.51100000000E-03 0.  1.
         12    1    3    3    0    0  0.20499137189E+02  0.11874337410E+02  0.29120297623E+02  0.37539395947E+02  0.00000000000E+00 0. -1.
</event>
<event>
 7    1  0.4971907E-013  0.5052884E+02  0.7816164E-02  0.1300439E+00
        -11   -1    0    0    0    0  0.00000000000E+00  0.00000000000E+00  0.45593999997E+02  0.45594000000E+02  0.51100000000E-03 0.  1.
         11   -1    0    0    0    0 -0.00000000000E+00 -0.00000000000E+00 -0.45593999997E+02  0.45594000000E+02  0.51100000000E-03 0. -1.
    9900012    2    1    2    0    0 -0.39843930118E+01  0.17045738769E+02  0.36697882945E+02  0.50528841001E+02  0.29999942708E+02 0.  0.
         12    1    1    2    0    0  0.39843930118E+01 -0.17045738769E+02 -0.36697882945E+02  0.40659158999E+02  0.00000000000E+00 0. -1.
         11    1    3    3    0    0  0.23266289986E+01  0.33212209783E+00  0.33469424653E+01  0.40896860164E+01  0.51100000000E-03 0. -1.
        -11    1    3    3    0    0 -0.12874577408E+02  0.69467164062E+01  0.31223849354E+02  0.34481014791E+02  0.51100000000E-03 0.  1.
        -12    1    3    3    0    0  0.65635553977E+01  0.97669002647E+01  0.21270911250E+01  0.11958140194E+02  0.00000000000E+00 0.  1.
</event>
<event>
 7    1  0.4971907E-013  0.5052887E+02  0.7816164E-02  0.1300439E+00
        -11   -1    0    0    0    0  0.00000000000E+00  0.00000000000E+00  0.45593999997E+02  0.45594000000E+02  0.51100000000E-03 0.  1.
         11   -1    0    0    0    0 -0.00000000000E+00 -0.00000000000E+00 -0.45593999997E+02  0.45594000000E+02  0.51100000000E-03 0. -1.
    9900012    2    1    2    0    0 -0.99211187734E+01 -0.81214442997E+01  0.38584696256E+02  0.50528865228E+02  0.30000016347E+02 0.  0.
         12    1    1    2    0    0  0.99211187734E+01  0.81214442997E+01 -0.38584696256E+02  0.40659134772E+02  0.00000000000E+00 0. -1.
         11    1    3    3    0    0 -0.31729790536E+01 -0.11536763874E+02  0.60903393296E+01  0.13425980418E+02  0.51100000000E-03 0. -1.
        -11    1    3    3    0    0 -0.18704634545E+00 -0.24506783033E+01  0.26121387708E+02  0.26236762501E+02  0.51100000000E-03 0.  1.
         12    1    3    3    0    0 -0.65610933743E+01  0.58659978780E+01  0.63729692182E+01  0.10866122309E+02  0.00000000000E+00 0. -1.
</event>
<event>
 7    1  0.4971907E-013  0.5052888E+02  0.7816164E-02  0.1300439E+00
        -11   -1    0    0    0    0  0.00000000000E+00  0.00000000000E+00  0.45593999997E+02  0.45594000000E+02  0.51100000000E-03 0.  1.
         11   -1    0    0    0    0 -0.00000000000E+00 -0.00000000000E+00 -0.45593999997E+02  0.45594000000E+02  0.51100000000E-03 0. -1.
    9900012    2    1    2    0    0  0.73684506878E+01 -0.24715104818E+02  0.31432995154E+02  0.50528884711E+02  0.30000075568E+02 0.  0.
         12    1    1    2    0    0 -0.73684506878E+01  0.24715104818E+02 -0.31432995154E+02  0.40659115289E+02  0.00000000000E+00 0. -1.
         11    1    3    3    0    0 -0.39668443715E+01 -0.32808395929E+00  0.88596253883E+01  0.97126955906E+01  0.51100000000E-03 0. -1.
        -11    1    3    3    0    0  0.77529346760E+01 -0.57084699103E+01  0.19230076421E+02  0.21505591464E+02  0.51100000000E-03 0.  1.
         12    1    3    3    0    0  0.35823603833E+01 -0.18678550949E+02  0.33432933442E+01  0.19310597656E+02  0.00000000000E+00 0. -1.
</event>
<event>
 7    1  0.4971907E-013  0.5052886E+02  0.7816164E-02  0.1300439E+00
        -11   -1    0    0    0    0  0.00000000000E+00  0.00000000000E+00  0.45593999997E+02  0.45594000000E+02  0.51100000000E-03 0.  1.
         11   -1    0    0    0    0 -0.00000000000E+00 -0.00000000000E+00 -0.45593999997E+02  0.45594000000E+02  0.51100000000E-03 0. -1.
    9900012    2    1    2    0    0  0.16713791489E+02  0.21307559678E+02  0.30328248359E+02  0.50528861127E+02  0.30000003883E+02 0.  0.
         12    1    1    2    0    0 -0.16713791489E+02 -0.21307559678E+02 -0.30328248359E+02  0.40659138873E+02  0.00000000000E+00 0. -1.
         11    1    3    3    0    0  0.59454761284E+01  0.24990524293E+01  0.18804622962E+01  0.67178931329E+01  0.51100000000E-03 0. -1.
        -11    1    3    3    0    0  0.85117686869E+01  0.19884005392E+02  0.32506157263E+02  0.39044514812E+02  0.51100000000E-03 0.  1.
         12    1    3    3    0    0  0.22565466735E+01 -0.10754981438E+01 -0.40583712001E+01  0.47664531829E+01  0.00000000000E+00 0. -1.
</event>
<event>
 7    1  0.4971907E-013  0.5052886E+02  0.7816164E-02  0.1300439E+00
        -11   -1    0    0    0    0  0.00000000000E+00  0.00000000000E+00  0.45593999997E+02  0.45594000000E+02  0.51100000000E-03 0.  1.
         11   -1    0    0    0    0 -0.00000000000E+00 -0.00000000000E+00 -0.45593999997E+02  0.45594000000E+02  0.51100000000E-03 0. -1.
    9900012    2    1    2    0    0 -0.97082116821E+01 -0.14176052613E+02  0.36850456296E+02  0.50528856244E+02  0.29999989039E+02 0.  0.
         12    1    1    2    0    0  0.97082116821E+01  0.14176052613E+02 -0.36850456296E+02  0.40659143756E+02  0.00000000000E+00 0. -1.
         11    1    3    3    0    0 -0.10219064328E+02 -0.84728897744E+01  0.25722640483E+02  0.28946042399E+02  0.51100000000E-03 0. -1.
        -11    1    3    3    0    0  0.20188905792E+01 -0.66050846349E+01  0.15446507024E+02  0.16920332198E+02  0.51100000000E-03 0.  1.
         12    1    3    3    0    0 -0.15080379331E+01  0.90192179600E+00 -0.43186912106E+01  0.46624816467E+01  0.00000000000E+00 0. -1.
</event>
<event>
 7    1  0.4971907E-013  0.5052886E+02  0.7816164E-02  0.1300439E+00
        -11   -1    0    0    0    0  0.00000000000E+00  0.00000000000E+00  0.45593999997E+02  0.45594000000E+02  0.51100000000E-03 0.  1.
         11   -1    0    0    0    0 -0.00000000000E+00 -0.00000000000E+00 -0.45593999997E+02  0.45594000000E+02  0.51100000000E-03 0. -1.
    9900012    2    1    2    0    0 -0.19927056833E+02  0.29376325363E+01  0.35319237113E+02  0.50528858480E+02  0.29999995835E+02 0.  0.
         12    1    1    2    0    0  0.19927056833E+02 -0.29376325363E+01 -0.35319237113E+02  0.40659141520E+02  0.00000000000E+00 0. -1.
         11    1    3    3    0    0 -0.10451077405E+02  0.10253041768E+02  0.81087278222E+01  0.16736228714E+02  0.51100000000E-03 0. -1.
        -11    1    3    3    0    0 -0.32831577129E+01 -0.30510522955E+00  0.23499143476E+02  0.23729348034E+02  0.51100000000E-03 0.  1.
        -12    1    3    3    0    0 -0.61928217151E+01 -0.70103040022E+01  0.37113658147E+01  0.10063281732E+02  0.00000000000E+00 0.  1.
</event>
<event>
 7    1  0.4971907E-013  0.5052887E+02  0.7816164E-02  0.1300439E+00
        -11   -1    0    0    0    0  0.00000000000E+00  0.00000000000E+00  0.45593999997E+02  0.45594000000E+02  0.51100000000E-03 0.  1.
         11   -1    0    0    0    0 -0.00000000000E+00 -0.00000000000E+00 -0.45593999997E+02  0.45594000000E+02  0.51100000000E-03 0. -1.
    9900012    2    1    2    0    0  0.32323236442E+02 -0.16171424005E+01  0.24612145119E+02  0.50528874936E+02  0.30000045855E+02 0.  0.
         12    1    1    2    0    0 -0.32323236442E+02  0.16171424005E+01 -0.24612145119E+02  0.40659125064E+02  0.00000000000E+00 0. -1.
         11    1    3    3    0    0 -0.30392716228E+01 -0.91519019260E+00  0.19635159814E+01  0.37323103242E+01  0.51100000000E-03 0. -1.
        -11    1    3    3    0    0  0.13688091779E+02 -0.61783070080E+01  0.63046724910E-01  0.15017966213E+02  0.51100000000E-03 0.  1.
        -12    1    3    3    0    0  0.21674416286E+02  0.54763548002E+01  0.22585582413E+02  0.31778598398E+02  0.00000000000E+00 0.  1.
</event>
<event>
 7    1  0.4971907E-013  0.5052886E+02  0.7816164E-02  0.1300439E+00
        -11   -1    0    0    0    0  0.00000000000E+00  0.00000000000E+00  0.45593999997E+02  0.45594000000E+02  0.51100000000E-03 0.  1.
         11   -1    0    0    0    0 -0.00000000000E+00 -0.00000000000E+00 -0.45593999997E+02  0.45594000000E+02  0.51100000000E-03 0. -1.
    9900012    2    1    2    0    0 -0.37891267987E+02  0.11555422895E+02  0.91591456204E+01  0.50528856669E+02  0.29999990330E+02 0.  0.
         12    1    1    2    0    0  0.37891267987E+02 -0.11555422895E+02 -0.91591456204E+01  0.40659143331E+02  0.00000000000E+00 0. -1.
         11    1    3    3    0    0  0.12675325856E+01  0.76761008687E+01  0.26431137200E+01  0.82167641928E+01  0.51100000000E-03 0. -1.
        -11    1    3    3    0    0 -0.44817349188E+01 -0.13396711881E+01 -0.34999897412E+01  0.58421396101E+01  0.51100000000E-03 0.  1.
        -12    1    3    3    0    0 -0.34677065654E+02  0.52189932146E+01  0.10016021642E+02  0.36469952866E+02  0.00000000000E+00 0.  1.
</event>
<event>
 7    1  0.4971907E-013  0.5052886E+02  0.7816164E-02  0.1300439E+00
        -11   -1    0    0    0    0  0.00000000000E+00  0.00000000000E+00  0.45593999997E+02  0.45594000000E+02  0.51100000000E-03 0.  1.
         11   -1    0    0    0    0 -0.00000000000E+00 -0.00000000000E+00 -0.45593999997E+02  0.45594000000E+02  0.51100000000E-03 0. -1.
    9900012    2    1    2    0    0  0.85375416910E+01 -0.37456754642E+02  0.13314172005E+02  0.50528864955E+02  0.30000015517E+02 0.  0.
         12    1    1    2    0    0 -0.85375416910E+01  0.37456754642E+02 -0.13314172005E+02  0.40659135045E+02  0.00000000000E+00 0. -1.
         11    1    3    3    0    0 -0.48177858474E+01 -0.11674110693E+02  0.12689636712E+02  0.17903150591E+02  0.51100000000E-03 0. -1.
        -11    1    3    3    0    0 -0.27620569590E+01 -0.32586684863E+01 -0.21649419710E+01  0.47890346571E+01  0.51100000000E-03 0.  1.
        -12    1    3    3    0    0  0.16117384497E+02 -0.22523975463E+02  0.27894772637E+01  0.27836679707E+02  0.00000000000E+00 0.  1.
</event>
<event>
 7    1  0.4971907E-013  0.5052886E+02  0.7816164E-02  0.1300439E+00
        -11   -1    0    0    0    0  0.00000000000E+00  0.00000000000E+00  0.45593999997E+02  0.45594000000E+02  0.51100000000E-03 0. -1.
         11   -1    0    0    0    0 -0.00000000000E+00 -0.00000000000E+00 -0.45593999997E+02  0.45594000000E+02  0.51100000000E-03 0.  1.
    9900012    2    1    2    0    0 -0.28886870733E+02  0.18774067839E+02 -0.21592793232E+02  0.50528860271E+02  0.30000001278E+02 0.  0.
         12    1    1    2    0    0  0.28886870733E+02 -0.18774067839E+02  0.21592793232E+02  0.40659139729E+02  0.00000000000E+00 0. -1.
         11    1    3    3    0    0 -0.45001886372E+01 -0.20964373863E+01 -0.77487280688E+01  0.92026916948E+01  0.51100000000E-03 0. -1.
        -11    1    3    3    0    0 -0.62222178018E+01  0.13688446143E+02 -0.15658927771E+02  0.21709250825E+02  0.51100000000E-03 0.  1.
         12    1    3    3    0    0 -0.18164464294E+02  0.71820590826E+01  0.18148626077E+01  0.19616917751E+02  0.00000000000E+00 0. -1.
</event>
<event>
 7    1  0.4971907E-013  0.5052878E+02  0.7816164E-02  0.1300439E+00
        -11   -1    0    0    0    0  0.00000000000E+00  0.00000000000E+00  0.45593999997E+02  0.45594000000E+02  0.51100000000E-03 0.  1.
         11   -1    0    0    0    0 -0.00000000000E+00 -0.00000000000E+00 -0.45593999997E+02  0.45594000000E+02  0.51100000000E-03 0. -1.
    9900012    2    1    2    0    0 -0.37366434905E+02  0.13384729299E+02 -0.88187510218E+01  0.50528784495E+02  0.29999770950E+02 0.  0.
         12    1    1    2    0    0  0.37366434905E+02 -0.13384729299E+02  0.88187510218E+01  0.40659215505E+02  0.00000000000E+00 0. -1.
         11    1    3    3    0    0 -0.26979032983E+02  0.11173439509E+02 -0.11533193008E+02  0.31396313675E+02  0.51100000000E-03 0. -1.
        -11    1    3    3    0    0 -0.62867048371E+01  0.87948930312E+01  0.34335950918E+01  0.11342943915E+02  0.51100000000E-03 0.  1.
         12    1    3    3    0    0 -0.41006970842E+01 -0.65836032410E+01 -0.71915310560E+00  0.77895269048E+01  0.00000000000E+00 0. -1.
</event>
<event>
 7    1  0.4971907E-013  0.5052886E+02  0.7816164E-02  0.1300439E+00
        -11   -1    0    0    0    0  0.00000000000E+00  0.00000000000E+00  0.45593999997E+02  0.45594000000E+02  0.51100000000E-03 0.  1.
         11   -1    0    0    0    0 -0.00000000000E+00 -0.00000000000E+00 -0.45593999997E+02  0.45594000000E+02  0.51100000000E-03 0. -1.
    9900012    2    1    2    0    0  0.99560341523E+01 -0.30499051643E+02  0.24977008003E+02  0.50528859626E+02  0.29999999321E+02 0.  0.
         12    1    1    2    0    0 -0.99560341523E+01  0.30499051643E+02 -0.24977008003E+02  0.40659140374E+02  0.00000000000E+00 0. -1.
         11    1    3    3    0    0  0.46184619491E+01 -0.10646290923E+02  0.16066826068E+01  0.11715593475E+02  0.51100000000E-03 0.  1.
        -11    1    3    3    0    0 -0.44127420101E+01 -0.20134903589E+02  0.19319506677E+02  0.28251194189E+02  0.51100000000E-03 0. -1.
        -12    1    3    3    0    0  0.97503142132E+01  0.28214286997E+00  0.40508187186E+01  0.10562071963E+02  0.00000000000E+00 0.  1.
</event>
<event>
 7    1  0.4971907E-013  0.5052885E+02  0.7816164E-02  0.1300439E+00
        -11   -1    0    0    0    0  0.00000000000E+00  0.00000000000E+00  0.45593999997E+02  0.45594000000E+02  0.51100000000E-03 0. -1.
         11   -1    0    0    0    0 -0.00000000000E+00 -0.00000000000E+00 -0.45593999997E+02  0.45594000000E+02  0.51100000000E-03 0.  1.
    9900012    2    1    2    0    0  0.92623211172E+01  0.39356895362E+02  0.42907250078E+01  0.50528854336E+02  0.29999983241E+02 0.  0.
         12    1    1    2    0    0 -0.92623211172E+01 -0.39356895362E+02 -0.42907250078E+01  0.40659145664E+02  0.00000000000E+00 0. -1.
         11    1    3    3    0    0 -0.84268729052E+01  0.16674716397E+02 -0.16388545501E+00  0.18683822216E+02  0.51100000000E-03 0. -1.
        -11    1    3    3    0    0  0.29351448303E+01  0.72920590262E+01  0.68036813962E+01  0.10396118546E+02  0.51100000000E-03 0.  1.
         12    1    3    3    0    0  0.14754049192E+02  0.15390119938E+02 -0.23490709334E+01  0.21448913575E+02  0.00000000000E+00 0. -1.
</event>
<event>
 7    1  0.4971907E-013  0.5052887E+02  0.7816164E-02  0.1300439E+00
        -11   -1    0    0    0    0  0.00000000000E+00  0.00000000000E+00  0.45593999997E+02  0.45594000000E+02  0.51100000000E-03 0.  1.
         11   -1    0    0    0    0 -0.00000000000E+00 -0.00000000000E+00 -0.45593999997E+02  0.45594000000E+02  0.51100000000E-03 0. -1.
    9900012    2    1    2    0    0  0.19397812623E+02  0.36636488882E+01  0.35545292171E+02  0.50528865070E+02  0.30000015867E+02 0.  0.
         12    1    1    2    0    0 -0.19397812623E+02 -0.36636488882E+01 -0.35545292171E+02  0.40659134930E+02  0.00000000000E+00 0. -1.
         11    1    3    3    0    0  0.11761534265E+01  0.13013842184E+01  0.12155542840E+02  0.12281455930E+02  0.51100000000E-03 0. -1.
        -11    1    3    3    0    0  0.22821104412E+02  0.33130751842E+01  0.24259433859E+02  0.33470873983E+02  0.51100000000E-03 0.  1.
         12    1    3    3    0    0 -0.45994452158E+01 -0.95081051439E+00 -0.86968452824E+00  0.47765351570E+01  0.00000000000E+00 0. -1.
</event>
<event>
 7    1  0.4971907E-013  0.5052885E+02  0.7816164E-02  0.1300439E+00
        -11   -1    0    0    0    0  0.00000000000E+00  0.00000000000E+00  0.45593999997E+02  0.45594000000E+02  0.51100000000E-03 0. -1.
         11   -1    0    0    0    0 -0.00000000000E+00 -0.00000000000E+00 -0.45593999997E+02  0.45594000000E+02  0.51100000000E-03 0.  1.
    9900012    2    1    2    0    0  0.31330765761E+02 -0.16836370015E+02 -0.19699896914E+02  0.50528853712E+02  0.29999981343E+02 0.  0.
         12    1    1    2    0    0 -0.31330765761E+02  0.16836370015E+02  0.19699896914E+02  0.40659146288E+02  0.00000000000E+00 0. -1.
         11    1    3    3    0    0  0.62100048845E+01 -0.11891729259E+02 -0.13282341492E+01  0.13481156910E+02  0.51100000000E-03 0. -1.
        -11    1    3    3    0    0  0.10106840620E+02 -0.42508911359E+01 -0.19074594292E+02  0.22001328379E+02  0.51100000000E-03 0.  1.
         12    1    3    3    0    0  0.15013920256E+02 -0.69374962039E+00  0.70293152672E+00  0.15046368423E+02  0.00000000000E+00 0. -1.
</event>
<event>
 7    1  0.4971907E-013  0.5052885E+02  0.7816164E-02  0.1300439E+00
        -11   -1    0    0    0    0  0.00000000000E+00  0.00000000000E+00  0.45593999997E+02  0.45594000000E+02  0.51100000000E-03 0. -1.
         11   -1    0    0    0    0 -0.00000000000E+00 -0.00000000000E+00 -0.45593999997E+02  0.45594000000E+02  0.51100000000E-03 0.  1.
    9900012    2    1    2    0    0 -0.55888682912E+01 -0.33807231206E+02 -0.21886109165E+02  0.50528854596E+02  0.29999984029E+02 0.  0.
         12    1    1    2    0    0  0.55888682912E+01  0.33807231206E+02  0.21886109165E+02  0.40659145404E+02  0.00000000000E+00 0. -1.
         11    1    3    3    0    0 -0.11306185264E+01 -0.22940117425E+02 -0.11511492765E+02  0.25691277735E+02  0.51100000000E-03 0. -1.
        -11    1    3    3    0    0 -0.42387320491E+01 -0.16444291496E+02 -0.80032799869E+01  0.18773227293E+02  0.51100000000E-03 0.  1.
         12    1    3    3    0    0 -0.21951771563E+00  0.55771777146E+01 -0.23713364134E+01  0.60643495672E+01  0.00000000000E+00 0. -1.
</event>
<event>
 7    1  0.4971907E-013  0.5052887E+02  0.7816164E-02  0.1300439E+00
        -11   -1    0    0    0    0  0.00000000000E+00  0.00000000000E+00  0.45593999997E+02  0.45594000000E+02  0.51100000000E-03 0. -1.
         11   -1    0    0    0    0 -0.00000000000E+00 -0.00000000000E+00 -0.45593999997E+02  0.45594000000E+02  0.51100000000E-03 0.  1.
    9900012    2    1    2    0    0  0.31994002272E+02 -0.12217761100E+02  0.21915184131E+02  0.50528866178E+02  0.30000019234E+02 0.  0.
         12    1    1    2    0    0 -0.31994002272E+02  0.12217761100E+02 -0.21915184131E+02  0.40659133822E+02  0.00000000000E+00 0. -1.
         11    1    3    3    0    0  0.48525228239E+01 -0.85538455457E+01  0.84048102596E+00  0.98702411315E+01  0.51100000000E-03 0. -1.
        -11    1    3    3    0    0  0.21444718313E+02 -0.11824510289E+02  0.17437019001E+02  0.30062345534E+02  0.51100000000E-03 0.  1.
         12    1    3    3    0    0  0.56967611352E+01  0.81605947352E+01  0.36376841036E+01  0.10596279512E+02  0.00000000000E+00 0. -1.
</event>
<event>
 7    1  0.4971907E-013  0.5052885E+02  0.7816164E-02  0.1300439E+00
        -11   -1    0    0    0    0  0.00000000000E+00  0.00000000000E+00  0.45593999997E+02  0.45594000000E+02  0.51100000000E-03 0.  1.
         11   -1    0    0    0    0 -0.00000000000E+00 -0.00000000000E+00 -0.45593999997E+02  0.45594000000E+02  0.51100000000E-03 0. -1.
    9900012    2    1    2    0    0  0.62258438237E+01 -0.23366159463E+02  0.32686811933E+02  0.50528853259E+02  0.29999979965E+02 0.  0.
         12    1    1    2    0    0 -0.62258438237E+01  0.23366159463E+02 -0.32686811933E+02  0.40659146741E+02  0.00000000000E+00 0. -1.
         11    1    3    3    0    0 -0.25383101711E+01 -0.85739328318E+01  0.15122769160E+02  0.17568536936E+02  0.51100000000E-03 0. -1.
        -11    1    3    3    0    0  0.83902832383E+01 -0.20165874816E+02  0.10957702592E+02  0.24436255979E+02  0.51100000000E-03 0.  1.
         12    1    3    3    0    0  0.37387075655E+00  0.53736481850E+01  0.66063401808E+01  0.85240603437E+01  0.00000000000E+00 0. -1.
</event>
<event>
 7    1  0.4971907E-013  0.5052889E+02  0.7816164E-02  0.1300439E+00
        -11   -1    0    0    0    0  0.00000000000E+00  0.00000000000E+00  0.45593999997E+02  0.45594000000E+02  0.51100000000E-03 0.  1.
         11   -1    0    0    0    0 -0.00000000000E+00 -0.00000000000E+00 -0.45593999997E+02  0.45594000000E+02  0.51100000000E-03 0. -1.
    9900012    2    1    2    0    0 -0.22597953858E+02 -0.29673833351E+02  0.16185149187E+02  0.50528893289E+02  0.30000101641E+02 0.  0.
         12    1    1    2    0    0  0.22597953858E+02  0.29673833351E+02 -0.16185149187E+02  0.40659106711E+02  0.00000000000E+00 0. -1.
         11    1    3    3    0    0  0.59165989608E+01 -0.33961733488E+01  0.21151208951E+01  0.71423996906E+01  0.51100000000E-03 0. -1.
        -11    1    3    3    0    0 -0.97024378083E+01 -0.12889872417E+02 -0.39839769193E+00  0.16138303236E+02  0.51100000000E-03 0.  1.
        -12    1    3    3    0    0 -0.18812115011E+02 -0.13387787586E+02  0.14468425984E+02  0.27248190363E+02  0.00000000000E+00 0.  1.
</event>
<event>
 7    1  0.4971907E-013  0.5052886E+02  0.7816164E-02  0.1300439E+00
        -11   -1    0    0    0    0  0.00000000000E+00  0.00000000000E+00  0.45593999997E+02  0.45594000000E+02  0.51100000000E-03 0.  1.
         11   -1    0    0    0    0 -0.00000000000E+00 -0.00000000000E+00 -0.45593999997E+02  0.45594000000E+02  0.51100000000E-03 0. -1.
    9900012    2    1    2    0    0  0.30279496618E+02 -0.27103063712E+02  0.13196735802E+01  0.50528861835E+02  0.30000006032E+02 0.  0.
         12    1    1    2    0    0 -0.30279496618E+02  0.27103063712E+02 -0.13196735802E+01  0.40659138165E+02  0.00000000000E+00 0. -1.
         11    1    3    3    0    0  0.23070470854E+01  0.26457967174E+01 -0.12010807158E+01  0.37101619468E+01  0.51100000000E-03 0. -1.
        -11    1    3    3    0    0  0.31132468276E+02 -0.22694903812E+02  0.46377338220E+01  0.38804610748E+02  0.51100000000E-03 0.  1.
         12    1    3    3    0    0 -0.31600187444E+01 -0.70539566180E+01 -0.21169795261E+01  0.80140891402E+01  0.00000000000E+00 0. -1.
</event>
<event>
 7    1  0.4971907E-013  0.5052888E+02  0.7816164E-02  0.1300439E+00
        -11   -1    0    0    0    0  0.00000000000E+00  0.00000000000E+00  0.45593999997E+02  0.45594000000E+02  0.51100000000E-03 0.  1.
         11   -1    0    0    0    0 -0.00000000000E+00 -0.00000000000E+00 -0.45593999997E+02  0.45594000000E+02  0.51100000000E-03 0. -1.
    9900012    2    1    2    0    0  0.18867898539E+02  0.41069353691E+01  0.35781272416E+02  0.50528880862E+02  0.30000063868E+02 0.  0.
         12    1    1    2    0    0 -0.18867898539E+02 -0.41069353691E+01 -0.35781272416E+02  0.40659119138E+02  0.00000000000E+00 0. -1.
         11    1    3    3    0    0  0.34062651947E+01  0.22245237641E+01 -0.22658463975E+01  0.46567379905E+01  0.51100000000E-03 0. -1.
        -11    1    3    3    0    0 -0.42758291502E+01 -0.30829932603E+01  0.76134274674E+01  0.92602289619E+01  0.51100000000E-03 0.  1.
        -12    1    3    3    0    0  0.19737462494E+02  0.49654048653E+01  0.30433691346E+02  0.36611913910E+02  0.00000000000E+00 0.  1.
</event>
<event>
 7    1  0.4971907E-013  0.5052885E+02  0.7816164E-02  0.1300439E+00
        -11   -1    0    0    0    0  0.00000000000E+00  0.00000000000E+00  0.45593999997E+02  0.45594000000E+02  0.51100000000E-03 0.  1.
         11   -1    0    0    0    0 -0.00000000000E+00 -0.00000000000E+00 -0.45593999997E+02  0.45594000000E+02  0.51100000000E-03 0. -1.
    9900012    2    1    2    0    0 -0.26837590775E+02 -0.27926803940E+02 -0.12369483094E+02  0.50528846431E+02  0.29999959212E+02 0.  0.
         12    1    1    2    0    0  0.26837590775E+02  0.27926803940E+02  0.12369483094E+02  0.40659153569E+02  0.00000000000E+00 0. -1.
         11    1    3    3    0    0 -0.14976327175E+02 -0.15703253733E+02 -0.16434954184E+02  0.27221136507E+02  0.51100000000E-03 0. -1.
        -11    1    3    3    0    0 -0.13131698803E+02 -0.86926465360E+01 -0.23032733406E+01  0.15915674211E+02  0.51100000000E-03 0.  1.
         12    1    3    3    0    0  0.12704352036E+01 -0.35309036715E+01  0.63687444309E+01  0.73920357122E+01  0.00000000000E+00 0. -1.
</event>
<event>
 7    1  0.4971907E-013  0.5052886E+02  0.7816164E-02  0.1300439E+00
        -11   -1    0    0    0    0  0.00000000000E+00  0.00000000000E+00  0.45593999997E+02  0.45594000000E+02  0.51100000000E-03 0. -1.
         11   -1    0    0    0    0 -0.00000000000E+00 -0.00000000000E+00 -0.45593999997E+02  0.45594000000E+02  0.51100000000E-03 0.  1.
    9900012    2    1    2    0    0  0.26803885388E+02 -0.15270331886E+02 -0.26486497706E+02  0.50528857504E+02  0.29999992868E+02 0.  0.
         12    1    1    2    0    0 -0.26803885388E+02  0.15270331886E+02  0.26486497706E+02  0.40659142496E+02  0.00000000000E+00 0. -1.
         11    1    3    3    0    0 -0.31548908651E+01  0.36123303790E+01  0.75540231845E+00  0.48551931024E+01  0.51100000000E-03 0. -1.
        -11    1    3    3    0    0  0.12070785987E+02 -0.37064142703E+01 -0.58118821912E+01  0.13900336541E+02  0.51100000000E-03 0.  1.
        -12    1    3    3    0    0  0.17887990266E+02 -0.15176247995E+02 -0.21430017833E+02  0.31773327860E+02  0.00000000000E+00 0.  1.
</event>
<event>
 7    1  0.4971907E-013  0.5052886E+02  0.7816164E-02  0.1300439E+00
        -11   -1    0    0    0    0  0.00000000000E+00  0.00000000000E+00  0.45593999997E+02  0.45594000000E+02  0.51100000000E-03 0. -1.
         11   -1    0    0    0    0 -0.00000000000E+00 -0.00000000000E+00 -0.45593999997E+02  0.45594000000E+02  0.51100000000E-03 0.  1.
    9900012    2    1    2    0    0 -0.36820153895E+02  0.98867627295E+01 -0.14131301236E+02  0.50528862223E+02  0.30000007214E+02 0.  0.
         12    1    1    2    0    0  0.36820153895E+02 -0.98867627295E+01  0.14131301236E+02  0.40659137777E+02  0.00000000000E+00 0. -1.
         11    1    3    3    0    0 -0.13617331216E+02  0.12151483530E+02  0.20011120814E+01  0.18360139195E+02  0.51100000000E-03 0. -1.
        -11    1    3    3    0    0 -0.76849164985E+00 -0.85728954730E+00 -0.82778063203E+01  0.83574878116E+01  0.51100000000E-03 0.  1.
        -12    1    3    3    0    0 -0.22434331030E+02 -0.14074312534E+01 -0.78546069969E+01  0.23811235217E+02  0.00000000000E+00 0.  1.
</event>
<event>
 7    1  0.4971907E-013  0.5052886E+02  0.7816164E-02  0.1300439E+00
        -11   -1    0    0    0    0  0.00000000000E+00  0.00000000000E+00  0.45593999997E+02  0.45594000000E+02  0.51100000000E-03 0. -1.
         11   -1    0    0    0    0 -0.00000000000E+00 -0.00000000000E+00 -0.45593999997E+02  0.45594000000E+02  0.51100000000E-03 0.  1.
    9900012    2    1    2    0    0  0.76263169223E+01  0.79246399995E+01 -0.39143389547E+02  0.50528861124E+02  0.30000003873E+02 0.  0.
         12    1    1    2    0    0 -0.76263169223E+01 -0.79246399995E+01  0.39143389547E+02  0.40659138876E+02  0.00000000000E+00 0. -1.
         11    1    3    3    0    0  0.17891853039E+02  0.71068715316E-01 -0.27758884295E+02  0.33025431314E+02  0.51100000000E-03 0. -1.
        -11    1    3    3    0    0 -0.12030106570E+01  0.12320179043E+01 -0.33678347118E+00  0.17545729181E+01  0.51100000000E-03 0.  1.
         12    1    3    3    0    0 -0.90625254594E+01  0.66215533799E+01 -0.11047721781E+02  0.15748856892E+02  0.00000000000E+00 0. -1.
</event>
<event>
 7    1  0.4971907E-013  0.5052884E+02  0.7816164E-02  0.1300439E+00
        -11   -1    0    0    0    0  0.00000000000E+00  0.00000000000E+00  0.45593999997E+02  0.45594000000E+02  0.51100000000E-03 0.  1.
         11   -1    0    0    0    0 -0.00000000000E+00 -0.00000000000E+00 -0.45593999997E+02  0.45594000000E+02  0.51100000000E-03 0. -1.
    9900012    2    1    2    0    0  0.25260048730E+02  0.28355167426E+02  0.14528660101E+02  0.50528836877E+02  0.29999930170E+02 0.  0.
         12    1    1    2    0    0 -0.25260048730E+02 -0.28355167426E+02 -0.14528660101E+02  0.40659163123E+02  0.00000000000E+00 0. -1.
         11    1    3    3    0    0  0.10779131868E+01  0.11431527416E+02  0.17820781260E+01  0.11619703895E+02  0.51100000000E-03 0. -1.
        -11    1    3    3    0    0  0.12536568794E+02  0.99110772226E+01 -0.48244792368E+01  0.16693430115E+02  0.51100000000E-03 0.  1.
        -12    1    3    3    0    0  0.11645566749E+02  0.70125627870E+01  0.17571061212E+02  0.22215702866E+02  0.00000000000E+00 0.  1.
</event>
<event>
 7    1  0.4971907E-013  0.5052882E+02  0.7816164E-02  0.1300439E+00
        -11   -1    0    0    0    0  0.00000000000E+00  0.00000000000E+00  0.45593999997E+02  0.45594000000E+02  0.51100000000E-03 0. -1.
         11   -1    0    0    0    0 -0.00000000000E+00 -0.00000000000E+00 -0.45593999997E+02  0.45594000000E+02  0.51100000000E-03 0.  1.
    9900012    2    1    2    0    0  0.21184695991E+01 -0.29435200444E+02 -0.27968737219E+02  0.50528816533E+02  0.29999868332E+02 0.  0.
         12    1    1    2    0    0 -0.21184695991E+01  0.29435200444E+02  0.27968737219E+02  0.40659183467E+02  0.00000000000E+00 0. -1.
         11    1    3    3    0    0  0.52482473495E+01 -0.22852826184E+02 -0.96080981533E+01  0.25339915454E+02  0.51100000000E-03 0. -1.
        -11    1    3    3    0    0  0.24716128462E+01 -0.68339754255E+01 -0.18180311542E+02  0.19578963665E+02  0.51100000000E-03 0.  1.
         12    1    3    3    0    0 -0.56013905966E+01  0.25160116596E+00 -0.18032752372E+00  0.56099374130E+01  0.00000000000E+00 0. -1.
</event>
<event>
 7    1  0.4971907E-013  0.5052887E+02  0.7816164E-02  0.1300439E+00
        -11   -1    0    0    0    0  0.00000000000E+00  0.00000000000E+00  0.45593999997E+02  0.45594000000E+02  0.51100000000E-03 0. -1.
         11   -1    0    0    0    0 -0.00000000000E+00 -0.00000000000E+00 -0.45593999997E+02  0.45594000000E+02  0.51100000000E-03 0.  1.
    9900012    2    1    2    0    0  0.37507967154E+02  0.78750953234E+01 -0.13575732301E+02  0.50528865308E+02  0.30000016591E+02 0.  0.
         12    1    1    2    0    0 -0.37507967154E+02 -0.78750953234E+01  0.13575732301E+02  0.40659134692E+02  0.00000000000E+00 0. -1.
         11    1    3    3    0    0  0.17224718560E+02  0.14494531097E+02 -0.14229128209E+02  0.26631756439E+02  0.51100000000E-03 0. -1.
        -11    1    3    3    0    0  0.10911664886E+02  0.16430341696E+01  0.23689019974E+01  0.11286083855E+02  0.51100000000E-03 0.  1.
        -12    1    3    3    0    0  0.93715837081E+01 -0.82624699428E+01 -0.17155060901E+01  0.12611025014E+02  0.00000000000E+00 0.  1.
</event>
<event>
 7    1  0.4971907E-013  0.5052886E+02  0.7816164E-02  0.1300439E+00
        -11   -1    0    0    0    0  0.00000000000E+00  0.00000000000E+00  0.45593999997E+02  0.45594000000E+02  0.51100000000E-03 0. -1.
         11   -1    0    0    0    0 -0.00000000000E+00 -0.00000000000E+00 -0.45593999997E+02  0.45594000000E+02  0.51100000000E-03 0.  1.
    9900012    2    1    2    0    0 -0.25658618513E+02  0.24952701923E+01 -0.31441602561E+02  0.50528862664E+02  0.30000008554E+02 0.  0.
         12    1    1    2    0    0  0.25658618513E+02 -0.24952701923E+01  0.31441602561E+02  0.40659137336E+02  0.00000000000E+00 0. -1.
         11    1    3    3    0    0 -0.20189600374E+02 -0.93283516085E+01 -0.15940233538E+02  0.27362915643E+02  0.51100000000E-03 0. -1.
        -11    1    3    3    0    0 -0.19643746839E+01  0.84477236716E+00  0.15104313188E+01  0.26179784722E+01  0.51100000000E-03 0.  1.
        -12    1    3    3    0    0 -0.35046434548E+01  0.10978849434E+02 -0.17011800341E+02  0.20547968549E+02  0.00000000000E+00 0.  1.
</event>
<event>
 7    1  0.4971907E-013  0.5052886E+02  0.7816164E-02  0.1300439E+00
        -11   -1    0    0    0    0  0.00000000000E+00  0.00000000000E+00  0.45593999997E+02  0.45594000000E+02  0.51100000000E-03 0.  1.
         11   -1    0    0    0    0 -0.00000000000E+00 -0.00000000000E+00 -0.45593999997E+02  0.45594000000E+02  0.51100000000E-03 0. -1.
    9900012    2    1    2    0    0 -0.37511302346E+02  0.42457089344E+01  0.15101047562E+02  0.50528862214E+02  0.30000007185E+02 0.  0.
         12    1    1    2    0    0  0.37511302346E+02 -0.42457089344E+01 -0.15101047562E+02  0.40659137786E+02  0.00000000000E+00 0. -1.
         11    1    3    3    0    0  0.31630922410E+01  0.23578478251E+01  0.38082280573E+01  0.54833566443E+01  0.51100000000E-03 0. -1.
        -11    1    3    3    0    0 -0.16182069387E+02 -0.18581023827E+01 -0.28204151477E+01  0.16530779050E+02  0.51100000000E-03 0.  1.
         12    1    3    3    0    0 -0.24492325199E+02  0.37459634921E+01  0.14113234652E+02  0.28514726520E+02  0.00000000000E+00 0. -1.
</event>
<event>
 7    1  0.4971907E-013  0.5052886E+02  0.7816164E-02  0.1300439E+00
        -11   -1    0    0    0    0  0.00000000000E+00  0.00000000000E+00  0.45593999997E+02  0.45594000000E+02  0.51100000000E-03 0. -1.
         11   -1    0    0    0    0 -0.00000000000E+00 -0.00000000000E+00 -0.45593999997E+02  0.45594000000E+02  0.51100000000E-03 0.  1.
    9900012    2    1    2    0    0  0.23221394833E+02  0.18532888707E+02 -0.27757245653E+02  0.50528858001E+02  0.29999994381E+02 0.  0.
         12    1    1    2    0    0 -0.23221394833E+02 -0.18532888707E+02  0.27757245653E+02  0.40659141999E+02  0.00000000000E+00 0. -1.
         11    1    3    3    0    0  0.16532439843E+02  0.14770233110E+02 -0.13740625000E+02  0.26082295315E+02  0.51100000000E-03 0. -1.
        -11    1    3    3    0    0 -0.41932478976E+01  0.74075716222E+01 -0.67436555701E+01  0.10859665556E+02  0.51100000000E-03 0.  1.
        -12    1    3    3    0    0  0.10882202889E+02 -0.36449160251E+01 -0.72729650831E+01  0.13586897131E+02  0.00000000000E+00 0.  1.
</event>
<event>
 7    1  0.4971907E-013  0.5052885E+02  0.7816164E-02  0.1300439E+00
        -11   -1    0    0    0    0  0.00000000000E+00  0.00000000000E+00  0.45593999997E+02  0.45594000000E+02  0.51100000000E-03 0.  1.
         11   -1    0    0    0    0 -0.00000000000E+00 -0.00000000000E+00 -0.45593999997E+02  0.45594000000E+02  0.51100000000E-03 0. -1.
    9900012    2    1    2    0    0 -0.73556350877E+01  0.26494293399E+02  0.29951852677E+02  0.50528850611E+02  0.29999971918E+02 0.  0.
         12    1    1    2    0    0  0.73556350877E+01 -0.26494293399E+02 -0.29951852677E+02  0.40659149389E+02  0.00000000000E+00 0. -1.
         11    1    3    3    0    0  0.32078601244E+01  0.20656773470E+01  0.44089977100E+01  0.58306646746E+01  0.51100000000E-03 0. -1.
        -11    1    3    3    0    0 -0.16457192647E+01  0.35945835833E+01 -0.51831186397E+01  0.65187531116E+01  0.51100000000E-03 0.  1.
        -12    1    3    3    0    0 -0.89177759475E+01  0.20834032468E+02  0.30725973607E+02  0.38179432825E+02  0.00000000000E+00 0.  1.
</event>
<event>
 7    1  0.4971907E-013  0.5052886E+02  0.7816164E-02  0.1300439E+00
        -11   -1    0    0    0    0  0.00000000000E+00  0.00000000000E+00  0.45593999997E+02  0.45594000000E+02  0.51100000000E-03 0. -1.
         11   -1    0    0    0    0 -0.00000000000E+00 -0.00000000000E+00 -0.45593999997E+02  0.45594000000E+02  0.51100000000E-03 0.  1.
    9900012    2    1    2    0    0  0.26188543221E+02  0.25636938339E+02 -0.17608891644E+02  0.50528862425E+02  0.30000007826E+02 0.  0.
         12    1    1    2    0    0 -0.26188543221E+02 -0.25636938339E+02  0.17608891644E+02  0.40659137575E+02  0.00000000000E+00 0. -1.
         11    1    3    3    0    0  0.15295921707E+02  0.21005164306E+02 -0.17666178417E+02  0.31420948562E+02  0.51100000000E-03 0. -1.
        -11    1    3    3    0    0  0.12544892134E+02  0.66229511000E+01 -0.35928438252E+01  0.14633739336E+02  0.51100000000E-03 0.  1.
         12    1    3    3    0    0 -0.16522706206E+01 -0.19911770665E+01  0.36501305985E+01  0.44741745272E+01  0.00000000000E+00 0. -1.
</event>
<event>
 7    1  0.4971907E-013  0.5052887E+02  0.7816164E-02  0.1300439E+00
        -11   -1    0    0    0    0  0.00000000000E+00  0.00000000000E+00  0.45593999997E+02  0.45594000000E+02  0.51100000000E-03 0.  1.
         11   -1    0    0    0    0 -0.00000000000E+00 -0.00000000000E+00 -0.45593999997E+02  0.45594000000E+02  0.51100000000E-03 0. -1.
    9900012    2    1    2    0    0 -0.37934934788E+02  0.89536553696E+01  0.11573152200E+02  0.50528867278E+02  0.30000022578E+02 0.  0.
         12    1    1    2    0    0  0.37934934788E+02 -0.89536553696E+01 -0.11573152200E+02  0.40659132722E+02  0.00000000000E+00 0. -1.
         11    1    3    3    0    0 -0.11977683717E+02  0.33196794390E+01  0.10895912232E+02  0.16528946804E+02  0.51100000000E-03 0.  1.
        -11    1    3    3    0    0 -0.11008006055E+02 -0.65166773438E+01  0.58301535207E+01  0.14058234997E+02  0.51100000000E-03 0. -1.
        -12    1    3    3    0    0 -0.14949245017E+02  0.12150653274E+02 -0.51529135533E+01  0.19941685477E+02  0.00000000000E+00 0.  1.
</event>
<event>
 7    1  0.4971907E-013  0.5052886E+02  0.7816164E-02  0.1300439E+00
        -11   -1    0    0    0    0  0.00000000000E+00  0.00000000000E+00  0.45593999997E+02  0.45594000000E+02  0.51100000000E-03 0. -1.
         11   -1    0    0    0    0 -0.00000000000E+00 -0.00000000000E+00 -0.45593999997E+02  0.45594000000E+02  0.51100000000E-03 0.  1.
    9900012    2    1    2    0    0  0.24636435494E+02  0.22333023827E+02 -0.23397599092E+02  0.50528861416E+02  0.30000004761E+02 0.  0.
         12    1    1    2    0    0 -0.24636435494E+02 -0.22333023827E+02  0.23397599092E+02  0.40659138584E+02  0.00000000000E+00 0. -1.
         11    1    3    3    0    0  0.48022877832E+00  0.13722659490E+01  0.65341513777E+01  0.66939426351E+01  0.51100000000E-03 0. -1.
        -11    1    3    3    0    0  0.39410731899E+01  0.28415457684E+01 -0.51017177264E+01  0.70451376327E+01  0.51100000000E-03 0.  1.
         12    1    3    3    0    0  0.20215133526E+02  0.18119212109E+02 -0.24830032743E+02  0.36789781149E+02  0.00000000000E+00 0. -1.
</event>
<event>
 7    1  0.4971907E-013  0.5052886E+02  0.7816164E-02  0.1300439E+00
        -11   -1    0    0    0    0  0.00000000000E+00  0.00000000000E+00  0.45593999997E+02  0.45594000000E+02  0.51100000000E-03 0.  1.
         11   -1    0    0    0    0 -0.00000000000E+00 -0.00000000000E+00 -0.45593999997E+02  0.45594000000E+02  0.51100000000E-03 0. -1.
    9900012    2    1    2    0    0  0.17611266684E+02  0.33362646996E+02  0.15163850251E+02  0.50528864701E+02  0.30000014746E+02 0.  0.
         12    1    1    2    0    0 -0.17611266684E+02 -0.33362646996E+02 -0.15163850251E+02  0.40659135299E+02  0.00000000000E+00 0. -1.
         11    1    3    3    0    0 -0.53121833779E+01  0.41808977286E+01  0.54805463035E+01  0.87026194966E+01  0.51100000000E-03 0. -1.
        -11    1    3    3    0    0  0.26708123904E+01  0.32698836832E+01 -0.43569669880E+01  0.60670041801E+01  0.51100000000E-03 0.  1.
        -12    1    3    3    0    0  0.20252637671E+02  0.25911865584E+02  0.14040270936E+02  0.35759241025E+02  0.00000000000E+00 0.  1.
</event>
<event>
 7    1  0.4971907E-013  0.5052887E+02  0.7816164E-02  0.1300439E+00
        -11   -1    0    0    0    0  0.00000000000E+00  0.00000000000E+00  0.45593999997E+02  0.45594000000E+02  0.51100000000E-03 0. -1.
         11   -1    0    0    0    0 -0.00000000000E+00 -0.00000000000E+00 -0.45593999997E+02  0.45594000000E+02  0.51100000000E-03 0.  1.
    9900012    2    1    2    0    0 -0.96517302147E+01  0.25377283204E+02 -0.30265538587E+02  0.50528865419E+02  0.30000016926E+02 0.  0.
         12    1    1    2    0    0  0.96517302147E+01 -0.25377283204E+02  0.30265538587E+02  0.40659134581E+02  0.00000000000E+00 0. -1.
         11    1    3    3    0    0 -0.17248521827E+01  0.41068872546E+01  0.19495402849E+01  0.48623395149E+01  0.51100000000E-03 0.  1.
        -11    1    3    3    0    0 -0.43099108046E+01 -0.32808265644E+01 -0.13616824794E+02  0.14654592175E+02  0.51100000000E-03 0. -1.
        -12    1    3    3    0    0 -0.36169672274E+01  0.24551222514E+02 -0.18598254078E+02  0.31011933729E+02  0.00000000000E+00 0.  1.
</event>
<event>
 7    1  0.4971907E-013  0.5052895E+02  0.7816164E-02  0.1300438E+00
        -11   -1    0    0    0    0  0.00000000000E+00  0.00000000000E+00  0.45593999997E+02  0.45594000000E+02  0.51100000000E-03 0.  1.
         11   -1    0    0    0    0 -0.00000000000E+00 -0.00000000000E+00 -0.45593999997E+02  0.45594000000E+02  0.51100000000E-03 0. -1.
    9900012    2    1    2    0    0 -0.17439230682E+01  0.95355572898E+01  0.39486582535E+02  0.50528950321E+02  0.30000274995E+02 0.  0.
         12    1    1    2    0    0  0.17439230682E+01 -0.95355572898E+01 -0.39486582535E+02  0.40659049679E+02  0.00000000000E+00 0. -1.
         11    1    3    3    0    0 -0.49206453896E+01  0.48545675750E+01 -0.72406210687E+00  0.69500966602E+01  0.51100000000E-03 0. -1.
        -11    1    3    3    0    0 -0.29014962113E+00  0.10208626352E+02  0.26324399154E+02  0.28236044870E+02  0.51100000000E-03 0.  1.
        -12    1    3    3    0    0  0.34668719425E+01 -0.55276366374E+01  0.13886245487E+02  0.15342808791E+02  0.00000000000E+00 0.  1.
</event>
<event>
 7    1  0.4971907E-013  0.5052886E+02  0.7816164E-02  0.1300439E+00
        -11   -1    0    0    0    0  0.00000000000E+00  0.00000000000E+00  0.45593999997E+02  0.45594000000E+02  0.51100000000E-03 0.  1.
         11   -1    0    0    0    0 -0.00000000000E+00 -0.00000000000E+00 -0.45593999997E+02  0.45594000000E+02  0.51100000000E-03 0. -1.
    9900012    2    1    2    0    0 -0.33524821088E+02 -0.12317148751E+02  0.19430382760E+02  0.50528861341E+02  0.30000004531E+02 0.  0.
         12    1    1    2    0    0  0.33524821088E+02  0.12317148751E+02 -0.19430382760E+02  0.40659138659E+02  0.00000000000E+00 0. -1.
         11    1    3    3    0    0  0.62265313996E+00 -0.41264071804E+01 -0.33623740659E+01  0.53591503777E+01  0.51100000000E-03 0. -1.
        -11    1    3    3    0    0 -0.20383241909E+02 -0.68820828932E+01  0.22794068263E+02  0.31343407025E+02  0.51100000000E-03 0.  1.
         12    1    3    3    0    0 -0.13764232319E+02 -0.13086586776E+01 -0.13114378711E-02  0.13826303938E+02  0.00000000000E+00 0. -1.
</event>
<event>
 7    1  0.4971907E-013  0.5052883E+02  0.7816164E-02  0.1300439E+00
        -11   -1    0    0    0    0  0.00000000000E+00  0.00000000000E+00  0.45593999997E+02  0.45594000000E+02  0.51100000000E-03 0.  1.
         11   -1    0    0    0    0 -0.00000000000E+00 -0.00000000000E+00 -0.45593999997E+02  0.45594000000E+02  0.51100000000E-03 0. -1.
    9900012    2    1    2    0    0  0.33909575253E+02  0.12627947914E+02  0.18543021932E+02  0.50528830988E+02  0.29999912272E+02 0.  0.
         12    1    1    2    0    0 -0.33909575253E+02 -0.12627947914E+02 -0.18543021932E+02  0.40659169012E+02  0.00000000000E+00 0. -1.
         11    1    3    3    0    0  0.15963615204E+02 -0.15730022526E+01  0.10908496373E+02  0.19398624689E+02  0.51100000000E-03 0. -1.
        -11    1    3    3    0    0  0.21143942597E+02  0.13362747741E+02  0.10132105573E+02  0.26986828256E+02  0.51100000000E-03 0.  1.
        -12    1    3    3    0    0 -0.31979825482E+01  0.83820242614E+00 -0.24975800132E+01  0.41433780431E+01  0.00000000000E+00 0.  1.
</event>
<event>
 7    1  0.4971907E-013  0.5052887E+02  0.7816164E-02  0.1300439E+00
        -11   -1    0    0    0    0  0.00000000000E+00  0.00000000000E+00  0.45593999997E+02  0.45594000000E+02  0.51100000000E-03 0. -1.
         11   -1    0    0    0    0 -0.00000000000E+00 -0.00000000000E+00 -0.45593999997E+02  0.45594000000E+02  0.51100000000E-03 0.  1.
    9900012    2    1    2    0    0 -0.24056278423E+02 -0.29230329207E+02 -0.14834020248E+02  0.50528870228E+02  0.30000031544E+02 0.  0.
         12    1    1    2    0    0  0.24056278423E+02  0.29230329207E+02  0.14834020248E+02  0.40659129772E+02  0.00000000000E+00 0. -1.
         11    1    3    3    0    0  0.15009678731E+01 -0.31561134526E+01  0.27434051587E+01  0.44429977276E+01  0.51100000000E-03 0. -1.
        -11    1    3    3    0    0 -0.87484591913E+01 -0.23461064651E+02 -0.14055679163E+02  0.28714442529E+02  0.51100000000E-03 0.  1.
         12    1    3    3    0    0 -0.16808787105E+02 -0.26131511034E+01 -0.35217462437E+01  0.17371429971E+02  0.00000000000E+00 0. -1.
</event>
<event>
 7    1  0.4971907E-013  0.5052886E+02  0.7816164E-02  0.1300439E+00
        -11   -1    0    0    0    0  0.00000000000E+00  0.00000000000E+00  0.45593999997E+02  0.45594000000E+02  0.51100000000E-03 0.  1.
         11   -1    0    0    0    0 -0.00000000000E+00 -0.00000000000E+00 -0.45593999997E+02  0.45594000000E+02  0.51100000000E-03 0. -1.
    9900012    2    1    2    0    0 -0.22134766435E+02 -0.94951801907E+01 -0.32757580691E+02  0.50528862962E+02  0.30000009459E+02 0.  0.
         12    1    1    2    0    0  0.22134766435E+02  0.94951801907E+01  0.32757580691E+02  0.40659137038E+02  0.00000000000E+00 0. -1.
         11    1    3    3    0    0 -0.71233753556E+01 -0.83124810830E+01 -0.19810731118E+02  0.22634153086E+02  0.51100000000E-03 0. -1.
        -11    1    3    3    0    0 -0.13790316022E+02  0.61767514278E+01 -0.13700359705E+02  0.20396689204E+02  0.51100000000E-03 0.  1.
         12    1    3    3    0    0 -0.12210750572E+01 -0.73594505355E+01  0.75351013200E+00  0.74980206720E+01  0.00000000000E+00 0. -1.
</event>
<event>
 7    1  0.4971907E-013  0.5052883E+02  0.7816164E-02  0.1300439E+00
        -11   -1    0    0    0    0  0.00000000000E+00  0.00000000000E+00  0.45593999997E+02  0.45594000000E+02  0.51100000000E-03 0. -1.
         11   -1    0    0    0    0 -0.00000000000E+00 -0.00000000000E+00 -0.45593999997E+02  0.45594000000E+02  0.51100000000E-03 0.  1.
    9900012    2    1    2    0    0  0.14039802836E+02  0.36218165239E+02  0.12012356579E+02  0.50528828002E+02  0.29999903195E+02 0.  0.
         12    1    1    2    0    0 -0.14039802836E+02 -0.36218165239E+02 -0.12012356579E+02  0.40659171998E+02  0.00000000000E+00 0. -1.
         11    1    3    3    0    0  0.38415533380E+01 -0.33190717177E+00 -0.26177346050E+01  0.46604966627E+01  0.51100000000E-03 0. -1.
        -11    1    3    3    0    0  0.14353683930E+02  0.16452212118E+02  0.23689136403E+01  0.21961677487E+02  0.51100000000E-03 0.  1.
        -12    1    3    3    0    0 -0.41554344316E+01  0.20097860293E+02  0.12261177544E+02  0.23906653852E+02  0.00000000000E+00 0.  1.
</event>
<event>
 7    1  0.4971907E-013  0.5052885E+02  0.7816164E-02  0.1300439E+00
        -11   -1    0    0    0    0  0.00000000000E+00  0.00000000000E+00  0.45593999997E+02  0.45594000000E+02  0.51100000000E-03 0.  1.
         11   -1    0    0    0    0 -0.00000000000E+00 -0.00000000000E+00 -0.45593999997E+02  0.45594000000E+02  0.51100000000E-03 0. -1.
    9900012    2    1    2    0    0 -0.27034398826E+02  0.13419195088E+02  0.27243948616E+02  0.50528852777E+02  0.29999978500E+02 0.  0.
         12    1    1    2    0    0  0.27034398826E+02 -0.13419195088E+02 -0.27243948616E+02  0.40659147223E+02  0.00000000000E+00 0. -1.
         11    1    3    3    0    0 -0.81032863827E+01  0.10894044615E+02 -0.14332540201E+01  0.13652753408E+02  0.51100000000E-03 0. -1.
        -11    1    3    3    0    0 -0.84520283423E+01 -0.82903760968E+00  0.31139026270E+01  0.90454671681E+01  0.51100000000E-03 0.  1.
        -12    1    3    3    0    0 -0.10479084101E+02  0.33541880826E+01  0.25563300009E+02  0.27830632200E+02  0.00000000000E+00 0.  1.
</event>
<event>
 7    1  0.4971907E-013  0.5052885E+02  0.7816164E-02  0.1300439E+00
        -11   -1    0    0    0    0  0.00000000000E+00  0.00000000000E+00  0.45593999997E+02  0.45594000000E+02  0.51100000000E-03 0.  1.
         11   -1    0    0    0    0 -0.00000000000E+00 -0.00000000000E+00 -0.45593999997E+02  0.45594000000E+02  0.51100000000E-03 0. -1.
    9900012    2    1    2    0    0 -0.26541934207E+02  0.28947832593E+02  0.10522114308E+02  0.50528853762E+02  0.29999981495E+02 0.  0.
         12    1    1    2    0    0  0.26541934207E+02 -0.28947832593E+02 -0.10522114308E+02  0.40659146238E+02  0.00000000000E+00 0. -1.
         11    1    3    3    0    0 -0.13328975173E+02  0.22042242886E+02  0.16140214605E+02  0.30397838383E+02  0.51100000000E-03 0.  1.
        -11    1    3    3    0    0  0.13761792973E+01 -0.99942591836E-01 -0.35583586185E+01  0.38165133694E+01  0.51100000000E-03 0. -1.
        -12    1    3    3    0    0 -0.14589138331E+02  0.70055322992E+01 -0.20597416782E+01  0.16314502010E+02  0.00000000000E+00 0.  1.
</event>
<event>
 7    1  0.4971907E-013  0.5052888E+02  0.7816164E-02  0.1300439E+00
        -11   -1    0    0    0    0  0.00000000000E+00  0.00000000000E+00  0.45593999997E+02  0.45594000000E+02  0.51100000000E-03 0.  1.
         11   -1    0    0    0    0 -0.00000000000E+00 -0.00000000000E+00 -0.45593999997E+02  0.45594000000E+02  0.51100000000E-03 0. -1.
    9900012    2    1    2    0    0  0.14306667147E+02 -0.33817003984E+02  0.17461212022E+02  0.50528875457E+02  0.30000047439E+02 0.  0.
         12    1    1    2    0    0 -0.14306667147E+02  0.33817003984E+02 -0.17461212022E+02  0.40659124543E+02  0.00000000000E+00 0. -1.
         11    1    3    3    0    0  0.17023585900E+01 -0.94487146980E+01  0.19438827392E+02  0.21680503796E+02  0.51100000000E-03 0. -1.
        -11    1    3    3    0    0  0.50623134129E+01 -0.50077367935E+01  0.25853900595E+01  0.75755321202E+01  0.51100000000E-03 0.  1.
        -12    1    3    3    0    0  0.75419951446E+01 -0.19360552493E+02 -0.45630054298E+01  0.21272839541E+02  0.00000000000E+00 0.  1.
</event>
<event>
 7    1  0.4971907E-013  0.5052886E+02  0.7816164E-02  0.1300439E+00
        -11   -1    0    0    0    0  0.00000000000E+00  0.00000000000E+00  0.45593999997E+02  0.45594000000E+02  0.51100000000E-03 0.  1.
         11   -1    0    0    0    0 -0.00000000000E+00 -0.00000000000E+00 -0.45593999997E+02  0.45594000000E+02  0.51100000000E-03 0. -1.
    9900012    2    1    2    0    0  0.78647357003E+01  0.34191301659E+02  0.20549123826E+02  0.50528859985E+02  0.30000000410E+02 0.  0.
         12    1    1    2    0    0 -0.78647357003E+01 -0.34191301659E+02 -0.20549123826E+02  0.40659140015E+02  0.00000000000E+00 0. -1.
         11    1    3    3    0    0 -0.66198309013E+01  0.99194115246E+01 -0.13856345411E+01  0.12005701541E+02  0.51100000000E-03 0. -1.
        -11    1    3    3    0    0  0.58485358990E+01  0.21331047201E+01  0.61968520564E-01  0.62257006246E+01  0.51100000000E-03 0.  1.
        -12    1    3    3    0    0  0.86360307026E+01  0.22138785414E+02  0.21872789846E+02  0.32297457819E+02  0.00000000000E+00 0.  1.
</event>
<event>
 7    1  0.4971907E-013  0.5052886E+02  0.7816164E-02  0.1300439E+00
        -11   -1    0    0    0    0  0.00000000000E+00  0.00000000000E+00  0.45593999997E+02  0.45594000000E+02  0.51100000000E-03 0.  1.
         11   -1    0    0    0    0 -0.00000000000E+00 -0.00000000000E+00 -0.45593999997E+02  0.45594000000E+02  0.51100000000E-03 0. -1.
    9900012    2    1    2    0    0 -0.29327201245E+02 -0.18989824015E+01  0.28097591450E+02  0.50528861884E+02  0.30000006183E+02 0.  0.
         12    1    1    2    0    0  0.29327201245E+02  0.18989824015E+01 -0.28097591450E+02  0.40659138116E+02  0.00000000000E+00 0. -1.
         11    1    3    3    0    0 -0.11940065613E+02 -0.84721334402E+01  0.13233244825E+02  0.19734765789E+02  0.51100000000E-03 0. -1.
        -11    1    3    3    0    0  0.14316541976E+01 -0.46425841147E+01  0.13074881664E+01  0.50311774537E+01  0.51100000000E-03 0.  1.
        -12    1    3    3    0    0 -0.18818789829E+02  0.11215735153E+02  0.13556858459E+02  0.25762918642E+02  0.00000000000E+00 0.  1.
</event>
<event>
 7    1  0.4971907E-013  0.5052880E+02  0.7816164E-02  0.1300439E+00
        -11   -1    0    0    0    0  0.00000000000E+00  0.00000000000E+00  0.45593999997E+02  0.45594000000E+02  0.51100000000E-03 0.  1.
         11   -1    0    0    0    0 -0.00000000000E+00 -0.00000000000E+00 -0.45593999997E+02  0.45594000000E+02  0.51100000000E-03 0. -1.
    9900012    2    1    2    0    0  0.20584342305E+02 -0.14185441357E+02  0.32066004791E+02  0.50528799837E+02  0.29999817584E+02 0.  0.
         12    1    1    2    0    0 -0.20584342305E+02  0.14185441357E+02 -0.32066004791E+02  0.40659200163E+02  0.00000000000E+00 0. -1.
         11    1    3    3    0    0  0.43775955453E+01 -0.12080389360E+02  0.57141990178E+01  0.14062404507E+02  0.51100000000E-03 0. -1.
        -11    1    3    3    0    0  0.77763139906E+01 -0.97442048983E+01  0.19624443098E+02  0.23249502265E+02  0.51100000000E-03 0.  1.
         12    1    3    3    0    0  0.84304327690E+01  0.76391529014E+01  0.67273626751E+01  0.13216893065E+02  0.00000000000E+00 0. -1.
</event>
<event>
 7    1  0.4971907E-013  0.5052886E+02  0.7816164E-02  0.1300439E+00
        -11   -1    0    0    0    0  0.00000000000E+00  0.00000000000E+00  0.45593999997E+02  0.45594000000E+02  0.51100000000E-03 0. -1.
         11   -1    0    0    0    0 -0.00000000000E+00 -0.00000000000E+00 -0.45593999997E+02  0.45594000000E+02  0.51100000000E-03 0.  1.
    9900012    2    1    2    0    0 -0.11055866109E+01  0.16599937860E+02 -0.37099672795E+02  0.50528856131E+02  0.29999988695E+02 0.  0.
         12    1    1    2    0    0  0.11055866109E+01 -0.16599937860E+02  0.37099672795E+02  0.40659143869E+02  0.00000000000E+00 0. -1.
         11    1    3    3    0    0 -0.68452756403E+01  0.29819379844E+01 -0.15526161601E+02  0.17228216596E+02  0.51100000000E-03 0. -1.
        -11    1    3    3    0    0 -0.41486950017E+01  0.13955651226E+02 -0.83447967155E+01  0.16781165151E+02  0.51100000000E-03 0.  1.
        -12    1    3    3    0    0  0.98883840311E+01 -0.33765134962E+00 -0.13228714478E+02  0.16519474384E+02  0.00000000000E+00 0.  1.
</event>
<event>
 7    1  0.4971907E-013  0.5052886E+02  0.7816164E-02  0.1300439E+00
        -11   -1    0    0    0    0  0.00000000000E+00  0.00000000000E+00  0.45593999997E+02  0.45594000000E+02  0.51100000000E-03 0.  1.
         11   -1    0    0    0    0 -0.00000000000E+00 -0.00000000000E+00 -0.45593999997E+02  0.45594000000E+02  0.51100000000E-03 0. -1.
    9900012    2    1    2    0    0 -0.37109987478E+01 -0.36007287385E+02  0.18516735099E+02  0.50528859143E+02  0.29999997851E+02 0.  0.
         12    1    1    2    0    0  0.37109987478E+01  0.36007287385E+02 -0.18516735099E+02  0.40659140857E+02  0.00000000000E+00 0. -1.
         11    1    3    3    0    0  0.75091428881E+01 -0.15115608067E+02  0.37184761899E+01  0.17282820939E+02  0.51100000000E-03 0. -1.
        -11    1    3    3    0    0 -0.39164407954E+01  0.27013458916E+01  0.70334212945E+00  0.48094145737E+01  0.51100000000E-03 0.  1.
        -12    1    3    3    0    0 -0.73037008405E+01 -0.23593025209E+02  0.14094916780E+02  0.28436623631E+02  0.00000000000E+00 0.  1.
</event>
<event>
 7    1  0.4971907E-013  0.5052885E+02  0.7816164E-02  0.1300439E+00
        -11   -1    0    0    0    0  0.00000000000E+00  0.00000000000E+00  0.45593999997E+02  0.45594000000E+02  0.51100000000E-03 0.  1.
         11   -1    0    0    0    0 -0.00000000000E+00 -0.00000000000E+00 -0.45593999997E+02  0.45594000000E+02  0.51100000000E-03 0. -1.
    9900012    2    1    2    0    0 -0.26760055125E+01 -0.20530897612E+02  0.34992679502E+02  0.50528851202E+02  0.29999973712E+02 0.  0.
         12    1    1    2    0    0  0.26760055125E+01  0.20530897612E+02 -0.34992679502E+02  0.40659148798E+02  0.00000000000E+00 0. -1.
         11    1    3    3    0    0 -0.89618616362E+01 -0.25672485828E+01  0.83727413157E+01  0.12530304333E+02  0.51100000000E-03 0. -1.
        -11    1    3    3    0    0 -0.49139682642E+01  0.10192461505E+01  0.59280980065E+01  0.77671290097E+01  0.51100000000E-03 0.  1.
         12    1    3    3    0    0  0.11199824388E+02 -0.18982895180E+02  0.20691840180E+02  0.30231417859E+02  0.00000000000E+00 0. -1.
</event>
<event>
 7    1  0.4971907E-013  0.5052886E+02  0.7816164E-02  0.1300439E+00
        -11   -1    0    0    0    0  0.00000000000E+00  0.00000000000E+00  0.45593999997E+02  0.45594000000E+02  0.51100000000E-03 0. -1.
         11   -1    0    0    0    0 -0.00000000000E+00 -0.00000000000E+00 -0.45593999997E+02  0.45594000000E+02  0.51100000000E-03 0.  1.
    9900012    2    1    2    0    0  0.32228688904E+02  0.46350887277E+01 -0.24351456466E+02  0.50528857510E+02  0.29999992888E+02 0.  0.
         12    1    1    2    0    0 -0.32228688904E+02 -0.46350887277E+01  0.24351456466E+02  0.40659142490E+02  0.00000000000E+00 0. -1.
         11    1    3    3    0    0  0.12540894959E+02  0.13636336088E+02 -0.12711346366E+01  0.18569854382E+02  0.51100000000E-03 0. -1.
        -11    1    3    3    0    0  0.12960588063E+01 -0.10324128508E+01 -0.38079359330E+01  0.41528328951E+01  0.51100000000E-03 0.  1.
         12    1    3    3    0    0  0.18391735139E+02 -0.79688345093E+01 -0.19272385897E+02  0.27806170233E+02  0.00000000000E+00 0. -1.
</event>
<event>
 7    1  0.4971907E-013  0.5052887E+02  0.7816164E-02  0.1300439E+00
        -11   -1    0    0    0    0  0.00000000000E+00  0.00000000000E+00  0.45593999997E+02  0.45594000000E+02  0.51100000000E-03 0. -1.
         11   -1    0    0    0    0 -0.00000000000E+00 -0.00000000000E+00 -0.45593999997E+02  0.45594000000E+02  0.51100000000E-03 0.  1.
    9900012    2    1    2    0    0  0.32093077674E+02  0.19663759291E+02 -0.15379715343E+02  0.50528871774E+02  0.30000036244E+02 0.  0.
         12    1    1    2    0    0 -0.32093077674E+02 -0.19663759291E+02  0.15379715343E+02  0.40659128226E+02  0.00000000000E+00 0. -1.
         11    1    3    3    0    0  0.20758924547E+02  0.21374367135E+02 -0.58714167131E+01  0.30368899441E+02  0.51100000000E-03 0. -1.
        -11    1    3    3    0    0  0.13035772399E+02  0.22970702295E+01 -0.58440594054E+01  0.14469309737E+02  0.51100000000E-03 0.  1.
        -12    1    3    3    0    0 -0.17016192717E+01 -0.40076780734E+01 -0.36642392246E+01  0.56906625960E+01  0.00000000000E+00 0.  1.
</event>
<event>
 7    1  0.4971907E-013  0.5052885E+02  0.7816164E-02  0.1300439E+00
        -11   -1    0    0    0    0  0.00000000000E+00  0.00000000000E+00  0.45593999997E+02  0.45594000000E+02  0.51100000000E-03 0. -1.
         11   -1    0    0    0    0 -0.00000000000E+00 -0.00000000000E+00 -0.45593999997E+02  0.45594000000E+02  0.51100000000E-03 0.  1.
    9900012    2    1    2    0    0  0.12354042149E+02 -0.16542878482E+02 -0.35026806998E+02  0.50528851037E+02  0.29999973213E+02 0.  0.
         12    1    1    2    0    0 -0.12354042149E+02  0.16542878482E+02  0.35026806998E+02  0.40659148963E+02  0.00000000000E+00 0. -1.
         11    1    3    3    0    0  0.38632410957E+01 -0.43275417204E+01  0.38852822723E+01  0.69819530006E+01  0.51100000000E-03 0. -1.
        -11    1    3    3    0    0 -0.24709460626E+00 -0.91616179882E+01 -0.12080336844E+02  0.15163470528E+02  0.51100000000E-03 0.  1.
         12    1    3    3    0    0  0.87378956598E+01 -0.30537187733E+01 -0.26831752426E+02  0.28383427509E+02  0.00000000000E+00 0. -1.
</event>
<event>
 7    1  0.4971907E-013  0.5052895E+02  0.7816164E-02  0.1300438E+00
        -11   -1    0    0    0    0  0.00000000000E+00  0.00000000000E+00  0.45593999997E+02  0.45594000000E+02  0.51100000000E-03 0.  1.
         11   -1    0    0    0    0 -0.00000000000E+00 -0.00000000000E+00 -0.45593999997E+02  0.45594000000E+02  0.51100000000E-03 0. -1.
    9900012    2    1    2    0    0 -0.16915194574E+02  0.26171185900E+02  0.26117109011E+02  0.50528952274E+02  0.30000280930E+02 0.  0.
         12    1    1    2    0    0  0.16915194574E+02 -0.26171185900E+02 -0.26117109011E+02  0.40659047726E+02  0.00000000000E+00 0. -1.
         11    1    3    3    0    0  0.43975643134E+01  0.39901820744E+01  0.22515678110E+01  0.63505655454E+01  0.51100000000E-03 0. -1.
        -11    1    3    3    0    0 -0.94971027304E+01  0.90639571789E+01  0.23024478417E+02  0.26504280534E+02  0.51100000000E-03 0.  1.
        -12    1    3    3    0    0 -0.11815656157E+02  0.13117046647E+02  0.84106278297E+00  0.17674106194E+02  0.00000000000E+00 0.  1.
</event>
<event>
 7    1  0.4971907E-013  0.5052885E+02  0.7816164E-02  0.1300439E+00
        -11   -1    0    0    0    0  0.00000000000E+00  0.00000000000E+00  0.45593999997E+02  0.45594000000E+02  0.51100000000E-03 0.  1.
         11   -1    0    0    0    0 -0.00000000000E+00 -0.00000000000E+00 -0.45593999997E+02  0.45594000000E+02  0.51100000000E-03 0. -1.
    9900012    2    1    2    0    0  0.20434883120E+02 -0.34851921374E+02  0.45744308845E+01  0.50528852327E+02  0.29999977133E+02 0.  0.
         12    1    1    2    0    0 -0.20434883120E+02  0.34851921374E+02 -0.45744308845E+01  0.40659147673E+02  0.00000000000E+00 0. -1.
         11    1    3    3    0    0  0.75267173870E+01 -0.92973635729E+01  0.97830311889E+01  0.15453159662E+02  0.51100000000E-03 0. -1.
        -11    1    3    3    0    0  0.14358466504E+02 -0.87537407072E+01  0.15943625088E+01  0.16891877598E+02  0.51100000000E-03 0.  1.
         12    1    3    3    0    0 -0.14503007711E+01 -0.16800817094E+02 -0.68029628131E+01  0.18183815067E+02  0.00000000000E+00 0. -1.
</event>
<event>
 7    1  0.4971907E-013  0.5052886E+02  0.7816164E-02  0.1300439E+00
        -11   -1    0    0    0    0  0.00000000000E+00  0.00000000000E+00  0.45593999997E+02  0.45594000000E+02  0.51100000000E-03 0.  1.
         11   -1    0    0    0    0 -0.00000000000E+00 -0.00000000000E+00 -0.45593999997E+02  0.45594000000E+02  0.51100000000E-03 0. -1.
    9900012    2    1    2    0    0  0.25992967591E+02  0.30296736345E+02  0.77226341221E+01  0.50528859882E+02  0.30000000099E+02 0.  0.
         12    1    1    2    0    0 -0.25992967591E+02 -0.30296736345E+02 -0.77226341221E+01  0.40659140118E+02  0.00000000000E+00 0. -1.
         11    1    3    3    0    0  0.11769693359E+02 -0.16874958313E+01  0.98443115825E+01  0.15436443721E+02  0.51100000000E-03 0.  1.
        -11    1    3    3    0    0  0.23091909442E+01  0.45539039556E+01  0.67982520572E-01  0.51063711125E+01  0.51100000000E-03 0. -1.
        -12    1    3    3    0    0  0.11914083287E+02  0.27430328220E+02 -0.21896599810E+01  0.29986045049E+02  0.00000000000E+00 0.  1.
</event>
<event>
 7    1  0.4971907E-013  0.5052886E+02  0.7816164E-02  0.1300439E+00
        -11   -1    0    0    0    0  0.00000000000E+00  0.00000000000E+00  0.45593999997E+02  0.45594000000E+02  0.51100000000E-03 0. -1.
         11   -1    0    0    0    0 -0.00000000000E+00 -0.00000000000E+00 -0.45593999997E+02  0.45594000000E+02  0.51100000000E-03 0.  1.
    9900012    2    1    2    0    0 -0.23705964555E+02 -0.58037857155E+01  0.32519365619E+02  0.50528858046E+02  0.29999994517E+02 0.  0.
         12    1    1    2    0    0  0.23705964555E+02  0.58037857155E+01 -0.32519365619E+02  0.40659141954E+02  0.00000000000E+00 0. -1.
         11    1    3    3    0    0 -0.11506311422E+02 -0.30703763439E+01  0.31504576950E+02  0.33680272898E+02  0.51100000000E-03 0. -1.
        -11    1    3    3    0    0 -0.86721726463E+01 -0.18698661558E+01  0.59787056866E+01  0.10698032520E+02  0.51100000000E-03 0.  1.
         12    1    3    3    0    0 -0.35274804873E+01 -0.86354321576E+00 -0.49639170175E+01  0.61505526280E+01  0.00000000000E+00 0. -1.
</event>
<event>
 7    1  0.4971907E-013  0.5052885E+02  0.7816164E-02  0.1300439E+00
        -11   -1    0    0    0    0  0.00000000000E+00  0.00000000000E+00  0.45593999997E+02  0.45594000000E+02  0.51100000000E-03 0. -1.
         11   -1    0    0    0    0 -0.00000000000E+00 -0.00000000000E+00 -0.45593999997E+02  0.45594000000E+02  0.51100000000E-03 0.  1.
    9900012    2    1    2    0    0  0.28301998883E+02 -0.58735455009E+01 -0.28594836734E+02  0.50528851394E+02  0.29999974296E+02 0.  0.
         12    1    1    2    0    0 -0.28301998883E+02  0.58735455009E+01  0.28594836734E+02  0.40659148606E+02  0.00000000000E+00 0. -1.
         11    1    3    3    0    0  0.56079086608E+01  0.54863844199E+01 -0.41837093426E+01  0.88911460271E+01  0.51100000000E-03 0. -1.
        -11    1    3    3    0    0  0.18093361333E+02 -0.58979979073E+01 -0.32524181619E+01  0.19306328698E+02  0.51100000000E-03 0.  1.
         12    1    3    3    0    0  0.46007288892E+01 -0.54619320135E+01 -0.21158709230E+02  0.22331376668E+02  0.00000000000E+00 0. -1.
</event>
<event>
 7    1  0.4971907E-013  0.5052887E+02  0.7816164E-02  0.1300439E+00
        -11   -1    0    0    0    0  0.00000000000E+00  0.00000000000E+00  0.45593999997E+02  0.45594000000E+02  0.51100000000E-03 0.  1.
         11   -1    0    0    0    0 -0.00000000000E+00 -0.00000000000E+00 -0.45593999997E+02  0.45594000000E+02  0.51100000000E-03 0. -1.
    9900012    2    1    2    0    0 -0.12089249259E+02 -0.67913106406E+01  0.38221634924E+02  0.50528865428E+02  0.30000016956E+02 0.  0.
         12    1    1    2    0    0  0.12089249259E+02  0.67913106406E+01 -0.38221634924E+02  0.40659134572E+02  0.00000000000E+00 0. -1.
         11    1    3    3    0    0 -0.14665622870E+01  0.64061302223E+00 -0.18827934449E+01  0.24710526913E+01  0.51100000000E-03 0. -1.
        -11    1    3    3    0    0  0.18831803238E+01 -0.12384373873E+02  0.14709893920E+02  0.19320974710E+02  0.51100000000E-03 0.  1.
         12    1    3    3    0    0 -0.12505867296E+02  0.49524502102E+01  0.25394534449E+02  0.28736838027E+02  0.00000000000E+00 0. -1.
</event>
<event>
 7    1  0.4971907E-013  0.5052885E+02  0.7816164E-02  0.1300439E+00
        -11   -1    0    0    0    0  0.00000000000E+00  0.00000000000E+00  0.45593999997E+02  0.45594000000E+02  0.51100000000E-03 0.  1.
         11   -1    0    0    0    0 -0.00000000000E+00 -0.00000000000E+00 -0.45593999997E+02  0.45594000000E+02  0.51100000000E-03 0. -1.
    9900012    2    1    2    0    0  0.23271353935E+02  0.29245095166E+02  0.16010453059E+02  0.50528854505E+02  0.29999983752E+02 0.  0.
         12    1    1    2    0    0 -0.23271353935E+02 -0.29245095166E+02 -0.16010453059E+02  0.40659145495E+02  0.00000000000E+00 0. -1.
         11    1    3    3    0    0  0.25706448063E+01 -0.35788916444E+01 -0.24675700162E+00  0.44133399372E+01  0.51100000000E-03 0. -1.
        -11    1    3    3    0    0 -0.89317079640E-01  0.68479734449E+01  0.10217611321E+02  0.12300499957E+02  0.51100000000E-03 0.  1.
        -12    1    3    3    0    0  0.20790026209E+02  0.25976013366E+02  0.60395987401E+01  0.33815014610E+02  0.00000000000E+00 0.  1.
</event>
<event>
 7    1  0.4971907E-013  0.5052886E+02  0.7816164E-02  0.1300439E+00
        -11   -1    0    0    0    0  0.00000000000E+00  0.00000000000E+00  0.45593999997E+02  0.45594000000E+02  0.51100000000E-03 0.  1.
         11   -1    0    0    0    0 -0.00000000000E+00 -0.00000000000E+00 -0.45593999997E+02  0.45594000000E+02  0.51100000000E-03 0. -1.
    9900012    2    1    2    0    0 -0.21561161788E+02 -0.26763648720E+02  0.21725306640E+02  0.50528861556E+02  0.30000005185E+02 0.  0.
         12    1    1    2    0    0  0.21561161788E+02  0.26763648720E+02 -0.21725306640E+02  0.40659138444E+02  0.00000000000E+00 0. -1.
         11    1    3    3    0    0 -0.11467047695E+02 -0.18557683637E+01  0.82699681960E+01  0.14259363004E+02  0.51100000000E-03 0. -1.
        -11    1    3    3    0    0 -0.10014987541E+02 -0.12404852795E+02 -0.23513628023E+01  0.16115497374E+02  0.51100000000E-03 0.  1.
        -12    1    3    3    0    0 -0.79126552184E-01 -0.12503027561E+02  0.15806701246E+02  0.20154001178E+02  0.00000000000E+00 0.  1.
</event>
<event>
 7    1  0.4971907E-013  0.5052886E+02  0.7816164E-02  0.1300439E+00
        -11   -1    0    0    0    0  0.00000000000E+00  0.00000000000E+00  0.45593999997E+02  0.45594000000E+02  0.51100000000E-03 0.  1.
         11   -1    0    0    0    0 -0.00000000000E+00 -0.00000000000E+00 -0.45593999997E+02  0.45594000000E+02  0.51100000000E-03 0. -1.
    9900012    2    1    2    0    0 -0.31218196442E+02  0.21544294253E+02  0.14643548007E+02  0.50528857090E+02  0.29999991611E+02 0.  0.
         12    1    1    2    0    0  0.31218196442E+02 -0.21544294253E+02 -0.14643548007E+02  0.40659142910E+02  0.00000000000E+00 0. -1.
         11    1    3    3    0    0 -0.38836255955E+01 -0.53091912659E+01  0.64999758098E+01  0.92476886546E+01  0.51100000000E-03 0. -1.
        -11    1    3    3    0    0 -0.13192391828E+02  0.66851757127E+01 -0.14192995553E+01  0.14857496019E+02  0.51100000000E-03 0.  1.
        -12    1    3    3    0    0 -0.14142179018E+02  0.20168309806E+02  0.95628717530E+01  0.26423672416E+02  0.00000000000E+00 0.  1.
</event>
<event>
 7    1  0.4971907E-013  0.5052886E+02  0.7816164E-02  0.1300439E+00
        -11   -1    0    0    0    0  0.00000000000E+00  0.00000000000E+00  0.45593999997E+02  0.45594000000E+02  0.51100000000E-03 0.  1.
         11   -1    0    0    0    0 -0.00000000000E+00 -0.00000000000E+00 -0.45593999997E+02  0.45594000000E+02  0.51100000000E-03 0. -1.
    9900012    2    1    2    0    0 -0.99841112847E+01 -0.36341867103E+02  0.15256199191E+02  0.50528863309E+02  0.30000010514E+02 0.  0.
         12    1    1    2    0    0  0.99841112847E+01  0.36341867103E+02 -0.15256199191E+02  0.40659136691E+02  0.00000000000E+00 0. -1.
         11    1    3    3    0    0 -0.44076399663E+01 -0.68123491545E+01 -0.42204786683E+01  0.91459188453E+01  0.51100000000E-03 0. -1.
        -11    1    3    3    0    0 -0.25955956999E+00 -0.22785720230E+02  0.32417433001E+01  0.23016631323E+02  0.51100000000E-03 0.  1.
        -12    1    3    3    0    0 -0.53169117484E+01 -0.67437977184E+01  0.16234934560E+02  0.18366313140E+02  0.00000000000E+00 0.  1.
</event>
<event>
 7    1  0.4971907E-013  0.5052893E+02  0.7816164E-02  0.1300439E+00
        -11   -1    0    0    0    0  0.00000000000E+00  0.00000000000E+00  0.45593999997E+02  0.45594000000E+02  0.51100000000E-03 0.  1.
         11   -1    0    0    0    0 -0.00000000000E+00 -0.00000000000E+00 -0.45593999997E+02  0.45594000000E+02  0.51100000000E-03 0. -1.
    9900012    2    1    2    0    0 -0.22450008484E+02  0.27505423522E+02  0.19814356295E+02  0.50528930662E+02  0.30000215239E+02 0.  0.
         12    1    1    2    0    0  0.22450008484E+02 -0.27505423522E+02 -0.19814356295E+02  0.40659069338E+02  0.00000000000E+00 0. -1.
         11    1    3    3    0    0 -0.11184562562E+02 -0.20408695404E+01  0.12311030952E+02  0.16757716776E+02  0.51100000000E-03 0. -1.
        -11    1    3    3    0    0 -0.88874216340E+01  0.16358739212E+02  0.82217973952E+01  0.20351721416E+02  0.51100000000E-03 0.  1.
        -12    1    3    3    0    0 -0.23780242873E+01  0.13187553850E+02 -0.71847205198E+00  0.13419492470E+02  0.00000000000E+00 0.  1.
</event>
<event>
 7    1  0.4971907E-013  0.5052885E+02  0.7816164E-02  0.1300439E+00
        -11   -1    0    0    0    0  0.00000000000E+00  0.00000000000E+00  0.45593999997E+02  0.45594000000E+02  0.51100000000E-03 0.  1.
         11   -1    0    0    0    0 -0.00000000000E+00 -0.00000000000E+00 -0.45593999997E+02  0.45594000000E+02  0.51100000000E-03 0. -1.
    9900012    2    1    2    0    0 -0.39116962372E+02  0.78919857274E+01 -0.77939655033E+01  0.50528854876E+02  0.29999984881E+02 0.  0.
         12    1    1    2    0    0  0.39116962372E+02 -0.78919857274E+01  0.77939655033E+01  0.40659145124E+02  0.00000000000E+00 0. -1.
         11    1    3    3    0    0  0.11147447578E+01 -0.10136819781E+01 -0.42919972774E+01  0.45487853234E+01  0.51100000000E-03 0. -1.
        -11    1    3    3    0    0 -0.14375988350E+02 -0.43785056028E+01 -0.72239166694E+01  0.16674091419E+02  0.51100000000E-03 0.  1.
         12    1    3    3    0    0 -0.25855718780E+02  0.13284173308E+02  0.37219484435E+01  0.29305978133E+02  0.00000000000E+00 0. -1.
</event>
<event>
 7    1  0.4971907E-013  0.5052884E+02  0.7816164E-02  0.1300439E+00
        -11   -1    0    0    0    0  0.00000000000E+00  0.00000000000E+00  0.45593999997E+02  0.45594000000E+02  0.51100000000E-03 0.  1.
         11   -1    0    0    0    0 -0.00000000000E+00 -0.00000000000E+00 -0.45593999997E+02  0.45594000000E+02  0.51100000000E-03 0. -1.
    9900012    2    1    2    0    0 -0.69628522355E+01  0.91580661433E+01  0.38997634168E+02  0.50528844113E+02  0.29999952167E+02 0.  0.
         12    1    1    2    0    0  0.69628522355E+01 -0.91580661433E+01 -0.38997634168E+02  0.40659155887E+02  0.00000000000E+00 0. -1.
         11    1    3    3    0    0 -0.51440059402E+01 -0.18261740731E+01  0.12720710643E+02  0.13842405441E+02  0.51100000000E-03 0. -1.
        -11    1    3    3    0    0 -0.40382810536E+01  0.13409306818E+02  0.29137845770E+02  0.32328490215E+02  0.51100000000E-03 0.  1.
         12    1    3    3    0    0  0.22194347583E+01 -0.24250666012E+01 -0.28609222455E+01  0.43579484579E+01  0.00000000000E+00 0. -1.
</event>
<event>
 7    1  0.4971907E-013  0.5052885E+02  0.7816164E-02  0.1300439E+00
        -11   -1    0    0    0    0  0.00000000000E+00  0.00000000000E+00  0.45593999997E+02  0.45594000000E+02  0.51100000000E-03 0.  1.
         11   -1    0    0    0    0 -0.00000000000E+00 -0.00000000000E+00 -0.45593999997E+02  0.45594000000E+02  0.51100000000E-03 0. -1.
    9900012    2    1    2    0    0  0.68048588956E+01  0.30746856207E+02  0.25719469217E+02  0.50528851362E+02  0.29999974200E+02 0.  0.
         12    1    1    2    0    0 -0.68048588956E+01 -0.30746856207E+02 -0.25719469217E+02  0.40659148638E+02  0.00000000000E+00 0. -1.
         11    1    3    3    0    0  0.26350999454E+01  0.70046774102E+01  0.17276478437E+02  0.18827797662E+02  0.51100000000E-03 0.  1.
        -11    1    3    3    0    0  0.87021316657E+01  0.35626461263E+01  0.52627383364E+01  0.10775711485E+02  0.51100000000E-03 0. -1.
         12    1    3    3    0    0 -0.45323727154E+01  0.20179532670E+02  0.31802524432E+01  0.20925342215E+02  0.00000000000E+00 0. -1.
</event>
<event>
 7    1  0.4971907E-013  0.5052885E+02  0.7816164E-02  0.1300439E+00
        -11   -1    0    0    0    0  0.00000000000E+00  0.00000000000E+00  0.45593999997E+02  0.45594000000E+02  0.51100000000E-03 0.  1.
         11   -1    0    0    0    0 -0.00000000000E+00 -0.00000000000E+00 -0.45593999997E+02  0.45594000000E+02  0.51100000000E-03 0. -1.
    9900012    2    1    2    0    0 -0.14081419763E+02  0.28609394454E+02  0.25226629691E+02  0.50528847536E+02  0.29999962569E+02 0.  0.
         12    1    1    2    0    0  0.14081419763E+02 -0.28609394454E+02 -0.25226629691E+02  0.40659152464E+02  0.00000000000E+00 0. -1.
         11    1    3    3    0    0 -0.11046726629E+02  0.29175526900E+02  0.21054806623E+02  0.37637035235E+02  0.51100000000E-03 0. -1.
        -11    1    3    3    0    0 -0.32496965439E+01  0.12658890463E+01  0.79533404925E+01  0.86843899012E+01  0.51100000000E-03 0.  1.
         12    1    3    3    0    0  0.21500340979E+00 -0.18320214921E+01 -0.37815174246E+01  0.42074223993E+01  0.00000000000E+00 0. -1.
</event>
<event>
 7    1  0.4971907E-013  0.5052885E+02  0.7816164E-02  0.1300439E+00
        -11   -1    0    0    0    0  0.00000000000E+00  0.00000000000E+00  0.45593999997E+02  0.45594000000E+02  0.51100000000E-03 0.  1.
         11   -1    0    0    0    0 -0.00000000000E+00 -0.00000000000E+00 -0.45593999997E+02  0.45594000000E+02  0.51100000000E-03 0. -1.
    9900012    2    1    2    0    0  0.39192766016E+02  0.10280584984E+02 -0.33768067575E+01  0.50528853926E+02  0.29999981992E+02 0.  0.
         12    1    1    2    0    0 -0.39192766016E+02 -0.10280584984E+02  0.33768067575E+01  0.40659146074E+02  0.00000000000E+00 0. -1.
         11    1    3    3    0    0  0.84561950244E+01  0.36435202202E+01 -0.13331489158E+01  0.93037497912E+01  0.51100000000E-03 0. -1.
        -11    1    3    3    0    0  0.24973314776E+02 -0.65254853952E+01  0.30247646678E+01  0.25988413036E+02  0.51100000000E-03 0.  1.
         12    1    3    3    0    0  0.57632562157E+01  0.13162550159E+02 -0.50684225095E+01  0.15236691099E+02  0.00000000000E+00 0. -1.
</event>
<event>
 7    1  0.6562087E-013  0.5052889E+02  0.7816164E-02  0.1300439E+00
        -11   -1    0    0    0    0  0.00000000000E+00  0.00000000000E+00  0.45593999997E+02  0.45594000000E+02  0.51100000000E-03 0. -1.
         11   -1    0    0    0    0 -0.00000000000E+00 -0.00000000000E+00 -0.45593999997E+02  0.45594000000E+02  0.51100000000E-03 0.  1.
    9900012    2    1    2    0    0  0.72618203960E+00 -0.14448941866E+02 -0.37998214244E+02  0.50528886051E+02  0.30000079641E+02 0.  0.
         12    1    1    2    0    0 -0.72618203960E+00  0.14448941866E+02  0.37998214244E+02  0.40659113949E+02  0.00000000000E+00 0. -1.
         11    1    3    3    0    0 -0.79791629939E+01 -0.91304740790E+01 -0.13177252564E+02  0.17907333258E+02  0.51100000000E-03 0. -1.
        -11    1    3    3    0    0  0.51127016590E+01 -0.63473517472E+01 -0.27062905845E+02  0.28263571350E+02  0.51100000000E-03 0.  1.
         12    1    3    3    0    0  0.35926433745E+01  0.10288839602E+01  0.22419441655E+01  0.43579814434E+01  0.00000000000E+00 0. -1.
</event>
<event>
 7    1  0.4971907E-013  0.5052886E+02  0.7816164E-02  0.1300439E+00
        -11   -1    0    0    0    0  0.00000000000E+00  0.00000000000E+00  0.45593999997E+02  0.45594000000E+02  0.51100000000E-03 0.  1.
         11   -1    0    0    0    0 -0.00000000000E+00 -0.00000000000E+00 -0.45593999997E+02  0.45594000000E+02  0.51100000000E-03 0. -1.
    9900012    2    1    2    0    0 -0.39314264785E+01  0.20562395573E+02  0.34855373465E+02  0.50528864676E+02  0.30000014670E+02 0.  0.
         12    1    1    2    0    0  0.39314264785E+01 -0.20562395573E+02 -0.34855373465E+02  0.40659135324E+02  0.00000000000E+00 0. -1.
         11    1    3    3    0    0  0.58270350912E+01 -0.18934294109E+01  0.56097133622E+01  0.83071232780E+01  0.51100000000E-03 0. -1.
        -11    1    3    3    0    0 -0.26164310900E+01  0.27615680206E+01  0.18093308371E+02  0.18488909585E+02  0.51100000000E-03 0.  1.
        -12    1    3    3    0    0 -0.71420304797E+01  0.19694256963E+02  0.11152351733E+02  0.23732831813E+02  0.00000000000E+00 0.  1.
</event>
<event>
 7    1  0.4971907E-013  0.5052886E+02  0.7816164E-02  0.1300439E+00
        -11   -1    0    0    0    0  0.00000000000E+00  0.00000000000E+00  0.45593999997E+02  0.45594000000E+02  0.51100000000E-03 0.  1.
         11   -1    0    0    0    0 -0.00000000000E+00 -0.00000000000E+00 -0.45593999997E+02  0.45594000000E+02  0.51100000000E-03 0. -1.
    9900012    2    1    2    0    0 -0.17913097042E+02  0.22587494222E+02  0.28672143242E+02  0.50528859098E+02  0.29999997713E+02 0.  0.
         12    1    1    2    0    0  0.17913097042E+02 -0.22587494222E+02 -0.28672143242E+02  0.40659140902E+02  0.00000000000E+00 0. -1.
         11    1    3    3    0    0  0.37579520816E+01 -0.94945881910E+00  0.42765830967E+01  0.57717275699E+01  0.51100000000E-03 0. -1.
        -11    1    3    3    0    0 -0.41764516021E+01  0.13320131621E+01 -0.30630250272E+01  0.53478154070E+01  0.51100000000E-03 0.  1.
        -12    1    3    3    0    0 -0.17494597521E+02  0.22204939879E+02  0.27458585172E+02  0.39409316121E+02  0.00000000000E+00 0.  1.
</event>
<event>
 7    1  0.4971907E-013  0.5052885E+02  0.7816164E-02  0.1300439E+00
        -11   -1    0    0    0    0  0.00000000000E+00  0.00000000000E+00  0.45593999997E+02  0.45594000000E+02  0.51100000000E-03 0.  1.
         11   -1    0    0    0    0 -0.00000000000E+00 -0.00000000000E+00 -0.45593999997E+02  0.45594000000E+02  0.51100000000E-03 0. -1.
    9900012    2    1    2    0    0 -0.32884279447E+01  0.40280223797E+02  0.44560763109E+01  0.50528846005E+02  0.29999957916E+02 0.  0.
         12    1    1    2    0    0  0.32884279447E+01 -0.40280223797E+02 -0.44560763109E+01  0.40659153995E+02  0.00000000000E+00 0. -1.
         11    1    3    3    0    0 -0.27913162503E+01 -0.13361242283E+01  0.33463249756E+00  0.31126602019E+01  0.51100000000E-03 0. -1.
        -11    1    3    3    0    0  0.66293213321E+01  0.19143715662E+01  0.58225982782E+00  0.69247199645E+01  0.51100000000E-03 0.  1.
        -12    1    3    3    0    0 -0.71264330266E+01  0.39701976459E+02  0.35391839856E+01  0.40491465838E+02  0.00000000000E+00 0.  1.
</event>
<event>
 7    1  0.4971907E-013  0.5052883E+02  0.7816164E-02  0.1300439E+00
        -11   -1    0    0    0    0  0.00000000000E+00  0.00000000000E+00  0.45593999997E+02  0.45594000000E+02  0.51100000000E-03 0.  1.
         11   -1    0    0    0    0 -0.00000000000E+00 -0.00000000000E+00 -0.45593999997E+02  0.45594000000E+02  0.51100000000E-03 0. -1.
    9900012    2    1    2    0    0  0.17744214793E+02  0.11801751745E+02  0.34627001560E+02  0.50528834491E+02  0.29999922919E+02 0.  0.
         12    1    1    2    0    0 -0.17744214793E+02 -0.11801751745E+02 -0.34627001560E+02  0.40659165509E+02  0.00000000000E+00 0. -1.
         11    1    3    3    0    0  0.10452494184E+02  0.39315794474E+01  0.67244990365E+01  0.13035752344E+02  0.51100000000E-03 0.  1.
        -11    1    3    3    0    0  0.99433437923E+01  0.66639422146E+00  0.15999463084E+01  0.10093264857E+02  0.51100000000E-03 0. -1.
         12    1    3    3    0    0 -0.26516231835E+01  0.72037780758E+01  0.26302556215E+02  0.27399817290E+02  0.00000000000E+00 0. -1.
</event>
<event>
 7    1  0.4971907E-013  0.5052888E+02  0.7816164E-02  0.1300439E+00
        -11   -1    0    0    0    0  0.00000000000E+00  0.00000000000E+00  0.45593999997E+02  0.45594000000E+02  0.51100000000E-03 0.  1.
         11   -1    0    0    0    0 -0.00000000000E+00 -0.00000000000E+00 -0.45593999997E+02  0.45594000000E+02  0.51100000000E-03 0. -1.
    9900012    2    1    2    0    0  0.25788567349E+02  0.31115503604E+02 -0.44653613750E+01  0.50528877744E+02  0.30000054390E+02 0.  0.
         12    1    1    2    0    0 -0.25788567349E+02 -0.31115503604E+02  0.44653613750E+01  0.40659122256E+02  0.00000000000E+00 0. -1.
         11    1    3    3    0    0  0.20388558948E+02  0.24433996415E+02  0.66696110847E+01  0.32514569489E+02  0.51100000000E-03 0.  1.
        -11    1    3    3    0    0  0.20845229362E+01 -0.21067688508E+01  0.55811330087E+00  0.30158251905E+01  0.51100000000E-03 0. -1.
         12    1    3    3    0    0  0.33154854648E+01  0.87882760394E+01 -0.11693085761E+02  0.14998483064E+02  0.00000000000E+00 0. -1.
</event>
<event>
 7    1  0.4971907E-013  0.5052886E+02  0.7816164E-02  0.1300439E+00
        -11   -1    0    0    0    0  0.00000000000E+00  0.00000000000E+00  0.45593999997E+02  0.45594000000E+02  0.51100000000E-03 0. -1.
         11   -1    0    0    0    0 -0.00000000000E+00 -0.00000000000E+00 -0.45593999997E+02  0.45594000000E+02  0.51100000000E-03 0.  1.
    9900012    2    1    2    0    0  0.14853950257E+02  0.11249738387E+02 -0.36138199360E+02  0.50528857055E+02  0.29999991505E+02 0.  0.
         12    1    1    2    0    0 -0.14853950257E+02 -0.11249738387E+02  0.36138199360E+02  0.40659142945E+02  0.00000000000E+00 0. -1.
         11    1    3    3    0    0  0.10491694404E+02 -0.13027083953E+01 -0.28580772598E+02  0.30473484592E+02  0.51100000000E-03 0.  1.
        -11    1    3    3    0    0  0.66760488795E+01  0.44172503489E+01  0.94732260132E+00  0.80609645613E+01  0.51100000000E-03 0. -1.
        -12    1    3    3    0    0 -0.23137930264E+01  0.81351964332E+01 -0.85047493633E+01  0.11994407902E+02  0.00000000000E+00 0.  1.
</event>
<event>
 7    1  0.4971907E-013  0.5052885E+02  0.7816164E-02  0.1300439E+00
        -11   -1    0    0    0    0  0.00000000000E+00  0.00000000000E+00  0.45593999997E+02  0.45594000000E+02  0.51100000000E-03 0. -1.
         11   -1    0    0    0    0 -0.00000000000E+00 -0.00000000000E+00 -0.45593999997E+02  0.45594000000E+02  0.51100000000E-03 0.  1.
    9900012    2    1    2    0    0  0.29241324897E+02 -0.28195959263E+02 -0.17603901653E+01  0.50528853747E+02  0.29999981449E+02 0.  0.
         12    1    1    2    0    0 -0.29241324897E+02  0.28195959263E+02  0.17603901653E+01  0.40659146253E+02  0.00000000000E+00 0. -1.
         11    1    3    3    0    0 -0.26357943229E+00 -0.28584111244E+01  0.44768134702E+01  0.53180680121E+01  0.51100000000E-03 0. -1.
        -11    1    3    3    0    0  0.24466419871E+01 -0.14634775523E+02 -0.62813326494E+01  0.16112661225E+02  0.51100000000E-03 0.  1.
        -12    1    3    3    0    0  0.27058262342E+02 -0.10702772615E+02  0.44129013937E-01  0.29098124510E+02  0.00000000000E+00 0.  1.
</event>
<event>
 7    1  0.5456514E-013  0.5052887E+02  0.7816164E-02  0.1300439E+00
        -11   -1    0    0    0    0  0.00000000000E+00  0.00000000000E+00  0.45593999997E+02  0.45594000000E+02  0.51100000000E-03 0. -1.
         11   -1    0    0    0    0 -0.00000000000E+00 -0.00000000000E+00 -0.45593999997E+02  0.45594000000E+02  0.51100000000E-03 0.  1.
    9900012    2    1    2    0    0 -0.23285917111E+02 -0.21513391341E+02 -0.25457902526E+02  0.50528871337E+02  0.30000034915E+02 0.  0.
         12    1    1    2    0    0  0.23285917111E+02  0.21513391341E+02  0.25457902526E+02  0.40659128663E+02  0.00000000000E+00 0. -1.
         11    1    3    3    0    0 -0.15613539116E+02 -0.91234853745E+01 -0.25325810016E+01  0.18260190467E+02  0.51100000000E-03 0. -1.
        -11    1    3    3    0    0  0.41244787842E+01 -0.16238856736E+01 -0.12910936000E+00  0.44345235832E+01  0.51100000000E-03 0.  1.
        -12    1    3    3    0    0 -0.11796856779E+02 -0.10766020293E+02 -0.22796212164E+02  0.27834157286E+02  0.00000000000E+00 0.  1.
</event>
<event>
 7    1  0.4971907E-013  0.5052886E+02  0.7816164E-02  0.1300439E+00
        -11   -1    0    0    0    0  0.00000000000E+00  0.00000000000E+00  0.45593999997E+02  0.45594000000E+02  0.51100000000E-03 0. -1.
         11   -1    0    0    0    0 -0.00000000000E+00 -0.00000000000E+00 -0.45593999997E+02  0.45594000000E+02  0.51100000000E-03 0.  1.
    9900012    2    1    2    0    0  0.24389930573E+01  0.29062712939E+02 -0.28329763004E+02  0.50528862745E+02  0.30000008798E+02 0.  0.
         12    1    1    2    0    0 -0.24389930573E+01 -0.29062712939E+02  0.28329763004E+02  0.40659137255E+02  0.00000000000E+00 0. -1.
         11    1    3    3    0    0 -0.71890327029E+00 -0.18819302742E+00 -0.31939765144E+01  0.32792872340E+01  0.51100000000E-03 0.  1.
        -11    1    3    3    0    0  0.93250813897E+01  0.29505116890E+02 -0.26712800646E+02  0.40878879439E+02  0.51100000000E-03 0. -1.
         12    1    3    3    0    0 -0.61671850621E+01 -0.25421092368E+00  0.15770141562E+01  0.63706960713E+01  0.00000000000E+00 0. -1.
</event>
