<event>
 7    1  0.4489290E-013  0.5930191E+02  0.7816164E-02  0.1266605E+00
        -11   -1    0    0    0    0  0.00000000000E+00  0.00000000000E+00  0.45593999997E+02  0.45594000000E+02  0.51100000000E-03 0. -1.
         11   -1    0    0    0    0 -0.00000000000E+00 -0.00000000000E+00 -0.45593999997E+02  0.45594000000E+02  0.51100000000E-03 0.  1.
    9900012    2    1    2    0    0 -0.13949356012E+02  0.28807248908E+01 -0.28527869908E+02  0.59301914155E+02  0.49999945519E+02 0.  0.
         12    1    1    2    0    0  0.13949356012E+02 -0.28807248908E+01  0.28527869908E+02  0.31886085845E+02  0.00000000000E+00 0. -1.
         11    1    3    3    0    0 -0.13619165030E+02  0.13774934643E+02 -0.44766625205E+01  0.19881423192E+02  0.51100000000E-03 0. -1.
        -11    1    3    3    0    0  0.14344318115E+02 -0.49935429786E+01 -0.14163270470E+02  0.20767598906E+02  0.51100000000E-03 0.  1.
         12    1    3    3    0    0 -0.14674509096E+02 -0.59006667737E+01 -0.98879369174E+01  0.18652892057E+02  0.00000000000E+00 0. -1.
</event>
<event>
 7    1  0.4489290E-013  0.5930197E+02  0.7816164E-02  0.1266605E+00
        -11   -1    0    0    0    0  0.00000000000E+00  0.00000000000E+00  0.45593999997E+02  0.45594000000E+02  0.51100000000E-03 0.  1.
         11   -1    0    0    0    0 -0.00000000000E+00 -0.00000000000E+00 -0.45593999997E+02  0.45594000000E+02  0.51100000000E-03 0. -1.
    9900012    2    1    2    0    0 -0.46639819090E+01  0.22771606305E+01  0.31460778492E+02  0.59301972165E+02  0.50000051315E+02 0.  0.
         12    1    1    2    0    0  0.46639819090E+01 -0.22771606305E+01 -0.31460778492E+02  0.31886027835E+02  0.00000000000E+00 0. -1.
         11    1    3    3    0    0 -0.28440919919E+01 -0.17050759258E+02  0.29720185770E+02  0.34381778502E+02  0.51100000000E-03 0. -1.
        -11    1    3    3    0    0 -0.56498419292E+01  0.12690818163E+02  0.70690343846E+01  0.15586815803E+02  0.51100000000E-03 0.  1.
         12    1    3    3    0    0  0.38299520120E+01  0.66371017252E+01 -0.53284416622E+01  0.93333778597E+01  0.00000000000E+00 0. -1.
</event>
<event>
 7    1  0.4489290E-013  0.5930195E+02  0.7816164E-02  0.1266605E+00
        -11   -1    0    0    0    0  0.00000000000E+00  0.00000000000E+00  0.45593999997E+02  0.45594000000E+02  0.51100000000E-03 0. -1.
         11   -1    0    0    0    0 -0.00000000000E+00 -0.00000000000E+00 -0.45593999997E+02  0.45594000000E+02  0.51100000000E-03 0.  1.
    9900012    2    1    2    0    0 -0.18042783383E+02 -0.16882915399E+02 -0.20153041294E+02  0.59301953868E+02  0.50000017946E+02 0.  0.
         12    1    1    2    0    0  0.18042783383E+02  0.16882915399E+02  0.20153041294E+02  0.31886046132E+02  0.00000000000E+00 0. -1.
         11    1    3    3    0    0  0.14246331480E+02 -0.24910575931E+01 -0.89831791733E+01  0.17025299906E+02  0.51100000000E-03 0. -1.
        -11    1    3    3    0    0 -0.28757300025E+01 -0.10529599836E+02 -0.48542162353E+01  0.11945949576E+02  0.51100000000E-03 0.  1.
         12    1    3    3    0    0 -0.29413384861E+02 -0.38622579691E+01 -0.63156458849E+01  0.30330704386E+02  0.00000000000E+00 0. -1.
</event>
<event>
 7    1  0.4489290E-013  0.5930193E+02  0.7816164E-02  0.1266605E+00
        -11   -1    0    0    0    0  0.00000000000E+00  0.00000000000E+00  0.45593999997E+02  0.45594000000E+02  0.51100000000E-03 0. -1.
         11   -1    0    0    0    0 -0.00000000000E+00 -0.00000000000E+00 -0.45593999997E+02  0.45594000000E+02  0.51100000000E-03 0.  1.
    9900012    2    1    2    0    0 -0.55519759814E+01 -0.15040185421E+02 -0.27562471374E+02  0.59301930267E+02  0.49999974903E+02 0.  0.
         12    1    1    2    0    0  0.55519759814E+01  0.15040185421E+02  0.27562471374E+02  0.31886069733E+02  0.00000000000E+00 0. -1.
         11    1    3    3    0    0  0.12519523586E+02  0.13732434042E+01 -0.25944755684E+02  0.28840156311E+02  0.51100000000E-03 0. -1.
        -11    1    3    3    0    0 -0.59515608151E+01 -0.15745346986E+02  0.36596329547E+01  0.17225850965E+02  0.51100000000E-03 0.  1.
         12    1    3    3    0    0 -0.12119938752E+02 -0.66808183906E+00 -0.52773486446E+01  0.13235922991E+02  0.00000000000E+00 0. -1.
</event>
<event>
 7    1  0.4489290E-013  0.5930193E+02  0.7816164E-02  0.1266605E+00
        -11   -1    0    0    0    0  0.00000000000E+00  0.00000000000E+00  0.45593999997E+02  0.45594000000E+02  0.51100000000E-03 0. -1.
         11   -1    0    0    0    0 -0.00000000000E+00 -0.00000000000E+00 -0.45593999997E+02  0.45594000000E+02  0.51100000000E-03 0.  1.
    9900012    2    1    2    0    0  0.24277157911E+02  0.12622303228E+02 -0.16371274053E+02  0.59301928603E+02  0.49999971869E+02 0.  0.
         12    1    1    2    0    0 -0.24277157911E+02 -0.12622303228E+02  0.16371274053E+02  0.31886071397E+02  0.00000000000E+00 0. -1.
         11    1    3    3    0    0  0.12619194049E+02 -0.18747656840E+01  0.11059938398E+02  0.16884343115E+02  0.51100000000E-03 0. -1.
        -11    1    3    3    0    0 -0.67482108706E+01  0.31842467752E+01 -0.16706932064E+02  0.18297523241E+02  0.51100000000E-03 0.  1.
        -12    1    3    3    0    0  0.18406174733E+02  0.11312822136E+02 -0.10724280386E+02  0.24120062247E+02  0.00000000000E+00 0.  1.
</event>
<event>
 7    1  0.4489290E-013  0.5930195E+02  0.7816164E-02  0.1266605E+00
        -11   -1    0    0    0    0  0.00000000000E+00  0.00000000000E+00  0.45593999997E+02  0.45594000000E+02  0.51100000000E-03 0.  1.
         11   -1    0    0    0    0 -0.00000000000E+00 -0.00000000000E+00 -0.45593999997E+02  0.45594000000E+02  0.51100000000E-03 0. -1.
    9900012    2    1    2    0    0  0.55595165650E+01  0.31356336176E+02 -0.16100940217E+01  0.59301945907E+02  0.50000003428E+02 0.  0.
         12    1    1    2    0    0 -0.55595165650E+01 -0.31356336176E+02  0.16100940217E+01  0.31886054093E+02  0.00000000000E+00 0. -1.
         11    1    3    3    0    0 -0.11685135957E+02  0.61923513809E+01 -0.13175699367E+02  0.18667797729E+02  0.51100000000E-03 0. -1.
        -11    1    3    3    0    0  0.92706329817E+01  0.23869618261E+02  0.17144861551E+02  0.30816385085E+02  0.51100000000E-03 0.  1.
        -12    1    3    3    0    0  0.79740195404E+01  0.12943665342E+01 -0.55792562059E+01  0.98177630939E+01  0.00000000000E+00 0.  1.
</event>
<event>
 7    1  0.4489290E-013  0.5930192E+02  0.7816164E-02  0.1266605E+00
        -11   -1    0    0    0    0  0.00000000000E+00  0.00000000000E+00  0.45593999997E+02  0.45594000000E+02  0.51100000000E-03 0.  1.
         11   -1    0    0    0    0 -0.00000000000E+00 -0.00000000000E+00 -0.45593999997E+02  0.45594000000E+02  0.51100000000E-03 0. -1.
    9900012    2    1    2    0    0 -0.16009332826E+02 -0.24918930813E+02  0.11809764393E+02  0.59301915489E+02  0.49999947953E+02 0.  0.
         12    1    1    2    0    0  0.16009332826E+02  0.24918930813E+02 -0.11809764393E+02  0.31886084511E+02  0.00000000000E+00 0. -1.
         11    1    3    3    0    0  0.30124729744E+01  0.20254007018E+01 -0.20384790602E+01  0.41632485591E+01  0.51100000000E-03 0. -1.
        -11    1    3    3    0    0 -0.29658180676E+02 -0.86511279852E+01  0.14139267879E+02  0.33976000248E+02  0.51100000000E-03 0.  1.
        -12    1    3    3    0    0  0.10636374876E+02 -0.18293203530E+02 -0.29102442547E+00  0.21162666682E+02  0.00000000000E+00 0.  1.
</event>
<event>
 7    1  0.4489290E-013  0.5930198E+02  0.7816164E-02  0.1266605E+00
        -11   -1    0    0    0    0  0.00000000000E+00  0.00000000000E+00  0.45593999997E+02  0.45594000000E+02  0.51100000000E-03 0. -1.
         11   -1    0    0    0    0 -0.00000000000E+00 -0.00000000000E+00 -0.45593999997E+02  0.45594000000E+02  0.51100000000E-03 0.  1.
    9900012    2    1    2    0    0  0.29773073007E+02  0.58191617284E+01 -0.98193406582E+01  0.59301984719E+02  0.50000074212E+02 0.  0.
         12    1    1    2    0    0 -0.29773073007E+02 -0.58191617284E+01  0.98193406582E+01  0.31886015281E+02  0.00000000000E+00 0. -1.
         11    1    3    3    0    0  0.17479635273E+02  0.24209522530E+00  0.18807370433E+02  0.25677099569E+02  0.51100000000E-03 0. -1.
        -11    1    3    3    0    0  0.28561470299E+01  0.74155893637E+01 -0.11393823736E+02  0.13891283636E+02  0.51100000000E-03 0.  1.
         12    1    3    3    0    0  0.94372907041E+01 -0.18385228606E+01 -0.17232887355E+02  0.19733601515E+02  0.00000000000E+00 0. -1.
</event>
<event>
 7    1  0.4489290E-013  0.5930195E+02  0.7816164E-02  0.1266605E+00
        -11   -1    0    0    0    0  0.00000000000E+00  0.00000000000E+00  0.45593999997E+02  0.45594000000E+02  0.51100000000E-03 0. -1.
         11   -1    0    0    0    0 -0.00000000000E+00 -0.00000000000E+00 -0.45593999997E+02  0.45594000000E+02  0.51100000000E-03 0.  1.
    9900012    2    1    2    0    0 -0.11976947430E+02  0.19150822356E+02 -0.22505977793E+02  0.59301948142E+02  0.50000007504E+02 0.  0.
         12    1    1    2    0    0  0.11976947430E+02 -0.19150822356E+02  0.22505977793E+02  0.31886051858E+02  0.00000000000E+00 0. -1.
         11    1    3    3    0    0  0.79651136886E+01  0.20603659170E+02 -0.17911865449E+02  0.28439211159E+02  0.51100000000E-03 0. -1.
        -11    1    3    3    0    0 -0.23103409942E+02 -0.40577217483E+01 -0.87420280683E+01  0.25033092332E+02  0.51100000000E-03 0.  1.
         12    1    3    3    0    0  0.31613488233E+01  0.26048849340E+01  0.41479157237E+01  0.58296446506E+01  0.00000000000E+00 0. -1.
</event>
<event>
 7    1  0.4489290E-013  0.5930188E+02  0.7816164E-02  0.1266605E+00
        -11   -1    0    0    0    0  0.00000000000E+00  0.00000000000E+00  0.45593999997E+02  0.45594000000E+02  0.51100000000E-03 0.  1.
         11   -1    0    0    0    0 -0.00000000000E+00 -0.00000000000E+00 -0.45593999997E+02  0.45594000000E+02  0.51100000000E-03 0. -1.
    9900012    2    1    2    0    0  0.14039523091E+02  0.63043629254E+01  0.27926177750E+02  0.59301880697E+02  0.49999884499E+02 0.  0.
         12    1    1    2    0    0 -0.14039523091E+02 -0.63043629254E+01 -0.27926177750E+02  0.31886119303E+02  0.00000000000E+00 0. -1.
         11    1    3    3    0    0  0.89040019170E+00 -0.15639892018E+02  0.33939318962E+01  0.16028655864E+02  0.51100000000E-03 0. -1.
        -11    1    3    3    0    0  0.17127617713E+02  0.76794421758E+01  0.20767046087E+02  0.27992844159E+02  0.51100000000E-03 0.  1.
        -12    1    3    3    0    0 -0.39784948142E+01  0.14264812767E+02  0.37651997667E+01  0.15280380674E+02  0.00000000000E+00 0.  1.
</event>
<event>
 7    1  0.4489290E-013  0.5930194E+02  0.7816164E-02  0.1266605E+00
        -11   -1    0    0    0    0  0.00000000000E+00  0.00000000000E+00  0.45593999997E+02  0.45594000000E+02  0.51100000000E-03 0. -1.
         11   -1    0    0    0    0 -0.00000000000E+00 -0.00000000000E+00 -0.45593999997E+02  0.45594000000E+02  0.51100000000E-03 0.  1.
    9900012    2    1    2    0    0  0.92808331769E+01  0.96536893727E+01 -0.28937751373E+02  0.59301936626E+02  0.49999986501E+02 0.  0.
         12    1    1    2    0    0 -0.92808331769E+01 -0.96536893727E+01  0.28937751373E+02  0.31886063374E+02  0.00000000000E+00 0. -1.
         11    1    3    3    0    0 -0.38541680486E+01 -0.18247496895E+02 -0.29953727220E+01  0.18889097709E+02  0.51100000000E-03 0. -1.
        -11    1    3    3    0    0  0.44629564005E+01  0.76007541270E+01 -0.59889920455E+01  0.10656334694E+02  0.51100000000E-03 0.  1.
         12    1    3    3    0    0  0.86720448250E+01  0.20300432140E+02 -0.19953386605E+02  0.29756504223E+02  0.00000000000E+00 0. -1.
</event>
<event>
 7    1  0.4489290E-013  0.5930195E+02  0.7816164E-02  0.1266605E+00
        -11   -1    0    0    0    0  0.00000000000E+00  0.00000000000E+00  0.45593999997E+02  0.45594000000E+02  0.51100000000E-03 0. -1.
         11   -1    0    0    0    0 -0.00000000000E+00 -0.00000000000E+00 -0.45593999997E+02  0.45594000000E+02  0.51100000000E-03 0.  1.
    9900012    2    1    2    0    0 -0.15293916420E+02 -0.18132520639E+02 -0.21307926696E+02  0.59301954082E+02  0.50000018337E+02 0.  0.
         12    1    1    2    0    0  0.15293916420E+02  0.18132520639E+02  0.21307926696E+02  0.31886045918E+02  0.00000000000E+00 0. -1.
         11    1    3    3    0    0  0.76074639510E+01 -0.11945418652E+02 -0.30352727891E+02  0.33494098364E+02  0.51100000000E-03 0. -1.
        -11    1    3    3    0    0 -0.12579175274E+02 -0.55490206426E+01  0.61986008812E+01  0.15081443360E+02  0.51100000000E-03 0.  1.
         12    1    3    3    0    0 -0.10322205097E+02 -0.63808134499E+00  0.28462003135E+01  0.10726412358E+02  0.00000000000E+00 0. -1.
</event>
<event>
 7    1  0.4489290E-013  0.5930195E+02  0.7816164E-02  0.1266605E+00
        -11   -1    0    0    0    0  0.00000000000E+00  0.00000000000E+00  0.45593999997E+02  0.45594000000E+02  0.51100000000E-03 0. -1.
         11   -1    0    0    0    0 -0.00000000000E+00 -0.00000000000E+00 -0.45593999997E+02  0.45594000000E+02  0.51100000000E-03 0.  1.
    9900012    2    1    2    0    0  0.11995640109E+02  0.77903676369E+01 -0.28497980910E+02  0.59301950927E+02  0.50000012582E+02 0.  0.
         12    1    1    2    0    0 -0.11995640109E+02 -0.77903676369E+01  0.28497980910E+02  0.31886049073E+02  0.00000000000E+00 0. -1.
         11    1    3    3    0    0 -0.34121511072E+01 -0.72994302198E+01  0.20379404523E+01  0.83112970263E+01  0.51100000000E-03 0. -1.
        -11    1    3    3    0    0  0.22950443506E+02 -0.25224971262E+00 -0.12480470785E+02  0.26125631826E+02  0.51100000000E-03 0.  1.
         12    1    3    3    0    0 -0.75426522898E+01  0.15342047569E+02 -0.18055450578E+02  0.24865022074E+02  0.00000000000E+00 0. -1.
</event>
<event>
 7    1  0.4489290E-013  0.5930196E+02  0.7816164E-02  0.1266605E+00
        -11   -1    0    0    0    0  0.00000000000E+00  0.00000000000E+00  0.45593999997E+02  0.45594000000E+02  0.51100000000E-03 0.  1.
         11   -1    0    0    0    0 -0.00000000000E+00 -0.00000000000E+00 -0.45593999997E+02  0.45594000000E+02  0.51100000000E-03 0. -1.
    9900012    2    1    2    0    0  0.54032839955E+01  0.40173318772E+01  0.31167054627E+02  0.59301957168E+02  0.50000023965E+02 0.  0.
         12    1    1    2    0    0 -0.54032839955E+01 -0.40173318772E+01 -0.31167054627E+02  0.31886042832E+02  0.00000000000E+00 0. -1.
         11    1    3    3    0    0  0.17693129814E+02 -0.20709790660E+01  0.16086744706E+02  0.24002482214E+02  0.51100000000E-03 0. -1.
        -11    1    3    3    0    0 -0.13577767182E+02 -0.45057238369E+01  0.19127730027E+02  0.23885714668E+02  0.51100000000E-03 0.  1.
         12    1    3    3    0    0  0.12879213634E+01  0.10594034780E+02 -0.40474201064E+01  0.11413760287E+02  0.00000000000E+00 0. -1.
</event>
<event>
 7    1  0.4489290E-013  0.5930194E+02  0.7816164E-02  0.1266605E+00
        -11   -1    0    0    0    0  0.00000000000E+00  0.00000000000E+00  0.45593999997E+02  0.45594000000E+02  0.51100000000E-03 0.  1.
         11   -1    0    0    0    0 -0.00000000000E+00 -0.00000000000E+00 -0.45593999997E+02  0.45594000000E+02  0.51100000000E-03 0. -1.
    9900012    2    1    2    0    0  0.17635416205E+02 -0.94091261753E+01  0.24843128231E+02  0.59301943793E+02  0.49999999572E+02 0.  0.
         12    1    1    2    0    0 -0.17635416205E+02  0.94091261753E+01 -0.24843128231E+02  0.31886056207E+02  0.00000000000E+00 0. -1.
         11    1    3    3    0    0 -0.33592970829E+01  0.12409495571E+02 -0.48354520230E+01  0.13735430599E+02  0.51100000000E-03 0. -1.
        -11    1    3    3    0    0  0.15511603671E+02 -0.44716499601E+01  0.11292599291E+02  0.19700972078E+02  0.51100000000E-03 0.  1.
         12    1    3    3    0    0  0.54831096175E+01 -0.17346971786E+02  0.18385980963E+02  0.25865541116E+02  0.00000000000E+00 0. -1.
</event>
<event>
 7    1  0.4489290E-013  0.5930196E+02  0.7816164E-02  0.1266605E+00
        -11   -1    0    0    0    0  0.00000000000E+00  0.00000000000E+00  0.45593999997E+02  0.45594000000E+02  0.51100000000E-03 0. -1.
         11   -1    0    0    0    0 -0.00000000000E+00 -0.00000000000E+00 -0.45593999997E+02  0.45594000000E+02  0.51100000000E-03 0.  1.
    9900012    2    1    2    0    0  0.47269164874E-01  0.20947781323E+02 -0.24039714597E+02  0.59301958310E+02  0.50000026047E+02 0.  0.
         12    1    1    2    0    0 -0.47269164874E-01 -0.20947781323E+02  0.24039714597E+02  0.31886041690E+02  0.00000000000E+00 0. -1.
         11    1    3    3    0    0  0.22904380931E+02  0.17460538048E+02 -0.71006789978E+01  0.29663120153E+02  0.51100000000E-03 0. -1.
        -11    1    3    3    0    0 -0.13760141352E+02  0.26684984291E+01 -0.14538713743E+02  0.20194964013E+02  0.51100000000E-03 0.  1.
         12    1    3    3    0    0 -0.90969704139E+01  0.81874484657E+00 -0.24003218563E+01  0.94438741440E+01  0.00000000000E+00 0. -1.
</event>
<event>
 7    1  0.4489290E-013  0.5930197E+02  0.7816164E-02  0.1266605E+00
        -11   -1    0    0    0    0  0.00000000000E+00  0.00000000000E+00  0.45593999997E+02  0.45594000000E+02  0.51100000000E-03 0.  1.
         11   -1    0    0    0    0 -0.00000000000E+00 -0.00000000000E+00 -0.45593999997E+02  0.45594000000E+02  0.51100000000E-03 0. -1.
    9900012    2    1    2    0    0  0.41751863664E+01 -0.99667135932E+01  0.29999191641E+02  0.59301967632E+02  0.50000043048E+02 0.  0.
         12    1    1    2    0    0 -0.41751863664E+01  0.99667135932E+01 -0.29999191641E+02  0.31886032368E+02  0.00000000000E+00 0. -1.
         11    1    3    3    0    0  0.17026483723E+01  0.77717861031E+01 -0.94375555609E+01  0.12343707949E+02  0.51100000000E-03 0. -1.
        -11    1    3    3    0    0  0.75297019869E+01 -0.25217187378E+01  0.62667857380E+01  0.10115734336E+02  0.51100000000E-03 0.  1.
         12    1    3    3    0    0 -0.50571639928E+01 -0.15216780958E+02  0.33169961464E+02  0.36842525347E+02  0.00000000000E+00 0. -1.
</event>
<event>
 7    1  0.4489290E-013  0.5930195E+02  0.7816164E-02  0.1266605E+00
        -11   -1    0    0    0    0  0.00000000000E+00  0.00000000000E+00  0.45593999997E+02  0.45594000000E+02  0.51100000000E-03 0. -1.
         11   -1    0    0    0    0 -0.00000000000E+00 -0.00000000000E+00 -0.45593999997E+02  0.45594000000E+02  0.51100000000E-03 0.  1.
    9900012    2    1    2    0    0 -0.27995692577E+02  0.12754426354E+02  0.83836897180E+01  0.59301945873E+02  0.50000003365E+02 0.  0.
         12    1    1    2    0    0  0.27995692577E+02 -0.12754426354E+02 -0.83836897180E+01  0.31886054127E+02  0.00000000000E+00 0. -1.
         11    1    3    3    0    0 -0.11293475104E+01  0.63543670298E+01  0.48130282123E+01  0.80510028557E+01  0.51100000000E-03 0. -1.
        -11    1    3    3    0    0  0.23147753318E+01 -0.31520056171E+01 -0.14909516294E+02  0.15413857423E+02  0.51100000000E-03 0.  1.
        -12    1    3    3    0    0 -0.29181120399E+02  0.95520649416E+01  0.18480177800E+02  0.35837085595E+02  0.00000000000E+00 0.  1.
</event>
<event>
 7    1  0.4489290E-013  0.5930197E+02  0.7816164E-02  0.1266605E+00
        -11   -1    0    0    0    0  0.00000000000E+00  0.00000000000E+00  0.45593999997E+02  0.45594000000E+02  0.51100000000E-03 0. -1.
         11   -1    0    0    0    0 -0.00000000000E+00 -0.00000000000E+00 -0.45593999997E+02  0.45594000000E+02  0.51100000000E-03 0.  1.
    9900012    2    1    2    0    0  0.28655422321E+02 -0.13628794959E+02 -0.31371259194E+01  0.59301971092E+02  0.50000049359E+02 0.  0.
         12    1    1    2    0    0 -0.28655422321E+02  0.13628794959E+02  0.31371259194E+01  0.31886028908E+02  0.00000000000E+00 0. -1.
         11    1    3    3    0    0 -0.77482891100E+01  0.97260420163E+01  0.67876327179E+01  0.14166998116E+02  0.51100000000E-03 0. -1.
        -11    1    3    3    0    0  0.66156994342E+01 -0.21401317753E+01 -0.41889213723E+01  0.81175553921E+01  0.51100000000E-03 0.  1.
         12    1    3    3    0    0  0.29788011997E+02 -0.21214705200E+02 -0.57358372650E+01  0.37017417585E+02  0.00000000000E+00 0. -1.
</event>
<event>
 7    1  0.4489290E-013  0.5930206E+02  0.7816164E-02  0.1266604E+00
        -11   -1    0    0    0    0  0.00000000000E+00  0.00000000000E+00  0.45593999997E+02  0.45594000000E+02  0.51100000000E-03 0.  1.
         11   -1    0    0    0    0 -0.00000000000E+00 -0.00000000000E+00 -0.45593999997E+02  0.45594000000E+02  0.51100000000E-03 0. -1.
    9900012    2    1    2    0    0 -0.15585828514E+02  0.10336548140E+02  0.25825395769E+02  0.59302057258E+02  0.50000206505E+02 0.  0.
         12    1    1    2    0    0  0.15585828514E+02 -0.10336548140E+02 -0.25825395769E+02  0.31885942742E+02  0.00000000000E+00 0. -1.
         11    1    3    3    0    0 -0.12536796396E+01 -0.62329035858E+01  0.18088334310E+02  0.19173122805E+02  0.51100000000E-03 0. -1.
        -11    1    3    3    0    0 -0.64605574828E+01  0.25331915121E+02  0.19722668509E+00  0.26143519757E+02  0.51100000000E-03 0.  1.
        -12    1    3    3    0    0 -0.78715913916E+01 -0.87624633949E+01  0.75398347742E+01  0.13985414695E+02  0.00000000000E+00 0.  1.
</event>
<event>
 7    1  0.4489290E-013  0.5930198E+02  0.7816164E-02  0.1266605E+00
        -11   -1    0    0    0    0  0.00000000000E+00  0.00000000000E+00  0.45593999997E+02  0.45594000000E+02  0.51100000000E-03 0.  1.
         11   -1    0    0    0    0 -0.00000000000E+00 -0.00000000000E+00 -0.45593999997E+02  0.45594000000E+02  0.51100000000E-03 0. -1.
    9900012    2    1    2    0    0  0.28825096701E+02  0.95455662402E+01  0.97321230654E+01  0.59301980273E+02  0.50000066103E+02 0.  0.
         12    1    1    2    0    0 -0.28825096701E+02 -0.95455662402E+01 -0.97321230654E+01  0.31886019727E+02  0.00000000000E+00 0. -1.
         11    1    3    3    0    0  0.83089371436E+01  0.28754451458E+01 -0.10123948013E+02  0.13408987467E+02  0.51100000000E-03 0. -1.
        -11    1    3    3    0    0 -0.45678737637E+01 -0.24500035428E+01  0.18451242500E+02  0.19165498641E+02  0.51100000000E-03 0.  1.
        -12    1    3    3    0    0  0.25084033321E+02  0.91201246372E+01  0.14048285784E+01  0.26727494166E+02  0.00000000000E+00 0.  1.
</event>
<event>
 7    1  0.4489290E-013  0.5930196E+02  0.7816164E-02  0.1266605E+00
        -11   -1    0    0    0    0  0.00000000000E+00  0.00000000000E+00  0.45593999997E+02  0.45594000000E+02  0.51100000000E-03 0.  1.
         11   -1    0    0    0    0 -0.00000000000E+00 -0.00000000000E+00 -0.45593999997E+02  0.45594000000E+02  0.51100000000E-03 0. -1.
    9900012    2    1    2    0    0  0.30829889591E+02 -0.81352714437E+01 -0.23390541040E+00  0.59301961592E+02  0.50000032032E+02 0.  0.
         12    1    1    2    0    0 -0.30829889591E+02  0.81352714437E+01  0.23390541040E+00  0.31886038408E+02  0.00000000000E+00 0. -1.
         11    1    3    3    0    0  0.10257634083E+02  0.80223984680E+01  0.15603890554E+02  0.20323861219E+02  0.51100000000E-03 0. -1.
        -11    1    3    3    0    0  0.23222424248E+02 -0.10821251072E+02 -0.19309924163E+02  0.32081983014E+02  0.51100000000E-03 0.  1.
         12    1    3    3    0    0 -0.26501687407E+01 -0.53364188401E+01  0.34721281985E+01  0.68961173582E+01  0.00000000000E+00 0. -1.
</event>
<event>
 7    1  0.4489290E-013  0.5930223E+02  0.7816164E-02  0.1266604E+00
        -11   -1    0    0    0    0  0.00000000000E+00  0.00000000000E+00  0.45593999997E+02  0.45594000000E+02  0.51100000000E-03 0. -1.
         11   -1    0    0    0    0 -0.00000000000E+00 -0.00000000000E+00 -0.45593999997E+02  0.45594000000E+02  0.51100000000E-03 0.  1.
    9900012    2    1    2    0    0 -0.35773762070E+01  0.13232667938E+02 -0.28788912662E+02  0.59302225530E+02  0.50000513390E+02 0.  0.
         12    1    1    2    0    0  0.35773762070E+01 -0.13232667938E+02  0.28788912662E+02  0.31885774470E+02  0.00000000000E+00 0. -1.
         11    1    3    3    0    0  0.27769859745E+01 -0.88429433285E+01 -0.83141952820E+01  0.12451310825E+02  0.51100000000E-03 0. -1.
        -11    1    3    3    0    0  0.19980378553E+01  0.23403114700E+02 -0.27277899886E+02  0.35996968697E+02  0.51100000000E-03 0.  1.
        -12    1    3    3    0    0 -0.83524000368E+01 -0.13275034331E+01  0.68031825055E+01  0.10853946008E+02  0.00000000000E+00 0.  1.
</event>
<event>
 7    1  0.4489290E-013  0.5930195E+02  0.7816164E-02  0.1266605E+00
        -11   -1    0    0    0    0  0.00000000000E+00  0.00000000000E+00  0.45593999997E+02  0.45594000000E+02  0.51100000000E-03 0.  1.
         11   -1    0    0    0    0 -0.00000000000E+00 -0.00000000000E+00 -0.45593999997E+02  0.45594000000E+02  0.51100000000E-03 0. -1.
    9900012    2    1    2    0    0  0.23605551921E+02 -0.69258972187E+01  0.20286200401E+02  0.59301951946E+02  0.50000014441E+02 0.  0.
         12    1    1    2    0    0 -0.23605551921E+02  0.69258972187E+01 -0.20286200401E+02  0.31886048054E+02  0.00000000000E+00 0. -1.
         11    1    3    3    0    0  0.64918596988E+01  0.69479073305E+01  0.33267984262E+01  0.10073988617E+02  0.51100000000E-03 0. -1.
        -11    1    3    3    0    0  0.18828649362E+02 -0.20651352893E+02  0.25746917193E+02  0.37998686271E+02  0.51100000000E-03 0.  1.
        -12    1    3    3    0    0 -0.17149571393E+01  0.67775483433E+01 -0.87875152185E+01  0.11229277058E+02  0.00000000000E+00 0.  1.
</event>
<event>
 7    1  0.4489290E-013  0.5930194E+02  0.7816164E-02  0.1266605E+00
        -11   -1    0    0    0    0  0.00000000000E+00  0.00000000000E+00  0.45593999997E+02  0.45594000000E+02  0.51100000000E-03 0. -1.
         11   -1    0    0    0    0 -0.00000000000E+00 -0.00000000000E+00 -0.45593999997E+02  0.45594000000E+02  0.51100000000E-03 0.  1.
    9900012    2    1    2    0    0  0.25269306597E+02 -0.14794255841E+02 -0.12621919222E+02  0.59301941814E+02  0.49999995964E+02 0.  0.
         12    1    1    2    0    0 -0.25269306597E+02  0.14794255841E+02  0.12621919222E+02  0.31886058186E+02  0.00000000000E+00 0. -1.
         11    1    3    3    0    0 -0.29936484409E+01 -0.83329998794E+01  0.81714843355E+01  0.12048816310E+02  0.51100000000E-03 0. -1.
        -11    1    3    3    0    0  0.32548679741E+02 -0.29455577744E+01 -0.85018376524E+01  0.33769425627E+02  0.51100000000E-03 0.  1.
        -12    1    3    3    0    0 -0.42857247029E+01 -0.35156981867E+01 -0.12291565905E+02  0.13483699876E+02  0.00000000000E+00 0.  1.
</event>
<event>
 7    1  0.4489290E-013  0.5930197E+02  0.7816164E-02  0.1266605E+00
        -11   -1    0    0    0    0  0.00000000000E+00  0.00000000000E+00  0.45593999997E+02  0.45594000000E+02  0.51100000000E-03 0.  1.
         11   -1    0    0    0    0 -0.00000000000E+00 -0.00000000000E+00 -0.45593999997E+02  0.45594000000E+02  0.51100000000E-03 0. -1.
    9900012    2    1    2    0    0  0.30899810272E+02 -0.78109628415E+01  0.95359057367E+00  0.59301972490E+02  0.50000051908E+02 0.  0.
         12    1    1    2    0    0 -0.30899810272E+02  0.78109628415E+01 -0.95359057367E+00  0.31886027510E+02  0.00000000000E+00 0. -1.
         11    1    3    3    0    0  0.11625003717E+02  0.31504839582E+01  0.15880181202E+02  0.19931041515E+02  0.51100000000E-03 0.  1.
        -11    1    3    3    0    0  0.18084481336E+02 -0.32279157130E+01 -0.22112215197E+02  0.28747486259E+02  0.51100000000E-03 0. -1.
         12    1    3    3    0    0  0.11903252197E+01 -0.77335310867E+01  0.71856245688E+01  0.10623444716E+02  0.00000000000E+00 0. -1.
</event>
<event>
 7    1  0.4489290E-013  0.5930199E+02  0.7816164E-02  0.1266605E+00
        -11   -1    0    0    0    0  0.00000000000E+00  0.00000000000E+00  0.45593999997E+02  0.45594000000E+02  0.51100000000E-03 0. -1.
         11   -1    0    0    0    0 -0.00000000000E+00 -0.00000000000E+00 -0.45593999997E+02  0.45594000000E+02  0.51100000000E-03 0.  1.
    9900012    2    1    2    0    0  0.28354694684E+02 -0.27974751857E+01 -0.14314445920E+02  0.59301985196E+02  0.50000075082E+02 0.  0.
         12    1    1    2    0    0 -0.28354694684E+02  0.27974751857E+01  0.14314445920E+02  0.31886014804E+02  0.00000000000E+00 0. -1.
         11    1    3    3    0    0 -0.48072327164E+01 -0.72383671423E+00  0.74009796264E+01  0.88548249937E+01  0.51100000000E-03 0. -1.
        -11    1    3    3    0    0  0.55964280744E+01 -0.64906060138E+01 -0.20820871283E+02  0.22515697965E+02  0.51100000000E-03 0.  1.
         12    1    3    3    0    0  0.27565499326E+02  0.44169675423E+01 -0.89455426328E+00  0.27931462237E+02  0.00000000000E+00 0. -1.
</event>
<event>
 7    1  0.4489290E-013  0.5930196E+02  0.7816164E-02  0.1266605E+00
        -11   -1    0    0    0    0  0.00000000000E+00  0.00000000000E+00  0.45593999997E+02  0.45594000000E+02  0.51100000000E-03 0. -1.
         11   -1    0    0    0    0 -0.00000000000E+00 -0.00000000000E+00 -0.45593999997E+02  0.45594000000E+02  0.51100000000E-03 0.  1.
    9900012    2    1    2    0    0  0.19657739159E+01  0.82337414198E+01 -0.30741844345E+02  0.59301956680E+02  0.50000023075E+02 0.  0.
         12    1    1    2    0    0 -0.19657739159E+01 -0.82337414198E+01  0.30741844345E+02  0.31886043320E+02  0.00000000000E+00 0. -1.
         11    1    3    3    0    0 -0.91167803831E+01  0.17022261340E+01 -0.16751131689E+02  0.19147158314E+02  0.51100000000E-03 0. -1.
        -11    1    3    3    0    0  0.23101566477E+02  0.56954787375E+01 -0.32500377283E+01  0.24014237386E+02  0.51100000000E-03 0.  1.
        -12    1    3    3    0    0 -0.12019012178E+02  0.83603654823E+00 -0.10740674927E+02  0.16140560980E+02  0.00000000000E+00 0.  1.
</event>
<event>
 7    1  0.4489290E-013  0.5930196E+02  0.7816164E-02  0.1266605E+00
        -11   -1    0    0    0    0  0.00000000000E+00  0.00000000000E+00  0.45593999997E+02  0.45594000000E+02  0.51100000000E-03 0. -1.
         11   -1    0    0    0    0 -0.00000000000E+00 -0.00000000000E+00 -0.45593999997E+02  0.45594000000E+02  0.51100000000E-03 0.  1.
    9900012    2    1    2    0    0  0.63298855732E+01  0.20281993223E+02 -0.23775889826E+02  0.59301958580E+02  0.50000026539E+02 0.  0.
         12    1    1    2    0    0 -0.63298855732E+01 -0.20281993223E+02  0.23775889826E+02  0.31886041420E+02  0.00000000000E+00 0. -1.
         11    1    3    3    0    0  0.41237997773E+01 -0.17194847316E+01  0.11860427028E+02  0.12674071244E+02  0.51100000000E-03 0. -1.
        -11    1    3    3    0    0 -0.71138925287E+01  0.69153605036E+01 -0.47193263565E+01  0.10986433422E+02  0.51100000000E-03 0.  1.
         12    1    3    3    0    0  0.93199783246E+01  0.15086117451E+02 -0.30916990497E+02  0.35641453914E+02  0.00000000000E+00 0. -1.
</event>
<event>
 7    1  0.4489290E-013  0.5930189E+02  0.7816164E-02  0.1266605E+00
        -11   -1    0    0    0    0  0.00000000000E+00  0.00000000000E+00  0.45593999997E+02  0.45594000000E+02  0.51100000000E-03 0.  1.
         11   -1    0    0    0    0 -0.00000000000E+00 -0.00000000000E+00 -0.45593999997E+02  0.45594000000E+02  0.51100000000E-03 0. -1.
    9900012    2    1    2    0    0  0.18485147531E+02  0.19161819520E+02  0.17545602678E+02  0.59301887351E+02  0.49999896634E+02 0.  0.
         12    1    1    2    0    0 -0.18485147531E+02 -0.19161819520E+02 -0.17545602678E+02  0.31886112649E+02  0.00000000000E+00 0. -1.
         11    1    3    3    0    0  0.25437530745E+02  0.10916438341E+01  0.15541438167E+02  0.29829447819E+02  0.51100000000E-03 0. -1.
        -11    1    3    3    0    0 -0.13027447381E+01  0.17196909608E+02 -0.71583463918E+01  0.18672781454E+02  0.51100000000E-03 0.  1.
         12    1    3    3    0    0 -0.56496384752E+01  0.87326607801E+00  0.91625109028E+01  0.10799658077E+02  0.00000000000E+00 0. -1.
</event>
<event>
 7    1  0.4489290E-013  0.5930193E+02  0.7816164E-02  0.1266605E+00
        -11   -1    0    0    0    0  0.00000000000E+00  0.00000000000E+00  0.45593999997E+02  0.45594000000E+02  0.51100000000E-03 0.  1.
         11   -1    0    0    0    0 -0.00000000000E+00 -0.00000000000E+00 -0.45593999997E+02  0.45594000000E+02  0.51100000000E-03 0. -1.
    9900012    2    1    2    0    0 -0.23551576566E+02  0.28402602752E+01  0.21306753341E+02  0.59301928195E+02  0.49999971126E+02 0.  0.
         12    1    1    2    0    0  0.23551576566E+02 -0.28402602752E+01 -0.21306753341E+02  0.31886071805E+02  0.00000000000E+00 0. -1.
         11    1    3    3    0    0 -0.16459537899E+00  0.96756052804E+01 -0.99903847671E+01  0.13908710121E+02  0.51100000000E-03 0. -1.
        -11    1    3    3    0    0 -0.11045432493E+02 -0.79129544683E+01  0.30004305108E+02  0.32937436947E+02  0.51100000000E-03 0.  1.
         12    1    3    3    0    0 -0.12341548694E+02  0.10776094632E+01  0.12928330004E+01  0.12455781127E+02  0.00000000000E+00 0. -1.
</event>
<event>
 7    1  0.4489290E-013  0.5930193E+02  0.7816164E-02  0.1266605E+00
        -11   -1    0    0    0    0  0.00000000000E+00  0.00000000000E+00  0.45593999997E+02  0.45594000000E+02  0.51100000000E-03 0.  1.
         11   -1    0    0    0    0 -0.00000000000E+00 -0.00000000000E+00 -0.45593999997E+02  0.45594000000E+02  0.51100000000E-03 0. -1.
    9900012    2    1    2    0    0 -0.13297580206E+02 -0.14924523369E+02  0.24842589691E+02  0.59301932515E+02  0.49999979004E+02 0.  0.
         12    1    1    2    0    0  0.13297580206E+02  0.14924523369E+02 -0.24842589691E+02  0.31886067485E+02  0.00000000000E+00 0. -1.
         11    1    3    3    0    0 -0.16646265885E+02  0.11431926521E+02  0.41790264895E+01  0.20621623955E+02  0.51100000000E-03 0. -1.
        -11    1    3    3    0    0 -0.72502564427E+01 -0.10969928943E+02  0.12985279820E+02  0.18480342307E+02  0.51100000000E-03 0.  1.
         12    1    3    3    0    0  0.10598942122E+02 -0.15386520946E+02  0.76782833810E+01  0.20199966253E+02  0.00000000000E+00 0. -1.
</event>
<event>
 7    1  0.4489290E-013  0.5930203E+02  0.7816164E-02  0.1266604E+00
        -11   -1    0    0    0    0  0.00000000000E+00  0.00000000000E+00  0.45593999997E+02  0.45594000000E+02  0.51100000000E-03 0.  1.
         11   -1    0    0    0    0 -0.00000000000E+00 -0.00000000000E+00 -0.45593999997E+02  0.45594000000E+02  0.51100000000E-03 0. -1.
    9900012    2    1    2    0    0  0.65493742144E+01 -0.27004279239E+02  0.15639366260E+02  0.59302028526E+02  0.50000154105E+02 0.  0.
         12    1    1    2    0    0 -0.65493742144E+01  0.27004279239E+02 -0.15639366260E+02  0.31885971474E+02  0.00000000000E+00 0. -1.
         11    1    3    3    0    0 -0.12076151673E+02 -0.27694965597E+02 -0.16062231209E+00  0.30213744528E+02  0.51100000000E-03 0. -1.
        -11    1    3    3    0    0  0.10980297291E+02 -0.74116839297E+01  0.93623045507E+01  0.16221983049E+02  0.51100000000E-03 0.  1.
         12    1    3    3    0    0  0.76452285961E+01  0.81023702874E+01  0.64376840209E+01  0.12866300949E+02  0.00000000000E+00 0. -1.
</event>
<event>
 7    1  0.4489290E-013  0.5930195E+02  0.7816164E-02  0.1266605E+00
        -11   -1    0    0    0    0  0.00000000000E+00  0.00000000000E+00  0.45593999997E+02  0.45594000000E+02  0.51100000000E-03 0. -1.
         11   -1    0    0    0    0 -0.00000000000E+00 -0.00000000000E+00 -0.45593999997E+02  0.45594000000E+02  0.51100000000E-03 0.  1.
    9900012    2    1    2    0    0  0.91055525934E+01  0.26380339808E+02  0.15423588359E+02  0.59301945144E+02  0.50000002036E+02 0.  0.
         12    1    1    2    0    0 -0.91055525934E+01 -0.26380339808E+02 -0.15423588359E+02  0.31886054856E+02  0.00000000000E+00 0. -1.
         11    1    3    3    0    0  0.11599628610E+01 -0.32412302710E+01  0.56426041391E+01  0.66098463855E+01  0.51100000000E-03 0. -1.
        -11    1    3    3    0    0  0.77891387403E+01  0.22564598254E+02 -0.14144519758E+02  0.27747057792E+02  0.51100000000E-03 0.  1.
        -12    1    3    3    0    0  0.15645099216E+00  0.70569718250E+01  0.23925503977E+02  0.24945040966E+02  0.00000000000E+00 0.  1.
</event>
<event>
 7    1  0.4489290E-013  0.5930178E+02  0.7816164E-02  0.1266605E+00
        -11   -1    0    0    0    0  0.00000000000E+00  0.00000000000E+00  0.45593999997E+02  0.45594000000E+02  0.51100000000E-03 0.  1.
         11   -1    0    0    0    0 -0.00000000000E+00 -0.00000000000E+00 -0.45593999997E+02  0.45594000000E+02  0.51100000000E-03 0. -1.
    9900012    2    1    2    0    0  0.21045245971E+02  0.63160168749E+01  0.23107073295E+02  0.59301775962E+02  0.49999693487E+02 0.  0.
         12    1    1    2    0    0 -0.21045245971E+02 -0.63160168749E+01 -0.23107073295E+02  0.31886224038E+02  0.00000000000E+00 0. -1.
         11    1    3    3    0    0  0.59526028276E+01  0.50574654536E+01 -0.10723975889E+02  0.13267068115E+02  0.51100000000E-03 0. -1.
        -11    1    3    3    0    0  0.15391307595E+02 -0.42944657653E+00  0.38283414378E+02  0.41263744263E+02  0.51100000000E-03 0.  1.
        -12    1    3    3    0    0 -0.29866445123E+00  0.16879979979E+01 -0.44523651950E+01  0.47709635845E+01  0.00000000000E+00 0.  1.
</event>
<event>
 7    1  0.4489290E-013  0.5930195E+02  0.7816164E-02  0.1266605E+00
        -11   -1    0    0    0    0  0.00000000000E+00  0.00000000000E+00  0.45593999997E+02  0.45594000000E+02  0.51100000000E-03 0.  1.
         11   -1    0    0    0    0 -0.00000000000E+00 -0.00000000000E+00 -0.45593999997E+02  0.45594000000E+02  0.51100000000E-03 0. -1.
    9900012    2    1    2    0    0 -0.79685352754E+01 -0.21711227356E+02  0.21950980731E+02  0.59301945011E+02  0.50000001793E+02 0.  0.
         12    1    1    2    0    0  0.79685352754E+01  0.21711227356E+02 -0.21950980731E+02  0.31886054989E+02  0.00000000000E+00 0. -1.
         11    1    3    3    0    0 -0.22924062953E+02  0.11558804543E+01  0.11442498520E+02  0.25647212217E+02  0.51100000000E-03 0. -1.
        -11    1    3    3    0    0  0.15693126251E+02 -0.12616278539E+02  0.18576322660E+01  0.20221164497E+02  0.51100000000E-03 0.  1.
         12    1    3    3    0    0 -0.73759857411E+00 -0.10250829271E+02  0.86508499447E+01  0.13433568296E+02  0.00000000000E+00 0. -1.
</event>
<event>
 7    1  0.4489290E-013  0.5930194E+02  0.7816164E-02  0.1266605E+00
        -11   -1    0    0    0    0  0.00000000000E+00  0.00000000000E+00  0.45593999997E+02  0.45594000000E+02  0.51100000000E-03 0. -1.
         11   -1    0    0    0    0 -0.00000000000E+00 -0.00000000000E+00 -0.45593999997E+02  0.45594000000E+02  0.51100000000E-03 0.  1.
    9900012    2    1    2    0    0 -0.88934053980E+01 -0.11220258043E+02 -0.28490945052E+02  0.59301940348E+02  0.49999993290E+02 0.  0.
         12    1    1    2    0    0  0.88934053980E+01  0.11220258043E+02  0.28490945052E+02  0.31886059652E+02  0.00000000000E+00 0. -1.
         11    1    3    3    0    0 -0.44972557157E+01 -0.12023699208E+02  0.15844100408E+01  0.12934643677E+02  0.51100000000E-03 0. -1.
        -11    1    3    3    0    0 -0.19314499186E+01 -0.12049473835E+02 -0.30931988392E+02  0.33252191276E+02  0.51100000000E-03 0.  1.
        -12    1    3    3    0    0 -0.24646997638E+01  0.12852915000E+02  0.85663329933E+00  0.13115105395E+02  0.00000000000E+00 0.  1.
</event>
<event>
 7    1  0.4489290E-013  0.5930195E+02  0.7816164E-02  0.1266605E+00
        -11   -1    0    0    0    0  0.00000000000E+00  0.00000000000E+00  0.45593999997E+02  0.45594000000E+02  0.51100000000E-03 0. -1.
         11   -1    0    0    0    0 -0.00000000000E+00 -0.00000000000E+00 -0.45593999997E+02  0.45594000000E+02  0.51100000000E-03 0.  1.
    9900012    2    1    2    0    0 -0.27546702759E+02  0.12915540702E+02  0.95440221121E+01  0.59301946895E+02  0.50000005229E+02 0.  0.
         12    1    1    2    0    0  0.27546702759E+02 -0.12915540702E+02 -0.95440221121E+01  0.31886053105E+02  0.00000000000E+00 0. -1.
         11    1    3    3    0    0  0.12709085036E+02 -0.39919381453E+01  0.39989660852E+01  0.13908563643E+02  0.51100000000E-03 0. -1.
        -11    1    3    3    0    0 -0.11341084544E+02  0.63988902896E+00 -0.15560911209E+01  0.11465211575E+02  0.51100000000E-03 0.  1.
         12    1    3    3    0    0 -0.28914703251E+02  0.16267589818E+02  0.71011471479E+01  0.33928171678E+02  0.00000000000E+00 0. -1.
</event>
<event>
 7    1  0.4489290E-013  0.5930198E+02  0.7816164E-02  0.1266605E+00
        -11   -1    0    0    0    0  0.00000000000E+00  0.00000000000E+00  0.45593999997E+02  0.45594000000E+02  0.51100000000E-03 0.  1.
         11   -1    0    0    0    0 -0.00000000000E+00 -0.00000000000E+00 -0.45593999997E+02  0.45594000000E+02  0.51100000000E-03 0. -1.
    9900012    2    1    2    0    0 -0.24674877653E+02  0.31628100440E+01  0.19946555172E+02  0.59301983977E+02  0.50000072858E+02 0.  0.
         12    1    1    2    0    0  0.24674877653E+02 -0.31628100440E+01 -0.19946555172E+02  0.31886016023E+02  0.00000000000E+00 0. -1.
         11    1    3    3    0    0 -0.57847838879E+01  0.16878661789E+02  0.21654601685E+02  0.28058416256E+02  0.51100000000E-03 0. -1.
        -11    1    3    3    0    0 -0.12611410560E+02 -0.18172530407E+02  0.28393940720E+01  0.22301360870E+02  0.51100000000E-03 0.  1.
        -12    1    3    3    0    0 -0.62786832049E+01  0.44566786619E+01 -0.45474405846E+01  0.89422068503E+01  0.00000000000E+00 0.  1.
</event>
<event>
 7    1  0.4489290E-013  0.5930196E+02  0.7816164E-02  0.1266605E+00
        -11   -1    0    0    0    0  0.00000000000E+00  0.00000000000E+00  0.45593999997E+02  0.45594000000E+02  0.51100000000E-03 0.  1.
         11   -1    0    0    0    0 -0.00000000000E+00 -0.00000000000E+00 -0.45593999997E+02  0.45594000000E+02  0.51100000000E-03 0. -1.
    9900012    2    1    2    0    0  0.17134437475E+02  0.72697009737E+01  0.25889804607E+02  0.59301961011E+02  0.50000030974E+02 0.  0.
         12    1    1    2    0    0 -0.17134437475E+02 -0.72697009737E+01 -0.25889804607E+02  0.31886038989E+02  0.00000000000E+00 0. -1.
         11    1    3    3    0    0  0.70655449325E+01  0.47159928954E+01 -0.96845827572E+01  0.12882300168E+02  0.51100000000E-03 0.  1.
        -11    1    3    3    0    0  0.58910602358E+01 -0.11765186919E+02  0.24612977040E+02  0.27909189400E+02  0.51100000000E-03 0. -1.
        -12    1    3    3    0    0  0.41778323068E+01  0.14318894998E+02  0.10961410324E+02  0.18510471442E+02  0.00000000000E+00 0.  1.
</event>
<event>
 7    1  0.4489290E-013  0.5930194E+02  0.7816164E-02  0.1266605E+00
        -11   -1    0    0    0    0  0.00000000000E+00  0.00000000000E+00  0.45593999997E+02  0.45594000000E+02  0.51100000000E-03 0.  1.
         11   -1    0    0    0    0 -0.00000000000E+00 -0.00000000000E+00 -0.45593999997E+02  0.45594000000E+02  0.51100000000E-03 0. -1.
    9900012    2    1    2    0    0  0.14063753476E+02  0.18464640916E+02  0.21862948454E+02  0.59301942841E+02  0.49999997837E+02 0.  0.
         12    1    1    2    0    0 -0.14063753476E+02 -0.18464640916E+02 -0.21862948454E+02  0.31886057159E+02  0.00000000000E+00 0. -1.
         11    1    3    3    0    0  0.63807033977E+01  0.22928353224E+02 -0.10198267173E+02  0.25892613059E+02  0.51100000000E-03 0. -1.
        -11    1    3    3    0    0  0.47878132306E+01 -0.20216648599E+01  0.13504873792E+02  0.14470380117E+02  0.51100000000E-03 0.  1.
         12    1    3    3    0    0  0.28952368479E+01 -0.24420474477E+01  0.18556341835E+02  0.18938949666E+02  0.00000000000E+00 0. -1.
</event>
<event>
 7    1  0.4489290E-013  0.5930192E+02  0.7816164E-02  0.1266605E+00
        -11   -1    0    0    0    0  0.00000000000E+00  0.00000000000E+00  0.45593999997E+02  0.45594000000E+02  0.51100000000E-03 0. -1.
         11   -1    0    0    0    0 -0.00000000000E+00 -0.00000000000E+00 -0.45593999997E+02  0.45594000000E+02  0.51100000000E-03 0.  1.
    9900012    2    1    2    0    0 -0.18186830290E+02  0.12738998617E+02 -0.22884033261E+02  0.59301923727E+02  0.49999962977E+02 0.  0.
         12    1    1    2    0    0  0.18186830290E+02 -0.12738998617E+02  0.22884033261E+02  0.31886076273E+02  0.00000000000E+00 0. -1.
         11    1    3    3    0    0 -0.69923437409E+00 -0.25220744707E+01  0.14607322115E+02  0.14839934231E+02  0.51100000000E-03 0. -1.
        -11    1    3    3    0    0 -0.16101218195E+02  0.14844345572E+02 -0.36876526705E+02  0.42889183309E+02  0.51100000000E-03 0.  1.
        -12    1    3    3    0    0 -0.13863777205E+01  0.41672751531E+00 -0.61482867191E+00  0.15728061870E+01  0.00000000000E+00 0.  1.
</event>
<event>
 7    1  0.4489290E-013  0.5930195E+02  0.7816164E-02  0.1266605E+00
        -11   -1    0    0    0    0  0.00000000000E+00  0.00000000000E+00  0.45593999997E+02  0.45594000000E+02  0.51100000000E-03 0. -1.
         11   -1    0    0    0    0 -0.00000000000E+00 -0.00000000000E+00 -0.45593999997E+02  0.45594000000E+02  0.51100000000E-03 0.  1.
    9900012    2    1    2    0    0 -0.69984215928E+01 -0.83511334292E-01 -0.31108443447E+02  0.59301950815E+02  0.50000012378E+02 0.  0.
         12    1    1    2    0    0  0.69984215928E+01  0.83511334292E-01  0.31108443447E+02  0.31886049185E+02  0.00000000000E+00 0. -1.
         11    1    3    3    0    0 -0.25495806129E+02 -0.88943770855E+01 -0.12134901519E+02  0.29604086019E+02  0.51100000000E-03 0. -1.
        -11    1    3    3    0    0  0.90911385441E+01  0.30144450456E+00 -0.12494296146E+02  0.15454679074E+02  0.51100000000E-03 0.  1.
         12    1    3    3    0    0  0.94062459918E+01  0.85094212466E+01 -0.64792457821E+01  0.14243185722E+02  0.00000000000E+00 0. -1.
</event>
<event>
 7    1  0.4489290E-013  0.5930193E+02  0.7816164E-02  0.1266605E+00
        -11   -1    0    0    0    0  0.00000000000E+00  0.00000000000E+00  0.45593999997E+02  0.45594000000E+02  0.51100000000E-03 0. -1.
         11   -1    0    0    0    0 -0.00000000000E+00 -0.00000000000E+00 -0.45593999997E+02  0.45594000000E+02  0.51100000000E-03 0.  1.
    9900012    2    1    2    0    0  0.13307226274E+02 -0.92054311917E+01 -0.27475427519E+02  0.59301931696E+02  0.49999977510E+02 0.  0.
         12    1    1    2    0    0 -0.13307226274E+02  0.92054311917E+01  0.27475427519E+02  0.31886068304E+02  0.00000000000E+00 0. -1.
         11    1    3    3    0    0  0.10778519142E+02 -0.20661635216E+01  0.11078649818E+01  0.11030542674E+02  0.51100000000E-03 0. -1.
        -11    1    3    3    0    0 -0.17619702683E+02 -0.63601362104E+01 -0.13469390059E+02  0.23072271757E+02  0.51100000000E-03 0.  1.
        -12    1    3    3    0    0  0.20148409814E+02 -0.77913145966E+00 -0.15113902443E+02  0.25199117265E+02  0.00000000000E+00 0.  1.
</event>
<event>
 7    1  0.4489290E-013  0.5930193E+02  0.7816164E-02  0.1266605E+00
        -11   -1    0    0    0    0  0.00000000000E+00  0.00000000000E+00  0.45593999997E+02  0.45594000000E+02  0.51100000000E-03 0.  1.
         11   -1    0    0    0    0 -0.00000000000E+00 -0.00000000000E+00 -0.45593999997E+02  0.45594000000E+02  0.51100000000E-03 0. -1.
    9900012    2    1    2    0    0 -0.23892546730E+02 -0.44739055764E+01  0.20636173898E+02  0.59301932612E+02  0.49999979180E+02 0.  0.
         12    1    1    2    0    0  0.23892546730E+02  0.44739055764E+01 -0.20636173898E+02  0.31886067388E+02  0.00000000000E+00 0. -1.
         11    1    3    3    0    0  0.10352084299E+02 -0.44905783463E+01 -0.30876316772E+01  0.11698906481E+02  0.51100000000E-03 0. -1.
        -11    1    3    3    0    0 -0.10432434224E+02  0.37804991985E+00  0.21230091423E+02  0.23657882146E+02  0.51100000000E-03 0.  1.
         12    1    3    3    0    0 -0.23812196805E+02 -0.36137714994E+00  0.24937141531E+01  0.23945143984E+02  0.00000000000E+00 0. -1.
</event>
<event>
 7    1  0.4489290E-013  0.5930193E+02  0.7816164E-02  0.1266605E+00
        -11   -1    0    0    0    0  0.00000000000E+00  0.00000000000E+00  0.45593999997E+02  0.45594000000E+02  0.51100000000E-03 0. -1.
         11   -1    0    0    0    0 -0.00000000000E+00 -0.00000000000E+00 -0.45593999997E+02  0.45594000000E+02  0.51100000000E-03 0.  1.
    9900012    2    1    2    0    0  0.56084329665E+01 -0.23502689176E+02  0.20806017867E+02  0.59301932536E+02  0.49999979042E+02 0.  0.
         12    1    1    2    0    0 -0.56084329665E+01  0.23502689176E+02 -0.20806017867E+02  0.31886067464E+02  0.00000000000E+00 0. -1.
         11    1    3    3    0    0  0.10780425850E+02 -0.28215784927E+02 -0.21109322725E+01  0.30278773685E+02  0.51100000000E-03 0.  1.
        -11    1    3    3    0    0 -0.15783665383E+01 -0.32132718139E+01  0.19248583544E+02  0.19578670164E+02  0.51100000000E-03 0. -1.
         12    1    3    3    0    0 -0.35936263447E+01  0.79263675650E+01  0.36683665962E+01  0.94444886873E+01  0.00000000000E+00 0. -1.
</event>
<event>
 7    1  0.4489290E-013  0.5930196E+02  0.7816164E-02  0.1266605E+00
        -11   -1    0    0    0    0  0.00000000000E+00  0.00000000000E+00  0.45593999997E+02  0.45594000000E+02  0.51100000000E-03 0. -1.
         11   -1    0    0    0    0 -0.00000000000E+00 -0.00000000000E+00 -0.45593999997E+02  0.45594000000E+02  0.51100000000E-03 0.  1.
    9900012    2    1    2    0    0 -0.25560215303E+02  0.17298811547E+02 -0.80091380382E+01  0.59301956354E+02  0.50000022480E+02 0.  0.
         12    1    1    2    0    0  0.25560215303E+02 -0.17298811547E+02  0.80091380382E+01  0.31886043646E+02  0.00000000000E+00 0. -1.
         11    1    3    3    0    0 -0.79276028989E+01  0.17689914586E+02 -0.98085098157E+01  0.21725257901E+02  0.51100000000E-03 0. -1.
        -11    1    3    3    0    0 -0.14361779626E+02 -0.14258938786E+02 -0.62889681945E+01  0.21192667849E+02  0.51100000000E-03 0.  1.
         12    1    3    3    0    0 -0.32708327779E+01  0.13867835747E+02  0.80883399720E+01  0.16384030605E+02  0.00000000000E+00 0. -1.
</event>
<event>
 7    1  0.4489290E-013  0.5930195E+02  0.7816164E-02  0.1266605E+00
        -11   -1    0    0    0    0  0.00000000000E+00  0.00000000000E+00  0.45593999997E+02  0.45594000000E+02  0.51100000000E-03 0.  1.
         11   -1    0    0    0    0 -0.00000000000E+00 -0.00000000000E+00 -0.45593999997E+02  0.45594000000E+02  0.51100000000E-03 0. -1.
    9900012    2    1    2    0    0  0.25191867065E+02 -0.66842803606E+01  0.18368727714E+02  0.59301954024E+02  0.50000018230E+02 0.  0.
         12    1    1    2    0    0 -0.25191867065E+02  0.66842803606E+01 -0.18368727714E+02  0.31886045976E+02  0.00000000000E+00 0. -1.
         11    1    3    3    0    0 -0.21164111152E+01 -0.21118061822E+02  0.12669462516E+02  0.24717746901E+02  0.51100000000E-03 0. -1.
        -11    1    3    3    0    0  0.10527915857E+02  0.13616116388E+02  0.15634959400E+01  0.17282365509E+02  0.51100000000E-03 0.  1.
         12    1    3    3    0    0  0.16780362323E+02  0.81766507397E+00  0.41357692580E+01  0.17301841614E+02  0.00000000000E+00 0. -1.
</event>
<event>
 7    1  0.4489290E-013  0.5930192E+02  0.7816164E-02  0.1266605E+00
        -11   -1    0    0    0    0  0.00000000000E+00  0.00000000000E+00  0.45593999997E+02  0.45594000000E+02  0.51100000000E-03 0. -1.
         11   -1    0    0    0    0 -0.00000000000E+00 -0.00000000000E+00 -0.45593999997E+02  0.45594000000E+02  0.51100000000E-03 0.  1.
    9900012    2    1    2    0    0  0.65075845367E+01  0.89281460657E+01 -0.29910899130E+02  0.59301916273E+02  0.49999949382E+02 0.  0.
         12    1    1    2    0    0 -0.65075845367E+01 -0.89281460657E+01  0.29910899130E+02  0.31886083727E+02  0.00000000000E+00 0. -1.
         11    1    3    3    0    0  0.12550793505E+02 -0.52047077776E+01  0.80162403242E+01  0.15775661947E+02  0.51100000000E-03 0. -1.
        -11    1    3    3    0    0 -0.86018517035E+01  0.23581239122E+01 -0.20313992818E+02  0.22185826682E+02  0.51100000000E-03 0.  1.
         12    1    3    3    0    0  0.25586427348E+01  0.11774729931E+02 -0.17613146636E+02  0.21340427644E+02  0.00000000000E+00 0. -1.
</event>
<event>
 7    1  0.4489290E-013  0.5930194E+02  0.7816164E-02  0.1266605E+00
        -11   -1    0    0    0    0  0.00000000000E+00  0.00000000000E+00  0.45593999997E+02  0.45594000000E+02  0.51100000000E-03 0.  1.
         11   -1    0    0    0    0 -0.00000000000E+00 -0.00000000000E+00 -0.45593999997E+02  0.45594000000E+02  0.51100000000E-03 0. -1.
    9900012    2    1    2    0    0  0.75915212396E+01 -0.23444203765E+02  0.20235084035E+02  0.59301944885E+02  0.50000001563E+02 0.  0.
         12    1    1    2    0    0 -0.75915212396E+01  0.23444203765E+02 -0.20235084035E+02  0.31886055115E+02  0.00000000000E+00 0. -1.
         11    1    3    3    0    0 -0.38472698083E+01 -0.67438469715E+01 -0.17095395979E+01  0.79500618143E+01  0.51100000000E-03 0. -1.
        -11    1    3    3    0    0  0.75853265082E+01 -0.13457247090E+02  0.34512700015E+02  0.37812182429E+02  0.51100000000E-03 0.  1.
        -12    1    3    3    0    0  0.38534645398E+01 -0.32431097041E+01 -0.12568076382E+02  0.13539700641E+02  0.00000000000E+00 0.  1.
</event>
<event>
 7    1  0.4489290E-013  0.5930192E+02  0.7816164E-02  0.1266605E+00
        -11   -1    0    0    0    0  0.00000000000E+00  0.00000000000E+00  0.45593999997E+02  0.45594000000E+02  0.51100000000E-03 0. -1.
         11   -1    0    0    0    0 -0.00000000000E+00 -0.00000000000E+00 -0.45593999997E+02  0.45594000000E+02  0.51100000000E-03 0.  1.
    9900012    2    1    2    0    0  0.31547882778E+02 -0.41524633659E+01  0.20519298056E+01  0.59301917210E+02  0.49999951091E+02 0.  0.
         12    1    1    2    0    0 -0.31547882778E+02  0.41524633659E+01 -0.20519298056E+01  0.31886082790E+02  0.00000000000E+00 0. -1.
         11    1    3    3    0    0 -0.14139709741E+01 -0.83847588616E+01  0.11942906282E+01  0.85866073306E+01  0.51100000000E-03 0. -1.
        -11    1    3    3    0    0  0.38918695601E+02  0.55641926596E+00  0.90285963363E+01  0.39956101183E+02  0.51100000000E-03 0.  1.
        -12    1    3    3    0    0 -0.59568418493E+01  0.36758762298E+01 -0.81709571588E+01  0.10759208696E+02  0.00000000000E+00 0.  1.
</event>
<event>
 7    1  0.4489290E-013  0.5930195E+02  0.7816164E-02  0.1266605E+00
        -11   -1    0    0    0    0  0.00000000000E+00  0.00000000000E+00  0.45593999997E+02  0.45594000000E+02  0.51100000000E-03 0.  1.
         11   -1    0    0    0    0 -0.00000000000E+00 -0.00000000000E+00 -0.45593999997E+02  0.45594000000E+02  0.51100000000E-03 0. -1.
    9900012    2    1    2    0    0  0.28087900684E+02 -0.54534035538E+00  0.15082864303E+02  0.59301947304E+02  0.50000005976E+02 0.  0.
         12    1    1    2    0    0 -0.28087900684E+02  0.54534035538E+00 -0.15082864303E+02  0.31886052696E+02  0.00000000000E+00 0. -1.
         11    1    3    3    0    0 -0.10840030933E+01 -0.24699065639E+01 -0.12821058977E+02  0.13101719532E+02  0.51100000000E-03 0. -1.
        -11    1    3    3    0    0  0.18775997468E+02  0.74279850386E+01  0.27896704043E+02  0.34437467087E+02  0.51100000000E-03 0.  1.
        -12    1    3    3    0    0  0.10395906309E+02 -0.55034188300E+01  0.72192372372E-02  0.11762760685E+02  0.00000000000E+00 0.  1.
</event>
<event>
 7    1  0.4489290E-013  0.5930193E+02  0.7816164E-02  0.1266605E+00
        -11   -1    0    0    0    0  0.00000000000E+00  0.00000000000E+00  0.45593999997E+02  0.45594000000E+02  0.51100000000E-03 0. -1.
         11   -1    0    0    0    0 -0.00000000000E+00 -0.00000000000E+00 -0.45593999997E+02  0.45594000000E+02  0.51100000000E-03 0.  1.
    9900012    2    1    2    0    0  0.29763749915E+02 -0.53303583922E+01  0.10120677934E+02  0.59301926999E+02  0.49999968944E+02 0.  0.
         12    1    1    2    0    0 -0.29763749915E+02  0.53303583922E+01 -0.10120677934E+02  0.31886073001E+02  0.00000000000E+00 0. -1.
         11    1    3    3    0    0  0.39193046324E+02  0.51342039369E+01  0.96389133763E+00  0.39539651199E+02  0.51100000000E-03 0. -1.
        -11    1    3    3    0    0 -0.90976143562E+00 -0.52686528973E+01 -0.10928914352E+01  0.54571770332E+01  0.51100000000E-03 0.  1.
         12    1    3    3    0    0 -0.85195349732E+01 -0.51959094319E+01  0.10249678031E+02  0.14305098767E+02  0.00000000000E+00 0. -1.
</event>
<event>
 7    1  0.4489290E-013  0.5930218E+02  0.7816164E-02  0.1266604E+00
        -11   -1    0    0    0    0  0.00000000000E+00  0.00000000000E+00  0.45593999997E+02  0.45594000000E+02  0.51100000000E-03 0.  1.
         11   -1    0    0    0    0 -0.00000000000E+00 -0.00000000000E+00 -0.45593999997E+02  0.45594000000E+02  0.51100000000E-03 0. -1.
    9900012    2    1    2    0    0  0.21771837449E+02 -0.22995196346E+02 -0.37300988994E+01  0.59302178720E+02  0.50000428021E+02 0.  0.
         12    1    1    2    0    0 -0.21771837449E+02  0.22995196346E+02  0.37300988994E+01  0.31885821280E+02  0.00000000000E+00 0. -1.
         11    1    3    3    0    0 -0.80361994609E+01  0.53742464584E+01  0.18457126145E+01  0.98422396886E+01  0.51100000000E-03 0. -1.
        -11    1    3    3    0    0  0.26042198644E+02 -0.80754003080E+01  0.23125881861E+01  0.27363411058E+02  0.51100000000E-03 0.  1.
         12    1    3    3    0    0  0.37658382658E+01 -0.20294042496E+02 -0.78883997000E+01  0.22096527974E+02  0.00000000000E+00 0. -1.
</event>
<event>
 7    1  0.4489290E-013  0.5930196E+02  0.7816164E-02  0.1266605E+00
        -11   -1    0    0    0    0  0.00000000000E+00  0.00000000000E+00  0.45593999997E+02  0.45594000000E+02  0.51100000000E-03 0. -1.
         11   -1    0    0    0    0 -0.00000000000E+00 -0.00000000000E+00 -0.45593999997E+02  0.45594000000E+02  0.51100000000E-03 0.  1.
    9900012    2    1    2    0    0  0.29611583392E+02  0.60528966678E+01 -0.10160515753E+02  0.59301960588E+02  0.50000030201E+02 0.  0.
         12    1    1    2    0    0 -0.29611583392E+02 -0.60528966678E+01  0.10160515753E+02  0.31886039412E+02  0.00000000000E+00 0. -1.
         11    1    3    3    0    0  0.43437688294E+01 -0.11211757608E+02 -0.13878725996E+02  0.18362757740E+02  0.51100000000E-03 0. -1.
        -11    1    3    3    0    0  0.21575578672E+02  0.24419232753E+02  0.42963050082E+01  0.32867350977E+02  0.51100000000E-03 0.  1.
        -12    1    3    3    0    0  0.36922358909E+01 -0.71545784774E+01 -0.57809476501E+00  0.80718518706E+01  0.00000000000E+00 0.  1.
</event>
<event>
 7    1  0.4489290E-013  0.5930202E+02  0.7816164E-02  0.1266604E+00
        -11   -1    0    0    0    0  0.00000000000E+00  0.00000000000E+00  0.45593999997E+02  0.45594000000E+02  0.51100000000E-03 0.  1.
         11   -1    0    0    0    0 -0.00000000000E+00 -0.00000000000E+00 -0.45593999997E+02  0.45594000000E+02  0.51100000000E-03 0. -1.
    9900012    2    1    2    0    0  0.27401639136E+02  0.10855568040E+02 -0.12166452221E+02  0.59302019625E+02  0.50000137872E+02 0.  0.
         12    1    1    2    0    0 -0.27401639136E+02 -0.10855568040E+02  0.12166452221E+02  0.31885980375E+02  0.00000000000E+00 0. -1.
         11    1    3    3    0    0  0.20601148822E+02 -0.96589258753E+01 -0.21876038181E+01  0.22857991875E+02  0.51100000000E-03 0.  1.
        -11    1    3    3    0    0 -0.99189999151E+01  0.44048213337E+01  0.72599478836E+00  0.10877319476E+02  0.51100000000E-03 0. -1.
         12    1    3    3    0    0  0.16719490229E+02  0.16109672581E+02 -0.10704843191E+02  0.25566708274E+02  0.00000000000E+00 0. -1.
</event>
<event>
 7    1  0.4489290E-013  0.5930180E+02  0.7816164E-02  0.1266605E+00
        -11   -1    0    0    0    0  0.00000000000E+00  0.00000000000E+00  0.45593999997E+02  0.45594000000E+02  0.51100000000E-03 0.  1.
         11   -1    0    0    0    0 -0.00000000000E+00 -0.00000000000E+00 -0.45593999997E+02  0.45594000000E+02  0.51100000000E-03 0. -1.
    9900012    2    1    2    0    0 -0.14286315113E+02 -0.52987454995E+01  0.28009900560E+02  0.59301795573E+02  0.49999729253E+02 0.  0.
         12    1    1    2    0    0  0.14286315113E+02  0.52987454995E+01 -0.28009900560E+02  0.31886204427E+02  0.00000000000E+00 0. -1.
         11    1    3    3    0    0 -0.86133389970E+01 -0.67532053185E+01  0.38109582522E+01  0.11589598518E+02  0.51100000000E-03 0. -1.
        -11    1    3    3    0    0  0.99982747704E+01  0.15824041583E+02  0.58038330336E+01  0.19597200529E+02  0.51100000000E-03 0.  1.
        -12    1    3    3    0    0 -0.15671250886E+02 -0.14369581764E+02  0.18395109274E+02  0.28114996526E+02  0.00000000000E+00 0.  1.
</event>
<event>
 7    1  0.4489290E-013  0.5930189E+02  0.7816164E-02  0.1266605E+00
        -11   -1    0    0    0    0  0.00000000000E+00  0.00000000000E+00  0.45593999997E+02  0.45594000000E+02  0.51100000000E-03 0.  1.
         11   -1    0    0    0    0 -0.00000000000E+00 -0.00000000000E+00 -0.45593999997E+02  0.45594000000E+02  0.51100000000E-03 0. -1.
    9900012    2    1    2    0    0  0.31329927695E+02 -0.59240973450E+01 -0.25384682275E+00  0.59301894296E+02  0.49999909302E+02 0.  0.
         12    1    1    2    0    0 -0.31329927695E+02  0.59240973450E+01  0.25384682275E+00  0.31886105704E+02  0.00000000000E+00 0. -1.
         11    1    3    3    0    0 -0.99195447694E+00 -0.10347772675E+02 -0.99886614865E+01  0.14416439629E+02  0.51100000000E-03 0. -1.
        -11    1    3    3    0    0  0.32467887568E+02  0.87493542026E+01  0.16025550667E+02  0.37249606663E+02  0.51100000000E-03 0.  1.
        -12    1    3    3    0    0 -0.14600539613E+00 -0.43256788721E+01 -0.62907360032E+01  0.76358480041E+01  0.00000000000E+00 0.  1.
</event>
<event>
 7    1  0.4489290E-013  0.5930196E+02  0.7816164E-02  0.1266605E+00
        -11   -1    0    0    0    0  0.00000000000E+00  0.00000000000E+00  0.45593999997E+02  0.45594000000E+02  0.51100000000E-03 0. -1.
         11   -1    0    0    0    0 -0.00000000000E+00 -0.00000000000E+00 -0.45593999997E+02  0.45594000000E+02  0.51100000000E-03 0.  1.
    9900012    2    1    2    0    0 -0.27174047114E+02 -0.16360248091E+02 -0.32608085214E+01  0.59301961889E+02  0.50000032575E+02 0.  0.
         12    1    1    2    0    0  0.27174047114E+02  0.16360248091E+02  0.32608085214E+01  0.31886038111E+02  0.00000000000E+00 0. -1.
         11    1    3    3    0    0  0.23503470378E+01  0.61825041023E+01 -0.14669281561E+02  0.16091466991E+02  0.51100000000E-03 0. -1.
        -11    1    3    3    0    0 -0.85177357301E+01  0.25985441315E+01  0.28223556959E+01  0.93418384436E+01  0.51100000000E-03 0.  1.
         12    1    3    3    0    0 -0.21006658422E+02 -0.25141296325E+02  0.85861173432E+01  0.33868656454E+02  0.00000000000E+00 0. -1.
</event>
<event>
 7    1  0.4489290E-013  0.5930196E+02  0.7816164E-02  0.1266605E+00
        -11   -1    0    0    0    0  0.00000000000E+00  0.00000000000E+00  0.45593999997E+02  0.45594000000E+02  0.51100000000E-03 0.  1.
         11   -1    0    0    0    0 -0.00000000000E+00 -0.00000000000E+00 -0.45593999997E+02  0.45594000000E+02  0.51100000000E-03 0. -1.
    9900012    2    1    2    0    0 -0.28647276393E+01 -0.31671343140E+02 -0.23321300795E+01  0.59301961183E+02  0.50000031287E+02 0.  0.
         12    1    1    2    0    0  0.28647276393E+01  0.31671343140E+02  0.23321300795E+01  0.31886038817E+02  0.00000000000E+00 0. -1.
         11    1    3    3    0    0 -0.34844836239E+01  0.63588624136E+00 -0.20268283033E+02  0.20575453210E+02  0.51100000000E-03 0. -1.
        -11    1    3    3    0    0  0.56660451272E+01 -0.14165881394E+02  0.10292537018E+02  0.18404145772E+02  0.51100000000E-03 0.  1.
         12    1    3    3    0    0 -0.50462891425E+01 -0.18141347987E+02  0.76436159357E+01  0.20322362202E+02  0.00000000000E+00 0. -1.
</event>
<event>
 7    1  0.5992152E-013  0.5930195E+02  0.7816164E-02  0.1266605E+00
        -11   -1    0    0    0    0  0.00000000000E+00  0.00000000000E+00  0.45593999997E+02  0.45594000000E+02  0.51100000000E-03 0. -1.
         11   -1    0    0    0    0 -0.00000000000E+00 -0.00000000000E+00 -0.45593999997E+02  0.45594000000E+02  0.51100000000E-03 0.  1.
    9900012    2    1    2    0    0 -0.14438655370E+02  0.57506013430E+01 -0.27841987253E+02  0.59301946012E+02  0.50000003619E+02 0.  0.
         12    1    1    2    0    0  0.14438655370E+02 -0.57506013430E+01  0.27841987253E+02  0.31886053988E+02  0.00000000000E+00 0. -1.
         11    1    3    3    0    0  0.11569745727E+02 -0.21538702572E+01  0.48448333466E+01  0.12726766427E+02  0.51100000000E-03 0. -1.
        -11    1    3    3    0    0 -0.15293377675E+02  0.14031505791E+02 -0.18908955723E+02  0.28077021962E+02  0.51100000000E-03 0.  1.
         12    1    3    3    0    0 -0.10715023421E+02 -0.61270341905E+01 -0.13777864877E+02  0.18498157623E+02  0.00000000000E+00 0. -1.
</event>
<event>
 7    1  0.4489290E-013  0.5930196E+02  0.7816164E-02  0.1266605E+00
        -11   -1    0    0    0    0  0.00000000000E+00  0.00000000000E+00  0.45593999997E+02  0.45594000000E+02  0.51100000000E-03 0.  1.
         11   -1    0    0    0    0 -0.00000000000E+00 -0.00000000000E+00 -0.45593999997E+02  0.45594000000E+02  0.51100000000E-03 0. -1.
    9900012    2    1    2    0    0  0.18819624832E+02 -0.12737246791E+02  0.22367467596E+02  0.59301963224E+02  0.50000035009E+02 0.  0.
         12    1    1    2    0    0 -0.18819624832E+02  0.12737246791E+02 -0.22367467596E+02  0.31886036776E+02  0.00000000000E+00 0. -1.
         11    1    3    3    0    0  0.60702112261E+01 -0.80571140100E-01 -0.14849491939E+02  0.16042486314E+02  0.51100000000E-03 0. -1.
        -11    1    3    3    0    0  0.77525959558E+01  0.39842106255E+00  0.16905868041E+02  0.18602952934E+02  0.51100000000E-03 0.  1.
         12    1    3    3    0    0  0.49968176504E+01 -0.13055096714E+02  0.20311091494E+02  0.24656523975E+02  0.00000000000E+00 0. -1.
</event>
<event>
 7    1  0.4489290E-013  0.5930195E+02  0.7816164E-02  0.1266605E+00
        -11   -1    0    0    0    0  0.00000000000E+00  0.00000000000E+00  0.45593999997E+02  0.45594000000E+02  0.51100000000E-03 0.  1.
         11   -1    0    0    0    0 -0.00000000000E+00 -0.00000000000E+00 -0.45593999997E+02  0.45594000000E+02  0.51100000000E-03 0. -1.
    9900012    2    1    2    0    0 -0.95849733812E+01 -0.15213148537E+02  0.26332652971E+02  0.59301949514E+02  0.50000010005E+02 0.  0.
         12    1    1    2    0    0  0.95849733812E+01  0.15213148537E+02 -0.26332652971E+02  0.31886050486E+02  0.00000000000E+00 0. -1.
         11    1    3    3    0    0 -0.13570929748E+02  0.75458338349E+01  0.15907403606E+02  0.22229602611E+02  0.51100000000E-03 0. -1.
        -11    1    3    3    0    0  0.11751468802E+02 -0.23323685035E+02  0.12587014630E+02  0.28991796084E+02  0.51100000000E-03 0.  1.
        -12    1    3    3    0    0 -0.77655124349E+01  0.56470266314E+00 -0.21617652647E+01  0.80805508187E+01  0.00000000000E+00 0.  1.
</event>
<event>
 7    1  0.4489290E-013  0.5930194E+02  0.7816164E-02  0.1266605E+00
        -11   -1    0    0    0    0  0.00000000000E+00  0.00000000000E+00  0.45593999997E+02  0.45594000000E+02  0.51100000000E-03 0.  1.
         11   -1    0    0    0    0 -0.00000000000E+00 -0.00000000000E+00 -0.45593999997E+02  0.45594000000E+02  0.51100000000E-03 0. -1.
    9900012    2    1    2    0    0  0.15419238497E+02 -0.26495166082E+02  0.87734890406E+01  0.59301939543E+02  0.49999991821E+02 0.  0.
         12    1    1    2    0    0 -0.15419238497E+02  0.26495166082E+02 -0.87734890406E+01  0.31886060457E+02  0.00000000000E+00 0. -1.
         11    1    3    3    0    0  0.34106471045E+01  0.16409871653E+01 -0.12543828185E+01  0.39873335783E+01  0.51100000000E-03 0. -1.
        -11    1    3    3    0    0 -0.18203325093E+01 -0.34599876069E+02 -0.36224337270E+01  0.34836576480E+02  0.51100000000E-03 0.  1.
        -12    1    3    3    0    0  0.13828923901E+02  0.64637228223E+01  0.13650305586E+02  0.20478029485E+02  0.00000000000E+00 0.  1.
</event>
<event>
 7    1  0.4489290E-013  0.5930194E+02  0.7816164E-02  0.1266605E+00
        -11   -1    0    0    0    0  0.00000000000E+00  0.00000000000E+00  0.45593999997E+02  0.45594000000E+02  0.51100000000E-03 0. -1.
         11   -1    0    0    0    0 -0.00000000000E+00 -0.00000000000E+00 -0.45593999997E+02  0.45594000000E+02  0.51100000000E-03 0.  1.
    9900012    2    1    2    0    0 -0.25690635528E+02 -0.10500581230E+02 -0.15698730468E+02  0.59301935672E+02  0.49999984762E+02 0.  0.
         12    1    1    2    0    0  0.25690635528E+02  0.10500581230E+02  0.15698730468E+02  0.31886064328E+02  0.00000000000E+00 0. -1.
         11    1    3    3    0    0 -0.21932321013E+01  0.12929057136E+02  0.10637912945E+02  0.16885969844E+02  0.51100000000E-03 0. -1.
        -11    1    3    3    0    0 -0.17705566311E+02 -0.16421734651E+02 -0.19563593945E+02  0.31078845790E+02  0.51100000000E-03 0.  1.
         12    1    3    3    0    0 -0.57918371153E+01 -0.70079037157E+01 -0.67730494679E+01  0.11337120038E+02  0.00000000000E+00 0. -1.
</event>
<event>
 7    1  0.4489290E-013  0.5930195E+02  0.7816164E-02  0.1266605E+00
        -11   -1    0    0    0    0  0.00000000000E+00  0.00000000000E+00  0.45593999997E+02  0.45594000000E+02  0.51100000000E-03 0.  1.
         11   -1    0    0    0    0 -0.00000000000E+00 -0.00000000000E+00 -0.45593999997E+02  0.45594000000E+02  0.51100000000E-03 0. -1.
    9900012    2    1    2    0    0  0.28672891067E+02 -0.84546311117E+01 -0.11095270476E+02  0.59301945113E+02  0.50000001979E+02 0.  0.
         12    1    1    2    0    0 -0.28672891067E+02  0.84546311117E+01  0.11095270476E+02  0.31886054887E+02  0.00000000000E+00 0. -1.
         11    1    3    3    0    0  0.31343767700E+02  0.30896182126E+01  0.45114543943E+01  0.31817145305E+02  0.51100000000E-03 0. -1.
        -11    1    3    3    0    0 -0.10616975951E+02 -0.39605900823E+01 -0.56614815613E+01  0.12667234342E+02  0.51100000000E-03 0.  1.
         12    1    3    3    0    0  0.79460993176E+01 -0.75836592419E+01 -0.99452433087E+01  0.14817565466E+02  0.00000000000E+00 0. -1.
</event>
<event>
 7    1  0.4489290E-013  0.5930194E+02  0.7816164E-02  0.1266605E+00
        -11   -1    0    0    0    0  0.00000000000E+00  0.00000000000E+00  0.45593999997E+02  0.45594000000E+02  0.51100000000E-03 0.  1.
         11   -1    0    0    0    0 -0.00000000000E+00 -0.00000000000E+00 -0.45593999997E+02  0.45594000000E+02  0.51100000000E-03 0. -1.
    9900012    2    1    2    0    0  0.16221297689E+02  0.24609883936E+02  0.12163228590E+02  0.59301936966E+02  0.49999987121E+02 0.  0.
         12    1    1    2    0    0 -0.16221297689E+02 -0.24609883936E+02 -0.12163228590E+02  0.31886063034E+02  0.00000000000E+00 0. -1.
         11    1    3    3    0    0  0.63401934222E+01  0.24469917764E+02  0.15676311318E+02  0.29744271126E+02  0.51100000000E-03 0.  1.
        -11    1    3    3    0    0  0.47137964997E+01 -0.89876158878E+01 -0.12249220410E+02  0.15907247333E+02  0.51100000000E-03 0. -1.
         12    1    3    3    0    0  0.51673077676E+01  0.91275820591E+01  0.87361376826E+01  0.13650418507E+02  0.00000000000E+00 0. -1.
</event>
<event>
 7    1  0.4489290E-013  0.5930194E+02  0.7816164E-02  0.1266605E+00
        -11   -1    0    0    0    0  0.00000000000E+00  0.00000000000E+00  0.45593999997E+02  0.45594000000E+02  0.51100000000E-03 0.  1.
         11   -1    0    0    0    0 -0.00000000000E+00 -0.00000000000E+00 -0.45593999997E+02  0.45594000000E+02  0.51100000000E-03 0. -1.
    9900012    2    1    2    0    0  0.26930039762E-01  0.31325157052E+02  0.59543613344E+01  0.59301943353E+02  0.49999998770E+02 0.  0.
         12    1    1    2    0    0 -0.26930039762E-01 -0.31325157052E+02 -0.59543613344E+01  0.31886056647E+02  0.00000000000E+00 0. -1.
         11    1    3    3    0    0  0.14139369611E+02 -0.36011269285E+01 -0.38090967308E+01  0.15079758165E+02  0.51100000000E-03 0. -1.
        -11    1    3    3    0    0 -0.11262365544E+02  0.36699745868E+02  0.11962027777E+02  0.40209480639E+02  0.51100000000E-03 0.  1.
         12    1    3    3    0    0 -0.28500740269E+01 -0.17734618876E+01 -0.21985697122E+01  0.40127045500E+01  0.00000000000E+00 0. -1.
</event>
<event>
 7    1  0.4489290E-013  0.5930195E+02  0.7816164E-02  0.1266605E+00
        -11   -1    0    0    0    0  0.00000000000E+00  0.00000000000E+00  0.45593999997E+02  0.45594000000E+02  0.51100000000E-03 0.  1.
         11   -1    0    0    0    0 -0.00000000000E+00 -0.00000000000E+00 -0.45593999997E+02  0.45594000000E+02  0.51100000000E-03 0. -1.
    9900012    2    1    2    0    0 -0.11165471124E+02  0.10599196343E+02  0.27923275845E+02  0.59301952229E+02  0.50000014957E+02 0.  0.
         12    1    1    2    0    0  0.11165471124E+02 -0.10599196343E+02 -0.27923275845E+02  0.31886047771E+02  0.00000000000E+00 0. -1.
         11    1    3    3    0    0 -0.41937478511E+01  0.33040767028E+01 -0.44607699495E+01  0.69572201848E+01  0.51100000000E-03 0. -1.
        -11    1    3    3    0    0 -0.18279039895E+01 -0.16148254893E+02  0.18471392161E+02  0.24602839220E+02  0.51100000000E-03 0.  1.
        -12    1    3    3    0    0 -0.51438192830E+01  0.23443374533E+02  0.13912653634E+02  0.27741892824E+02  0.00000000000E+00 0.  1.
</event>
<event>
 7    1  0.4489290E-013  0.5930192E+02  0.7816164E-02  0.1266605E+00
        -11   -1    0    0    0    0  0.00000000000E+00  0.00000000000E+00  0.45593999997E+02  0.45594000000E+02  0.51100000000E-03 0. -1.
         11   -1    0    0    0    0 -0.00000000000E+00 -0.00000000000E+00 -0.45593999997E+02  0.45594000000E+02  0.51100000000E-03 0.  1.
    9900012    2    1    2    0    0 -0.84025443701E+01 -0.22910147873E+02 -0.20524234026E+02  0.59301924516E+02  0.49999964415E+02 0.  0.
         12    1    1    2    0    0  0.84025443701E+01  0.22910147873E+02  0.20524234026E+02  0.31886075484E+02  0.00000000000E+00 0. -1.
         11    1    3    3    0    0 -0.14737795880E+02  0.82912854826E+01 -0.27260484163E+01  0.17128321068E+02  0.51100000000E-03 0. -1.
        -11    1    3    3    0    0  0.67268725460E+01 -0.33616770008E+02 -0.12774804516E+02  0.36585976421E+02  0.51100000000E-03 0.  1.
         12    1    3    3    0    0 -0.39162103566E+00  0.24153366530E+01 -0.50233810933E+01  0.55876270269E+01  0.00000000000E+00 0. -1.
</event>
<event>
 7    1  0.4489290E-013  0.5930196E+02  0.7816164E-02  0.1266605E+00
        -11   -1    0    0    0    0  0.00000000000E+00  0.00000000000E+00  0.45593999997E+02  0.45594000000E+02  0.51100000000E-03 0. -1.
         11   -1    0    0    0    0 -0.00000000000E+00 -0.00000000000E+00 -0.45593999997E+02  0.45594000000E+02  0.51100000000E-03 0.  1.
    9900012    2    1    2    0    0 -0.38961131085E+01  0.25996189959E+02  0.18048207159E+02  0.59301962752E+02  0.50000034148E+02 0.  0.
         12    1    1    2    0    0  0.38961131085E+01 -0.25996189959E+02 -0.18048207159E+02  0.31886037248E+02  0.00000000000E+00 0. -1.
         11    1    3    3    0    0  0.14682802807E+02 -0.24082441794E+01  0.46476983367E+01  0.15587990197E+02  0.51100000000E-03 0. -1.
        -11    1    3    3    0    0 -0.24077895319E+02  0.25281018484E+02  0.91412747184E+01  0.36089303711E+02  0.51100000000E-03 0.  1.
        -12    1    3    3    0    0  0.54989794031E+01  0.31234156543E+01  0.42592341040E+01  0.76246688439E+01  0.00000000000E+00 0.  1.
</event>
<event>
 7    1  0.4489290E-013  0.5930196E+02  0.7816164E-02  0.1266605E+00
        -11   -1    0    0    0    0  0.00000000000E+00  0.00000000000E+00  0.45593999997E+02  0.45594000000E+02  0.51100000000E-03 0.  1.
         11   -1    0    0    0    0 -0.00000000000E+00 -0.00000000000E+00 -0.45593999997E+02  0.45594000000E+02  0.51100000000E-03 0. -1.
    9900012    2    1    2    0    0 -0.12285773901E+02 -0.97869707058E+01  0.27748780626E+02  0.59301955056E+02  0.50000020114E+02 0.  0.
         12    1    1    2    0    0  0.12285773901E+02  0.97869707058E+01 -0.27748780626E+02  0.31886044944E+02  0.00000000000E+00 0. -1.
         11    1    3    3    0    0 -0.10267679259E+02 -0.19166651620E+02  0.18987713360E+02  0.28867265728E+02  0.51100000000E-03 0. -1.
        -11    1    3    3    0    0 -0.10377093444E+02  0.15575029207E+02  0.50070623641E+01  0.19373597418E+02  0.51100000000E-03 0.  1.
         12    1    3    3    0    0  0.83589988026E+01 -0.61953482929E+01  0.37540049011E+01  0.11061091910E+02  0.00000000000E+00 0. -1.
</event>
<event>
 7    1  0.4489290E-013  0.5930194E+02  0.7816164E-02  0.1266605E+00
        -11   -1    0    0    0    0  0.00000000000E+00  0.00000000000E+00  0.45593999997E+02  0.45594000000E+02  0.51100000000E-03 0. -1.
         11   -1    0    0    0    0 -0.00000000000E+00 -0.00000000000E+00 -0.45593999997E+02  0.45594000000E+02  0.51100000000E-03 0.  1.
    9900012    2    1    2    0    0  0.61866176125E+01 -0.22851683353E+02 -0.21359945192E+02  0.59301938341E+02  0.49999989629E+02 0.  0.
         12    1    1    2    0    0 -0.61866176125E+01  0.22851683353E+02  0.21359945192E+02  0.31886061659E+02  0.00000000000E+00 0. -1.
         11    1    3    3    0    0  0.54073858810E+01 -0.21080814389E+01 -0.31683710557E+02  0.32210888599E+02  0.51100000000E-03 0.  1.
        -11    1    3    3    0    0  0.38344059954E+01 -0.20549603485E+02  0.59174715721E+01  0.21725683943E+02  0.51100000000E-03 0. -1.
        -12    1    3    3    0    0 -0.30551742639E+01 -0.19399842910E+00  0.44062937927E+01  0.53653657994E+01  0.00000000000E+00 0.  1.
</event>
<event>
 7    1  0.4489290E-013  0.5930195E+02  0.7816164E-02  0.1266605E+00
        -11   -1    0    0    0    0  0.00000000000E+00  0.00000000000E+00  0.45593999997E+02  0.45594000000E+02  0.51100000000E-03 0. -1.
         11   -1    0    0    0    0 -0.00000000000E+00 -0.00000000000E+00 -0.45593999997E+02  0.45594000000E+02  0.51100000000E-03 0.  1.
    9900012    2    1    2    0    0 -0.21358799643E+02 -0.62318885671E+00 -0.23667146137E+02  0.59301945167E+02  0.50000002077E+02 0.  0.
         12    1    1    2    0    0  0.21358799643E+02  0.62318885671E+00  0.23667146137E+02  0.31886054833E+02  0.00000000000E+00 0. -1.
         11    1    3    3    0    0  0.19226035736E+01  0.11615935473E+02 -0.53434897805E+01  0.12929781309E+02  0.51100000000E-03 0. -1.
        -11    1    3    3    0    0 -0.61940355439E+01 -0.13260656829E+02 -0.24193303952E+02  0.28275909397E+02  0.51100000000E-03 0.  1.
        -12    1    3    3    0    0 -0.17087367673E+02  0.10215324994E+01  0.58696475949E+01  0.18096254461E+02  0.00000000000E+00 0.  1.
</event>
<event>
 7    1  0.4489290E-013  0.5930196E+02  0.7816164E-02  0.1266605E+00
        -11   -1    0    0    0    0  0.00000000000E+00  0.00000000000E+00  0.45593999997E+02  0.45594000000E+02  0.51100000000E-03 0. -1.
         11   -1    0    0    0    0 -0.00000000000E+00 -0.00000000000E+00 -0.45593999997E+02  0.45594000000E+02  0.51100000000E-03 0.  1.
    9900012    2    1    2    0    0  0.39933120866E+01 -0.20801966134E+02 -0.23833820672E+02  0.59301963177E+02  0.50000034923E+02 0.  0.
         12    1    1    2    0    0 -0.39933120866E+01  0.20801966134E+02  0.23833820672E+02  0.31886036823E+02  0.00000000000E+00 0. -1.
         11    1    3    3    0    0 -0.21282716506E+02 -0.96754501984E+01 -0.82879625307E+01  0.24804408511E+02  0.51100000000E-03 0. -1.
        -11    1    3    3    0    0  0.24746418222E+02 -0.62480369669E+01 -0.14884376970E+02  0.29546029493E+02  0.51100000000E-03 0.  1.
         12    1    3    3    0    0  0.52961037126E+00 -0.48784789687E+01 -0.66148117142E+00  0.49515251724E+01  0.00000000000E+00 0. -1.
</event>
<event>
 7    1  0.4489290E-013  0.5930197E+02  0.7816164E-02  0.1266605E+00
        -11   -1    0    0    0    0  0.00000000000E+00  0.00000000000E+00  0.45593999997E+02  0.45594000000E+02  0.51100000000E-03 0.  1.
         11   -1    0    0    0    0 -0.00000000000E+00 -0.00000000000E+00 -0.45593999997E+02  0.45594000000E+02  0.51100000000E-03 0. -1.
    9900012    2    1    2    0    0  0.66486494766E+01  0.60998813308E+01  0.30582772625E+02  0.59301967423E+02  0.50000042667E+02 0.  0.
         12    1    1    2    0    0 -0.66486494766E+01 -0.60998813308E+01 -0.30582772625E+02  0.31886032577E+02  0.00000000000E+00 0. -1.
         11    1    3    3    0    0  0.20825090493E+02 -0.20208145867E+01  0.50701389266E+01  0.21528455463E+02  0.51100000000E-03 0.  1.
        -11    1    3    3    0    0 -0.11922652187E+02 -0.60582008732E+01  0.10519556873E+02  0.17015067148E+02  0.51100000000E-03 0. -1.
         12    1    3    3    0    0 -0.22537888286E+01  0.14178896791E+02  0.14993076826E+02  0.20758444811E+02  0.00000000000E+00 0. -1.
</event>
<event>
 7    1  0.4489290E-013  0.5930195E+02  0.7816164E-02  0.1266605E+00
        -11   -1    0    0    0    0  0.00000000000E+00  0.00000000000E+00  0.45593999997E+02  0.45594000000E+02  0.51100000000E-03 0. -1.
         11   -1    0    0    0    0 -0.00000000000E+00 -0.00000000000E+00 -0.45593999997E+02  0.45594000000E+02  0.51100000000E-03 0.  1.
    9900012    2    1    2    0    0  0.27728211597E+02  0.15046862338E+02 -0.46323487675E+01  0.59301946000E+02  0.50000003598E+02 0.  0.
         12    1    1    2    0    0 -0.27728211597E+02 -0.15046862338E+02  0.46323487675E+01  0.31886054000E+02  0.00000000000E+00 0. -1.
         11    1    3    3    0    0  0.55170788083E+01 -0.92871840775E+01  0.55597012520E+01  0.12149083296E+02  0.51100000000E-03 0. -1.
        -11    1    3    3    0    0  0.18355189937E+02  0.16789092981E+02 -0.21598523396E+02  0.32943631462E+02  0.51100000000E-03 0.  1.
        -12    1    3    3    0    0  0.38559428509E+01  0.75449534346E+01  0.11406473377E+02  0.14209231242E+02  0.00000000000E+00 0.  1.
</event>
<event>
 7    1  0.4489290E-013  0.5930193E+02  0.7816164E-02  0.1266605E+00
        -11   -1    0    0    0    0  0.00000000000E+00  0.00000000000E+00  0.45593999997E+02  0.45594000000E+02  0.51100000000E-03 0. -1.
         11   -1    0    0    0    0 -0.00000000000E+00 -0.00000000000E+00 -0.45593999997E+02  0.45594000000E+02  0.51100000000E-03 0.  1.
    9900012    2    1    2    0    0 -0.24226547556E+02 -0.15048189329E+02 -0.14259998834E+02  0.59301934465E+02  0.49999982560E+02 0.  0.
         12    1    1    2    0    0  0.24226547556E+02  0.15048189329E+02  0.14259998834E+02  0.31886065535E+02  0.00000000000E+00 0. -1.
         11    1    3    3    0    0  0.10629420349E+02  0.11104048868E+01 -0.31918857849E+01  0.11153730815E+02  0.51100000000E-03 0. -1.
        -11    1    3    3    0    0 -0.17065666434E+02 -0.12857620051E+01 -0.17095062155E+02  0.24189487492E+02  0.51100000000E-03 0.  1.
        -12    1    3    3    0    0 -0.17790301471E+02 -0.14872832211E+02  0.60269491060E+01  0.23958716158E+02  0.00000000000E+00 0.  1.
</event>
<event>
 7    1  0.4489290E-013  0.5930194E+02  0.7816164E-02  0.1266605E+00
        -11   -1    0    0    0    0  0.00000000000E+00  0.00000000000E+00  0.45593999997E+02  0.45594000000E+02  0.51100000000E-03 0. -1.
         11   -1    0    0    0    0 -0.00000000000E+00 -0.00000000000E+00 -0.45593999997E+02  0.45594000000E+02  0.51100000000E-03 0.  1.
    9900012    2    1    2    0    0 -0.11346877777E+02 -0.28973273047E+02  0.69655097390E+01  0.59301944861E+02  0.50000001520E+02 0.  0.
         12    1    1    2    0    0  0.11346877777E+02  0.28973273047E+02 -0.69655097390E+01  0.31886055139E+02  0.00000000000E+00 0. -1.
         11    1    3    3    0    0  0.15652520233E+01 -0.14641893998E+02  0.17238923425E+02  0.22671911143E+02  0.51100000000E-03 0. -1.
        -11    1    3    3    0    0 -0.14117333995E+01  0.74778313180E+01 -0.92158927525E+01  0.11951720876E+02  0.51100000000E-03 0.  1.
         12    1    3    3    0    0 -0.11500396401E+02 -0.21809210367E+02 -0.10575209337E+01  0.24678312843E+02  0.00000000000E+00 0. -1.
</event>
<event>
 7    1  0.4489290E-013  0.5930188E+02  0.7816164E-02  0.1266605E+00
        -11   -1    0    0    0    0  0.00000000000E+00  0.00000000000E+00  0.45593999997E+02  0.45594000000E+02  0.51100000000E-03 0.  1.
         11   -1    0    0    0    0 -0.00000000000E+00 -0.00000000000E+00 -0.45593999997E+02  0.45594000000E+02  0.51100000000E-03 0. -1.
    9900012    2    1    2    0    0 -0.13322371189E+02 -0.22054122817E+02  0.18784419885E+02  0.59301884875E+02  0.49999892119E+02 0.  0.
         12    1    1    2    0    0  0.13322371189E+02  0.22054122817E+02 -0.18784419885E+02  0.31886115125E+02  0.00000000000E+00 0. -1.
         11    1    3    3    0    0 -0.72138100226E+01  0.45173820028E+01 -0.62687069855E+01  0.10570831695E+02  0.51100000000E-03 0. -1.
        -11    1    3    3    0    0 -0.26825349259E+01 -0.33124855678E+02  0.15554414471E+02  0.36693212821E+02  0.51100000000E-03 0.  1.
         12    1    3    3    0    0 -0.34260262406E+01  0.65533508575E+01  0.94987123993E+01  0.12037840359E+02  0.00000000000E+00 0. -1.
</event>
<event>
 7    1  0.4489290E-013  0.5930195E+02  0.7816164E-02  0.1266605E+00
        -11   -1    0    0    0    0  0.00000000000E+00  0.00000000000E+00  0.45593999997E+02  0.45594000000E+02  0.51100000000E-03 0. -1.
         11   -1    0    0    0    0 -0.00000000000E+00 -0.00000000000E+00 -0.45593999997E+02  0.45594000000E+02  0.51100000000E-03 0.  1.
    9900012    2    1    2    0    0  0.25239013789E+02  0.17811809032E+02 -0.79026432667E+01  0.59301950877E+02  0.50000012492E+02 0.  0.
         12    1    1    2    0    0 -0.25239013789E+02 -0.17811809032E+02  0.79026432667E+01  0.31886049123E+02  0.00000000000E+00 0. -1.
         11    1    3    3    0    0  0.60476602349E+01 -0.16966649947E+00  0.43693885964E+01  0.74628773275E+01  0.51100000000E-03 0. -1.
        -11    1    3    3    0    0 -0.38355989166E+01  0.25426993571E+02 -0.97747863122E+01  0.27509821315E+02  0.51100000000E-03 0.  1.
        -12    1    3    3    0    0  0.23026952471E+02 -0.74455180387E+01 -0.24972455509E+01  0.24329252235E+02  0.00000000000E+00 0.  1.
</event>
<event>
 7    1  0.4489290E-013  0.5930192E+02  0.7816164E-02  0.1266605E+00
        -11   -1    0    0    0    0  0.00000000000E+00  0.00000000000E+00  0.45593999997E+02  0.45594000000E+02  0.51100000000E-03 0.  1.
         11   -1    0    0    0    0 -0.00000000000E+00 -0.00000000000E+00 -0.45593999997E+02  0.45594000000E+02  0.51100000000E-03 0. -1.
    9900012    2    1    2    0    0 -0.12331517603E+02 -0.28137754870E+02  0.85394681478E+01  0.59301920094E+02  0.49999956351E+02 0.  0.
         12    1    1    2    0    0  0.12331517603E+02  0.28137754870E+02 -0.85394681478E+01  0.31886079906E+02  0.00000000000E+00 0. -1.
         11    1    3    3    0    0  0.23463644328E+01  0.22547165163E+00 -0.17200091894E+02  0.17360858992E+02  0.51100000000E-03 0. -1.
        -11    1    3    3    0    0 -0.11662649341E+02 -0.13321003293E+02  0.15120614480E+02  0.23283030320E+02  0.51100000000E-03 0.  1.
         12    1    3    3    0    0 -0.30152326944E+01 -0.15042223228E+02  0.10618945562E+02  0.18658030783E+02  0.00000000000E+00 0. -1.
</event>
<event>
 7    1  0.4489290E-013  0.5930196E+02  0.7816164E-02  0.1266605E+00
        -11   -1    0    0    0    0  0.00000000000E+00  0.00000000000E+00  0.45593999997E+02  0.45594000000E+02  0.51100000000E-03 0. -1.
         11   -1    0    0    0    0 -0.00000000000E+00 -0.00000000000E+00 -0.45593999997E+02  0.45594000000E+02  0.51100000000E-03 0.  1.
    9900012    2    1    2    0    0  0.79215324327E+01  0.94352815776E+01 -0.29409938817E+02  0.59301957352E+02  0.50000024301E+02 0.  0.
         12    1    1    2    0    0 -0.79215324327E+01 -0.94352815776E+01  0.29409938817E+02  0.31886042648E+02  0.00000000000E+00 0. -1.
         11    1    3    3    0    0 -0.76075603573E+00  0.22770174232E+02 -0.18503903384E+02  0.29350537048E+02  0.51100000000E-03 0.  1.
        -11    1    3    3    0    0  0.55623891278E+01 -0.74856829373E+01  0.64720768699E+01  0.11351801668E+02  0.51100000000E-03 0. -1.
        -12    1    3    3    0    0  0.31198993406E+01 -0.58492097167E+01 -0.17378112303E+02  0.18599618636E+02  0.00000000000E+00 0.  1.
</event>
<event>
 7    1  0.4489290E-013  0.5930187E+02  0.7816164E-02  0.1266605E+00
        -11   -1    0    0    0    0  0.00000000000E+00  0.00000000000E+00  0.45593999997E+02  0.45594000000E+02  0.51100000000E-03 0.  1.
         11   -1    0    0    0    0 -0.00000000000E+00 -0.00000000000E+00 -0.45593999997E+02  0.45594000000E+02  0.51100000000E-03 0. -1.
    9900012    2    1    2    0    0  0.40027889179E+01 -0.59979904129E+00  0.31628201993E+02  0.59301870738E+02  0.49999866337E+02 0.  0.
         12    1    1    2    0    0 -0.40027889179E+01  0.59979904129E+00 -0.31628201993E+02  0.31886129262E+02  0.00000000000E+00 0. -1.
         11    1    3    3    0    0 -0.13168040090E+01 -0.12933129526E+02 -0.15522545770E+01  0.13092337708E+02  0.51100000000E-03 0. -1.
        -11    1    3    3    0    0  0.14931666327E+02  0.11317961009E+01  0.25497123087E+02  0.29569222305E+02  0.51100000000E-03 0.  1.
        -12    1    3    3    0    0 -0.96120734006E+01  0.11201534384E+02  0.76833334829E+01  0.16640310725E+02  0.00000000000E+00 0.  1.
</event>
<event>
 7    1  0.4489290E-013  0.5930205E+02  0.7816164E-02  0.1266604E+00
        -11   -1    0    0    0    0  0.00000000000E+00  0.00000000000E+00  0.45593999997E+02  0.45594000000E+02  0.51100000000E-03 0.  1.
         11   -1    0    0    0    0 -0.00000000000E+00 -0.00000000000E+00 -0.45593999997E+02  0.45594000000E+02  0.51100000000E-03 0. -1.
    9900012    2    1    2    0    0  0.33782233016E+01  0.13938401947E+02  0.28478456409E+02  0.59302048220E+02  0.50000190021E+02 0.  0.
         12    1    1    2    0    0 -0.33782233016E+01 -0.13938401947E+02 -0.28478456409E+02  0.31885951780E+02  0.00000000000E+00 0. -1.
         11    1    3    3    0    0  0.89454661011E+00 -0.85690491028E+01 -0.70107909281E+01  0.11107655282E+02  0.51100000000E-03 0. -1.
        -11    1    3    3    0    0  0.12648740383E+02  0.14804399087E+02  0.17764384389E+02  0.26357811339E+02  0.51100000000E-03 0.  1.
        -12    1    3    3    0    0 -0.10165063691E+02  0.77030519624E+01  0.17724862949E+02  0.21836581599E+02  0.00000000000E+00 0.  1.
</event>
<event>
 7    1  0.4489290E-013  0.5930198E+02  0.7816164E-02  0.1266605E+00
        -11   -1    0    0    0    0  0.00000000000E+00  0.00000000000E+00  0.45593999997E+02  0.45594000000E+02  0.51100000000E-03 0.  1.
         11   -1    0    0    0    0 -0.00000000000E+00 -0.00000000000E+00 -0.45593999997E+02  0.45594000000E+02  0.51100000000E-03 0. -1.
    9900012    2    1    2    0    0  0.78663695325E+01  0.74192731314E+01  0.29996552666E+02  0.59301975549E+02  0.50000057487E+02 0.  0.
         12    1    1    2    0    0 -0.78663695325E+01 -0.74192731314E+01 -0.29996552666E+02  0.31886024451E+02  0.00000000000E+00 0. -1.
         11    1    3    3    0    0  0.17061295146E+02  0.20027441874E+02  0.15324149850E+02  0.30446933983E+02  0.51100000000E-03 0. -1.
        -11    1    3    3    0    0  0.39836733215E+01 -0.58646163217E+01  0.11813751301E+02  0.13777811793E+02  0.51100000000E-03 0.  1.
         12    1    3    3    0    0 -0.13178598935E+02 -0.67435524211E+01  0.28586515155E+01  0.15077229773E+02  0.00000000000E+00 0. -1.
</event>
<event>
 7    1  0.4489290E-013  0.5930181E+02  0.7816164E-02  0.1266605E+00
        -11   -1    0    0    0    0  0.00000000000E+00  0.00000000000E+00  0.45593999997E+02  0.45594000000E+02  0.51100000000E-03 0.  1.
         11   -1    0    0    0    0 -0.00000000000E+00 -0.00000000000E+00 -0.45593999997E+02  0.45594000000E+02  0.51100000000E-03 0. -1.
    9900012    2    1    2    0    0 -0.17000554673E+01  0.20170673400E+02  0.24637017617E+02  0.59301813476E+02  0.49999761904E+02 0.  0.
         12    1    1    2    0    0  0.17000554673E+01 -0.20170673400E+02 -0.24637017617E+02  0.31886186524E+02  0.00000000000E+00 0. -1.
         11    1    3    3    0    0 -0.12305839794E+02 -0.91631935785E+01 -0.33069196776E+00  0.15346242766E+02  0.51100000000E-03 0. -1.
        -11    1    3    3    0    0  0.97966411441E+00  0.25013266196E+02  0.21028833835E+02  0.32693043301E+02  0.51100000000E-03 0.  1.
         12    1    3    3    0    0  0.96261202120E+01  0.43206007829E+01  0.39388757493E+01  0.11262527409E+02  0.00000000000E+00 0. -1.
</event>
<event>
 7    1  0.4489290E-013  0.5930198E+02  0.7816164E-02  0.1266605E+00
        -11   -1    0    0    0    0  0.00000000000E+00  0.00000000000E+00  0.45593999997E+02  0.45594000000E+02  0.51100000000E-03 0. -1.
         11   -1    0    0    0    0 -0.00000000000E+00 -0.00000000000E+00 -0.45593999997E+02  0.45594000000E+02  0.51100000000E-03 0.  1.
    9900012    2    1    2    0    0 -0.76380310882E+01 -0.27801735296E+02 -0.13617716556E+02  0.59301980986E+02  0.50000067402E+02 0.  0.
         12    1    1    2    0    0  0.76380310882E+01  0.27801735296E+02  0.13617716556E+02  0.31886019014E+02  0.00000000000E+00 0. -1.
         11    1    3    3    0    0 -0.12113535692E+02  0.40418851431E+01  0.54956880322E+01  0.13902415966E+02  0.51100000000E-03 0. -1.
        -11    1    3    3    0    0  0.12614383376E+02 -0.72184179588E+01 -0.10992270052E+02  0.18222464898E+02  0.51100000000E-03 0.  1.
         12    1    3    3    0    0 -0.81388787720E+01 -0.24625202481E+02 -0.81211345367E+01  0.27177100122E+02  0.00000000000E+00 0. -1.
</event>
<event>
 7    1  0.4489290E-013  0.5930196E+02  0.7816164E-02  0.1266605E+00
        -11   -1    0    0    0    0  0.00000000000E+00  0.00000000000E+00  0.45593999997E+02  0.45594000000E+02  0.51100000000E-03 0.  1.
         11   -1    0    0    0    0 -0.00000000000E+00 -0.00000000000E+00 -0.45593999997E+02  0.45594000000E+02  0.51100000000E-03 0. -1.
    9900012    2    1    2    0    0  0.16197958189E+02 -0.25534485413E+02  0.10116103385E+02  0.59301963205E+02  0.50000034974E+02 0.  0.
         12    1    1    2    0    0 -0.16197958189E+02  0.25534485413E+02 -0.10116103385E+02  0.31886036795E+02  0.00000000000E+00 0. -1.
         11    1    3    3    0    0  0.66298969482E+00 -0.85901810919E+01 -0.12294204837E+01  0.87030018679E+01  0.51100000000E-03 0. -1.
        -11    1    3    3    0    0 -0.34256239387E+00  0.34729451150E+01  0.22255786479E+02  0.22527732438E+02  0.51100000000E-03 0.  1.
        -12    1    3    3    0    0  0.15877530888E+02 -0.20417249436E+02 -0.10910262610E+02  0.28071228899E+02  0.00000000000E+00 0.  1.
</event>
<event>
 7    1  0.4489290E-013  0.5930194E+02  0.7816164E-02  0.1266605E+00
        -11   -1    0    0    0    0  0.00000000000E+00  0.00000000000E+00  0.45593999997E+02  0.45594000000E+02  0.51100000000E-03 0. -1.
         11   -1    0    0    0    0 -0.00000000000E+00 -0.00000000000E+00 -0.45593999997E+02  0.45594000000E+02  0.51100000000E-03 0.  1.
    9900012    2    1    2    0    0 -0.73004922975E-01 -0.30012104984E+02  0.10769830091E+02  0.59301936971E+02  0.49999987130E+02 0.  0.
         12    1    1    2    0    0  0.73004922975E-01  0.30012104984E+02 -0.10769830091E+02  0.31886063029E+02  0.00000000000E+00 0. -1.
         11    1    3    3    0    0  0.47919260027E+01 -0.20734785706E+02  0.89656444326E+01  0.23092784013E+02  0.51100000000E-03 0. -1.
        -11    1    3    3    0    0  0.28363742870E+00  0.11525012823E+02 -0.64903665460E+01  0.13229936845E+02  0.51100000000E-03 0.  1.
        -12    1    3    3    0    0 -0.51485683543E+01 -0.20802332100E+02  0.82945522042E+01  0.22979216113E+02  0.00000000000E+00 0.  1.
</event>
<event>
 7    1  0.4489290E-013  0.5930196E+02  0.7816164E-02  0.1266605E+00
        -11   -1    0    0    0    0  0.00000000000E+00  0.00000000000E+00  0.45593999997E+02  0.45594000000E+02  0.51100000000E-03 0.  1.
         11   -1    0    0    0    0 -0.00000000000E+00 -0.00000000000E+00 -0.45593999997E+02  0.45594000000E+02  0.51100000000E-03 0. -1.
    9900012    2    1    2    0    0  0.28340783423E+02  0.13153159834E+02  0.63650323512E+01  0.59301964570E+02  0.50000037464E+02 0.  0.
         12    1    1    2    0    0 -0.28340783423E+02 -0.13153159834E+02 -0.63650323512E+01  0.31886035430E+02  0.00000000000E+00 0. -1.
         11    1    3    3    0    0  0.12393937090E+02 -0.78117754757E+01 -0.11051941947E+02  0.18351537639E+02  0.51100000000E-03 0. -1.
        -11    1    3    3    0    0 -0.40409097298E+01  0.13360623341E+02  0.13081227721E+02  0.19129917053E+02  0.51100000000E-03 0.  1.
         12    1    3    3    0    0  0.19987756063E+02  0.76043119689E+01  0.43357465768E+01  0.21820509878E+02  0.00000000000E+00 0. -1.
</event>
<event>
 7    1  0.4489290E-013  0.5930195E+02  0.7816164E-02  0.1266605E+00
        -11   -1    0    0    0    0  0.00000000000E+00  0.00000000000E+00  0.45593999997E+02  0.45594000000E+02  0.51100000000E-03 0.  1.
         11   -1    0    0    0    0 -0.00000000000E+00 -0.00000000000E+00 -0.45593999997E+02  0.45594000000E+02  0.51100000000E-03 0. -1.
    9900012    2    1    2    0    0  0.25221384084E+02 -0.19238919312E+02  0.32351539715E+01  0.59301945798E+02  0.50000003228E+02 0.  0.
         12    1    1    2    0    0 -0.25221384084E+02  0.19238919312E+02 -0.32351539715E+01  0.31886054202E+02  0.00000000000E+00 0. -1.
         11    1    3    3    0    0  0.12747227047E+02  0.14063431517E+02  0.69107509413E-02  0.18980831158E+02  0.51100000000E-03 0.  1.
        -11    1    3    3    0    0  0.10282641230E+02 -0.20073231617E+02 -0.68226821748E+01  0.23563028891E+02  0.51100000000E-03 0. -1.
         12    1    3    3    0    0  0.21915158066E+01 -0.13229119212E+02  0.10050925395E+02  0.16758085749E+02  0.00000000000E+00 0. -1.
</event>
<event>
 7    1  0.4489290E-013  0.5930206E+02  0.7816164E-02  0.1266604E+00
        -11   -1    0    0    0    0  0.00000000000E+00  0.00000000000E+00  0.45593999997E+02  0.45594000000E+02  0.51100000000E-03 0.  1.
         11   -1    0    0    0    0 -0.00000000000E+00 -0.00000000000E+00 -0.45593999997E+02  0.45594000000E+02  0.51100000000E-03 0. -1.
    9900012    2    1    2    0    0 -0.25890851483E+02  0.17695014206E+02  0.57674324722E+01  0.59302062730E+02  0.50000216484E+02 0.  0.
         12    1    1    2    0    0  0.25890851483E+02 -0.17695014206E+02 -0.57674324722E+01  0.31885937270E+02  0.00000000000E+00 0. -1.
         11    1    3    3    0    0 -0.18249948200E+02 -0.88953938881E+01  0.86015865050E+01  0.22049397552E+02  0.51100000000E-03 0. -1.
        -11    1    3    3    0    0 -0.49898730259E+01  0.29629967074E+02  0.29603764987E+01  0.30192674789E+02  0.51100000000E-03 0.  1.
        -12    1    3    3    0    0 -0.26510302568E+01 -0.30395589805E+01 -0.57945305315E+01  0.70599903894E+01  0.00000000000E+00 0.  1.
</event>
<event>
 7    1  0.4489290E-013  0.5930195E+02  0.7816164E-02  0.1266605E+00
        -11   -1    0    0    0    0  0.00000000000E+00  0.00000000000E+00  0.45593999997E+02  0.45594000000E+02  0.51100000000E-03 0.  1.
         11   -1    0    0    0    0 -0.00000000000E+00 -0.00000000000E+00 -0.45593999997E+02  0.45594000000E+02  0.51100000000E-03 0. -1.
    9900012    2    1    2    0    0  0.67446230270E+01 -0.58145030785E+01  0.30617347765E+02  0.59301947093E+02  0.50000005590E+02 0.  0.
         12    1    1    2    0    0 -0.67446230270E+01  0.58145030785E+01 -0.30617347765E+02  0.31886052907E+02  0.00000000000E+00 0. -1.
         11    1    3    3    0    0  0.39955004253E+01 -0.89654986523E+01  0.24967993577E+02  0.26828061675E+02  0.51100000000E-03 0. -1.
        -11    1    3    3    0    0  0.49663452208E+01  0.10426894099E+02 -0.98691221189E+01  0.15191585733E+02  0.51100000000E-03 0.  1.
        -12    1    3    3    0    0 -0.22172226191E+01 -0.72758985256E+01  0.15518476308E+02  0.17282299685E+02  0.00000000000E+00 0.  1.
</event>
<event>
 7    1  0.4489290E-013  0.5930194E+02  0.7816164E-02  0.1266605E+00
        -11   -1    0    0    0    0  0.00000000000E+00  0.00000000000E+00  0.45593999997E+02  0.45594000000E+02  0.51100000000E-03 0.  1.
         11   -1    0    0    0    0 -0.00000000000E+00 -0.00000000000E+00 -0.45593999997E+02  0.45594000000E+02  0.51100000000E-03 0. -1.
    9900012    2    1    2    0    0  0.34718414872E+00 -0.47924871302E+00  0.31880569208E+02  0.59301938638E+02  0.49999990170E+02 0.  0.
         12    1    1    2    0    0 -0.34718414872E+00  0.47924871302E+00 -0.31880569208E+02  0.31886061362E+02  0.00000000000E+00 0. -1.
         11    1    3    3    0    0 -0.41164824439E+01  0.16264460004E+02  0.12084275235E+00  0.16777743894E+02  0.51100000000E-03 0. -1.
        -11    1    3    3    0    0  0.10653583031E+02 -0.62175997993E+00  0.15399288877E+02  0.18735621555E+02  0.51100000000E-03 0.  1.
         12    1    3    3    0    0 -0.61899164381E+01 -0.16121948737E+02  0.16360437578E+02  0.23788573189E+02  0.00000000000E+00 0. -1.
</event>
<event>
 7    1  0.4489290E-013  0.5930194E+02  0.7816164E-02  0.1266605E+00
        -11   -1    0    0    0    0  0.00000000000E+00  0.00000000000E+00  0.45593999997E+02  0.45594000000E+02  0.51100000000E-03 0.  1.
         11   -1    0    0    0    0 -0.00000000000E+00 -0.00000000000E+00 -0.45593999997E+02  0.45594000000E+02  0.51100000000E-03 0. -1.
    9900012    2    1    2    0    0 -0.39535164861E+01 -0.23664253214E+02  0.21002223509E+02  0.59301944033E+02  0.50000000010E+02 0.  0.
         12    1    1    2    0    0  0.39535164861E+01  0.23664253214E+02 -0.21002223509E+02  0.31886055967E+02  0.00000000000E+00 0. -1.
         11    1    3    3    0    0  0.12490154872E+01 -0.75016179913E+01 -0.72167216140E+01  0.10484053762E+02  0.51100000000E-03 0. -1.
        -11    1    3    3    0    0 -0.17717478049E+02 -0.92250415543E+01  0.28139329838E+02  0.34508438158E+02  0.51100000000E-03 0.  1.
        -12    1    3    3    0    0  0.12514946076E+02 -0.69375936684E+01  0.79615284989E-01  0.14309452113E+02  0.00000000000E+00 0.  1.
</event>
<event>
 7    1  0.4489290E-013  0.5930194E+02  0.7816164E-02  0.1266605E+00
        -11   -1    0    0    0    0  0.00000000000E+00  0.00000000000E+00  0.45593999997E+02  0.45594000000E+02  0.51100000000E-03 0. -1.
         11   -1    0    0    0    0 -0.00000000000E+00 -0.00000000000E+00 -0.45593999997E+02  0.45594000000E+02  0.51100000000E-03 0.  1.
    9900012    2    1    2    0    0  0.14225661855E+01 -0.40143807970E+01 -0.31600341881E+02  0.59301944196E+02  0.50000000306E+02 0.  0.
         12    1    1    2    0    0 -0.14225661855E+01  0.40143807970E+01  0.31600341881E+02  0.31886055804E+02  0.00000000000E+00 0. -1.
         11    1    3    3    0    0  0.13131132219E+02 -0.15764359341E+02 -0.68963504063E+01  0.21644891036E+02  0.51100000000E-03 0. -1.
        -11    1    3    3    0    0 -0.14719944406E+02  0.16509376675E+02 -0.22659782868E+02  0.31665470806E+02  0.51100000000E-03 0.  1.
        -12    1    3    3    0    0  0.30113783718E+01 -0.47593981305E+01 -0.20442086066E+01  0.59915823528E+01  0.00000000000E+00 0.  1.
</event>
<event>
 7    1  0.4489290E-013  0.5930189E+02  0.7816164E-02  0.1266605E+00
        -11   -1    0    0    0    0  0.00000000000E+00  0.00000000000E+00  0.45593999997E+02  0.45594000000E+02  0.51100000000E-03 0.  1.
         11   -1    0    0    0    0 -0.00000000000E+00 -0.00000000000E+00 -0.45593999997E+02  0.45594000000E+02  0.51100000000E-03 0. -1.
    9900012    2    1    2    0    0  0.16096411184E+02 -0.26347270089E+02  0.79655912472E+01  0.59301894279E+02  0.49999909269E+02 0.  0.
         12    1    1    2    0    0 -0.16096411184E+02  0.26347270089E+02 -0.79655912472E+01  0.31886105721E+02  0.00000000000E+00 0. -1.
         11    1    3    3    0    0  0.33924962420E+01  0.12659117662E+02  0.70331378138E+01  0.14873712331E+02  0.51100000000E-03 0. -1.
        -11    1    3    3    0    0 -0.19933974158E+01 -0.18371484143E+02 -0.32151826390E+01  0.18756931053E+02  0.51100000000E-03 0.  1.
         12    1    3    3    0    0  0.14697312358E+02 -0.20634903609E+02  0.41476360724E+01  0.25671250894E+02  0.00000000000E+00 0. -1.
</event>
<event>
 7    1  0.4489290E-013  0.5930179E+02  0.7816164E-02  0.1266605E+00
        -11   -1    0    0    0    0  0.00000000000E+00  0.00000000000E+00  0.45593999997E+02  0.45594000000E+02  0.51100000000E-03 0.  1.
         11   -1    0    0    0    0 -0.00000000000E+00 -0.00000000000E+00 -0.45593999997E+02  0.45594000000E+02  0.51100000000E-03 0. -1.
    9900012    2    1    2    0    0  0.19057390589E+01  0.46430327562E+01  0.31488738516E+02  0.59301792200E+02  0.49999723102E+02 0.  0.
         12    1    1    2    0    0 -0.19057390589E+01 -0.46430327562E+01 -0.31488738516E+02  0.31886207800E+02  0.00000000000E+00 0. -1.
         11    1    3    3    0    0  0.78630510455E+01  0.16900094634E+02 -0.29483068395E+01  0.18871493949E+02  0.51100000000E-03 0. -1.
        -11    1    3    3    0    0 -0.11155470704E+02 -0.77554592959E+01  0.27442941622E+02  0.30621997333E+02  0.51100000000E-03 0.  1.
         12    1    3    3    0    0  0.51981587178E+01 -0.45016025820E+01  0.69941037332E+01  0.98083009177E+01  0.00000000000E+00 0. -1.
</event>
<event>
 7    1  0.4489290E-013  0.5930199E+02  0.7816164E-02  0.1266605E+00
        -11   -1    0    0    0    0  0.00000000000E+00  0.00000000000E+00  0.45593999997E+02  0.45594000000E+02  0.51100000000E-03 0. -1.
         11   -1    0    0    0    0 -0.00000000000E+00 -0.00000000000E+00 -0.45593999997E+02  0.45594000000E+02  0.51100000000E-03 0.  1.
    9900012    2    1    2    0    0  0.23284647296E+02  0.21758647958E+02 -0.10506113618E+01  0.59301994530E+02  0.50000092103E+02 0.  0.
         12    1    1    2    0    0 -0.23284647296E+02 -0.21758647958E+02  0.10506113618E+01  0.31886005470E+02  0.00000000000E+00 0. -1.
         11    1    3    3    0    0  0.71789491172E+01  0.33869868622E+01  0.19483304908E+02  0.21038254700E+02  0.51100000000E-03 0. -1.
        -11    1    3    3    0    0  0.18788247296E+02  0.12636793744E+02 -0.76356944176E+01  0.23895410064E+02  0.51100000000E-03 0.  1.
         12    1    3    3    0    0 -0.26825491180E+01  0.57348673512E+01 -0.12898221852E+02  0.14368329766E+02  0.00000000000E+00 0. -1.
</event>
<event>
 7    1  0.4489290E-013  0.5930195E+02  0.7816164E-02  0.1266605E+00
        -11   -1    0    0    0    0  0.00000000000E+00  0.00000000000E+00  0.45593999997E+02  0.45594000000E+02  0.51100000000E-03 0.  1.
         11   -1    0    0    0    0 -0.00000000000E+00 -0.00000000000E+00 -0.45593999997E+02  0.45594000000E+02  0.51100000000E-03 0. -1.
    9900012    2    1    2    0    0  0.78657359705E+01  0.25316453745E+01  0.30796774702E+02  0.59301947207E+02  0.50000005798E+02 0.  0.
         12    1    1    2    0    0 -0.78657359705E+01 -0.25316453745E+01 -0.30796774702E+02  0.31886052793E+02  0.00000000000E+00 0. -1.
         11    1    3    3    0    0 -0.47977202440E+01  0.17988101042E+02  0.86975387077E+01  0.20548408173E+02  0.51100000000E-03 0. -1.
        -11    1    3    3    0    0  0.20194304727E+01 -0.19028535167E+01  0.21322722733E+02  0.21502498831E+02  0.51100000000E-03 0.  1.
         12    1    3    3    0    0  0.10644025742E+02 -0.13553602150E+02  0.77651326116E+00  0.17251040203E+02  0.00000000000E+00 0. -1.
</event>
<event>
 7    1  0.4489290E-013  0.5930161E+02  0.7816164E-02  0.1266606E+00
        -11   -1    0    0    0    0  0.00000000000E+00  0.00000000000E+00  0.45593999997E+02  0.45594000000E+02  0.51100000000E-03 0. -1.
         11   -1    0    0    0    0 -0.00000000000E+00 -0.00000000000E+00 -0.45593999997E+02  0.45594000000E+02  0.51100000000E-03 0.  1.
    9900012    2    1    2    0    0  0.17288490895E+01  0.30115147291E+02  0.10335890720E+02  0.59301613367E+02  0.49999396950E+02 0.  0.
         12    1    1    2    0    0 -0.17288490895E+01 -0.30115147291E+02 -0.10335890720E+02  0.31886386633E+02  0.00000000000E+00 0. -1.
         11    1    3    3    0    0 -0.12964202088E+01  0.15545197696E+01  0.11806276892E+02  0.11978539618E+02  0.51100000000E-03 0. -1.
        -11    1    3    3    0    0  0.90810746476E+01  0.77090780542E+01 -0.16907017658E+02  0.20681949800E+02  0.51100000000E-03 0.  1.
        -12    1    3    3    0    0 -0.60558053494E+01  0.20851549467E+02  0.15436631486E+02  0.26641123949E+02  0.00000000000E+00 0.  1.
</event>
<event>
 7    1  0.4489290E-013  0.5930190E+02  0.7816164E-02  0.1266605E+00
        -11   -1    0    0    0    0  0.00000000000E+00  0.00000000000E+00  0.45593999997E+02  0.45594000000E+02  0.51100000000E-03 0.  1.
         11   -1    0    0    0    0 -0.00000000000E+00 -0.00000000000E+00 -0.45593999997E+02  0.45594000000E+02  0.51100000000E-03 0. -1.
    9900012    2    1    2    0    0  0.12005305620E+02 -0.28340913072E+02  0.83299928094E+01  0.59301898059E+02  0.49999916164E+02 0.  0.
         12    1    1    2    0    0 -0.12005305620E+02  0.28340913072E+02 -0.83299928094E+01  0.31886101941E+02  0.00000000000E+00 0. -1.
         11    1    3    3    0    0  0.18478861323E+02 -0.15072607095E+02 -0.98245661928E+01  0.25790965503E+02  0.51100000000E-03 0. -1.
        -11    1    3    3    0    0  0.30775886208E+01  0.31530573735E+01  0.13146081502E+02  0.13864803700E+02  0.51100000000E-03 0.  1.
         12    1    3    3    0    0 -0.95511443234E+01 -0.16421363351E+02  0.50084775005E+01  0.19646128857E+02  0.00000000000E+00 0. -1.
</event>
<event>
 7    1  0.4489290E-013  0.5930192E+02  0.7816164E-02  0.1266605E+00
        -11   -1    0    0    0    0  0.00000000000E+00  0.00000000000E+00  0.45593999997E+02  0.45594000000E+02  0.51100000000E-03 0.  1.
         11   -1    0    0    0    0 -0.00000000000E+00 -0.00000000000E+00 -0.45593999997E+02  0.45594000000E+02  0.51100000000E-03 0. -1.
    9900012    2    1    2    0    0 -0.21055081053E+01 -0.52742784360E+01  0.31376276396E+02  0.59301923134E+02  0.49999961895E+02 0.  0.
         12    1    1    2    0    0  0.21055081053E+01  0.52742784360E+01 -0.31376276396E+02  0.31886076866E+02  0.00000000000E+00 0. -1.
         11    1    3    3    0    0  0.93331378167E+01 -0.18381348015E+01 -0.82826120289E+01  0.12613003740E+02  0.51100000000E-03 0. -1.
        -11    1    3    3    0    0 -0.34372723282E+01 -0.24801728878E+01  0.38279473729E+02  0.38513428928E+02  0.51100000000E-03 0.  1.
         12    1    3    3    0    0 -0.80013735938E+01 -0.95597074665E+00  0.13794146968E+01  0.81754904661E+01  0.00000000000E+00 0. -1.
</event>
<event>
 7    1  0.4489290E-013  0.5930196E+02  0.7816164E-02  0.1266605E+00
        -11   -1    0    0    0    0  0.00000000000E+00  0.00000000000E+00  0.45593999997E+02  0.45594000000E+02  0.51100000000E-03 0.  1.
         11   -1    0    0    0    0 -0.00000000000E+00 -0.00000000000E+00 -0.45593999997E+02  0.45594000000E+02  0.51100000000E-03 0. -1.
    9900012    2    1    2    0    0  0.82664404451E+01  0.78046741678E+01  0.29790479963E+02  0.59301958024E+02  0.50000025525E+02 0.  0.
         12    1    1    2    0    0 -0.82664404451E+01 -0.78046741678E+01 -0.29790479963E+02  0.31886041976E+02  0.00000000000E+00 0. -1.
         11    1    3    3    0    0 -0.18793671579E+02  0.15565935331E+01  0.55761396105E+01  0.19665157209E+02  0.51100000000E-03 0. -1.
        -11    1    3    3    0    0  0.13534130070E+02  0.10563139303E+02  0.12650392552E+02  0.21325689219E+02  0.51100000000E-03 0.  1.
         12    1    3    3    0    0  0.13525981954E+02 -0.43150586680E+01  0.11563947801E+02  0.18311111596E+02  0.00000000000E+00 0. -1.
</event>
<event>
 7    1  0.4489290E-013  0.5930205E+02  0.7816164E-02  0.1266604E+00
        -11   -1    0    0    0    0  0.00000000000E+00  0.00000000000E+00  0.45593999997E+02  0.45594000000E+02  0.51100000000E-03 0.  1.
         11   -1    0    0    0    0 -0.00000000000E+00 -0.00000000000E+00 -0.45593999997E+02  0.45594000000E+02  0.51100000000E-03 0. -1.
    9900012    2    1    2    0    0 -0.14301310114E+02 -0.28118286405E+02  0.46420200784E+01  0.59302049305E+02  0.50000192000E+02 0.  0.
         12    1    1    2    0    0  0.14301310114E+02  0.28118286405E+02 -0.46420200784E+01  0.31885950695E+02  0.00000000000E+00 0. -1.
         11    1    3    3    0    0  0.10864939397E+02  0.11142769731E+01 -0.58963487612E+01  0.12411907600E+02  0.51100000000E-03 0. -1.
        -11    1    3    3    0    0 -0.30129575787E+02 -0.24915993259E+02  0.94469047346E+01  0.40222407517E+02  0.51100000000E-03 0.  1.
        -12    1    3    3    0    0  0.49633262757E+01 -0.43165701191E+01  0.10914641049E+01  0.66677341882E+01  0.00000000000E+00 0.  1.
</event>
<event>
 7    1  0.4489290E-013  0.5930199E+02  0.7816164E-02  0.1266605E+00
        -11   -1    0    0    0    0  0.00000000000E+00  0.00000000000E+00  0.45593999997E+02  0.45594000000E+02  0.51100000000E-03 0.  1.
         11   -1    0    0    0    0 -0.00000000000E+00 -0.00000000000E+00 -0.45593999997E+02  0.45594000000E+02  0.51100000000E-03 0. -1.
    9900012    2    1    2    0    0  0.92473372329E+01 -0.32580701498E+01  0.30341219944E+02  0.59301985908E+02  0.50000076379E+02 0.  0.
         12    1    1    2    0    0 -0.92473372329E+01  0.32580701498E+01 -0.30341219944E+02  0.31886014092E+02  0.00000000000E+00 0. -1.
         11    1    3    3    0    0 -0.10125291849E+02 -0.19817121299E+01  0.94677539200E+01  0.14003109746E+02  0.51100000000E-03 0. -1.
        -11    1    3    3    0    0  0.18673868771E+02  0.11613971500E+02  0.15308456338E+01  0.22044073977E+02  0.51100000000E-03 0.  1.
        -12    1    3    3    0    0  0.69876031134E+00 -0.12890329520E+02  0.19342620390E+02  0.23254802185E+02  0.00000000000E+00 0.  1.
</event>
<event>
 7    1  0.4489290E-013  0.5930194E+02  0.7816164E-02  0.1266605E+00
        -11   -1    0    0    0    0  0.00000000000E+00  0.00000000000E+00  0.45593999997E+02  0.45594000000E+02  0.51100000000E-03 0.  1.
         11   -1    0    0    0    0 -0.00000000000E+00 -0.00000000000E+00 -0.45593999997E+02  0.45594000000E+02  0.51100000000E-03 0. -1.
    9900012    2    1    2    0    0 -0.29385841605E+02  0.93612484635E-02  0.12377115156E+02  0.59301941071E+02  0.49999994607E+02 0.  0.
         12    1    1    2    0    0  0.29385841605E+02 -0.93612484635E-02 -0.12377115156E+02  0.31886058929E+02  0.00000000000E+00 0. -1.
         11    1    3    3    0    0 -0.12721932340E+01 -0.12957239460E+02 -0.27364493661E+01  0.13304010126E+02  0.51100000000E-03 0. -1.
        -11    1    3    3    0    0 -0.20822459998E+02  0.15519906759E+02 -0.31570267228E+01  0.26161214883E+02  0.51100000000E-03 0.  1.
        -12    1    3    3    0    0 -0.72911883725E+01 -0.25533060507E+01  0.18270591245E+02  0.19836716062E+02  0.00000000000E+00 0.  1.
</event>
<event>
 7    1  0.4489290E-013  0.5930192E+02  0.7816164E-02  0.1266605E+00
        -11   -1    0    0    0    0  0.00000000000E+00  0.00000000000E+00  0.45593999997E+02  0.45594000000E+02  0.51100000000E-03 0. -1.
         11   -1    0    0    0    0 -0.00000000000E+00 -0.00000000000E+00 -0.45593999997E+02  0.45594000000E+02  0.51100000000E-03 0.  1.
    9900012    2    1    2    0    0  0.26079644956E+02  0.38987443340E+01 -0.17926902069E+02  0.59301923003E+02  0.49999961657E+02 0.  0.
         12    1    1    2    0    0 -0.26079644956E+02 -0.38987443340E+01  0.17926902069E+02  0.31886076997E+02  0.00000000000E+00 0. -1.
         11    1    3    3    0    0  0.11103382183E+02 -0.11505013932E+01  0.14199152100E+02  0.18061690673E+02  0.51100000000E-03 0. -1.
        -11    1    3    3    0    0 -0.42881193657E+01  0.40329501391E+01 -0.11975455640E+02  0.13344069565E+02  0.51100000000E-03 0.  1.
         12    1    3    3    0    0  0.19264382139E+02  0.10162955880E+01 -0.20150598530E+02  0.27896162765E+02  0.00000000000E+00 0. -1.
</event>
<event>
 7    1  0.4489290E-013  0.5930195E+02  0.7816164E-02  0.1266605E+00
        -11   -1    0    0    0    0  0.00000000000E+00  0.00000000000E+00  0.45593999997E+02  0.45594000000E+02  0.51100000000E-03 0.  1.
         11   -1    0    0    0    0 -0.00000000000E+00 -0.00000000000E+00 -0.45593999997E+02  0.45594000000E+02  0.51100000000E-03 0. -1.
    9900012    2    1    2    0    0  0.29857310941E+02 -0.10984478767E+02 -0.21453500311E+01  0.59301947921E+02  0.50000007101E+02 0.  0.
         12    1    1    2    0    0 -0.29857310941E+02  0.10984478767E+02  0.21453500311E+01  0.31886052079E+02  0.00000000000E+00 0. -1.
         11    1    3    3    0    0  0.65644856829E+01 -0.26264571898E+02 -0.23655709308E+01  0.27175653356E+02  0.51100000000E-03 0. -1.
        -11    1    3    3    0    0  0.21602865243E+02  0.93427026481E+01  0.53068194290E+01  0.24127416194E+02  0.51100000000E-03 0.  1.
         12    1    3    3    0    0  0.16899600149E+01  0.59373904827E+01 -0.50865985293E+01  0.79988783710E+01  0.00000000000E+00 0. -1.
</event>
<event>
 7    1  0.4489290E-013  0.5930200E+02  0.7816164E-02  0.1266605E+00
        -11   -1    0    0    0    0  0.00000000000E+00  0.00000000000E+00  0.45593999997E+02  0.45594000000E+02  0.51100000000E-03 0.  1.
         11   -1    0    0    0    0 -0.00000000000E+00 -0.00000000000E+00 -0.45593999997E+02  0.45594000000E+02  0.51100000000E-03 0. -1.
    9900012    2    1    2    0    0  0.51804204916E+01 -0.14964220494E+02  0.27675845624E+02  0.59301998645E+02  0.50000099608E+02 0.  0.
         12    1    1    2    0    0 -0.51804204916E+01  0.14964220494E+02 -0.27675845624E+02  0.31886001355E+02  0.00000000000E+00 0. -1.
         11    1    3    3    0    0  0.24043818684E+00  0.11129230322E+02  0.18205845828E+02  0.21339409567E+02  0.51100000000E-03 0. -1.
        -11    1    3    3    0    0  0.15136933291E+02 -0.18400758132E+02  0.44524119072E+01  0.24239195971E+02  0.51100000000E-03 0.  1.
        -12    1    3    3    0    0 -0.10196950986E+02 -0.76926926839E+01  0.50175878879E+01  0.13723393106E+02  0.00000000000E+00 0.  1.
</event>
<event>
 7    1  0.4489290E-013  0.5930194E+02  0.7816164E-02  0.1266605E+00
        -11   -1    0    0    0    0  0.00000000000E+00  0.00000000000E+00  0.45593999997E+02  0.45594000000E+02  0.51100000000E-03 0.  1.
         11   -1    0    0    0    0 -0.00000000000E+00 -0.00000000000E+00 -0.45593999997E+02  0.45594000000E+02  0.51100000000E-03 0. -1.
    9900012    2    1    2    0    0  0.15289833619E+02 -0.21151135458E+02  0.18318597614E+02  0.59301944086E+02  0.50000000106E+02 0.  0.
         12    1    1    2    0    0 -0.15289833619E+02  0.21151135458E+02 -0.18318597614E+02  0.31886055914E+02  0.00000000000E+00 0. -1.
         11    1    3    3    0    0  0.87821849688E+01 -0.10451675380E+02 -0.11186645115E+02  0.17649513315E+02  0.51100000000E-03 0. -1.
        -11    1    3    3    0    0 -0.49307423899E+01  0.68408513561E+01  0.92908942481E+01  0.12547118553E+02  0.51100000000E-03 0.  1.
        -12    1    3    3    0    0  0.11438391040E+02 -0.17540311434E+02  0.20214348481E+02  0.29105312218E+02  0.00000000000E+00 0.  1.
</event>
<event>
 7    1  0.4489290E-013  0.5930195E+02  0.7816164E-02  0.1266605E+00
        -11   -1    0    0    0    0  0.00000000000E+00  0.00000000000E+00  0.45593999997E+02  0.45594000000E+02  0.51100000000E-03 0. -1.
         11   -1    0    0    0    0 -0.00000000000E+00 -0.00000000000E+00 -0.45593999997E+02  0.45594000000E+02  0.51100000000E-03 0.  1.
    9900012    2    1    2    0    0 -0.31038036791E+02  0.56450861568E+01 -0.46361150541E+01  0.59301948374E+02  0.50000007926E+02 0.  0.
         12    1    1    2    0    0  0.31038036791E+02 -0.56450861568E+01  0.46361150541E+01  0.31886051626E+02  0.00000000000E+00 0. -1.
         11    1    3    3    0    0 -0.13231645474E+01 -0.34110553546E+01  0.16952756396E+02  0.17343068146E+02  0.51100000000E-03 0. -1.
        -11    1    3    3    0    0 -0.23446855584E+02 -0.70811297780E+00 -0.18706771775E+02  0.30003329337E+02  0.51100000000E-03 0.  1.
         12    1    3    3    0    0 -0.62680166590E+01  0.97642544891E+01 -0.28820996747E+01  0.11955550891E+02  0.00000000000E+00 0. -1.
</event>
<event>
 7    1  0.4489290E-013  0.5930194E+02  0.7816164E-02  0.1266605E+00
        -11   -1    0    0    0    0  0.00000000000E+00  0.00000000000E+00  0.45593999997E+02  0.45594000000E+02  0.51100000000E-03 0. -1.
         11   -1    0    0    0    0 -0.00000000000E+00 -0.00000000000E+00 -0.45593999997E+02  0.45594000000E+02  0.51100000000E-03 0.  1.
    9900012    2    1    2    0    0 -0.29688711445E+01  0.28978470155E+02 -0.12967454828E+02  0.59301940145E+02  0.49999992918E+02 0.  0.
         12    1    1    2    0    0  0.29688711445E+01 -0.28978470155E+02  0.12967454828E+02  0.31886059855E+02  0.00000000000E+00 0. -1.
         11    1    3    3    0    0 -0.15721332984E+02  0.56213136762E+01 -0.17207754484E+01  0.16784532959E+02  0.51100000000E-03 0. -1.
        -11    1    3    3    0    0  0.16952030887E+02 -0.12871042375E+00 -0.67064715940E+01  0.18230871594E+02  0.51100000000E-03 0.  1.
        -12    1    3    3    0    0 -0.41995690477E+01  0.23485866903E+02 -0.45402077851E+01  0.24286535592E+02  0.00000000000E+00 0.  1.
</event>
<event>
 7    1  0.4489290E-013  0.5930201E+02  0.7816164E-02  0.1266605E+00
        -11   -1    0    0    0    0  0.00000000000E+00  0.00000000000E+00  0.45593999997E+02  0.45594000000E+02  0.51100000000E-03 0.  1.
         11   -1    0    0    0    0 -0.00000000000E+00 -0.00000000000E+00 -0.45593999997E+02  0.45594000000E+02  0.51100000000E-03 0. -1.
    9900012    2    1    2    0    0  0.20322185181E+02  0.17945190510E+02  0.16783774735E+02  0.59302012995E+02  0.50000125779E+02 0.  0.
         12    1    1    2    0    0 -0.20322185181E+02 -0.17945190510E+02 -0.16783774735E+02  0.31885987005E+02  0.00000000000E+00 0. -1.
         11    1    3    3    0    0  0.33421107161E+01  0.19894165797E+02 -0.13378074691E+02  0.24205793097E+02  0.51100000000E-03 0. -1.
        -11    1    3    3    0    0  0.11997442448E+02  0.46323566309E+00  0.16950359215E+02  0.20771805178E+02  0.51100000000E-03 0.  1.
         12    1    3    3    0    0  0.49826320161E+01 -0.24122109497E+01  0.13211490210E+02  0.14324414719E+02  0.00000000000E+00 0. -1.
</event>
<event>
 7    1  0.4771105E-013  0.5930200E+02  0.7816164E-02  0.1266605E+00
        -11   -1    0    0    0    0  0.00000000000E+00  0.00000000000E+00  0.45593999997E+02  0.45594000000E+02  0.51100000000E-03 0. -1.
         11   -1    0    0    0    0 -0.00000000000E+00 -0.00000000000E+00 -0.45593999997E+02  0.45594000000E+02  0.51100000000E-03 0.  1.
    9900012    2    1    2    0    0  0.30639768495E+02  0.12781657647E+00 -0.88264124861E+01  0.59301995110E+02  0.50000093161E+02 0.  0.
         12    1    1    2    0    0 -0.30639768495E+02 -0.12781657647E+00  0.88264124861E+01  0.31886004890E+02  0.00000000000E+00 0. -1.
         11    1    3    3    0    0  0.21685466689E+02 -0.14705640377E+02  0.28342542068E+01  0.26354284691E+02  0.51100000000E-03 0. -1.
        -11    1    3    3    0    0  0.17779210952E+02  0.12076458807E+02 -0.92090913115E+01  0.23382655162E+02  0.51100000000E-03 0.  1.
         12    1    3    3    0    0 -0.88249091456E+01  0.27569981458E+01 -0.24515753815E+01  0.95650552563E+01  0.00000000000E+00 0. -1.
</event>
<event>
 7    1  0.4489290E-013  0.5930194E+02  0.7816164E-02  0.1266605E+00
        -11   -1    0    0    0    0  0.00000000000E+00  0.00000000000E+00  0.45593999997E+02  0.45594000000E+02  0.51100000000E-03 0. -1.
         11   -1    0    0    0    0 -0.00000000000E+00 -0.00000000000E+00 -0.45593999997E+02  0.45594000000E+02  0.51100000000E-03 0.  1.
    9900012    2    1    2    0    0  0.49522445291E+01 -0.18406740077E+02 -0.25561461071E+02  0.59301935673E+02  0.49999984764E+02 0.  0.
         12    1    1    2    0    0 -0.49522445291E+01  0.18406740077E+02  0.25561461071E+02  0.31886064327E+02  0.00000000000E+00 0. -1.
         11    1    3    3    0    0 -0.13457274738E+02 -0.75972545890E+01  0.69979238229E+01  0.16964299537E+02  0.51100000000E-03 0. -1.
        -11    1    3    3    0    0  0.16962304035E+02 -0.13395708280E+02 -0.20048821843E+02  0.29480841508E+02  0.51100000000E-03 0.  1.
        -12    1    3    3    0    0  0.14472152327E+01  0.25862227915E+01 -0.12510563051E+02  0.12856794628E+02  0.00000000000E+00 0.  1.
</event>
<event>
 7    1  0.4489290E-013  0.5930195E+02  0.7816164E-02  0.1266605E+00
        -11   -1    0    0    0    0  0.00000000000E+00  0.00000000000E+00  0.45593999997E+02  0.45594000000E+02  0.51100000000E-03 0. -1.
         11   -1    0    0    0    0 -0.00000000000E+00 -0.00000000000E+00 -0.45593999997E+02  0.45594000000E+02  0.51100000000E-03 0.  1.
    9900012    2    1    2    0    0  0.91013416750E+01  0.30228310903E+02 -0.44871677066E+01  0.59301954864E+02  0.50000019763E+02 0.  0.
         12    1    1    2    0    0 -0.91013416750E+01 -0.30228310903E+02  0.44871677066E+01  0.31886045136E+02  0.00000000000E+00 0. -1.
         11    1    3    3    0    0  0.92395887520E+01 -0.54890636949E+01 -0.29399438826E+01  0.11141951842E+02  0.51100000000E-03 0. -1.
        -11    1    3    3    0    0 -0.72403405496E-01  0.40077266915E+02  0.49009900598E+01  0.40375887228E+02  0.51100000000E-03 0.  1.
        -12    1    3    3    0    0 -0.65843671501E-01 -0.43598923170E+01 -0.64482138837E+01  0.77841157941E+01  0.00000000000E+00 0.  1.
</event>
<event>
 7    1  0.4489290E-013  0.5930196E+02  0.7816164E-02  0.1266605E+00
        -11   -1    0    0    0    0  0.00000000000E+00  0.00000000000E+00  0.45593999997E+02  0.45594000000E+02  0.51100000000E-03 0.  1.
         11   -1    0    0    0    0 -0.00000000000E+00 -0.00000000000E+00 -0.45593999997E+02  0.45594000000E+02  0.51100000000E-03 0. -1.
    9900012    2    1    2    0    0  0.77387192413E+01  0.71834549220E+01  0.30087040997E+02  0.59301955466E+02  0.50000020860E+02 0.  0.
         12    1    1    2    0    0 -0.77387192413E+01 -0.71834549220E+01 -0.30087040997E+02  0.31886044534E+02  0.00000000000E+00 0. -1.
         11    1    3    3    0    0 -0.71526202320E+01 -0.17887933427E+02  0.13604960482E+02  0.23584594304E+02  0.51100000000E-03 0. -1.
        -11    1    3    3    0    0  0.76166966934E+01  0.22840795157E+02  0.12412484206E+02  0.27088480141E+02  0.51100000000E-03 0.  1.
         12    1    3    3    0    0  0.72746427798E+01  0.22305931925E+01  0.40695963089E+01  0.86288810214E+01  0.00000000000E+00 0. -1.
</event>
<event>
 7    1  0.4489290E-013  0.5930195E+02  0.7816164E-02  0.1266605E+00
        -11   -1    0    0    0    0  0.00000000000E+00  0.00000000000E+00  0.45593999997E+02  0.45594000000E+02  0.51100000000E-03 0.  1.
         11   -1    0    0    0    0 -0.00000000000E+00 -0.00000000000E+00 -0.45593999997E+02  0.45594000000E+02  0.51100000000E-03 0. -1.
    9900012    2    1    2    0    0  0.85583231001E+01  0.15970140309E+02  0.26237952341E+02  0.59301946327E+02  0.50000004193E+02 0.  0.
         12    1    1    2    0    0 -0.85583231001E+01 -0.15970140309E+02 -0.26237952341E+02  0.31886053673E+02  0.00000000000E+00 0. -1.
         11    1    3    3    0    0 -0.51225516065E+01 -0.11878267394E+01  0.10900717384E+02  0.12102772702E+02  0.51100000000E-03 0. -1.
        -11    1    3    3    0    0  0.99257400689E+01  0.29345272439E+02  0.15055903035E+02  0.34443367241E+02  0.51100000000E-03 0.  1.
        -12    1    3    3    0    0  0.37551346377E+01 -0.12187305391E+02  0.28133192227E+00  0.12755806384E+02  0.00000000000E+00 0.  1.
</event>
<event>
 7    1  0.4489290E-013  0.5930195E+02  0.7816164E-02  0.1266605E+00
        -11   -1    0    0    0    0  0.00000000000E+00  0.00000000000E+00  0.45593999997E+02  0.45594000000E+02  0.51100000000E-03 0.  1.
         11   -1    0    0    0    0 -0.00000000000E+00 -0.00000000000E+00 -0.45593999997E+02  0.45594000000E+02  0.51100000000E-03 0. -1.
    9900012    2    1    2    0    0  0.24799429843E+02 -0.36223529890E+01  0.19712617543E+02  0.59301945805E+02  0.50000003241E+02 0.  0.
         12    1    1    2    0    0 -0.24799429843E+02  0.36223529890E+01 -0.19712617543E+02  0.31886054195E+02  0.00000000000E+00 0. -1.
         11    1    3    3    0    0  0.27916478448E+02 -0.10148510693E+02  0.14484319343E+02  0.33047201777E+02  0.51100000000E-03 0. -1.
        -11    1    3    3    0    0 -0.68942507418E+01 -0.76099855218E+01  0.54412944177E+01  0.11621112603E+02  0.51100000000E-03 0.  1.
         12    1    3    3    0    0  0.37772021376E+01  0.14136143226E+02 -0.21299621804E+00  0.14633631425E+02  0.00000000000E+00 0. -1.
</event>
<event>
 7    1  0.4489290E-013  0.5930206E+02  0.7816164E-02  0.1266604E+00
        -11   -1    0    0    0    0  0.00000000000E+00  0.00000000000E+00  0.45593999997E+02  0.45594000000E+02  0.51100000000E-03 0.  1.
         11   -1    0    0    0    0 -0.00000000000E+00 -0.00000000000E+00 -0.45593999997E+02  0.45594000000E+02  0.51100000000E-03 0. -1.
    9900012    2    1    2    0    0  0.30718579916E+02 -0.36864904075E+01  0.77130784133E+01  0.59302063567E+02  0.50000218011E+02 0.  0.
         12    1    1    2    0    0 -0.30718579916E+02  0.36864904075E+01 -0.77130784133E+01  0.31885936433E+02  0.00000000000E+00 0. -1.
         11    1    3    3    0    0 -0.56729601457E+01 -0.63652040655E+01  0.15139964853E+02  0.17375754246E+02  0.51100000000E-03 0. -1.
        -11    1    3    3    0    0  0.30755785686E+02  0.39010236077E+01  0.17902038674E+01  0.31053843055E+02  0.51100000000E-03 0.  1.
         12    1    3    3    0    0  0.56357543759E+01 -0.12223099497E+01 -0.92170903068E+01  0.10872466267E+02  0.00000000000E+00 0. -1.
</event>
<event>
 7    1  0.4489290E-013  0.5930198E+02  0.7816164E-02  0.1266605E+00
        -11   -1    0    0    0    0  0.00000000000E+00  0.00000000000E+00  0.45593999997E+02  0.45594000000E+02  0.51100000000E-03 0. -1.
         11   -1    0    0    0    0 -0.00000000000E+00 -0.00000000000E+00 -0.45593999997E+02  0.45594000000E+02  0.51100000000E-03 0.  1.
    9900012    2    1    2    0    0  0.30249610171E+02  0.17398124396E+01 -0.99323860861E+01  0.59301981807E+02  0.50000068900E+02 0.  0.
         12    1    1    2    0    0 -0.30249610171E+02 -0.17398124396E+01  0.99323860861E+01  0.31886018193E+02  0.00000000000E+00 0. -1.
         11    1    3    3    0    0  0.28450892133E+02  0.22008927422E+02 -0.80183841935E+00  0.35979009082E+02  0.51100000000E-03 0. -1.
        -11    1    3    3    0    0  0.33557880573E+01 -0.44997708183E+01 -0.22448209074E+01  0.60455332329E+01  0.51100000000E-03 0.  1.
         12    1    3    3    0    0 -0.15570700185E+01 -0.15769344164E+02 -0.68857267593E+01  0.17277439492E+02  0.00000000000E+00 0. -1.
</event>
<event>
 7    1  0.4489290E-013  0.5930194E+02  0.7816164E-02  0.1266605E+00
        -11   -1    0    0    0    0  0.00000000000E+00  0.00000000000E+00  0.45593999997E+02  0.45594000000E+02  0.51100000000E-03 0. -1.
         11   -1    0    0    0    0 -0.00000000000E+00 -0.00000000000E+00 -0.45593999997E+02  0.45594000000E+02  0.51100000000E-03 0.  1.
    9900012    2    1    2    0    0 -0.19286279080E+02 -0.24919052179E+02  0.48786563875E+01  0.59301937051E+02  0.49999987276E+02 0.  0.
         12    1    1    2    0    0  0.19286279080E+02  0.24919052179E+02 -0.48786563875E+01  0.31886062949E+02  0.00000000000E+00 0. -1.
         11    1    3    3    0    0  0.46014037169E+01 -0.60442686995E+01 -0.31619061249E+01  0.82282289030E+01  0.51100000000E-03 0. -1.
        -11    1    3    3    0    0 -0.16970562756E+02 -0.15703511651E+02  0.24041481411E+02  0.33355555866E+02  0.51100000000E-03 0.  1.
        -12    1    3    3    0    0 -0.69171200407E+01 -0.31712718283E+01 -0.16000918899E+02  0.17718152282E+02  0.00000000000E+00 0.  1.
</event>
<event>
 7    1  0.4489290E-013  0.5930195E+02  0.7816164E-02  0.1266605E+00
        -11   -1    0    0    0    0  0.00000000000E+00  0.00000000000E+00  0.45593999997E+02  0.45594000000E+02  0.51100000000E-03 0. -1.
         11   -1    0    0    0    0 -0.00000000000E+00 -0.00000000000E+00 -0.45593999997E+02  0.45594000000E+02  0.51100000000E-03 0.  1.
    9900012    2    1    2    0    0  0.22858993946E+02  0.73824693890E+01 -0.20968688862E+02  0.59301947076E+02  0.50000005559E+02 0.  0.
         12    1    1    2    0    0 -0.22858993946E+02 -0.73824693890E+01  0.20968688862E+02  0.31886052924E+02  0.00000000000E+00 0. -1.
         11    1    3    3    0    0 -0.91677384410E+01 -0.69944014930E+01 -0.34935816109E+01  0.12048825383E+02  0.51100000000E-03 0. -1.
        -11    1    3    3    0    0  0.17287779246E+02  0.20411998928E+02 -0.16207215068E+02  0.31276042460E+02  0.51100000000E-03 0.  1.
        -12    1    3    3    0    0  0.14738953141E+02 -0.60351280458E+01 -0.12678921833E+01  0.15977079233E+02  0.00000000000E+00 0.  1.
</event>
<event>
 7    1  0.4489290E-013  0.5930194E+02  0.7816164E-02  0.1266605E+00
        -11   -1    0    0    0    0  0.00000000000E+00  0.00000000000E+00  0.45593999997E+02  0.45594000000E+02  0.51100000000E-03 0.  1.
         11   -1    0    0    0    0 -0.00000000000E+00 -0.00000000000E+00 -0.45593999997E+02  0.45594000000E+02  0.51100000000E-03 0. -1.
    9900012    2    1    2    0    0  0.15893185174E+02 -0.57739823116E+01  0.27033099888E+02  0.59301941977E+02  0.49999996260E+02 0.  0.
         12    1    1    2    0    0 -0.15893185174E+02  0.57739823116E+01 -0.27033099888E+02  0.31886058023E+02  0.00000000000E+00 0. -1.
         11    1    3    3    0    0 -0.67550613536E+01  0.21108801746E+01 -0.72239867708E+01  0.10112994321E+02  0.51100000000E-03 0. -1.
        -11    1    3    3    0    0  0.24226887538E+01 -0.13863490069E+02  0.15838788551E+02  0.21188039095E+02  0.51100000000E-03 0.  1.
         12    1    3    3    0    0  0.20225557774E+02  0.59786275826E+01  0.18418298108E+02  0.28000908561E+02  0.00000000000E+00 0. -1.
</event>
<event>
 7    1  0.4489290E-013  0.5930195E+02  0.7816164E-02  0.1266605E+00
        -11   -1    0    0    0    0  0.00000000000E+00  0.00000000000E+00  0.45593999997E+02  0.45594000000E+02  0.51100000000E-03 0. -1.
         11   -1    0    0    0    0 -0.00000000000E+00 -0.00000000000E+00 -0.45593999997E+02  0.45594000000E+02  0.51100000000E-03 0.  1.
    9900012    2    1    2    0    0 -0.20834575072E+02 -0.17364890614E+02 -0.16766072330E+02  0.59301950922E+02  0.50000012573E+02 0.  0.
         12    1    1    2    0    0  0.20834575072E+02  0.17364890614E+02  0.16766072330E+02  0.31886049078E+02  0.00000000000E+00 0. -1.
         11    1    3    3    0    0 -0.23178330109E+02 -0.20540721390E+02 -0.23917113767E+02  0.39130353347E+02  0.51100000000E-03 0. -1.
        -11    1    3    3    0    0  0.25276969934E+01 -0.75555683113E+01  0.43578572297E+01  0.90811224247E+01  0.51100000000E-03 0.  1.
         12    1    3    3    0    0 -0.18394195570E+00  0.10731399088E+02  0.27931842067E+01  0.11090475150E+02  0.00000000000E+00 0. -1.
</event>
<event>
 7    1  0.4489290E-013  0.5930193E+02  0.7816164E-02  0.1266605E+00
        -11   -1    0    0    0    0  0.00000000000E+00  0.00000000000E+00  0.45593999997E+02  0.45594000000E+02  0.51100000000E-03 0.  1.
         11   -1    0    0    0    0 -0.00000000000E+00 -0.00000000000E+00 -0.45593999997E+02  0.45594000000E+02  0.51100000000E-03 0. -1.
    9900012    2    1    2    0    0  0.19705921025E+02 -0.24330825332E+02  0.60339924229E+01  0.59301930168E+02  0.49999974724E+02 0.  0.
         12    1    1    2    0    0 -0.19705921025E+02  0.24330825332E+02 -0.60339924229E+01  0.31886069832E+02  0.00000000000E+00 0. -1.
         11    1    3    3    0    0  0.25225465432E+02 -0.78591013673E+01  0.13540279107E+02  0.29688865574E+02  0.51100000000E-03 0. -1.
        -11    1    3    3    0    0 -0.83247909677E+01 -0.12974682302E+02  0.50967302262E+01  0.16236415392E+02  0.51100000000E-03 0.  1.
         12    1    3    3    0    0  0.28052465607E+01 -0.34970416619E+01 -0.12603016910E+02  0.13376649203E+02  0.00000000000E+00 0. -1.
</event>
<event>
 7    1  0.4489290E-013  0.5930193E+02  0.7816164E-02  0.1266605E+00
        -11   -1    0    0    0    0  0.00000000000E+00  0.00000000000E+00  0.45593999997E+02  0.45594000000E+02  0.51100000000E-03 0. -1.
         11   -1    0    0    0    0 -0.00000000000E+00 -0.00000000000E+00 -0.45593999997E+02  0.45594000000E+02  0.51100000000E-03 0.  1.
    9900012    2    1    2    0    0 -0.22901729061E+02  0.15311093936E+02 -0.16056225773E+02  0.59301934429E+02  0.49999982495E+02 0.  0.
         12    1    1    2    0    0  0.22901729061E+02 -0.15311093936E+02  0.16056225773E+02  0.31886065571E+02  0.00000000000E+00 0. -1.
         11    1    3    3    0    0  0.28024289825E+01 -0.94072342891E+01 -0.13342925971E+01  0.99060588616E+01  0.51100000000E-03 0. -1.
        -11    1    3    3    0    0 -0.22533936686E+02  0.23936113688E+02  0.14415832007E+01  0.32905835401E+02  0.51100000000E-03 0.  1.
        -12    1    3    3    0    0 -0.31702213571E+01  0.78221453789E+00 -0.16163516377E+02  0.16490040167E+02  0.00000000000E+00 0.  1.
</event>
<event>
 7    1  0.4489290E-013  0.5930197E+02  0.7816164E-02  0.1266605E+00
        -11   -1    0    0    0    0  0.00000000000E+00  0.00000000000E+00  0.45593999997E+02  0.45594000000E+02  0.51100000000E-03 0.  1.
         11   -1    0    0    0    0 -0.00000000000E+00 -0.00000000000E+00 -0.45593999997E+02  0.45594000000E+02  0.51100000000E-03 0. -1.
    9900012    2    1    2    0    0  0.26147203284E+02  0.18246144967E+02  0.34784608532E+00  0.59301967908E+02  0.50000043551E+02 0.  0.
         12    1    1    2    0    0 -0.26147203284E+02 -0.18246144967E+02 -0.34784608532E+00  0.31886032092E+02  0.00000000000E+00 0. -1.
         11    1    3    3    0    0  0.15111746950E+02  0.27286423084E+02 -0.24499720108E+01  0.31287635636E+02  0.51100000000E-03 0. -1.
        -11    1    3    3    0    0  0.17858914722E+02 -0.10714891752E+02  0.16112341493E+01  0.20888892169E+02  0.51100000000E-03 0.  1.
         12    1    3    3    0    0 -0.68234583873E+01  0.16746136347E+01  0.11865839469E+01  0.71254401024E+01  0.00000000000E+00 0. -1.
</event>
<event>
 7    1  0.4489290E-013  0.5930194E+02  0.7816164E-02  0.1266605E+00
        -11   -1    0    0    0    0  0.00000000000E+00  0.00000000000E+00  0.45593999997E+02  0.45594000000E+02  0.51100000000E-03 0.  1.
         11   -1    0    0    0    0 -0.00000000000E+00 -0.00000000000E+00 -0.45593999997E+02  0.45594000000E+02  0.51100000000E-03 0. -1.
    9900012    2    1    2    0    0 -0.24292507511E+02 -0.19691023402E+02  0.62336790624E+01  0.59301935984E+02  0.49999985329E+02 0.  0.
         12    1    1    2    0    0  0.24292507511E+02  0.19691023402E+02 -0.62336790624E+01  0.31886064016E+02  0.00000000000E+00 0. -1.
         11    1    3    3    0    0  0.12945532486E+01  0.49850351486E-01  0.16608077346E+02  0.16658528943E+02  0.51100000000E-03 0. -1.
        -11    1    3    3    0    0 -0.23067562180E+02 -0.28559767235E+01 -0.10654512935E+02  0.25569272069E+02  0.51100000000E-03 0.  1.
        -12    1    3    3    0    0 -0.25194985797E+01 -0.16884897030E+02  0.28011465125E+00  0.17074134972E+02  0.00000000000E+00 0.  1.
</event>
<event>
 7    1  0.4489290E-013  0.5930192E+02  0.7816164E-02  0.1266605E+00
        -11   -1    0    0    0    0  0.00000000000E+00  0.00000000000E+00  0.45593999997E+02  0.45594000000E+02  0.51100000000E-03 0. -1.
         11   -1    0    0    0    0 -0.00000000000E+00 -0.00000000000E+00 -0.45593999997E+02  0.45594000000E+02  0.51100000000E-03 0.  1.
    9900012    2    1    2    0    0  0.17376686885E+02 -0.23611765490E+02 -0.12540217933E+02  0.59301924944E+02  0.49999965196E+02 0.  0.
         12    1    1    2    0    0 -0.17376686885E+02  0.23611765490E+02  0.12540217933E+02  0.31886075056E+02  0.00000000000E+00 0. -1.
         11    1    3    3    0    0 -0.81363033257E+01 -0.10420568573E+01  0.17164266780E+01  0.83804197450E+01  0.51100000000E-03 0. -1.
        -11    1    3    3    0    0  0.25052733552E+02 -0.20417501626E+02 -0.24429600382E+02  0.40513197926E+02  0.51100000000E-03 0.  1.
        -12    1    3    3    0    0  0.46025665816E+00 -0.21522070068E+01  0.10172955770E+02  0.10408307273E+02  0.00000000000E+00 0.  1.
</event>
<event>
 7    1  0.4489290E-013  0.5930194E+02  0.7816164E-02  0.1266605E+00
        -11   -1    0    0    0    0  0.00000000000E+00  0.00000000000E+00  0.45593999997E+02  0.45594000000E+02  0.51100000000E-03 0. -1.
         11   -1    0    0    0    0 -0.00000000000E+00 -0.00000000000E+00 -0.45593999997E+02  0.45594000000E+02  0.51100000000E-03 0.  1.
    9900012    2    1    2    0    0  0.23010439702E+02  0.14441194678E+02 -0.16694074401E+02  0.59301944128E+02  0.50000000182E+02 0.  0.
         12    1    1    2    0    0 -0.23010439702E+02 -0.14441194678E+02  0.16694074401E+02  0.31886055872E+02  0.00000000000E+00 0. -1.
         11    1    3    3    0    0  0.20804319480E+02 -0.92668505815E+01 -0.20869935699E+02  0.30890912014E+02  0.51100000000E-03 0. -1.
        -11    1    3    3    0    0 -0.16460115080E+01  0.22570258368E+02  0.18402398671E-01  0.22630206706E+02  0.51100000000E-03 0.  1.
         12    1    3    3    0    0  0.38521317305E+01  0.11377868918E+01  0.41574589001E+01  0.57808254070E+01  0.00000000000E+00 0. -1.
</event>
<event>
 7    1  0.4489290E-013  0.5930207E+02  0.7816164E-02  0.1266604E+00
        -11   -1    0    0    0    0  0.00000000000E+00  0.00000000000E+00  0.45593999997E+02  0.45594000000E+02  0.51100000000E-03 0.  1.
         11   -1    0    0    0    0 -0.00000000000E+00 -0.00000000000E+00 -0.45593999997E+02  0.45594000000E+02  0.51100000000E-03 0. -1.
    9900012    2    1    2    0    0 -0.92784826136E+01 -0.10836325332E+02  0.28516595649E+02  0.59302071854E+02  0.50000233124E+02 0.  0.
         12    1    1    2    0    0  0.92784826136E+01  0.10836325332E+02 -0.28516595649E+02  0.31885928146E+02  0.00000000000E+00 0. -1.
         11    1    3    3    0    0 -0.23081311445E+02 -0.14167738711E+02  0.91386174097E+01  0.28582968471E+02  0.51100000000E-03 0. -1.
        -11    1    3    3    0    0  0.10216595474E+02 -0.41800828650E+00  0.22464456533E+02  0.24682085843E+02  0.51100000000E-03 0.  1.
         12    1    3    3    0    0  0.35862333581E+01  0.37494216652E+01 -0.30864782934E+01  0.60370175400E+01  0.00000000000E+00 0. -1.
</event>
<event>
 7    1  0.4489290E-013  0.5930194E+02  0.7816164E-02  0.1266605E+00
        -11   -1    0    0    0    0  0.00000000000E+00  0.00000000000E+00  0.45593999997E+02  0.45594000000E+02  0.51100000000E-03 0. -1.
         11   -1    0    0    0    0 -0.00000000000E+00 -0.00000000000E+00 -0.45593999997E+02  0.45594000000E+02  0.51100000000E-03 0.  1.
    9900012    2    1    2    0    0 -0.60128451075E+01  0.24954755746E+02 -0.18916303226E+02  0.59301942414E+02  0.49999997056E+02 0.  0.
         12    1    1    2    0    0  0.60128451075E+01 -0.24954755746E+02  0.18916303226E+02  0.31886057586E+02  0.00000000000E+00 0. -1.
         11    1    3    3    0    0 -0.73858766114E+01  0.20440901558E+02 -0.17869989173E+02  0.28137486440E+02  0.51100000000E-03 0.  1.
        -11    1    3    3    0    0 -0.11753542089E+01 -0.10242130915E+02  0.85377011682E+01  0.13385628289E+02  0.51100000000E-03 0. -1.
        -12    1    3    3    0    0  0.25483857128E+01  0.14755985103E+02 -0.95840152212E+01  0.17778827685E+02  0.00000000000E+00 0.  1.
</event>
<event>
 7    1  0.4489290E-013  0.5930194E+02  0.7816164E-02  0.1266605E+00
        -11   -1    0    0    0    0  0.00000000000E+00  0.00000000000E+00  0.45593999997E+02  0.45594000000E+02  0.51100000000E-03 0. -1.
         11   -1    0    0    0    0 -0.00000000000E+00 -0.00000000000E+00 -0.45593999997E+02  0.45594000000E+02  0.51100000000E-03 0.  1.
    9900012    2    1    2    0    0 -0.24822798345E+02 -0.18008690948E+02  0.87313541804E+01  0.59301940144E+02  0.49999992917E+02 0.  0.
         12    1    1    2    0    0  0.24822798345E+02  0.18008690948E+02 -0.87313541804E+01  0.31886059856E+02  0.00000000000E+00 0. -1.
         11    1    3    3    0    0 -0.32267528932E+01  0.97447997346E+01  0.11328710727E+02  0.15287666372E+02  0.51100000000E-03 0. -1.
        -11    1    3    3    0    0 -0.26131679352E+02 -0.22799298954E+02  0.36118244401E+01  0.34867147497E+02  0.51100000000E-03 0.  1.
        -12    1    3    3    0    0  0.45356339001E+01 -0.49541917288E+01 -0.62091809868E+01  0.91471262749E+01  0.00000000000E+00 0.  1.
</event>
<event>
 7    1  0.4489290E-013  0.5930193E+02  0.7816164E-02  0.1266605E+00
        -11   -1    0    0    0    0  0.00000000000E+00  0.00000000000E+00  0.45593999997E+02  0.45594000000E+02  0.51100000000E-03 0. -1.
         11   -1    0    0    0    0 -0.00000000000E+00 -0.00000000000E+00 -0.45593999997E+02  0.45594000000E+02  0.51100000000E-03 0.  1.
    9900012    2    1    2    0    0  0.26175492127E+02 -0.18104781853E+02  0.19446654003E+01  0.59301933489E+02  0.49999980780E+02 0.  0.
         12    1    1    2    0    0 -0.26175492127E+02  0.18104781853E+02 -0.19446654003E+01  0.31886066511E+02  0.00000000000E+00 0. -1.
         11    1    3    3    0    0  0.16584266448E+02 -0.96175451685E+01  0.12793589097E+02  0.23048014903E+02  0.51100000000E-03 0. -1.
        -11    1    3    3    0    0 -0.62587553111E+01  0.80336285028E+01 -0.84518089706E+01  0.13234208707E+02  0.51100000000E-03 0.  1.
        -12    1    3    3    0    0  0.15849980989E+02 -0.16520865187E+02 -0.23971147265E+01  0.23019709879E+02  0.00000000000E+00 0.  1.
</event>
<event>
 7    1  0.4489290E-013  0.5930195E+02  0.7816164E-02  0.1266605E+00
        -11   -1    0    0    0    0  0.00000000000E+00  0.00000000000E+00  0.45593999997E+02  0.45594000000E+02  0.51100000000E-03 0.  1.
         11   -1    0    0    0    0 -0.00000000000E+00 -0.00000000000E+00 -0.45593999997E+02  0.45594000000E+02  0.51100000000E-03 0. -1.
    9900012    2    1    2    0    0  0.30809812783E+02  0.43487869330E+01 -0.69687605931E+01  0.59301950767E+02  0.50000012291E+02 0.  0.
         12    1    1    2    0    0 -0.30809812783E+02 -0.43487869330E+01  0.69687605931E+01  0.31886049233E+02  0.00000000000E+00 0. -1.
         11    1    3    3    0    0 -0.61669341276E+00  0.29005531006E+01  0.16910648502E+02  0.17168679392E+02  0.51100000000E-03 0. -1.
        -11    1    3    3    0    0  0.20091967302E+02 -0.59853460194E+01 -0.16645228955E+02  0.26768921612E+02  0.51100000000E-03 0.  1.
         12    1    3    3    0    0  0.11334538893E+02  0.74335798518E+01 -0.72341801401E+01  0.15364349763E+02  0.00000000000E+00 0. -1.
</event>
<event>
 7    1  0.4489290E-013  0.5930193E+02  0.7816164E-02  0.1266605E+00
        -11   -1    0    0    0    0  0.00000000000E+00  0.00000000000E+00  0.45593999997E+02  0.45594000000E+02  0.51100000000E-03 0. -1.
         11   -1    0    0    0    0 -0.00000000000E+00 -0.00000000000E+00 -0.45593999997E+02  0.45594000000E+02  0.51100000000E-03 0.  1.
    9900012    2    1    2    0    0  0.22884497437E+02 -0.21330430160E+02  0.61671638298E+01  0.59301931201E+02  0.49999976607E+02 0.  0.
         12    1    1    2    0    0 -0.22884497437E+02  0.21330430160E+02 -0.61671638298E+01  0.31886068799E+02  0.00000000000E+00 0. -1.
         11    1    3    3    0    0  0.16006087653E+02 -0.93819157036E+01 -0.11906393670E+02  0.22044894980E+02  0.51100000000E-03 0.  1.
        -11    1    3    3    0    0  0.16177708588E+02 -0.10016495353E+02  0.19957140047E+02  0.27574188536E+02  0.51100000000E-03 0. -1.
        -12    1    3    3    0    0 -0.92992988044E+01 -0.19320191037E+01 -0.18835825468E+01  0.96828476845E+01  0.00000000000E+00 0.  1.
</event>
<event>
 7    1  0.4489290E-013  0.5930202E+02  0.7816164E-02  0.1266604E+00
        -11   -1    0    0    0    0  0.00000000000E+00  0.00000000000E+00  0.45593999997E+02  0.45594000000E+02  0.51100000000E-03 0.  1.
         11   -1    0    0    0    0 -0.00000000000E+00 -0.00000000000E+00 -0.45593999997E+02  0.45594000000E+02  0.51100000000E-03 0. -1.
    9900012    2    1    2    0    0  0.23126328858E+02  0.17152299361E+02 -0.13699891288E+02  0.59302023755E+02  0.50000145403E+02 0.  0.
         12    1    1    2    0    0 -0.23126328858E+02 -0.17152299361E+02  0.13699891288E+02  0.31885976245E+02  0.00000000000E+00 0. -1.
         11    1    3    3    0    0  0.11149471660E+02  0.30795024101E+02 -0.96058048512E+01  0.34130861618E+02  0.51100000000E-03 0. -1.
        -11    1    3    3    0    0  0.11078602338E+02 -0.11833967226E+01  0.19221450004E+01  0.11306215070E+02  0.51100000000E-03 0.  1.
         12    1    3    3    0    0  0.89825486079E+00 -0.12459328018E+02 -0.60162314370E+01  0.13864947066E+02  0.00000000000E+00 0. -1.
</event>
<event>
 7    1  0.4489290E-013  0.5930196E+02  0.7816164E-02  0.1266605E+00
        -11   -1    0    0    0    0  0.00000000000E+00  0.00000000000E+00  0.45593999997E+02  0.45594000000E+02  0.51100000000E-03 0.  1.
         11   -1    0    0    0    0 -0.00000000000E+00 -0.00000000000E+00 -0.45593999997E+02  0.45594000000E+02  0.51100000000E-03 0. -1.
    9900012    2    1    2    0    0  0.41038259289E+01  0.30732586692E+02 -0.74422113129E+01  0.59301956324E+02  0.50000022426E+02 0.  0.
         12    1    1    2    0    0 -0.41038259289E+01 -0.30732586692E+02  0.74422113129E+01  0.31886043676E+02  0.00000000000E+00 0. -1.
         11    1    3    3    0    0  0.84512207414E+01 -0.61720970226E+00 -0.11797337181E+02  0.14525193447E+02  0.51100000000E-03 0. -1.
        -11    1    3    3    0    0 -0.17464688937E+01  0.37227258193E+02  0.68311366902E+01  0.37889092559E+02  0.51100000000E-03 0.  1.
        -12    1    3    3    0    0 -0.26009259188E+01 -0.58774617987E+01 -0.24760108218E+01  0.68876703188E+01  0.00000000000E+00 0.  1.
</event>
<event>
 7    1  0.4489290E-013  0.5930195E+02  0.7816164E-02  0.1266605E+00
        -11   -1    0    0    0    0  0.00000000000E+00  0.00000000000E+00  0.45593999997E+02  0.45594000000E+02  0.51100000000E-03 0.  1.
         11   -1    0    0    0    0 -0.00000000000E+00 -0.00000000000E+00 -0.45593999997E+02  0.45594000000E+02  0.51100000000E-03 0. -1.
    9900012    2    1    2    0    0 -0.16238054042E+02  0.20817710892E+02  0.17879279572E+02  0.59301950952E+02  0.50000012629E+02 0.  0.
         12    1    1    2    0    0  0.16238054042E+02 -0.20817710892E+02 -0.17879279572E+02  0.31886049048E+02  0.00000000000E+00 0. -1.
         11    1    3    3    0    0  0.14458171580E+02  0.58645181063E+01  0.75513735238E+01  0.17333624561E+02  0.51100000000E-03 0. -1.
        -11    1    3    3    0    0 -0.17746884964E+02  0.77593173747E+01  0.16953567261E+02  0.25740675500E+02  0.51100000000E-03 0.  1.
        -12    1    3    3    0    0 -0.12949340659E+02  0.71938754109E+01 -0.66256612132E+01  0.16227650891E+02  0.00000000000E+00 0.  1.
</event>
<event>
 7    1  0.4489290E-013  0.5930194E+02  0.7816164E-02  0.1266605E+00
        -11   -1    0    0    0    0  0.00000000000E+00  0.00000000000E+00  0.45593999997E+02  0.45594000000E+02  0.51100000000E-03 0. -1.
         11   -1    0    0    0    0 -0.00000000000E+00 -0.00000000000E+00 -0.45593999997E+02  0.45594000000E+02  0.51100000000E-03 0.  1.
    9900012    2    1    2    0    0  0.17088783442E+02  0.26870298207E+02  0.16374392870E+01  0.59301942660E+02  0.49999997506E+02 0.  0.
         12    1    1    2    0    0 -0.17088783442E+02 -0.26870298207E+02 -0.16374392870E+01  0.31886057340E+02  0.00000000000E+00 0. -1.
         11    1    3    3    0    0  0.13825351549E+02  0.36263811836E+00  0.65608898291E+01  0.15307420667E+02  0.51100000000E-03 0. -1.
        -11    1    3    3    0    0 -0.90377600180E+01  0.15739519597E+02 -0.16042292861E+02  0.24223309927E+02  0.51100000000E-03 0.  1.
        -12    1    3    3    0    0  0.12301191911E+02  0.10768140492E+02  0.11118842319E+02  0.19771212067E+02  0.00000000000E+00 0.  1.
</event>
<event>
 7    1  0.4489290E-013  0.5930200E+02  0.7816164E-02  0.1266605E+00
        -11   -1    0    0    0    0  0.00000000000E+00  0.00000000000E+00  0.45593999997E+02  0.45594000000E+02  0.51100000000E-03 0.  1.
         11   -1    0    0    0    0 -0.00000000000E+00 -0.00000000000E+00 -0.45593999997E+02  0.45594000000E+02  0.51100000000E-03 0. -1.
    9900012    2    1    2    0    0  0.50378416422E+01 -0.19293713548E+02  0.24881513828E+02  0.59302000545E+02  0.50000103074E+02 0.  0.
         12    1    1    2    0    0 -0.50378416422E+01  0.19293713548E+02 -0.24881513828E+02  0.31885999455E+02  0.00000000000E+00 0. -1.
         11    1    3    3    0    0 -0.11275573145E+02  0.74378497796E+01 -0.72543493825E+00  0.13527247140E+02  0.51100000000E-03 0. -1.
        -11    1    3    3    0    0  0.97566496194E+01 -0.17660498283E+02  0.27819187837E+02  0.34365573232E+02  0.51100000000E-03 0.  1.
         12    1    3    3    0    0  0.65567651676E+01 -0.90710650441E+01 -0.22122390706E+01  0.11409180172E+02  0.00000000000E+00 0. -1.
</event>
<event>
 7    1  0.4489290E-013  0.5930204E+02  0.7816164E-02  0.1266604E+00
        -11   -1    0    0    0    0  0.00000000000E+00  0.00000000000E+00  0.45593999997E+02  0.45594000000E+02  0.51100000000E-03 0. -1.
         11   -1    0    0    0    0 -0.00000000000E+00 -0.00000000000E+00 -0.45593999997E+02  0.45594000000E+02  0.51100000000E-03 0.  1.
    9900012    2    1    2    0    0 -0.24575271758E+02  0.19427179251E+02  0.59460004198E+01  0.59302043897E+02  0.50000182137E+02 0.  0.
         12    1    1    2    0    0  0.24575271758E+02 -0.19427179251E+02 -0.59460004198E+01  0.31885956103E+02  0.00000000000E+00 0. -1.
         11    1    3    3    0    0 -0.25624508498E+01  0.18671047240E+02  0.20742214123E+02  0.28025231603E+02  0.51100000000E-03 0. -1.
        -11    1    3    3    0    0 -0.18996934219E+02  0.40653737970E+01 -0.43451597877E+01  0.19907063763E+02  0.51100000000E-03 0.  1.
        -12    1    3    3    0    0 -0.30158866885E+01 -0.33092417862E+01 -0.10451053915E+02  0.11369748531E+02  0.00000000000E+00 0.  1.
</event>
<event>
 7    1  0.4489290E-013  0.5930194E+02  0.7816164E-02  0.1266605E+00
        -11   -1    0    0    0    0  0.00000000000E+00  0.00000000000E+00  0.45593999997E+02  0.45594000000E+02  0.51100000000E-03 0.  1.
         11   -1    0    0    0    0 -0.00000000000E+00 -0.00000000000E+00 -0.45593999997E+02  0.45594000000E+02  0.51100000000E-03 0. -1.
    9900012    2    1    2    0    0 -0.13252545587E+02 -0.28635691468E+02  0.45921442444E+01  0.59301943814E+02  0.49999999610E+02 0.  0.
         12    1    1    2    0    0  0.13252545587E+02  0.28635691468E+02 -0.45921442444E+01  0.31886056186E+02  0.00000000000E+00 0. -1.
         11    1    3    3    0    0 -0.23664013765E+02 -0.31865985091E+02 -0.33194508259E+01  0.39830205967E+02  0.51100000000E-03 0. -1.
        -11    1    3    3    0    0  0.17325373740E+01 -0.47089516666E+01 -0.45361094132E+00  0.50380228957E+01  0.51100000000E-03 0.  1.
         12    1    3    3    0    0  0.86789308040E+01  0.79392452902E+01  0.83652060116E+01  0.14433714951E+02  0.00000000000E+00 0. -1.
</event>
<event>
 7    1  0.4489290E-013  0.5930191E+02  0.7816164E-02  0.1266605E+00
        -11   -1    0    0    0    0  0.00000000000E+00  0.00000000000E+00  0.45593999997E+02  0.45594000000E+02  0.51100000000E-03 0.  1.
         11   -1    0    0    0    0 -0.00000000000E+00 -0.00000000000E+00 -0.45593999997E+02  0.45594000000E+02  0.51100000000E-03 0. -1.
    9900012    2    1    2    0    0 -0.83287242423E+01  0.23478188504E+02  0.19903008131E+02  0.59301910312E+02  0.49999938511E+02 0.  0.
         12    1    1    2    0    0  0.83287242423E+01 -0.23478188504E+02 -0.19903008131E+02  0.31886089688E+02  0.00000000000E+00 0. -1.
         11    1    3    3    0    0 -0.45973146822E+01  0.17289079277E+02 -0.12099815312E+02  0.21597525215E+02  0.51100000000E-03 0. -1.
        -11    1    3    3    0    0  0.31215075722E+01  0.11074553021E+02  0.19172042190E+02  0.22359712345E+02  0.51100000000E-03 0.  1.
         12    1    3    3    0    0 -0.68529171323E+01 -0.48854437951E+01  0.12830781254E+02  0.15344672752E+02  0.00000000000E+00 0. -1.
</event>
<event>
 7    1  0.4489290E-013  0.5930195E+02  0.7816164E-02  0.1266605E+00
        -11   -1    0    0    0    0  0.00000000000E+00  0.00000000000E+00  0.45593999997E+02  0.45594000000E+02  0.51100000000E-03 0.  1.
         11   -1    0    0    0    0 -0.00000000000E+00 -0.00000000000E+00 -0.45593999997E+02  0.45594000000E+02  0.51100000000E-03 0. -1.
    9900012    2    1    2    0    0 -0.20783578193E+02  0.46911800544E+01  0.23722477450E+02  0.59301949301E+02  0.50000009617E+02 0.  0.
         12    1    1    2    0    0  0.20783578193E+02 -0.46911800544E+01 -0.23722477450E+02  0.31886050699E+02  0.00000000000E+00 0. -1.
         11    1    3    3    0    0  0.67596799533E+01  0.49809540860E+01  0.39004048699E+01  0.92583116759E+01  0.51100000000E-03 0. -1.
        -11    1    3    3    0    0 -0.35383706963E+02  0.60119033271E+01  0.15597773274E+02  0.39133620219E+02  0.51100000000E-03 0.  1.
        -12    1    3    3    0    0  0.78404488166E+01 -0.63016773587E+01  0.42242993061E+01  0.10910017406E+02  0.00000000000E+00 0.  1.
</event>
<event>
 7    1  0.4489290E-013  0.5930191E+02  0.7816164E-02  0.1266605E+00
        -11   -1    0    0    0    0  0.00000000000E+00  0.00000000000E+00  0.45593999997E+02  0.45594000000E+02  0.51100000000E-03 0. -1.
         11   -1    0    0    0    0 -0.00000000000E+00 -0.00000000000E+00 -0.45593999997E+02  0.45594000000E+02  0.51100000000E-03 0.  1.
    9900012    2    1    2    0    0  0.24302202159E+02 -0.19105937714E+02 -0.78159221754E+01  0.59301913298E+02  0.49999943956E+02 0.  0.
         12    1    1    2    0    0 -0.24302202159E+02  0.19105937714E+02  0.78159221754E+01  0.31886086702E+02  0.00000000000E+00 0. -1.
         11    1    3    3    0    0  0.18997460188E+02  0.59376948025E+01  0.86460637351E+01  0.21700556019E+02  0.51100000000E-03 0. -1.
        -11    1    3    3    0    0  0.53998388763E+01 -0.42022854425E+01 -0.15261606995E+02  0.16725253695E+02  0.51100000000E-03 0.  1.
         12    1    3    3    0    0 -0.95096904833E-01 -0.20841347074E+02 -0.12003789151E+01  0.20876103583E+02  0.00000000000E+00 0. -1.
</event>
<event>
 7    1  0.4489290E-013  0.5930178E+02  0.7816164E-02  0.1266605E+00
        -11   -1    0    0    0    0  0.00000000000E+00  0.00000000000E+00  0.45593999997E+02  0.45594000000E+02  0.51100000000E-03 0.  1.
         11   -1    0    0    0    0 -0.00000000000E+00 -0.00000000000E+00 -0.45593999997E+02  0.45594000000E+02  0.51100000000E-03 0. -1.
    9900012    2    1    2    0    0  0.25581874005E+02 -0.18403996138E+02  0.48571077943E+01  0.59301782796E+02  0.49999705952E+02 0.  0.
         12    1    1    2    0    0 -0.25581874005E+02  0.18403996138E+02 -0.48571077943E+01  0.31886217204E+02  0.00000000000E+00 0. -1.
         11    1    3    3    0    0  0.39504022525E+00  0.11467365636E+01  0.73335864485E+01  0.74332060368E+01  0.51100000000E-03 0. -1.
        -11    1    3    3    0    0  0.17663783000E+02  0.49657928986E+01 -0.14651405435E+02  0.23480460185E+02  0.51100000000E-03 0.  1.
        -12    1    3    3    0    0  0.75230507791E+01 -0.24516525600E+02  0.12174926781E+02  0.28388116575E+02  0.00000000000E+00 0.  1.
</event>
<event>
 7    1  0.4489290E-013  0.5930192E+02  0.7816164E-02  0.1266605E+00
        -11   -1    0    0    0    0  0.00000000000E+00  0.00000000000E+00  0.45593999997E+02  0.45594000000E+02  0.51100000000E-03 0. -1.
         11   -1    0    0    0    0 -0.00000000000E+00 -0.00000000000E+00 -0.45593999997E+02  0.45594000000E+02  0.51100000000E-03 0.  1.
    9900012    2    1    2    0    0  0.40911971898E+01  0.16607720671E+02 -0.26910361174E+02  0.59301924374E+02  0.49999964156E+02 0.  0.
         12    1    1    2    0    0 -0.40911971898E+01 -0.16607720671E+02  0.26910361174E+02  0.31886075626E+02  0.00000000000E+00 0. -1.
         11    1    3    3    0    0 -0.17156919867E+02  0.28750756742E+00 -0.20830590144E+02  0.26988072291E+02  0.51100000000E-03 0. -1.
        -11    1    3    3    0    0  0.15744098810E+02  0.12343072821E+02 -0.11979682484E+02  0.23318252221E+02  0.51100000000E-03 0.  1.
         12    1    3    3    0    0  0.55040182475E+01  0.39771402830E+01  0.58999114544E+01  0.89955998616E+01  0.00000000000E+00 0. -1.
</event>
<event>
 7    1  0.4489290E-013  0.5930198E+02  0.7816164E-02  0.1266605E+00
        -11   -1    0    0    0    0  0.00000000000E+00  0.00000000000E+00  0.45593999997E+02  0.45594000000E+02  0.51100000000E-03 0.  1.
         11   -1    0    0    0    0 -0.00000000000E+00 -0.00000000000E+00 -0.45593999997E+02  0.45594000000E+02  0.51100000000E-03 0. -1.
    9900012    2    1    2    0    0 -0.14799064853E+02  0.99308125409E+01  0.26440217223E+02  0.59301977277E+02  0.50000060639E+02 0.  0.
         12    1    1    2    0    0  0.14799064853E+02 -0.99308125409E+01 -0.26440217223E+02  0.31886022723E+02  0.00000000000E+00 0. -1.
         11    1    3    3    0    0 -0.90826998199E+01 -0.96888292083E+01 -0.42859953789E+01  0.13954877430E+02  0.51100000000E-03 0. -1.
        -11    1    3    3    0    0  0.10094582574E+02  0.11959955297E+02  0.12476214236E+02  0.20014920684E+02  0.51100000000E-03 0.  1.
         12    1    3    3    0    0 -0.15810947607E+02  0.76596864519E+01  0.18249998366E+02  0.25332179163E+02  0.00000000000E+00 0. -1.
</event>
<event>
 7    1  0.4489290E-013  0.5930199E+02  0.7816164E-02  0.1266605E+00
        -11   -1    0    0    0    0  0.00000000000E+00  0.00000000000E+00  0.45593999997E+02  0.45594000000E+02  0.51100000000E-03 0. -1.
         11   -1    0    0    0    0 -0.00000000000E+00 -0.00000000000E+00 -0.45593999997E+02  0.45594000000E+02  0.51100000000E-03 0.  1.
    9900012    2    1    2    0    0  0.25989141910E+02  0.50189623284E+01 -0.17778979789E+02  0.59301990491E+02  0.50000084738E+02 0.  0.
         12    1    1    2    0    0 -0.25989141910E+02 -0.50189623284E+01  0.17778979789E+02  0.31886009509E+02  0.00000000000E+00 0. -1.
         11    1    3    3    0    0  0.34019614809E+01  0.22748854735E+01  0.10897696625E+02  0.11640800566E+02  0.51100000000E-03 0. -1.
        -11    1    3    3    0    0  0.73531840540E+01  0.12276416297E+02 -0.25742614967E+02  0.29452706810E+02  0.51100000000E-03 0.  1.
        -12    1    3    3    0    0  0.15233996375E+02 -0.95323394424E+01 -0.29340614467E+01  0.18208483115E+02  0.00000000000E+00 0.  1.
</event>
<event>
 7    1  0.4489290E-013  0.5930198E+02  0.7816164E-02  0.1266605E+00
        -11   -1    0    0    0    0  0.00000000000E+00  0.00000000000E+00  0.45593999997E+02  0.45594000000E+02  0.51100000000E-03 0. -1.
         11   -1    0    0    0    0 -0.00000000000E+00 -0.00000000000E+00 -0.45593999997E+02  0.45594000000E+02  0.51100000000E-03 0.  1.
    9900012    2    1    2    0    0  0.72459058034E+01 -0.35018844994E+01 -0.30853718526E+02  0.59301979664E+02  0.50000064993E+02 0.  0.
         12    1    1    2    0    0 -0.72459058034E+01  0.35018844994E+01  0.30853718526E+02  0.31886020336E+02  0.00000000000E+00 0. -1.
         11    1    3    3    0    0  0.11115100272E+02  0.12283473234E+02  0.29557441283E+01  0.16827524844E+02  0.51100000000E-03 0. -1.
        -11    1    3    3    0    0  0.70901702405E+01 -0.11851104811E+02 -0.21291628456E+02  0.25378192249E+02  0.51100000000E-03 0.  1.
         12    1    3    3    0    0 -0.10959364709E+02 -0.39342529221E+01 -0.12517834199E+02  0.17096262571E+02  0.00000000000E+00 0. -1.
</event>
<event>
 7    1  0.4489290E-013  0.5930188E+02  0.7816164E-02  0.1266605E+00
        -11   -1    0    0    0    0  0.00000000000E+00  0.00000000000E+00  0.45593999997E+02  0.45594000000E+02  0.51100000000E-03 0.  1.
         11   -1    0    0    0    0 -0.00000000000E+00 -0.00000000000E+00 -0.45593999997E+02  0.45594000000E+02  0.51100000000E-03 0. -1.
    9900012    2    1    2    0    0 -0.87715502760E+01  0.29747424187E+01  0.30511233767E+02  0.59301881191E+02  0.49999885402E+02 0.  0.
         12    1    1    2    0    0  0.87715502760E+01 -0.29747424187E+01 -0.30511233767E+02  0.31886118809E+02  0.00000000000E+00 0. -1.
         11    1    3    3    0    0  0.13020762545E+02 -0.11369006532E+02  0.33207124005E+01  0.17601752693E+02  0.51100000000E-03 0. -1.
        -11    1    3    3    0    0 -0.11237868197E+02  0.10794439317E+02  0.41742997230E+01  0.16131781681E+02  0.51100000000E-03 0.  1.
         12    1    3    3    0    0 -0.10554444624E+02  0.35493096339E+01  0.23016221643E+02  0.25568346816E+02  0.00000000000E+00 0. -1.
</event>
<event>
 7    1  0.4489290E-013  0.5930195E+02  0.7816164E-02  0.1266605E+00
        -11   -1    0    0    0    0  0.00000000000E+00  0.00000000000E+00  0.45593999997E+02  0.45594000000E+02  0.51100000000E-03 0. -1.
         11   -1    0    0    0    0 -0.00000000000E+00 -0.00000000000E+00 -0.45593999997E+02  0.45594000000E+02  0.51100000000E-03 0.  1.
    9900012    2    1    2    0    0 -0.25687460390E+02 -0.13488911014E+02 -0.13225887810E+02  0.59301945838E+02  0.50000003302E+02 0.  0.
         12    1    1    2    0    0  0.25687460390E+02  0.13488911014E+02  0.13225887810E+02  0.31886054162E+02  0.00000000000E+00 0. -1.
         11    1    3    3    0    0 -0.31132295395E+02 -0.10760402658E+02 -0.25251551544E+02  0.41504782104E+02  0.51100000000E-03 0.  1.
        -11    1    3    3    0    0  0.29177637592E+01 -0.53020037165E+01  0.12754532433E+02  0.14117460345E+02  0.51100000000E-03 0. -1.
         12    1    3    3    0    0  0.25270712456E+01  0.25734953601E+01 -0.72886869932E+00  0.36797033888E+01  0.00000000000E+00 0. -1.
</event>
<event>
 7    1  0.4489290E-013  0.5930194E+02  0.7816164E-02  0.1266605E+00
        -11   -1    0    0    0    0  0.00000000000E+00  0.00000000000E+00  0.45593999997E+02  0.45594000000E+02  0.51100000000E-03 0. -1.
         11   -1    0    0    0    0 -0.00000000000E+00 -0.00000000000E+00 -0.45593999997E+02  0.45594000000E+02  0.51100000000E-03 0.  1.
    9900012    2    1    2    0    0 -0.11317095055E+02  0.74356246397E+01 -0.28867903446E+02  0.59301937157E+02  0.49999987470E+02 0.  0.
         12    1    1    2    0    0  0.11317095055E+02 -0.74356246397E+01  0.28867903446E+02  0.31886062843E+02  0.00000000000E+00 0. -1.
         11    1    3    3    0    0 -0.76776026759E+01  0.45480820277E+01  0.92875082471E+01  0.12879768736E+02  0.51100000000E-03 0. -1.
        -11    1    3    3    0    0 -0.26395113609E+01  0.14357644536E+02 -0.17643744495E+02  0.22900015216E+02  0.51100000000E-03 0.  1.
        -12    1    3    3    0    0 -0.99998101835E+00 -0.11470101924E+02 -0.20511667198E+02  0.23522153205E+02  0.00000000000E+00 0.  1.
</event>
<event>
 7    1  0.4489290E-013  0.5930194E+02  0.7816164E-02  0.1266605E+00
        -11   -1    0    0    0    0  0.00000000000E+00  0.00000000000E+00  0.45593999997E+02  0.45594000000E+02  0.51100000000E-03 0. -1.
         11   -1    0    0    0    0 -0.00000000000E+00 -0.00000000000E+00 -0.45593999997E+02  0.45594000000E+02  0.51100000000E-03 0.  1.
    9900012    2    1    2    0    0 -0.26435772557E+02 -0.83400370689E+01  0.15758001403E+02  0.59301938826E+02  0.49999990513E+02 0.  0.
         12    1    1    2    0    0  0.26435772557E+02  0.83400370689E+01 -0.15758001403E+02  0.31886061174E+02  0.00000000000E+00 0. -1.
         11    1    3    3    0    0 -0.29907231726E+02 -0.31064416828E+01  0.31234590948E+01  0.30229927000E+02  0.51100000000E-03 0. -1.
        -11    1    3    3    0    0  0.73428505664E+01 -0.10752034600E+02 -0.17971695964E+01  0.13143573384E+02  0.51100000000E-03 0.  1.
         12    1    3    3    0    0 -0.38713913975E+01  0.55184392139E+01  0.14431711905E+02  0.15928438442E+02  0.00000000000E+00 0. -1.
</event>
<event>
 7    1  0.4489290E-013  0.5930196E+02  0.7816164E-02  0.1266605E+00
        -11   -1    0    0    0    0  0.00000000000E+00  0.00000000000E+00  0.45593999997E+02  0.45594000000E+02  0.51100000000E-03 0. -1.
         11   -1    0    0    0    0 -0.00000000000E+00 -0.00000000000E+00 -0.45593999997E+02  0.45594000000E+02  0.51100000000E-03 0.  1.
    9900012    2    1    2    0    0  0.17201727603E+02 -0.91749192488E+01 -0.25231748427E+02  0.59301957530E+02  0.50000024624E+02 0.  0.
         12    1    1    2    0    0 -0.17201727603E+02  0.91749192488E+01  0.25231748427E+02  0.31886042470E+02  0.00000000000E+00 0. -1.
         11    1    3    3    0    0  0.22590031345E+02 -0.77776890303E+01  0.52688039606E+01  0.24465532045E+02  0.51100000000E-03 0. -1.
        -11    1    3    3    0    0 -0.61744534742E+01  0.47750432442E+01 -0.26029154050E+02  0.27174285171E+02  0.51100000000E-03 0.  1.
        -12    1    3    3    0    0  0.78614973161E+00 -0.61722734627E+01 -0.44713983372E+01  0.76621403138E+01  0.00000000000E+00 0.  1.
</event>
<event>
 7    1  0.4489290E-013  0.5930190E+02  0.7816164E-02  0.1266605E+00
        -11   -1    0    0    0    0  0.00000000000E+00  0.00000000000E+00  0.45593999997E+02  0.45594000000E+02  0.51100000000E-03 0.  1.
         11   -1    0    0    0    0 -0.00000000000E+00 -0.00000000000E+00 -0.45593999997E+02  0.45594000000E+02  0.51100000000E-03 0. -1.
    9900012    2    1    2    0    0  0.25883660838E+02  0.17027813823E+02  0.75374496882E+01  0.59301898172E+02  0.49999916370E+02 0.  0.
         12    1    1    2    0    0 -0.25883660838E+02 -0.17027813823E+02 -0.75374496882E+01  0.31886101828E+02  0.00000000000E+00 0. -1.
         11    1    3    3    0    0  0.27465721835E+02 -0.55743708209E+01 -0.71302594715E+01  0.28918507678E+02  0.51100000000E-03 0. -1.
        -11    1    3    3    0    0 -0.60149336502E+01  0.44099955923E+01  0.18267153887E+01  0.76788265583E+01  0.51100000000E-03 0.  1.
         12    1    3    3    0    0  0.44328726539E+01  0.18192189052E+02  0.12840993771E+02  0.22704563935E+02  0.00000000000E+00 0. -1.
</event>
<event>
 7    1  0.4489290E-013  0.5930195E+02  0.7816164E-02  0.1266605E+00
        -11   -1    0    0    0    0  0.00000000000E+00  0.00000000000E+00  0.45593999997E+02  0.45594000000E+02  0.51100000000E-03 0. -1.
         11   -1    0    0    0    0 -0.00000000000E+00 -0.00000000000E+00 -0.45593999997E+02  0.45594000000E+02  0.51100000000E-03 0.  1.
    9900012    2    1    2    0    0 -0.14451314977E+02 -0.16328286305E+02 -0.23265137856E+02  0.59301951676E+02  0.50000013949E+02 0.  0.
         12    1    1    2    0    0  0.14451314977E+02  0.16328286305E+02  0.23265137856E+02  0.31886048324E+02  0.00000000000E+00 0. -1.
         11    1    3    3    0    0 -0.14356770258E+02  0.12168974581E+02 -0.34478308217E+01  0.19133434930E+02  0.51100000000E-03 0.  1.
        -11    1    3    3    0    0  0.99635802223E+01 -0.16466182859E+02 -0.11445487950E+02  0.22392125925E+02  0.51100000000E-03 0. -1.
        -12    1    3    3    0    0 -0.10058124942E+02 -0.12031078027E+02 -0.83718190851E+01  0.17776390821E+02  0.00000000000E+00 0.  1.
</event>
<event>
 7    1  0.4489290E-013  0.5930193E+02  0.7816164E-02  0.1266605E+00
        -11   -1    0    0    0    0  0.00000000000E+00  0.00000000000E+00  0.45593999997E+02  0.45594000000E+02  0.51100000000E-03 0.  1.
         11   -1    0    0    0    0 -0.00000000000E+00 -0.00000000000E+00 -0.45593999997E+02  0.45594000000E+02  0.51100000000E-03 0. -1.
    9900012    2    1    2    0    0 -0.16944080635E+02 -0.23770259690E+02  0.12829440019E+02  0.59301927092E+02  0.49999969114E+02 0.  0.
         12    1    1    2    0    0  0.16944080635E+02  0.23770259690E+02 -0.12829440019E+02  0.31886072908E+02  0.00000000000E+00 0. -1.
         11    1    3    3    0    0 -0.11309646899E+02 -0.24689990027E+02  0.18392509513E+01  0.27219231526E+02  0.51100000000E-03 0. -1.
        -11    1    3    3    0    0  0.10143299917E+02 -0.21184172224E+01 -0.29895645349E+01  0.10784791195E+02  0.51100000000E-03 0.  1.
        -12    1    3    3    0    0 -0.15777733654E+02  0.30381475602E+01  0.13979753603E+02  0.21297904372E+02  0.00000000000E+00 0.  1.
</event>
<event>
 7    1  0.4489290E-013  0.5930195E+02  0.7816164E-02  0.1266605E+00
        -11   -1    0    0    0    0  0.00000000000E+00  0.00000000000E+00  0.45593999997E+02  0.45594000000E+02  0.51100000000E-03 0.  1.
         11   -1    0    0    0    0 -0.00000000000E+00 -0.00000000000E+00 -0.45593999997E+02  0.45594000000E+02  0.51100000000E-03 0. -1.
    9900012    2    1    2    0    0 -0.21474420526E+02 -0.23035636757E+02 -0.49928539410E+01  0.59301954648E+02  0.50000019369E+02 0.  0.
         12    1    1    2    0    0  0.21474420526E+02  0.23035636757E+02  0.49928539410E+01  0.31886045352E+02  0.00000000000E+00 0. -1.
         11    1    3    3    0    0  0.26670961575E+01 -0.18372432877E+02 -0.58093512243E+01  0.19452718412E+02  0.51100000000E-03 0. -1.
        -11    1    3    3    0    0 -0.20711453491E+02 -0.13578379588E+02  0.98967077471E+01  0.26669861688E+02  0.51100000000E-03 0.  1.
        -12    1    3    3    0    0 -0.34300631926E+01  0.89151757080E+01 -0.90802104638E+01  0.13179374548E+02  0.00000000000E+00 0.  1.
</event>
<event>
 7    1  0.4489290E-013  0.5930197E+02  0.7816164E-02  0.1266605E+00
        -11   -1    0    0    0    0  0.00000000000E+00  0.00000000000E+00  0.45593999997E+02  0.45594000000E+02  0.51100000000E-03 0. -1.
         11   -1    0    0    0    0 -0.00000000000E+00 -0.00000000000E+00 -0.45593999997E+02  0.45594000000E+02  0.51100000000E-03 0.  1.
    9900012    2    1    2    0    0 -0.18419148028E+02  0.13170649799E+02 -0.22449667456E+02  0.59301974862E+02  0.50000056234E+02 0.  0.
         12    1    1    2    0    0  0.18419148028E+02 -0.13170649799E+02  0.22449667456E+02  0.31886025138E+02  0.00000000000E+00 0. -1.
         11    1    3    3    0    0  0.61415564479E+01  0.52724504153E+01 -0.34445683896E+00  0.81016109361E+01  0.51100000000E-03 0. -1.
        -11    1    3    3    0    0 -0.31078817632E+02 -0.36905564902E+01 -0.21344187464E+02  0.37882548111E+02  0.51100000000E-03 0.  1.
        -12    1    3    3    0    0  0.65181131563E+01  0.11588755874E+02 -0.76102315234E+00  0.13317815815E+02  0.00000000000E+00 0.  1.
</event>
<event>
 7    1  0.4489290E-013  0.5930197E+02  0.7816164E-02  0.1266605E+00
        -11   -1    0    0    0    0  0.00000000000E+00  0.00000000000E+00  0.45593999997E+02  0.45594000000E+02  0.51100000000E-03 0.  1.
         11   -1    0    0    0    0 -0.00000000000E+00 -0.00000000000E+00 -0.45593999997E+02  0.45594000000E+02  0.51100000000E-03 0. -1.
    9900012    2    1    2    0    0 -0.64735847312E+01  0.26623137804E+01  0.31108260449E+02  0.59301967288E+02  0.50000042422E+02 0.  0.
         12    1    1    2    0    0  0.64735847312E+01 -0.26623137804E+01 -0.31108260449E+02  0.31886032712E+02  0.00000000000E+00 0. -1.
         11    1    3    3    0    0 -0.16160628959E+02 -0.13514709583E+02  0.16140692534E+02  0.26539315349E+02  0.51100000000E-03 0. -1.
        -11    1    3    3    0    0  0.97157684742E+01  0.20841088079E+02  0.79372607185E+01  0.24325854915E+02  0.51100000000E-03 0.  1.
        -12    1    3    3    0    0 -0.28724246396E-01 -0.46640647158E+01  0.70303071967E+01  0.84367970247E+01  0.00000000000E+00 0.  1.
</event>
<event>
 7    1  0.4489290E-013  0.5930196E+02  0.7816164E-02  0.1266605E+00
        -11   -1    0    0    0    0  0.00000000000E+00  0.00000000000E+00  0.45593999997E+02  0.45594000000E+02  0.51100000000E-03 0.  1.
         11   -1    0    0    0    0 -0.00000000000E+00 -0.00000000000E+00 -0.45593999997E+02  0.45594000000E+02  0.51100000000E-03 0. -1.
    9900012    2    1    2    0    0  0.32132452166E+01  0.15176445254E+02  0.27858037299E+02  0.59301957952E+02  0.50000025394E+02 0.  0.
         12    1    1    2    0    0 -0.32132452166E+01 -0.15176445254E+02 -0.27858037299E+02  0.31886042048E+02  0.00000000000E+00 0. -1.
         11    1    3    3    0    0  0.13830692013E+02 -0.12577987491E+02  0.16469453174E+02  0.24914588076E+02  0.51100000000E-03 0. -1.
        -11    1    3    3    0    0 -0.99647536462E+01  0.27219147910E+02  0.68676441658E+01  0.29788300805E+02  0.51100000000E-03 0.  1.
        -12    1    3    3    0    0 -0.65269315072E+00  0.53528483477E+00  0.45209399588E+01  0.45990690704E+01  0.00000000000E+00 0.  1.
</event>
<event>
 7    1  0.4489290E-013  0.5930196E+02  0.7816164E-02  0.1266605E+00
        -11   -1    0    0    0    0  0.00000000000E+00  0.00000000000E+00  0.45593999997E+02  0.45594000000E+02  0.51100000000E-03 0. -1.
         11   -1    0    0    0    0 -0.00000000000E+00 -0.00000000000E+00 -0.45593999997E+02  0.45594000000E+02  0.51100000000E-03 0.  1.
    9900012    2    1    2    0    0 -0.51107275981E+01  0.18760125926E+02 -0.25271681919E+02  0.59301956527E+02  0.50000022797E+02 0.  0.
         12    1    1    2    0    0  0.51107275981E+01 -0.18760125926E+02  0.25271681919E+02  0.31886043473E+02  0.00000000000E+00 0. -1.
         11    1    3    3    0    0 -0.97332085405E+00 -0.51716084736E+01 -0.32061248695E+02  0.32490253244E+02  0.51100000000E-03 0. -1.
        -11    1    3    3    0    0 -0.51002304463E+01  0.13440475609E+02  0.18403239466E+00  0.14376807830E+02  0.51100000000E-03 0.  1.
         12    1    3    3    0    0  0.96282370225E+00  0.10491258790E+02  0.66055343814E+01  0.12434895454E+02  0.00000000000E+00 0. -1.
</event>
<event>
 7    1  0.4489290E-013  0.5930202E+02  0.7816164E-02  0.1266605E+00
        -11   -1    0    0    0    0  0.00000000000E+00  0.00000000000E+00  0.45593999997E+02  0.45594000000E+02  0.51100000000E-03 0. -1.
         11   -1    0    0    0    0 -0.00000000000E+00 -0.00000000000E+00 -0.45593999997E+02  0.45594000000E+02  0.51100000000E-03 0.  1.
    9900012    2    1    2    0    0 -0.98634959690E+01  0.17907248120E+02 -0.24469530337E+02  0.59302015573E+02  0.50000130481E+02 0.  0.
         12    1    1    2    0    0  0.98634959690E+01 -0.17907248120E+02  0.24469530337E+02  0.31885984427E+02  0.00000000000E+00 0. -1.
         11    1    3    3    0    0  0.91947235164E+00  0.25325451504E+00 -0.24183016426E+02  0.24201815035E+02  0.51100000000E-03 0. -1.
        -11    1    3    3    0    0 -0.51137371505E+00  0.22767009523E+02  0.34515171531E+01  0.23032828672E+02  0.51100000000E-03 0.  1.
        -12    1    3    3    0    0 -0.10271594606E+02 -0.51130159180E+01 -0.37380310639E+01  0.12067371866E+02  0.00000000000E+00 0.  1.
</event>
<event>
 7    1  0.4489290E-013  0.5930195E+02  0.7816164E-02  0.1266605E+00
        -11   -1    0    0    0    0  0.00000000000E+00  0.00000000000E+00  0.45593999997E+02  0.45594000000E+02  0.51100000000E-03 0.  1.
         11   -1    0    0    0    0 -0.00000000000E+00 -0.00000000000E+00 -0.45593999997E+02  0.45594000000E+02  0.51100000000E-03 0. -1.
    9900012    2    1    2    0    0 -0.80774128201E+01 -0.27260253321E+02 -0.14434468739E+02  0.59301954514E+02  0.50000019125E+02 0.  0.
         12    1    1    2    0    0  0.80774128201E+01  0.27260253321E+02  0.14434468739E+02  0.31886045486E+02  0.00000000000E+00 0. -1.
         11    1    3    3    0    0  0.11760420922E+02 -0.10952126530E+02 -0.10932696737E+02  0.19436574647E+02  0.51100000000E-03 0.  1.
        -11    1    3    3    0    0 -0.25983598679E+02 -0.48481726323E+01 -0.13355833666E+00  0.26432366830E+02  0.51100000000E-03 0. -1.
         12    1    3    3    0    0  0.61457649367E+01 -0.11459954158E+02 -0.33682136648E+01  0.13433013037E+02  0.00000000000E+00 0. -1.
</event>
<event>
 7    1  0.4489290E-013  0.5930192E+02  0.7816164E-02  0.1266605E+00
        -11   -1    0    0    0    0  0.00000000000E+00  0.00000000000E+00  0.45593999997E+02  0.45594000000E+02  0.51100000000E-03 0.  1.
         11   -1    0    0    0    0 -0.00000000000E+00 -0.00000000000E+00 -0.45593999997E+02  0.45594000000E+02  0.51100000000E-03 0. -1.
    9900012    2    1    2    0    0 -0.11678927238E+02  0.87480246240E+01  0.28351305788E+02  0.59301924416E+02  0.49999964233E+02 0.  0.
         12    1    1    2    0    0  0.11678927238E+02 -0.87480246240E+01 -0.28351305788E+02  0.31886075584E+02  0.00000000000E+00 0. -1.
         11    1    3    3    0    0 -0.77573746414E+01 -0.11897643389E+02  0.56334363313E+01  0.15279606824E+02  0.51100000000E-03 0. -1.
        -11    1    3    3    0    0 -0.10429967845E+02  0.16988257678E+02  0.28359483387E+02  0.34664757700E+02  0.51100000000E-03 0.  1.
        -12    1    3    3    0    0  0.65084152476E+01  0.36574103351E+01 -0.56416139304E+01  0.93575598921E+01  0.00000000000E+00 0.  1.
</event>
<event>
 7    1  0.4489290E-013  0.5930195E+02  0.7816164E-02  0.1266605E+00
        -11   -1    0    0    0    0  0.00000000000E+00  0.00000000000E+00  0.45593999997E+02  0.45594000000E+02  0.51100000000E-03 0. -1.
         11   -1    0    0    0    0 -0.00000000000E+00 -0.00000000000E+00 -0.45593999997E+02  0.45594000000E+02  0.51100000000E-03 0.  1.
    9900012    2    1    2    0    0 -0.20581859374E+02  0.20603991479E+02 -0.12983936415E+02  0.59301952817E+02  0.50000016029E+02 0.  0.
         12    1    1    2    0    0  0.20581859374E+02 -0.20603991479E+02  0.12983936415E+02  0.31886047183E+02  0.00000000000E+00 0. -1.
         11    1    3    3    0    0  0.12846250297E+02  0.16275954078E+02 -0.71627515331E+01  0.21937133761E+02  0.51100000000E-03 0. -1.
        -11    1    3    3    0    0 -0.44664387988E+01 -0.24088703924E+01 -0.56973670574E+01  0.76296607892E+01  0.51100000000E-03 0.  1.
         12    1    3    3    0    0 -0.28961670872E+02  0.67369077928E+01 -0.12381782476E+00  0.29735158267E+02  0.00000000000E+00 0. -1.
</event>
<event>
 7    1  0.4489290E-013  0.5930187E+02  0.7816164E-02  0.1266605E+00
        -11   -1    0    0    0    0  0.00000000000E+00  0.00000000000E+00  0.45593999997E+02  0.45594000000E+02  0.51100000000E-03 0. -1.
         11   -1    0    0    0    0 -0.00000000000E+00 -0.00000000000E+00 -0.45593999997E+02  0.45594000000E+02  0.51100000000E-03 0.  1.
    9900012    2    1    2    0    0 -0.23714686013E+02  0.15007038991E+02 -0.15136969681E+02  0.59301868170E+02  0.49999861653E+02 0.  0.
         12    1    1    2    0    0  0.23714686013E+02 -0.15007038991E+02  0.15136969681E+02  0.31886131830E+02  0.00000000000E+00 0. -1.
         11    1    3    3    0    0 -0.14198947143E+02  0.18848222415E+02 -0.49515485928E+00  0.23603193995E+02  0.51100000000E-03 0. -1.
        -11    1    3    3    0    0  0.42929931233E+01 -0.33310880577E+01 -0.20115046937E+02  0.20836051717E+02  0.51100000000E-03 0.  1.
        -12    1    3    3    0    0 -0.13808731993E+02 -0.51009536605E+00  0.54732321150E+01  0.14862622458E+02  0.00000000000E+00 0.  1.
</event>
<event>
 7    1  0.4489290E-013  0.5930195E+02  0.7816164E-02  0.1266605E+00
        -11   -1    0    0    0    0  0.00000000000E+00  0.00000000000E+00  0.45593999997E+02  0.45594000000E+02  0.51100000000E-03 0.  1.
         11   -1    0    0    0    0 -0.00000000000E+00 -0.00000000000E+00 -0.45593999997E+02  0.45594000000E+02  0.51100000000E-03 0. -1.
    9900012    2    1    2    0    0 -0.51694375425E+01  0.84401653458E+01  0.30311065854E+02  0.59301949934E+02  0.50000010772E+02 0.  0.
         12    1    1    2    0    0  0.51694375425E+01 -0.84401653458E+01 -0.30311065854E+02  0.31886050066E+02  0.00000000000E+00 0. -1.
         11    1    3    3    0    0 -0.17596766169E+02 -0.50944627826E+01 -0.22715749623E+01  0.18459679946E+02  0.51100000000E-03 0. -1.
        -11    1    3    3    0    0  0.89927592913E+01  0.37159160617E+01  0.41714844786E+01  0.10586738632E+02  0.51100000000E-03 0.  1.
         12    1    3    3    0    0  0.34345693351E+01  0.98187120667E+01  0.28411156338E+02  0.30255531356E+02  0.00000000000E+00 0. -1.
</event>
<event>
 7    1  0.4489290E-013  0.5930192E+02  0.7816164E-02  0.1266605E+00
        -11   -1    0    0    0    0  0.00000000000E+00  0.00000000000E+00  0.45593999997E+02  0.45594000000E+02  0.51100000000E-03 0. -1.
         11   -1    0    0    0    0 -0.00000000000E+00 -0.00000000000E+00 -0.45593999997E+02  0.45594000000E+02  0.51100000000E-03 0.  1.
    9900012    2    1    2    0    0  0.47127144363E+01 -0.31598519504E+00 -0.31534304524E+02  0.59301923323E+02  0.49999962240E+02 0.  0.
         12    1    1    2    0    0 -0.47127144363E+01  0.31598519504E+00  0.31534304524E+02  0.31886076677E+02  0.00000000000E+00 0. -1.
         11    1    3    3    0    0  0.12179766584E+01  0.18426194720E+02 -0.12796109164E+02  0.22466609201E+02  0.51100000000E-03 0.  1.
        -11    1    3    3    0    0 -0.51373741616E+01 -0.12803340333E+02  0.16682936161E+01  0.13896090847E+02  0.51100000000E-03 0. -1.
         12    1    3    3    0    0  0.86321119396E+01 -0.59388395819E+01 -0.20406488977E+02  0.22939223275E+02  0.00000000000E+00 0. -1.
</event>
<event>
 7    1  0.4489290E-013  0.5930197E+02  0.7816164E-02  0.1266605E+00
        -11   -1    0    0    0    0  0.00000000000E+00  0.00000000000E+00  0.45593999997E+02  0.45594000000E+02  0.51100000000E-03 0.  1.
         11   -1    0    0    0    0 -0.00000000000E+00 -0.00000000000E+00 -0.45593999997E+02  0.45594000000E+02  0.51100000000E-03 0. -1.
    9900012    2    1    2    0    0 -0.19633193983E+02 -0.94426261620E+00  0.25107067869E+02  0.59301971793E+02  0.50000050637E+02 0.  0.
         12    1    1    2    0    0  0.19633193983E+02  0.94426261620E+00 -0.25107067869E+02  0.31886028207E+02  0.00000000000E+00 0. -1.
         11    1    3    3    0    0 -0.23639922155E+02  0.16161272073E+02  0.54423979536E+01  0.29148796377E+02  0.51100000000E-03 0. -1.
        -11    1    3    3    0    0 -0.22114033786E+01 -0.12699881842E+02  0.18341490781E+02  0.22418465336E+02  0.51100000000E-03 0.  1.
         12    1    3    3    0    0  0.62181315505E+01 -0.44056528480E+01  0.13231791343E+01  0.77347100797E+01  0.00000000000E+00 0. -1.
</event>
<event>
 7    1  0.4489290E-013  0.5930193E+02  0.7816164E-02  0.1266605E+00
        -11   -1    0    0    0    0  0.00000000000E+00  0.00000000000E+00  0.45593999997E+02  0.45594000000E+02  0.51100000000E-03 0.  1.
         11   -1    0    0    0    0 -0.00000000000E+00 -0.00000000000E+00 -0.45593999997E+02  0.45594000000E+02  0.51100000000E-03 0. -1.
    9900012    2    1    2    0    0 -0.21102314422E+02  0.23093119971E+02  0.61742798137E+01  0.59301927881E+02  0.49999970553E+02 0.  0.
         12    1    1    2    0    0  0.21102314422E+02 -0.23093119971E+02 -0.61742798137E+01  0.31886072119E+02  0.00000000000E+00 0. -1.
         11    1    3    3    0    0  0.13586726856E+01  0.96522428035E+01  0.11043522309E+02  0.14729941203E+02  0.51100000000E-03 0. -1.
        -11    1    3    3    0    0 -0.24504563328E+02  0.19998605224E+02 -0.12763719878E+02  0.34107629355E+02  0.51100000000E-03 0.  1.
        -12    1    3    3    0    0  0.20435762199E+01 -0.65577280574E+01  0.78944773834E+01  0.10464357324E+02  0.00000000000E+00 0.  1.
</event>
<event>
 7    1  0.4489290E-013  0.5930201E+02  0.7816164E-02  0.1266605E+00
        -11   -1    0    0    0    0  0.00000000000E+00  0.00000000000E+00  0.45593999997E+02  0.45594000000E+02  0.51100000000E-03 0.  1.
         11   -1    0    0    0    0 -0.00000000000E+00 -0.00000000000E+00 -0.45593999997E+02  0.45594000000E+02  0.51100000000E-03 0. -1.
    9900012    2    1    2    0    0 -0.10893031982E+02 -0.19000287968E+02  0.23174276564E+02  0.59302012751E+02  0.50000125334E+02 0.  0.
         12    1    1    2    0    0  0.10893031982E+02  0.19000287968E+02 -0.23174276564E+02  0.31885987249E+02  0.00000000000E+00 0. -1.
         11    1    3    3    0    0  0.18954449561E+02 -0.49363502570E+01  0.13820292207E+02  0.23971633006E+02  0.51100000000E-03 0. -1.
        -11    1    3    3    0    0 -0.18658004242E+02 -0.61125712112E+01  0.90016104868E+01  0.21598926842E+02  0.51100000000E-03 0.  1.
         12    1    3    3    0    0 -0.11189477301E+02 -0.79513664996E+01  0.35237386933E+00  0.13731452903E+02  0.00000000000E+00 0. -1.
</event>
<event>
 7    1  0.4489290E-013  0.5930197E+02  0.7816164E-02  0.1266605E+00
        -11   -1    0    0    0    0  0.00000000000E+00  0.00000000000E+00  0.45593999997E+02  0.45594000000E+02  0.51100000000E-03 0.  1.
         11   -1    0    0    0    0 -0.00000000000E+00 -0.00000000000E+00 -0.45593999997E+02  0.45594000000E+02  0.51100000000E-03 0. -1.
    9900012    2    1    2    0    0 -0.31702726788E+01  0.11309524695E+02  0.29643937722E+02  0.59301968241E+02  0.50000044159E+02 0.  0.
         12    1    1    2    0    0  0.31702726788E+01 -0.11309524695E+02 -0.29643937722E+02  0.31886031759E+02  0.00000000000E+00 0. -1.
         11    1    3    3    0    0 -0.12253790731E+02  0.14558311137E+02  0.31219326603E+02  0.36561539413E+02  0.51100000000E-03 0. -1.
        -11    1    3    3    0    0 -0.19444640218E+01 -0.95317559105E+01 -0.24056339625E+01  0.10021097050E+02  0.51100000000E-03 0.  1.
         12    1    3    3    0    0  0.11027982074E+02  0.62829694685E+01  0.83024508131E+00  0.12719331777E+02  0.00000000000E+00 0. -1.
</event>
<event>
 7    1  0.4489290E-013  0.5930195E+02  0.7816164E-02  0.1266605E+00
        -11   -1    0    0    0    0  0.00000000000E+00  0.00000000000E+00  0.45593999997E+02  0.45594000000E+02  0.51100000000E-03 0.  1.
         11   -1    0    0    0    0 -0.00000000000E+00 -0.00000000000E+00 -0.45593999997E+02  0.45594000000E+02  0.51100000000E-03 0. -1.
    9900012    2    1    2    0    0 -0.24154285635E+02  0.20025210867E+02 -0.56816864628E+01  0.59301950607E+02  0.50000012000E+02 0.  0.
         12    1    1    2    0    0  0.24154285635E+02 -0.20025210867E+02  0.56816864628E+01  0.31886049393E+02  0.00000000000E+00 0. -1.
         11    1    3    3    0    0  0.13087714697E+02  0.58640934093E+01 -0.11370707317E+02  0.18302154318E+02  0.51100000000E-03 0. -1.
        -11    1    3    3    0    0 -0.36473943665E+02  0.14151088796E+02  0.67387742137E+01  0.39699029695E+02  0.51100000000E-03 0.  1.
        -12    1    3    3    0    0 -0.76805666738E+00  0.10028661962E-01 -0.10497533591E+01  0.13007665945E+01  0.00000000000E+00 0.  1.
</event>
<event>
 7    1  0.4489290E-013  0.5930196E+02  0.7816164E-02  0.1266605E+00
        -11   -1    0    0    0    0  0.00000000000E+00  0.00000000000E+00  0.45593999997E+02  0.45594000000E+02  0.51100000000E-03 0. -1.
         11   -1    0    0    0    0 -0.00000000000E+00 -0.00000000000E+00 -0.45593999997E+02  0.45594000000E+02  0.51100000000E-03 0.  1.
    9900012    2    1    2    0    0  0.63817191675E+01 -0.30241896427E+02 -0.78371373979E+01  0.59301962905E+02  0.50000034428E+02 0.  0.
         12    1    1    2    0    0 -0.63817191675E+01  0.30241896427E+02  0.78371373979E+01  0.31886037095E+02  0.00000000000E+00 0. -1.
         11    1    3    3    0    0  0.21904802802E+01  0.28285989968E+01  0.10394602246E+02  0.10993040173E+02  0.51100000000E-03 0. -1.
        -11    1    3    3    0    0 -0.90560053943E+01 -0.29719411508E+02 -0.12385986318E+02  0.33446484291E+02  0.51100000000E-03 0.  1.
        -12    1    3    3    0    0  0.13247244282E+02 -0.33510839156E+01 -0.58457533258E+01  0.14862438441E+02  0.00000000000E+00 0.  1.
</event>
<event>
 7    1  0.4489290E-013  0.5930196E+02  0.7816164E-02  0.1266605E+00
        -11   -1    0    0    0    0  0.00000000000E+00  0.00000000000E+00  0.45593999997E+02  0.45594000000E+02  0.51100000000E-03 0. -1.
         11   -1    0    0    0    0 -0.00000000000E+00 -0.00000000000E+00 -0.45593999997E+02  0.45594000000E+02  0.51100000000E-03 0.  1.
    9900012    2    1    2    0    0  0.29190508766E+02 -0.10223300573E+02  0.77535707077E+01  0.59301960181E+02  0.50000029460E+02 0.  0.
         12    1    1    2    0    0 -0.29190508766E+02  0.10223300573E+02 -0.77535707077E+01  0.31886039819E+02  0.00000000000E+00 0. -1.
         11    1    3    3    0    0 -0.11561270346E+02 -0.10467870680E+01  0.45960735476E+01  0.12485296452E+02  0.51100000000E-03 0. -1.
        -11    1    3    3    0    0  0.11692931368E+02 -0.12601492900E+02 -0.12064059804E+01  0.17233040444E+02  0.51100000000E-03 0.  1.
         12    1    3    3    0    0  0.29058847744E+02  0.34249793949E+01  0.43639031406E+01  0.29583623285E+02  0.00000000000E+00 0. -1.
</event>
<event>
 7    1  0.4489290E-013  0.5930194E+02  0.7816164E-02  0.1266605E+00
        -11   -1    0    0    0    0  0.00000000000E+00  0.00000000000E+00  0.45593999997E+02  0.45594000000E+02  0.51100000000E-03 0.  1.
         11   -1    0    0    0    0 -0.00000000000E+00 -0.00000000000E+00 -0.45593999997E+02  0.45594000000E+02  0.51100000000E-03 0. -1.
    9900012    2    1    2    0    0 -0.25148122368E+02 -0.11594567586E+02  0.15806927145E+02  0.59301937184E+02  0.49999987519E+02 0.  0.
         12    1    1    2    0    0  0.25148122368E+02  0.11594567586E+02 -0.15806927145E+02  0.31886062816E+02  0.00000000000E+00 0. -1.
         11    1    3    3    0    0 -0.11038568546E+02 -0.25439614077E+02  0.14552786463E+02  0.31317847213E+02  0.51100000000E-03 0.  1.
        -11    1    3    3    0    0 -0.75717766473E+00  0.39524189264E+01  0.88429090708E+01  0.97155532257E+01  0.51100000000E-03 0. -1.
         12    1    3    3    0    0 -0.13352376157E+02  0.98926275645E+01 -0.75887683887E+01  0.18268536745E+02  0.00000000000E+00 0. -1.
</event>
<event>
 7    1  0.4489290E-013  0.5930193E+02  0.7816164E-02  0.1266605E+00
        -11   -1    0    0    0    0  0.00000000000E+00  0.00000000000E+00  0.45593999997E+02  0.45594000000E+02  0.51100000000E-03 0. -1.
         11   -1    0    0    0    0 -0.00000000000E+00 -0.00000000000E+00 -0.45593999997E+02  0.45594000000E+02  0.51100000000E-03 0.  1.
    9900012    2    1    2    0    0  0.28948619362E+02  0.64843137325E+01 -0.11689854618E+02  0.59301927985E+02  0.49999970742E+02 0.  0.
         12    1    1    2    0    0 -0.28948619362E+02 -0.64843137325E+01  0.11689854618E+02  0.31886072015E+02  0.00000000000E+00 0. -1.
         11    1    3    3    0    0  0.16036077109E+02  0.42007140061E+01  0.11776487354E+02  0.20334390127E+02  0.51100000000E-03 0. -1.
        -11    1    3    3    0    0 -0.49167973142E+01 -0.86037534247E+01 -0.10196755605E+02  0.14218765557E+02  0.51100000000E-03 0.  1.
        -12    1    3    3    0    0  0.17829339568E+02  0.10887353151E+02 -0.13269586366E+02  0.24748772301E+02  0.00000000000E+00 0.  1.
</event>
<event>
 7    1  0.4489290E-013  0.5930195E+02  0.7816164E-02  0.1266605E+00
        -11   -1    0    0    0    0  0.00000000000E+00  0.00000000000E+00  0.45593999997E+02  0.45594000000E+02  0.51100000000E-03 0.  1.
         11   -1    0    0    0    0 -0.00000000000E+00 -0.00000000000E+00 -0.45593999997E+02  0.45594000000E+02  0.51100000000E-03 0. -1.
    9900012    2    1    2    0    0 -0.75003096095E+01 -0.74841508669E+01  0.30074125752E+02  0.59301949787E+02  0.50000010504E+02 0.  0.
         12    1    1    2    0    0  0.75003096095E+01  0.74841508669E+01 -0.30074125752E+02  0.31886050213E+02  0.00000000000E+00 0. -1.
         11    1    3    3    0    0  0.20778774059E+02  0.11964804682E+01  0.12695999086E+02  0.24379856643E+02  0.51100000000E-03 0. -1.
        -11    1    3    3    0    0 -0.10096239189E+02 -0.22592645352E+01  0.96497423764E+01  0.14147644687E+02  0.51100000000E-03 0.  1.
         12    1    3    3    0    0 -0.18182844479E+02 -0.64213667999E+01  0.77283842896E+01  0.20774448456E+02  0.00000000000E+00 0. -1.
</event>
<event>
 7    1  0.4489290E-013  0.5930194E+02  0.7816164E-02  0.1266605E+00
        -11   -1    0    0    0    0  0.00000000000E+00  0.00000000000E+00  0.45593999997E+02  0.45594000000E+02  0.51100000000E-03 0. -1.
         11   -1    0    0    0    0 -0.00000000000E+00 -0.00000000000E+00 -0.45593999997E+02  0.45594000000E+02  0.51100000000E-03 0.  1.
    9900012    2    1    2    0    0  0.15369422903E+02 -0.18028224457E+02 -0.21342088095E+02  0.59301940951E+02  0.49999994388E+02 0.  0.
         12    1    1    2    0    0 -0.15369422903E+02  0.18028224457E+02  0.21342088095E+02  0.31886059049E+02  0.00000000000E+00 0. -1.
         11    1    3    3    0    0  0.18505789337E+02  0.10247383751E+02 -0.35725624769E+01  0.21453119019E+02  0.51100000000E-03 0. -1.
        -11    1    3    3    0    0  0.56353625761E+01 -0.21305025495E+02 -0.13586709666E+02  0.25889382042E+02  0.51100000000E-03 0.  1.
        -12    1    3    3    0    0 -0.87717290105E+01 -0.69705827122E+01 -0.41828159529E+01  0.11959439890E+02  0.00000000000E+00 0.  1.
</event>
<event>
 7    1  0.4489290E-013  0.5930192E+02  0.7816164E-02  0.1266605E+00
        -11   -1    0    0    0    0  0.00000000000E+00  0.00000000000E+00  0.45593999997E+02  0.45594000000E+02  0.51100000000E-03 0.  1.
         11   -1    0    0    0    0 -0.00000000000E+00 -0.00000000000E+00 -0.45593999997E+02  0.45594000000E+02  0.51100000000E-03 0. -1.
    9900012    2    1    2    0    0 -0.41337067329E+01  0.31551099971E+02 -0.20402525884E+01  0.59301920414E+02  0.49999956935E+02 0.  0.
         12    1    1    2    0    0  0.41337067329E+01 -0.31551099971E+02  0.20402525884E+01  0.31886079586E+02  0.00000000000E+00 0. -1.
         11    1    3    3    0    0 -0.11760231673E+01  0.63205219000E+01  0.21804582271E+02  0.22732616124E+02  0.51100000000E-03 0.  1.
        -11    1    3    3    0    0 -0.24999916796E+00  0.22125768295E+02 -0.23733329984E+02  0.32448159803E+02  0.51100000000E-03 0. -1.
         12    1    3    3    0    0 -0.27076843976E+01  0.31048097760E+01 -0.11150487501E+00  0.41211444866E+01  0.00000000000E+00 0. -1.
</event>
<event>
 7    1  0.4489290E-013  0.5930181E+02  0.7816164E-02  0.1266605E+00
        -11   -1    0    0    0    0  0.00000000000E+00  0.00000000000E+00  0.45593999997E+02  0.45594000000E+02  0.51100000000E-03 0.  1.
         11   -1    0    0    0    0 -0.00000000000E+00 -0.00000000000E+00 -0.45593999997E+02  0.45594000000E+02  0.51100000000E-03 0. -1.
    9900012    2    1    2    0    0 -0.17651739401E+02  0.25779430925E+02  0.63691345622E+01  0.59301814312E+02  0.49999763429E+02 0.  0.
         12    1    1    2    0    0  0.17651739401E+02 -0.25779430925E+02 -0.63691345622E+01  0.31886185688E+02  0.00000000000E+00 0. -1.
         11    1    3    3    0    0 -0.13159785551E+02  0.59051668475E+01 -0.76383189221E+01  0.16321607380E+02  0.51100000000E-03 0. -1.
        -11    1    3    3    0    0  0.93224219384E+01  0.24319235365E+02  0.77207024384E+01  0.27165087998E+02  0.51100000000E-03 0.  1.
        -12    1    3    3    0    0 -0.13814375788E+02 -0.44449712881E+01  0.62867510459E+01  0.15815118933E+02  0.00000000000E+00 0.  1.
</event>
<event>
 7    1  0.4489290E-013  0.5930195E+02  0.7816164E-02  0.1266605E+00
        -11   -1    0    0    0    0  0.00000000000E+00  0.00000000000E+00  0.45593999997E+02  0.45594000000E+02  0.51100000000E-03 0. -1.
         11   -1    0    0    0    0 -0.00000000000E+00 -0.00000000000E+00 -0.45593999997E+02  0.45594000000E+02  0.51100000000E-03 0.  1.
    9900012    2    1    2    0    0 -0.92690434336E+01  0.55986715783E+01 -0.29990991766E+02  0.59301954828E+02  0.50000019697E+02 0.  0.
         12    1    1    2    0    0  0.92690434336E+01 -0.55986715783E+01  0.29990991766E+02  0.31886045172E+02  0.00000000000E+00 0. -1.
         11    1    3    3    0    0 -0.11201466215E+02  0.15994639158E+02 -0.72641657829E+01  0.20834333009E+02  0.51100000000E-03 0. -1.
        -11    1    3    3    0    0  0.96379695431E+00 -0.18755918166E+02 -0.23423581495E+02  0.30022950241E+02  0.51100000000E-03 0.  1.
         12    1    3    3    0    0  0.96862582740E+00  0.83599505872E+01  0.69675551221E+00  0.84446715778E+01  0.00000000000E+00 0. -1.
</event>
<event>
 7    1  0.4489290E-013  0.5930197E+02  0.7816164E-02  0.1266605E+00
        -11   -1    0    0    0    0  0.00000000000E+00  0.00000000000E+00  0.45593999997E+02  0.45594000000E+02  0.51100000000E-03 0.  1.
         11   -1    0    0    0    0 -0.00000000000E+00 -0.00000000000E+00 -0.45593999997E+02  0.45594000000E+02  0.51100000000E-03 0. -1.
    9900012    2    1    2    0    0 -0.25133959691E+02  0.14946459944E+02  0.12712436688E+02  0.59301974202E+02  0.50000055031E+02 0.  0.
         12    1    1    2    0    0  0.25133959691E+02 -0.14946459944E+02 -0.12712436688E+02  0.31886025798E+02  0.00000000000E+00 0. -1.
         11    1    3    3    0    0 -0.20052383431E+02  0.63627165896E+01 -0.75876639270E+01  0.22364142903E+02  0.51100000000E-03 0. -1.
        -11    1    3    3    0    0  0.32793970331E+01  0.13224696199E+02  0.23234653405E+02  0.26935035800E+02  0.51100000000E-03 0.  1.
        -12    1    3    3    0    0 -0.83609732936E+01 -0.46409528451E+01 -0.29345527894E+01  0.10002795499E+02  0.00000000000E+00 0.  1.
</event>
<event>
 7    1  0.4489290E-013  0.5930194E+02  0.7816164E-02  0.1266605E+00
        -11   -1    0    0    0    0  0.00000000000E+00  0.00000000000E+00  0.45593999997E+02  0.45594000000E+02  0.51100000000E-03 0. -1.
         11   -1    0    0    0    0 -0.00000000000E+00 -0.00000000000E+00 -0.45593999997E+02  0.45594000000E+02  0.51100000000E-03 0.  1.
    9900012    2    1    2    0    0  0.31350563600E+02 -0.54364518133E+01  0.20756086772E+01  0.59301937249E+02  0.49999987638E+02 0.  0.
         12    1    1    2    0    0 -0.31350563600E+02  0.54364518133E+01 -0.20756086772E+01  0.31886062751E+02  0.00000000000E+00 0. -1.
         11    1    3    3    0    0 -0.38148990976E+01  0.91261421240E+01  0.36181798587E+01  0.10532385814E+02  0.51100000000E-03 0. -1.
        -11    1    3    3    0    0  0.75566405173E+01 -0.17965268026E+02  0.51486007428E+01  0.20158416630E+02  0.51100000000E-03 0.  1.
         12    1    3    3    0    0  0.27608822180E+02  0.34026740884E+01 -0.66911719243E+01  0.28611134805E+02  0.00000000000E+00 0. -1.
</event>
<event>
 7    1  0.4489290E-013  0.5930209E+02  0.7816164E-02  0.1266604E+00
        -11   -1    0    0    0    0  0.00000000000E+00  0.00000000000E+00  0.45593999997E+02  0.45594000000E+02  0.51100000000E-03 0. -1.
         11   -1    0    0    0    0 -0.00000000000E+00 -0.00000000000E+00 -0.45593999997E+02  0.45594000000E+02  0.51100000000E-03 0.  1.
    9900012    2    1    2    0    0  0.14272237389E+02  0.25625309272E+02 -0.12504322015E+02  0.59302089249E+02  0.50000264848E+02 0.  0.
         12    1    1    2    0    0 -0.14272237389E+02 -0.25625309272E+02  0.12504322015E+02  0.31885910751E+02  0.00000000000E+00 0. -1.
         11    1    3    3    0    0 -0.10336726340E+01  0.86510592543E+01  0.16645299918E+02  0.18787637291E+02  0.51100000000E-03 0. -1.
        -11    1    3    3    0    0  0.10549456562E+02  0.13309462233E+00 -0.94412775913E+01  0.14157911948E+02  0.51100000000E-03 0.  1.
         12    1    3    3    0    0  0.47564534619E+01  0.16841155395E+02 -0.19708344342E+02  0.26356540010E+02  0.00000000000E+00 0. -1.
</event>
<event>
 7    1  0.4489290E-013  0.5930201E+02  0.7816164E-02  0.1266605E+00
        -11   -1    0    0    0    0  0.00000000000E+00  0.00000000000E+00  0.45593999997E+02  0.45594000000E+02  0.51100000000E-03 0.  1.
         11   -1    0    0    0    0 -0.00000000000E+00 -0.00000000000E+00 -0.45593999997E+02  0.45594000000E+02  0.51100000000E-03 0. -1.
    9900012    2    1    2    0    0 -0.11736570811E+02  0.17810826228E+02  0.23701136241E+02  0.59302008021E+02  0.50000116709E+02 0.  0.
         12    1    1    2    0    0  0.11736570811E+02 -0.17810826228E+02 -0.23701136241E+02  0.31885991979E+02  0.00000000000E+00 0. -1.
         11    1    3    3    0    0 -0.24961571592E+02  0.32799484312E+01  0.19214856985E+02  0.31670946422E+02  0.51100000000E-03 0. -1.
        -11    1    3    3    0    0  0.69254053977E+01  0.76119412860E+01  0.11871191575E+02  0.15710763181E+02  0.51100000000E-03 0.  1.
         12    1    3    3    0    0  0.62995953833E+01  0.69189365107E+01 -0.73849123184E+01  0.11920298418E+02  0.00000000000E+00 0. -1.
</event>
<event>
 7    1  0.4489290E-013  0.5930197E+02  0.7816164E-02  0.1266605E+00
        -11   -1    0    0    0    0  0.00000000000E+00  0.00000000000E+00  0.45593999997E+02  0.45594000000E+02  0.51100000000E-03 0. -1.
         11   -1    0    0    0    0 -0.00000000000E+00 -0.00000000000E+00 -0.45593999997E+02  0.45594000000E+02  0.51100000000E-03 0.  1.
    9900012    2    1    2    0    0  0.88498423264E-01 -0.19626982988E+02 -0.25129511970E+02  0.59301973828E+02  0.50000054349E+02 0.  0.
         12    1    1    2    0    0 -0.88498423264E-01  0.19626982988E+02  0.25129511970E+02  0.31886026172E+02  0.00000000000E+00 0. -1.
         11    1    3    3    0    0  0.14212343340E+02  0.65412264772E+01  0.17591750816E+01  0.15743984384E+02  0.51100000000E-03 0. -1.
        -11    1    3    3    0    0 -0.10890394364E+02 -0.18331410801E+02 -0.78576226911E+01  0.22724074150E+02  0.51100000000E-03 0.  1.
         12    1    3    3    0    0 -0.32334505530E+01 -0.78367986634E+01 -0.19031064361E+02  0.20833915294E+02  0.00000000000E+00 0. -1.
</event>
<event>
 7    1  0.4489290E-013  0.5930183E+02  0.7816164E-02  0.1266605E+00
        -11   -1    0    0    0    0  0.00000000000E+00  0.00000000000E+00  0.45593999997E+02  0.45594000000E+02  0.51100000000E-03 0. -1.
         11   -1    0    0    0    0 -0.00000000000E+00 -0.00000000000E+00 -0.45593999997E+02  0.45594000000E+02  0.51100000000E-03 0.  1.
    9900012    2    1    2    0    0 -0.46723133707E+01 -0.18917268327E+01 -0.31485212301E+02  0.59301831584E+02  0.49999794929E+02 0.  0.
         12    1    1    2    0    0  0.46723133707E+01  0.18917268327E+01  0.31485212301E+02  0.31886168416E+02  0.00000000000E+00 0. -1.
         11    1    3    3    0    0 -0.21895872975E+01 -0.23601261781E+02 -0.14627589869E+02  0.27852831738E+02  0.51100000000E-03 0. -1.
        -11    1    3    3    0    0  0.56172120871E-01  0.98056118772E+01 -0.16593741586E+02  0.19274476379E+02  0.51100000000E-03 0.  1.
         12    1    3    3    0    0 -0.25388981941E+01  0.11903923071E+02 -0.26388084556E+00  0.12174523466E+02  0.00000000000E+00 0. -1.
</event>
<event>
 7    1  0.4489290E-013  0.5930197E+02  0.7816164E-02  0.1266605E+00
        -11   -1    0    0    0    0  0.00000000000E+00  0.00000000000E+00  0.45593999997E+02  0.45594000000E+02  0.51100000000E-03 0. -1.
         11   -1    0    0    0    0 -0.00000000000E+00 -0.00000000000E+00 -0.45593999997E+02  0.45594000000E+02  0.51100000000E-03 0.  1.
    9900012    2    1    2    0    0 -0.14355599426E+02 -0.25833662010E+02  0.11969026833E+02  0.59301969657E+02  0.50000046741E+02 0.  0.
         12    1    1    2    0    0  0.14355599426E+02  0.25833662010E+02 -0.11969026833E+02  0.31886030343E+02  0.00000000000E+00 0. -1.
         11    1    3    3    0    0 -0.15163354206E+02 -0.82437121858E+01  0.20835196834E+02  0.27055341963E+02  0.51100000000E-03 0. -1.
        -11    1    3    3    0    0  0.28883490109E+01  0.55146548447E+01 -0.63828667176E+01  0.89159949451E+01  0.51100000000E-03 0.  1.
         12    1    3    3    0    0 -0.20805942316E+01 -0.23104604668E+02 -0.24833032840E+01  0.23330632748E+02  0.00000000000E+00 0. -1.
</event>
<event>
 7    1  0.4489290E-013  0.5930194E+02  0.7816164E-02  0.1266605E+00
        -11   -1    0    0    0    0  0.00000000000E+00  0.00000000000E+00  0.45593999997E+02  0.45594000000E+02  0.51100000000E-03 0. -1.
         11   -1    0    0    0    0 -0.00000000000E+00 -0.00000000000E+00 -0.45593999997E+02  0.45594000000E+02  0.51100000000E-03 0.  1.
    9900012    2    1    2    0    0 -0.87192370408E+01 -0.28499839064E+02 -0.11333788119E+02  0.59301942320E+02  0.49999996886E+02 0.  0.
         12    1    1    2    0    0  0.87192370408E+01  0.28499839064E+02  0.11333788119E+02  0.31886057680E+02  0.00000000000E+00 0. -1.
         11    1    3    3    0    0 -0.12549387665E+02  0.74439129003E+01  0.10469728140E+01  0.14628572123E+02  0.51100000000E-03 0. -1.
        -11    1    3    3    0    0  0.92639088105E+00 -0.13381019163E+02 -0.16801655706E+02  0.21498965292E+02  0.51100000000E-03 0.  1.
         12    1    3    3    0    0  0.29037597428E+01 -0.22562732801E+02  0.44208947736E+01  0.23174404905E+02  0.00000000000E+00 0. -1.
</event>
<event>
 7    1  0.4489290E-013  0.5930194E+02  0.7816164E-02  0.1266605E+00
        -11   -1    0    0    0    0  0.00000000000E+00  0.00000000000E+00  0.45593999997E+02  0.45594000000E+02  0.51100000000E-03 0.  1.
         11   -1    0    0    0    0 -0.00000000000E+00 -0.00000000000E+00 -0.45593999997E+02  0.45594000000E+02  0.51100000000E-03 0. -1.
    9900012    2    1    2    0    0 -0.19694812804E+00 -0.10225444129E+02  0.30201358963E+02  0.59301943809E+02  0.49999999601E+02 0.  0.
         12    1    1    2    0    0  0.19694812804E+00  0.10225444129E+02 -0.30201358963E+02  0.31886056191E+02  0.00000000000E+00 0. -1.
         11    1    3    3    0    0  0.10720183590E+01 -0.29439072195E+02  0.21964759538E+02  0.36745868569E+02  0.51100000000E-03 0. -1.
        -11    1    3    3    0    0  0.13928321667E+01  0.15390131035E+02  0.33645443661E+01  0.15815064773E+02  0.51100000000E-03 0.  1.
         12    1    3    3    0    0 -0.26617986538E+01  0.38234970308E+01  0.48720550589E+01  0.67410104668E+01  0.00000000000E+00 0. -1.
</event>
<event>
 7    1  0.4489290E-013  0.5930204E+02  0.7816164E-02  0.1266604E+00
        -11   -1    0    0    0    0  0.00000000000E+00  0.00000000000E+00  0.45593999997E+02  0.45594000000E+02  0.51100000000E-03 0. -1.
         11   -1    0    0    0    0 -0.00000000000E+00 -0.00000000000E+00 -0.45593999997E+02  0.45594000000E+02  0.51100000000E-03 0.  1.
    9900012    2    1    2    0    0 -0.29226834001E+02  0.51573268494E+01  0.11657976623E+02  0.59302042826E+02  0.50000180184E+02 0.  0.
         12    1    1    2    0    0  0.29226834001E+02 -0.51573268494E+01 -0.11657976623E+02  0.31885957174E+02  0.00000000000E+00 0. -1.
         11    1    3    3    0    0  0.46925977119E+01  0.18264556564E+02  0.74986069208E+01  0.20293930269E+02  0.51100000000E-03 0. -1.
        -11    1    3    3    0    0 -0.31107470848E+02 -0.84583670773E+01  0.11868857513E+00  0.32237133921E+02  0.51100000000E-03 0.  1.
        -12    1    3    3    0    0 -0.28119608644E+01 -0.46488626368E+01  0.40406811274E+01  0.67709786362E+01  0.00000000000E+00 0.  1.
</event>
<event>
 7    1  0.4489290E-013  0.5930195E+02  0.7816164E-02  0.1266605E+00
        -11   -1    0    0    0    0  0.00000000000E+00  0.00000000000E+00  0.45593999997E+02  0.45594000000E+02  0.51100000000E-03 0.  1.
         11   -1    0    0    0    0 -0.00000000000E+00 -0.00000000000E+00 -0.45593999997E+02  0.45594000000E+02  0.51100000000E-03 0. -1.
    9900012    2    1    2    0    0  0.18624112325E+02 -0.18565418436E+02  0.18032973479E+02  0.59301945774E+02  0.50000003185E+02 0.  0.
         12    1    1    2    0    0 -0.18624112325E+02  0.18565418436E+02 -0.18032973479E+02  0.31886054226E+02  0.00000000000E+00 0. -1.
         11    1    3    3    0    0 -0.11745226699E+02 -0.42207950101E+01  0.10089871319E+02  0.16049017547E+02  0.51100000000E-03 0. -1.
        -11    1    3    3    0    0  0.19570588721E+02 -0.19591922188E+02  0.12537133647E+02  0.30397879503E+02  0.51100000000E-03 0.  1.
         12    1    3    3    0    0  0.10798750303E+02  0.52472987621E+01 -0.45940314870E+01  0.12855048724E+02  0.00000000000E+00 0. -1.
</event>
<event>
 7    1  0.4489290E-013  0.5930195E+02  0.7816164E-02  0.1266605E+00
        -11   -1    0    0    0    0  0.00000000000E+00  0.00000000000E+00  0.45593999997E+02  0.45594000000E+02  0.51100000000E-03 0.  1.
         11   -1    0    0    0    0 -0.00000000000E+00 -0.00000000000E+00 -0.45593999997E+02  0.45594000000E+02  0.51100000000E-03 0. -1.
    9900012    2    1    2    0    0 -0.29713892204E+02  0.91036995179E+01 -0.71363637977E+01  0.59301946260E+02  0.50000004071E+02 0.  0.
         12    1    1    2    0    0  0.29713892204E+02 -0.91036995179E+01  0.71363637977E+01  0.31886053740E+02  0.00000000000E+00 0. -1.
         11    1    3    3    0    0 -0.11843002048E+01 -0.45191778350E+01  0.30322579734E+00  0.46816109861E+01  0.51100000000E-03 0. -1.
        -11    1    3    3    0    0 -0.21317678835E+02  0.24407825744E+02  0.90424932238E+01  0.33644495425E+02  0.51100000000E-03 0.  1.
        -12    1    3    3    0    0 -0.72119131648E+01 -0.10784948391E+02 -0.16482082819E+02  0.20975839849E+02  0.00000000000E+00 0.  1.
</event>
<event>
 7    1  0.4489290E-013  0.5930196E+02  0.7816164E-02  0.1266605E+00
        -11   -1    0    0    0    0  0.00000000000E+00  0.00000000000E+00  0.45593999997E+02  0.45594000000E+02  0.51100000000E-03 0. -1.
         11   -1    0    0    0    0 -0.00000000000E+00 -0.00000000000E+00 -0.45593999997E+02  0.45594000000E+02  0.51100000000E-03 0.  1.
    9900012    2    1    2    0    0 -0.24887748504E+02 -0.49095902603E+01 -0.19318788374E+02  0.59301957813E+02  0.50000025142E+02 0.  0.
         12    1    1    2    0    0  0.24887748504E+02  0.49095902603E+01  0.19318788374E+02  0.31886042187E+02  0.00000000000E+00 0. -1.
         11    1    3    3    0    0 -0.14388211517E+02  0.15152344576E+02 -0.47051407119E+01  0.21418508963E+02  0.51100000000E-03 0. -1.
        -11    1    3    3    0    0 -0.18563489054E+02 -0.16549714061E+02 -0.15064334791E+02  0.29076284913E+02  0.51100000000E-03 0.  1.
         12    1    3    3    0    0  0.80639520682E+01 -0.35122207758E+01  0.45068712930E+00  0.88071639377E+01  0.00000000000E+00 0. -1.
</event>
<event>
 7    1  0.4489290E-013  0.5930191E+02  0.7816164E-02  0.1266605E+00
        -11   -1    0    0    0    0  0.00000000000E+00  0.00000000000E+00  0.45593999997E+02  0.45594000000E+02  0.51100000000E-03 0.  1.
         11   -1    0    0    0    0 -0.00000000000E+00 -0.00000000000E+00 -0.45593999997E+02  0.45594000000E+02  0.51100000000E-03 0. -1.
    9900012    2    1    2    0    0 -0.94655859202E+01  0.28435505946E+02  0.10887939416E+02  0.59301913066E+02  0.49999943534E+02 0.  0.
         12    1    1    2    0    0  0.94655859202E+01 -0.28435505946E+02 -0.10887939416E+02  0.31886086934E+02  0.00000000000E+00 0. -1.
         11    1    3    3    0    0 -0.91454467220E+01  0.29524100926E+01 -0.67853128293E+01  0.11764199571E+02  0.51100000000E-03 0. -1.
        -11    1    3    3    0    0  0.10100825417E+02  0.54115519070E+01  0.21725158389E+02  0.24562045424E+02  0.51100000000E-03 0.  1.
        -12    1    3    3    0    0 -0.10420964615E+02  0.20071543946E+02 -0.40519061432E+01  0.22975668071E+02  0.00000000000E+00 0.  1.
</event>
<event>
 7    1  0.4489290E-013  0.5930194E+02  0.7816164E-02  0.1266605E+00
        -11   -1    0    0    0    0  0.00000000000E+00  0.00000000000E+00  0.45593999997E+02  0.45594000000E+02  0.51100000000E-03 0. -1.
         11   -1    0    0    0    0 -0.00000000000E+00 -0.00000000000E+00 -0.45593999997E+02  0.45594000000E+02  0.51100000000E-03 0.  1.
    9900012    2    1    2    0    0  0.45047801745E+01  0.30614833521E+02 -0.76915509640E+01  0.59301936710E+02  0.49999986653E+02 0.  0.
         12    1    1    2    0    0 -0.45047801745E+01 -0.30614833521E+02  0.76915509640E+01  0.31886063290E+02  0.00000000000E+00 0. -1.
         11    1    3    3    0    0 -0.16597855972E+02  0.44898004664E+01  0.47779786913E+01  0.17845901819E+02  0.51100000000E-03 0. -1.
        -11    1    3    3    0    0  0.63130582645E+01  0.19351754226E+02  0.93633168315E+00  0.20376992260E+02  0.51100000000E-03 0.  1.
         12    1    3    3    0    0  0.14789577882E+02  0.67732788285E+01 -0.13405861339E+02  0.21079042631E+02  0.00000000000E+00 0. -1.
</event>
<event>
 7    1  0.4489290E-013  0.5930193E+02  0.7816164E-02  0.1266605E+00
        -11   -1    0    0    0    0  0.00000000000E+00  0.00000000000E+00  0.45593999997E+02  0.45594000000E+02  0.51100000000E-03 0. -1.
         11   -1    0    0    0    0 -0.00000000000E+00 -0.00000000000E+00 -0.45593999997E+02  0.45594000000E+02  0.51100000000E-03 0.  1.
    9900012    2    1    2    0    0 -0.96146747125E+01  0.60300099691E+01 -0.29797963424E+02  0.59301927582E+02  0.49999970007E+02 0.  0.
         12    1    1    2    0    0  0.96146747125E+01 -0.60300099691E+01  0.29797963424E+02  0.31886072418E+02  0.00000000000E+00 0. -1.
         11    1    3    3    0    0  0.59672248232E+01  0.16488915703E+02 -0.15063026251E+02  0.23116809322E+02  0.51100000000E-03 0. -1.
        -11    1    3    3    0    0 -0.20038218305E+02 -0.38003823082E+01 -0.11678441229E+01  0.20428826659E+02  0.51100000000E-03 0.  1.
         12    1    3    3    0    0  0.44563187690E+01 -0.66585234255E+01 -0.13567093050E+02  0.15756291600E+02  0.00000000000E+00 0. -1.
</event>
<event>
 7    1  0.4489290E-013  0.5930196E+02  0.7816164E-02  0.1266605E+00
        -11   -1    0    0    0    0  0.00000000000E+00  0.00000000000E+00  0.45593999997E+02  0.45594000000E+02  0.51100000000E-03 0.  1.
         11   -1    0    0    0    0 -0.00000000000E+00 -0.00000000000E+00 -0.45593999997E+02  0.45594000000E+02  0.51100000000E-03 0. -1.
    9900012    2    1    2    0    0  0.95368621923E+01 -0.11385716252E+02  0.28215830289E+02  0.59301963026E+02  0.50000034648E+02 0.  0.
         12    1    1    2    0    0 -0.95368621923E+01  0.11385716252E+02 -0.28215830289E+02  0.31886036974E+02  0.00000000000E+00 0. -1.
         11    1    3    3    0    0  0.74958428496E+01 -0.15583296949E+02  0.53855779141E+01  0.18111633100E+02  0.51100000000E-03 0. -1.
        -11    1    3    3    0    0 -0.13644882877E+02 -0.63453347921E+00  0.20468710166E+02  0.24607997838E+02  0.51100000000E-03 0.  1.
        -12    1    3    3    0    0  0.15685902220E+02  0.48321141763E+01  0.23615422090E+01  0.16582332088E+02  0.00000000000E+00 0.  1.
</event>
<event>
 7    1  0.4489290E-013  0.5930194E+02  0.7816164E-02  0.1266605E+00
        -11   -1    0    0    0    0  0.00000000000E+00  0.00000000000E+00  0.45593999997E+02  0.45594000000E+02  0.51100000000E-03 0.  1.
         11   -1    0    0    0    0 -0.00000000000E+00 -0.00000000000E+00 -0.45593999997E+02  0.45594000000E+02  0.51100000000E-03 0. -1.
    9900012    2    1    2    0    0 -0.10200369711E+02 -0.84561749968E+01  0.29002870421E+02  0.59301938304E+02  0.49999989562E+02 0.  0.
         12    1    1    2    0    0  0.10200369711E+02  0.84561749968E+01 -0.29002870421E+02  0.31886061696E+02  0.00000000000E+00 0. -1.
         11    1    3    3    0    0 -0.24514849703E+01  0.15071921194E+02  0.14518501212E+02  0.21070345625E+02  0.51100000000E-03 0. -1.
        -11    1    3    3    0    0  0.78030356463E+01 -0.15961865015E+02  0.47741130044E+01  0.18397300218E+02  0.51100000000E-03 0.  1.
        -12    1    3    3    0    0 -0.15551920387E+02 -0.75662311755E+01  0.97102562043E+01  0.19834292462E+02  0.00000000000E+00 0.  1.
</event>
<event>
 7    1  0.4489290E-013  0.5930208E+02  0.7816164E-02  0.1266604E+00
        -11   -1    0    0    0    0  0.00000000000E+00  0.00000000000E+00  0.45593999997E+02  0.45594000000E+02  0.51100000000E-03 0. -1.
         11   -1    0    0    0    0 -0.00000000000E+00 -0.00000000000E+00 -0.45593999997E+02  0.45594000000E+02  0.51100000000E-03 0.  1.
    9900012    2    1    2    0    0  0.24297055202E+02 -0.15776037248E+01 -0.20588256432E+02  0.59302077904E+02  0.50000244157E+02 0.  0.
         12    1    1    2    0    0 -0.24297055202E+02  0.15776037248E+01  0.20588256432E+02  0.31885922096E+02  0.00000000000E+00 0. -1.
         11    1    3    3    0    0 -0.38737459602E+00  0.68222516272E+01  0.76861231133E+01  0.10284438007E+02  0.51100000000E-03 0. -1.
        -11    1    3    3    0    0  0.87038397252E+01 -0.18799880622E+02 -0.11943872431E+02  0.23913352469E+02  0.51100000000E-03 0.  1.
        -12    1    3    3    0    0  0.15980590073E+02  0.10400025270E+02 -0.16330507114E+02  0.25104287429E+02  0.00000000000E+00 0.  1.
</event>
<event>
 7    1  0.4489290E-013  0.5930194E+02  0.7816164E-02  0.1266605E+00
        -11   -1    0    0    0    0  0.00000000000E+00  0.00000000000E+00  0.45593999997E+02  0.45594000000E+02  0.51100000000E-03 0.  1.
         11   -1    0    0    0    0 -0.00000000000E+00 -0.00000000000E+00 -0.45593999997E+02  0.45594000000E+02  0.51100000000E-03 0. -1.
    9900012    2    1    2    0    0  0.31873444179E+02  0.18625259885E+00 -0.87726800777E+00  0.59301941400E+02  0.49999995208E+02 0.  0.
         12    1    1    2    0    0 -0.31873444179E+02 -0.18625259885E+00  0.87726800777E+00  0.31886058600E+02  0.00000000000E+00 0. -1.
         11    1    3    3    0    0  0.27925454527E+02  0.13682802926E+02 -0.90929586082E+01  0.32399567944E+02  0.51100000000E-03 0. -1.
        -11    1    3    3    0    0  0.63517216290E+01 -0.58327455820E+01  0.14386889995E+02  0.16773428173E+02  0.51100000000E-03 0.  1.
         12    1    3    3    0    0 -0.24037319766E+01 -0.76638047450E+01 -0.61711993950E+01  0.10128945284E+02  0.00000000000E+00 0. -1.
</event>
<event>
 7    1  0.4489290E-013  0.5930194E+02  0.7816164E-02  0.1266605E+00
        -11   -1    0    0    0    0  0.00000000000E+00  0.00000000000E+00  0.45593999997E+02  0.45594000000E+02  0.51100000000E-03 0. -1.
         11   -1    0    0    0    0 -0.00000000000E+00 -0.00000000000E+00 -0.45593999997E+02  0.45594000000E+02  0.51100000000E-03 0.  1.
    9900012    2    1    2    0    0 -0.32931541890E+00 -0.17309455046E+02 -0.26776762356E+02  0.59301942154E+02  0.49999996584E+02 0.  0.
         12    1    1    2    0    0  0.32931541890E+00  0.17309455046E+02  0.26776762356E+02  0.31886057846E+02  0.00000000000E+00 0. -1.
         11    1    3    3    0    0  0.17207794193E+01 -0.11610708700E+01  0.54889967478E+01  0.58684114489E+01  0.51100000000E-03 0. -1.
        -11    1    3    3    0    0 -0.63425106727E+01 -0.14018877155E+02 -0.40822756243E+02  0.43626296953E+02  0.51100000000E-03 0.  1.
        -12    1    3    3    0    0  0.42924158346E+01 -0.21295070212E+01  0.85569971384E+01  0.98072337525E+01  0.00000000000E+00 0.  1.
</event>
<event>
 7    1  0.4489290E-013  0.5930194E+02  0.7816164E-02  0.1266605E+00
        -11   -1    0    0    0    0  0.00000000000E+00  0.00000000000E+00  0.45593999997E+02  0.45594000000E+02  0.51100000000E-03 0. -1.
         11   -1    0    0    0    0 -0.00000000000E+00 -0.00000000000E+00 -0.45593999997E+02  0.45594000000E+02  0.51100000000E-03 0.  1.
    9900012    2    1    2    0    0  0.12389365513E+02 -0.13345238314E+02 -0.26174966608E+02  0.59301942852E+02  0.49999997856E+02 0.  0.
         12    1    1    2    0    0 -0.12389365513E+02  0.13345238314E+02  0.26174966608E+02  0.31886057148E+02  0.00000000000E+00 0. -1.
         11    1    3    3    0    0 -0.52456877319E+01 -0.68308762827E+01 -0.35271509930E+02  0.36307816288E+02  0.51100000000E-03 0. -1.
        -11    1    3    3    0    0  0.10208105604E+02 -0.80735292320E+01  0.32505787271E+01  0.13414676910E+02  0.51100000000E-03 0.  1.
         12    1    3    3    0    0  0.74269476414E+01  0.15591672007E+01  0.58459645952E+01  0.95794496542E+01  0.00000000000E+00 0. -1.
</event>
<event>
 7    1  0.4489290E-013  0.5930194E+02  0.7816164E-02  0.1266605E+00
        -11   -1    0    0    0    0  0.00000000000E+00  0.00000000000E+00  0.45593999997E+02  0.45594000000E+02  0.51100000000E-03 0.  1.
         11   -1    0    0    0    0 -0.00000000000E+00 -0.00000000000E+00 -0.45593999997E+02  0.45594000000E+02  0.51100000000E-03 0. -1.
    9900012    2    1    2    0    0 -0.16990289514E+02 -0.21914884857E+02  0.15741301679E+02  0.59301942003E+02  0.49999996308E+02 0.  0.
         12    1    1    2    0    0  0.16990289514E+02  0.21914884857E+02 -0.15741301679E+02  0.31886057997E+02  0.00000000000E+00 0. -1.
         11    1    3    3    0    0 -0.94555091944E+01  0.12072002847E+02  0.91500863960E+01  0.17856763093E+02  0.51100000000E-03 0.  1.
        -11    1    3    3    0    0  0.53650796971E+01 -0.13821080843E+02 -0.38665970537E+01  0.15321779560E+02  0.51100000000E-03 0. -1.
        -12    1    3    3    0    0 -0.12899860016E+02 -0.20165806860E+02  0.10457812337E+02  0.26123399350E+02  0.00000000000E+00 0.  1.
</event>
<event>
 7    1  0.4489290E-013  0.5930194E+02  0.7816164E-02  0.1266605E+00
        -11   -1    0    0    0    0  0.00000000000E+00  0.00000000000E+00  0.45593999997E+02  0.45594000000E+02  0.51100000000E-03 0.  1.
         11   -1    0    0    0    0 -0.00000000000E+00 -0.00000000000E+00 -0.45593999997E+02  0.45594000000E+02  0.51100000000E-03 0. -1.
    9900012    2    1    2    0    0 -0.12866830901E+02  0.28816958776E+02 -0.45550375368E+01  0.59301940076E+02  0.49999992793E+02 0.  0.
         12    1    1    2    0    0  0.12866830901E+02 -0.28816958776E+02  0.45550375368E+01  0.31886059924E+02  0.00000000000E+00 0. -1.
         11    1    3    3    0    0 -0.23949519352E+02  0.10730471629E+02 -0.76568490408E+01  0.27337699905E+02  0.51100000000E-03 0. -1.
        -11    1    3    3    0    0  0.87789930444E+01  0.14705260303E+02  0.12837576051E+02  0.21403708991E+02  0.51100000000E-03 0.  1.
         12    1    3    3    0    0  0.23036954070E+01  0.33812268443E+01 -0.97357645465E+01  0.10560531180E+02  0.00000000000E+00 0. -1.
</event>
<event>
 7    1  0.4489290E-013  0.5930197E+02  0.7816164E-02  0.1266605E+00
        -11   -1    0    0    0    0  0.00000000000E+00  0.00000000000E+00  0.45593999997E+02  0.45594000000E+02  0.51100000000E-03 0.  1.
         11   -1    0    0    0    0 -0.00000000000E+00 -0.00000000000E+00 -0.45593999997E+02  0.45594000000E+02  0.51100000000E-03 0. -1.
    9900012    2    1    2    0    0  0.30010254219E+01  0.31087613472E+02  0.64244097339E+01  0.59301970059E+02  0.50000047475E+02 0.  0.
         12    1    1    2    0    0 -0.30010254219E+01 -0.31087613472E+02 -0.64244097339E+01  0.31886029941E+02  0.00000000000E+00 0. -1.
         11    1    3    3    0    0  0.67481298325E+01  0.52352817394E+01 -0.12708507786E+02  0.15311812484E+02  0.51100000000E-03 0. -1.
        -11    1    3    3    0    0 -0.11223393835E+02  0.24706388868E+02  0.44843910192E+01  0.27504181194E+02  0.51100000000E-03 0.  1.
        -12    1    3    3    0    0  0.74762894241E+01  0.11459428644E+01  0.14648526501E+02  0.16485976382E+02  0.00000000000E+00 0.  1.
</event>
<event>
 7    1  0.4489290E-013  0.5930197E+02  0.7816164E-02  0.1266605E+00
        -11   -1    0    0    0    0  0.00000000000E+00  0.00000000000E+00  0.45593999997E+02  0.45594000000E+02  0.51100000000E-03 0. -1.
         11   -1    0    0    0    0 -0.00000000000E+00 -0.00000000000E+00 -0.45593999997E+02  0.45594000000E+02  0.51100000000E-03 0.  1.
    9900012    2    1    2    0    0  0.21988286553E+02  0.22368711681E+02 -0.57336415630E+01  0.59301974011E+02  0.50000054681E+02 0.  0.
         12    1    1    2    0    0 -0.21988286553E+02 -0.22368711681E+02  0.57336415630E+01  0.31886025989E+02  0.00000000000E+00 0. -1.
         11    1    3    3    0    0 -0.56239489334E+01  0.17693708085E+01  0.12353161559E+02  0.13687953661E+02  0.51100000000E-03 0. -1.
        -11    1    3    3    0    0  0.24184158968E+02  0.22051836207E+02 -0.22592551967E+02  0.39769088873E+02  0.51100000000E-03 0.  1.
        -12    1    3    3    0    0  0.34280765185E+01 -0.14524953344E+01  0.45057488455E+01  0.58449314771E+01  0.00000000000E+00 0.  1.
</event>
<event>
 7    1  0.4489290E-013  0.5930194E+02  0.7816164E-02  0.1266605E+00
        -11   -1    0    0    0    0  0.00000000000E+00  0.00000000000E+00  0.45593999997E+02  0.45594000000E+02  0.51100000000E-03 0. -1.
         11   -1    0    0    0    0 -0.00000000000E+00 -0.00000000000E+00 -0.45593999997E+02  0.45594000000E+02  0.51100000000E-03 0.  1.
    9900012    2    1    2    0    0 -0.50997164303E+01  0.72398057405E+01 -0.30631660735E+02  0.59301944518E+02  0.50000000894E+02 0.  0.
         12    1    1    2    0    0  0.50997164303E+01 -0.72398057405E+01  0.30631660735E+02  0.31886055482E+02  0.00000000000E+00 0. -1.
         11    1    3    3    0    0 -0.82835100136E+01  0.91720111438E+01  0.72770732299E+01  0.14342179807E+02  0.51100000000E-03 0. -1.
        -11    1    3    3    0    0 -0.38852207578E+01 -0.11158780971E+02 -0.13605594810E+02  0.18020142716E+02  0.51100000000E-03 0.  1.
         12    1    3    3    0    0  0.70690143411E+01  0.92265755680E+01 -0.24303139155E+02  0.26939621995E+02  0.00000000000E+00 0. -1.
</event>
<event>
 7    1  0.4489290E-013  0.5930195E+02  0.7816164E-02  0.1266605E+00
        -11   -1    0    0    0    0  0.00000000000E+00  0.00000000000E+00  0.45593999997E+02  0.45594000000E+02  0.51100000000E-03 0.  1.
         11   -1    0    0    0    0 -0.00000000000E+00 -0.00000000000E+00 -0.45593999997E+02  0.45594000000E+02  0.51100000000E-03 0. -1.
    9900012    2    1    2    0    0  0.31218196402E+01  0.20745461990E+02  0.24012506497E+02  0.59301946319E+02  0.50000004179E+02 0.  0.
         12    1    1    2    0    0 -0.31218196402E+01 -0.20745461990E+02 -0.24012506497E+02  0.31886053681E+02  0.00000000000E+00 0. -1.
         11    1    3    3    0    0 -0.14941323671E+01 -0.52352072260E+01 -0.90607359798E+01  0.10570561148E+02  0.51100000000E-03 0. -1.
        -11    1    3    3    0    0  0.10178952898E+02  0.93915765013E+01  0.33635302075E+01  0.14252232352E+02  0.51100000000E-03 0.  1.
         12    1    3    3    0    0 -0.55630008911E+01  0.16589092715E+02  0.29709712270E+02  0.34479152820E+02  0.00000000000E+00 0. -1.
</event>
<event>
 7    1  0.4489290E-013  0.5930198E+02  0.7816164E-02  0.1266605E+00
        -11   -1    0    0    0    0  0.00000000000E+00  0.00000000000E+00  0.45593999997E+02  0.45594000000E+02  0.51100000000E-03 0.  1.
         11   -1    0    0    0    0 -0.00000000000E+00 -0.00000000000E+00 -0.45593999997E+02  0.45594000000E+02  0.51100000000E-03 0. -1.
    9900012    2    1    2    0    0 -0.10839274757E+02 -0.10989818438E+02  0.27900756992E+02  0.59301980693E+02  0.50000066868E+02 0.  0.
         12    1    1    2    0    0  0.10839274757E+02  0.10989818438E+02 -0.27900756992E+02  0.31886019307E+02  0.00000000000E+00 0. -1.
         11    1    3    3    0    0 -0.10587520472E+02 -0.13411629869E+02  0.17039489415E+02  0.24131133527E+02  0.51100000000E-03 0. -1.
        -11    1    3    3    0    0  0.10085579240E+02 -0.75648798498E+01  0.15580618798E+02  0.20042504787E+02  0.51100000000E-03 0.  1.
         12    1    3    3    0    0 -0.10337333525E+02  0.99866912815E+01 -0.47193512215E+01  0.15128342378E+02  0.00000000000E+00 0. -1.
</event>
<event>
 7    1  0.4489290E-013  0.5930195E+02  0.7816164E-02  0.1266605E+00
        -11   -1    0    0    0    0  0.00000000000E+00  0.00000000000E+00  0.45593999997E+02  0.45594000000E+02  0.51100000000E-03 0.  1.
         11   -1    0    0    0    0 -0.00000000000E+00 -0.00000000000E+00 -0.45593999997E+02  0.45594000000E+02  0.51100000000E-03 0. -1.
    9900012    2    1    2    0    0 -0.14015068107E+02  0.21207536663E+02  0.19249383285E+02  0.59301945020E+02  0.50000001809E+02 0.  0.
         12    1    1    2    0    0  0.14015068107E+02 -0.21207536663E+02 -0.19249383285E+02  0.31886054980E+02  0.00000000000E+00 0. -1.
         11    1    3    3    0    0 -0.12777288394E+02 -0.12004342326E+02  0.14698944212E+02  0.22878424215E+02  0.51100000000E-03 0. -1.
        -11    1    3    3    0    0  0.32315738681E+01  0.23771246223E+02  0.82100138379E+01  0.25355858182E+02  0.51100000000E-03 0.  1.
         12    1    3    3    0    0 -0.44693535812E+01  0.94406327665E+01 -0.36595747646E+01  0.11067662622E+02  0.00000000000E+00 0. -1.
</event>
<event>
 7    1  0.4489290E-013  0.5930196E+02  0.7816164E-02  0.1266605E+00
        -11   -1    0    0    0    0  0.00000000000E+00  0.00000000000E+00  0.45593999997E+02  0.45594000000E+02  0.51100000000E-03 0. -1.
         11   -1    0    0    0    0 -0.00000000000E+00 -0.00000000000E+00 -0.45593999997E+02  0.45594000000E+02  0.51100000000E-03 0.  1.
    9900012    2    1    2    0    0  0.74213946105E+01 -0.16127215409E+02 -0.26486891273E+02  0.59301959416E+02  0.50000028064E+02 0.  0.
         12    1    1    2    0    0 -0.74213946105E+01  0.16127215409E+02  0.26486891273E+02  0.31886040584E+02  0.00000000000E+00 0. -1.
         11    1    3    3    0    0  0.87242244304E+01  0.46354286127E+01 -0.12748551704E+02  0.16128386811E+02  0.51100000000E-03 0. -1.
        -11    1    3    3    0    0 -0.13692136297E+02  0.28208887610E+01 -0.72819362006E+01  0.15762569742E+02  0.51100000000E-03 0.  1.
        -12    1    3    3    0    0  0.12389306477E+02 -0.23583532782E+02 -0.64564033691E+01  0.27411002863E+02  0.00000000000E+00 0.  1.
</event>
<event>
 7    1  0.4489290E-013  0.5930196E+02  0.7816164E-02  0.1266605E+00
        -11   -1    0    0    0    0  0.00000000000E+00  0.00000000000E+00  0.45593999997E+02  0.45594000000E+02  0.51100000000E-03 0.  1.
         11   -1    0    0    0    0 -0.00000000000E+00 -0.00000000000E+00 -0.45593999997E+02  0.45594000000E+02  0.51100000000E-03 0. -1.
    9900012    2    1    2    0    0  0.39564568863E+01 -0.28200941555E+02  0.14344791284E+02  0.59301957714E+02  0.50000024961E+02 0.  0.
         12    1    1    2    0    0 -0.39564568863E+01  0.28200941555E+02 -0.14344791284E+02  0.31886042286E+02  0.00000000000E+00 0. -1.
         11    1    3    3    0    0 -0.30745431903E+01  0.11929080778E+02  0.49761637018E+00  0.12328966151E+02  0.51100000000E-03 0. -1.
        -11    1    3    3    0    0  0.11173416488E+02 -0.27367375886E+02  0.15627932775E+02  0.33437266365E+02  0.51100000000E-03 0.  1.
        -12    1    3    3    0    0 -0.41424164118E+01 -0.12762646447E+02 -0.17807578618E+01  0.13535725198E+02  0.00000000000E+00 0.  1.
</event>
<event>
 7    1  0.4489290E-013  0.5930196E+02  0.7816164E-02  0.1266605E+00
        -11   -1    0    0    0    0  0.00000000000E+00  0.00000000000E+00  0.45593999997E+02  0.45594000000E+02  0.51100000000E-03 0. -1.
         11   -1    0    0    0    0 -0.00000000000E+00 -0.00000000000E+00 -0.45593999997E+02  0.45594000000E+02  0.51100000000E-03 0.  1.
    9900012    2    1    2    0    0  0.41595994240E+00  0.24136654995E+02 -0.20831908065E+02  0.59301960254E+02  0.50000029594E+02 0.  0.
         12    1    1    2    0    0 -0.41595994240E+00 -0.24136654995E+02  0.20831908065E+02  0.31886039746E+02  0.00000000000E+00 0. -1.
         11    1    3    3    0    0 -0.12445151248E+01 -0.21279754253E+01  0.14753417866E+02  0.14957955619E+02  0.51100000000E-03 0. -1.
        -11    1    3    3    0    0  0.14635040839E+01  0.12641801136E+02 -0.15186985040E+02  0.19814174095E+02  0.51100000000E-03 0.  1.
         12    1    3    3    0    0  0.19697098327E+00  0.13622829284E+02 -0.20398340891E+02  0.24529830541E+02  0.00000000000E+00 0. -1.
</event>
<event>
 7    1  0.4489290E-013  0.5930193E+02  0.7816164E-02  0.1266605E+00
        -11   -1    0    0    0    0  0.00000000000E+00  0.00000000000E+00  0.45593999997E+02  0.45594000000E+02  0.51100000000E-03 0.  1.
         11   -1    0    0    0    0 -0.00000000000E+00 -0.00000000000E+00 -0.45593999997E+02  0.45594000000E+02  0.51100000000E-03 0. -1.
    9900012    2    1    2    0    0 -0.14940213618E+02 -0.14598956094E+02  0.24091111702E+02  0.59301934626E+02  0.49999982853E+02 0.  0.
         12    1    1    2    0    0  0.14940213618E+02  0.14598956094E+02 -0.24091111702E+02  0.31886065374E+02  0.00000000000E+00 0. -1.
         11    1    3    3    0    0 -0.10335914011E+02  0.82161980503E+01  0.19737780091E+02  0.23746936476E+02  0.51100000000E-03 0. -1.
        -11    1    3    3    0    0  0.44269143641E+01 -0.86492894478E+01 -0.96426536314E+01  0.13688993683E+02  0.51100000000E-03 0.  1.
        -12    1    3    3    0    0 -0.90312139714E+01 -0.14165864697E+02  0.13995985243E+02  0.21866004466E+02  0.00000000000E+00 0.  1.
</event>
<event>
 7    1  0.4489290E-013  0.5930194E+02  0.7816164E-02  0.1266605E+00
        -11   -1    0    0    0    0  0.00000000000E+00  0.00000000000E+00  0.45593999997E+02  0.45594000000E+02  0.51100000000E-03 0.  1.
         11   -1    0    0    0    0 -0.00000000000E+00 -0.00000000000E+00 -0.45593999997E+02  0.45594000000E+02  0.51100000000E-03 0. -1.
    9900012    2    1    2    0    0 -0.30895956444E+02  0.21282076038E+01 -0.75915400392E+01  0.59301939215E+02  0.49999991223E+02 0.  0.
         12    1    1    2    0    0  0.30895956444E+02 -0.21282076038E+01  0.75915400392E+01  0.31886060785E+02  0.00000000000E+00 0. -1.
         11    1    3    3    0    0  0.90810286484E+01 -0.70281614260E+01 -0.75323124767E+01  0.13733021002E+02  0.51100000000E-03 0. -1.
        -11    1    3    3    0    0 -0.35386878989E+02  0.11812246626E+02 -0.57990127919E+01  0.37754323257E+02  0.51100000000E-03 0.  1.
         12    1    3    3    0    0 -0.45901061034E+01 -0.26558775964E+01  0.57397852294E+01  0.78145949560E+01  0.00000000000E+00 0. -1.
</event>
<event>
 7    1  0.4489290E-013  0.5930196E+02  0.7816164E-02  0.1266605E+00
        -11   -1    0    0    0    0  0.00000000000E+00  0.00000000000E+00  0.45593999997E+02  0.45594000000E+02  0.51100000000E-03 0.  1.
         11   -1    0    0    0    0 -0.00000000000E+00 -0.00000000000E+00 -0.45593999997E+02  0.45594000000E+02  0.51100000000E-03 0. -1.
    9900012    2    1    2    0    0 -0.31836130157E+02  0.37535948013E+00 -0.17433896219E+01  0.59301960963E+02  0.50000030886E+02 0.  0.
         12    1    1    2    0    0  0.31836130157E+02 -0.37535948013E+00  0.17433896219E+01  0.31886039037E+02  0.00000000000E+00 0. -1.
         11    1    3    3    0    0 -0.27688122053E+00  0.17436914307E+02  0.10955747767E+01  0.17473492156E+02  0.51100000000E-03 0. -1.
        -11    1    3    3    0    0 -0.28244809814E+01 -0.94053882347E+01  0.50777881166E+01  0.11055449022E+02  0.51100000000E-03 0.  1.
         12    1    3    3    0    0 -0.28734767955E+02 -0.76561665926E+01 -0.79167525151E+01  0.30773019785E+02  0.00000000000E+00 0. -1.
</event>
<event>
 7    1  0.4489290E-013  0.5930196E+02  0.7816164E-02  0.1266605E+00
        -11   -1    0    0    0    0  0.00000000000E+00  0.00000000000E+00  0.45593999997E+02  0.45594000000E+02  0.51100000000E-03 0.  1.
         11   -1    0    0    0    0 -0.00000000000E+00 -0.00000000000E+00 -0.45593999997E+02  0.45594000000E+02  0.51100000000E-03 0. -1.
    9900012    2    1    2    0    0 -0.54382759454E+01 -0.92113167880E+01  0.30038246361E+02  0.59301961571E+02  0.50000031995E+02 0.  0.
         12    1    1    2    0    0  0.54382759454E+01  0.92113167880E+01 -0.30038246361E+02  0.31886038429E+02  0.00000000000E+00 0. -1.
         11    1    3    3    0    0  0.95821667494E-01  0.34808266665E+00 -0.96073216510E+01  0.96141028132E+01  0.51100000000E-03 0. -1.
        -11    1    3    3    0    0  0.72665970021E+01  0.26881381163E+01  0.26549196420E+02  0.27656633008E+02  0.51100000000E-03 0.  1.
        -12    1    3    3    0    0 -0.12800694615E+02 -0.12247537571E+02  0.13096371592E+02  0.22031225750E+02  0.00000000000E+00 0.  1.
</event>
<event>
 7    1  0.4489290E-013  0.5930194E+02  0.7816164E-02  0.1266605E+00
        -11   -1    0    0    0    0  0.00000000000E+00  0.00000000000E+00  0.45593999997E+02  0.45594000000E+02  0.51100000000E-03 0. -1.
         11   -1    0    0    0    0 -0.00000000000E+00 -0.00000000000E+00 -0.45593999997E+02  0.45594000000E+02  0.51100000000E-03 0.  1.
    9900012    2    1    2    0    0 -0.27525831529E+02  0.69991634072E+01 -0.14493489626E+02  0.59301938292E+02  0.49999989539E+02 0.  0.
         12    1    1    2    0    0  0.27525831529E+02 -0.69991634072E+01  0.14493489626E+02  0.31886061708E+02  0.00000000000E+00 0. -1.
         11    1    3    3    0    0 -0.21306457738E+02  0.42801206676E+01  0.86105869112E+01  0.23375773388E+02  0.51100000000E-03 0. -1.
        -11    1    3    3    0    0 -0.10938960326E+02 -0.92138249129E+01 -0.15120424211E+02  0.20813040411E+02  0.51100000000E-03 0.  1.
        -12    1    3    3    0    0  0.47195865359E+01  0.11932867652E+02 -0.79836523258E+01  0.15113124493E+02  0.00000000000E+00 0.  1.
</event>
<event>
 7    1  0.4489290E-013  0.5930192E+02  0.7816164E-02  0.1266605E+00
        -11   -1    0    0    0    0  0.00000000000E+00  0.00000000000E+00  0.45593999997E+02  0.45594000000E+02  0.51100000000E-03 0. -1.
         11   -1    0    0    0    0 -0.00000000000E+00 -0.00000000000E+00 -0.45593999997E+02  0.45594000000E+02  0.51100000000E-03 0.  1.
    9900012    2    1    2    0    0 -0.29714689476E+02  0.82831566292E+01 -0.80714557619E+01  0.59301923846E+02  0.49999963193E+02 0.  0.
         12    1    1    2    0    0  0.29714689476E+02 -0.82831566292E+01  0.80714557619E+01  0.31886076154E+02  0.00000000000E+00 0. -1.
         11    1    3    3    0    0 -0.11462270203E+02 -0.69523449513E+01  0.87936523826E+01  0.16032687267E+02  0.51100000000E-03 0. -1.
        -11    1    3    3    0    0  0.19833973914E+01  0.56290012898E+01 -0.19797761656E+02  0.20677787299E+02  0.51100000000E-03 0.  1.
        -12    1    3    3    0    0 -0.20235816665E+02  0.96065002908E+01  0.29326535116E+01  0.22591449279E+02  0.00000000000E+00 0.  1.
</event>
<event>
 7    1  0.4489290E-013  0.5930194E+02  0.7816164E-02  0.1266605E+00
        -11   -1    0    0    0    0  0.00000000000E+00  0.00000000000E+00  0.45593999997E+02  0.45594000000E+02  0.51100000000E-03 0. -1.
         11   -1    0    0    0    0 -0.00000000000E+00 -0.00000000000E+00 -0.45593999997E+02  0.45594000000E+02  0.51100000000E-03 0.  1.
    9900012    2    1    2    0    0 -0.23305348290E+02 -0.20536989347E+02 -0.71981664249E+01  0.59301940503E+02  0.49999993572E+02 0.  0.
         12    1    1    2    0    0  0.23305348290E+02  0.20536989347E+02  0.71981664249E+01  0.31886059497E+02  0.00000000000E+00 0. -1.
         11    1    3    3    0    0 -0.22391317856E+02  0.70009689352E+01  0.60733938769E+01  0.24233670684E+02  0.51100000000E-03 0. -1.
        -11    1    3    3    0    0  0.50306858740E+01 -0.21191355681E+02 -0.36234957432E+01  0.22079653023E+02  0.51100000000E-03 0.  1.
        -12    1    3    3    0    0 -0.59447163079E+01 -0.63466026013E+01 -0.96480645586E+01  0.12988616797E+02  0.00000000000E+00 0.  1.
</event>
<event>
 7    1  0.4489290E-013  0.5930186E+02  0.7816164E-02  0.1266605E+00
        -11   -1    0    0    0    0  0.00000000000E+00  0.00000000000E+00  0.45593999997E+02  0.45594000000E+02  0.51100000000E-03 0.  1.
         11   -1    0    0    0    0 -0.00000000000E+00 -0.00000000000E+00 -0.45593999997E+02  0.45594000000E+02  0.51100000000E-03 0. -1.
    9900012    2    1    2    0    0 -0.20999099796E+02 -0.16711217271E+02  0.17219141782E+02  0.59301861654E+02  0.49999849770E+02 0.  0.
         12    1    1    2    0    0  0.20999099796E+02  0.16711217271E+02 -0.17219141782E+02  0.31886138346E+02  0.00000000000E+00 0. -1.
         11    1    3    3    0    0 -0.12750704583E+02 -0.16270520542E+02 -0.11190265314E+02  0.23506006554E+02  0.51100000000E-03 0. -1.
        -11    1    3    3    0    0 -0.16206958718E+01 -0.10008082942E+02  0.13244152078E+02  0.16679206930E+02  0.51100000000E-03 0.  1.
         12    1    3    3    0    0 -0.66276993414E+01  0.95673862130E+01  0.15165255018E+02  0.19116648170E+02  0.00000000000E+00 0. -1.
</event>
<event>
 7    1  0.4489290E-013  0.5930191E+02  0.7816164E-02  0.1266605E+00
        -11   -1    0    0    0    0  0.00000000000E+00  0.00000000000E+00  0.45593999997E+02  0.45594000000E+02  0.51100000000E-03 0. -1.
         11   -1    0    0    0    0 -0.00000000000E+00 -0.00000000000E+00 -0.45593999997E+02  0.45594000000E+02  0.51100000000E-03 0.  1.
    9900012    2    1    2    0    0 -0.19034605615E+02 -0.10115706306E+02 -0.23496365347E+02  0.59301907271E+02  0.49999932964E+02 0.  0.
         12    1    1    2    0    0  0.19034605615E+02  0.10115706306E+02  0.23496365347E+02  0.31886092729E+02  0.00000000000E+00 0. -1.
         11    1    3    3    0    0  0.11513634789E+02 -0.15163678938E+02 -0.14637558402E+02  0.24015808569E+02  0.51100000000E-03 0. -1.
        -11    1    3    3    0    0 -0.22607608510E+02  0.49162132829E+01 -0.12777851949E+02  0.26430032468E+02  0.51100000000E-03 0.  1.
         12    1    3    3    0    0 -0.79406318941E+01  0.13175934871E+00  0.39190450033E+01  0.88560662340E+01  0.00000000000E+00 0. -1.
</event>
<event>
 7    1  0.4489290E-013  0.5930200E+02  0.7816164E-02  0.1266605E+00
        -11   -1    0    0    0    0  0.00000000000E+00  0.00000000000E+00  0.45593999997E+02  0.45594000000E+02  0.51100000000E-03 0. -1.
         11   -1    0    0    0    0 -0.00000000000E+00 -0.00000000000E+00 -0.45593999997E+02  0.45594000000E+02  0.51100000000E-03 0.  1.
    9900012    2    1    2    0    0  0.16628214866E+02  0.94167197793E+01  0.25525376294E+02  0.59302000314E+02  0.50000102652E+02 0.  0.
         12    1    1    2    0    0 -0.16628214866E+02 -0.94167197793E+01 -0.25525376294E+02  0.31885999686E+02  0.00000000000E+00 0. -1.
         11    1    3    3    0    0  0.20223544137E+02 -0.14650818010E+02  0.98636355343E+01  0.26850130578E+02  0.51100000000E-03 0. -1.
        -11    1    3    3    0    0 -0.48423461461E+01  0.37986681589E+01 -0.93517523557E+00  0.62251705971E+01  0.51100000000E-03 0.  1.
         12    1    3    3    0    0  0.12470168750E+01  0.20268869630E+02  0.16596915996E+02  0.26226699139E+02  0.00000000000E+00 0. -1.
</event>
<event>
 7    1  0.4489290E-013  0.5930198E+02  0.7816164E-02  0.1266605E+00
        -11   -1    0    0    0    0  0.00000000000E+00  0.00000000000E+00  0.45593999997E+02  0.45594000000E+02  0.51100000000E-03 0. -1.
         11   -1    0    0    0    0 -0.00000000000E+00 -0.00000000000E+00 -0.45593999997E+02  0.45594000000E+02  0.51100000000E-03 0.  1.
    9900012    2    1    2    0    0 -0.24252407083E+02  0.14091712474E+02 -0.15164510412E+02  0.59301984479E+02  0.50000073772E+02 0.  0.
         12    1    1    2    0    0  0.24252407083E+02 -0.14091712474E+02  0.15164510412E+02  0.31886015521E+02  0.00000000000E+00 0. -1.
         11    1    3    3    0    0  0.12953949617E+02  0.49741662885E+01  0.29553652742E+01  0.14187364981E+02  0.51100000000E-03 0. -1.
        -11    1    3    3    0    0 -0.25677366023E+02  0.11320675065E+02 -0.18070229320E+02  0.33376908151E+02  0.51100000000E-03 0.  1.
         12    1    3    3    0    0 -0.11528990677E+02 -0.22031288789E+01 -0.49646366367E-01  0.11737711346E+02  0.00000000000E+00 0. -1.
</event>
<event>
 7    1  0.4489290E-013  0.5930195E+02  0.7816164E-02  0.1266605E+00
        -11   -1    0    0    0    0  0.00000000000E+00  0.00000000000E+00  0.45593999997E+02  0.45594000000E+02  0.51100000000E-03 0. -1.
         11   -1    0    0    0    0 -0.00000000000E+00 -0.00000000000E+00 -0.45593999997E+02  0.45594000000E+02  0.51100000000E-03 0.  1.
    9900012    2    1    2    0    0 -0.26478525400E+02 -0.13793959394E+02 -0.11195285265E+02  0.59301952341E+02  0.50000015162E+02 0.  0.
         12    1    1    2    0    0  0.26478525400E+02  0.13793959394E+02  0.11195285265E+02  0.31886047659E+02  0.00000000000E+00 0. -1.
         11    1    3    3    0    0 -0.10404166971E+02  0.88988471296E+00 -0.23232027332E+02  0.25470879046E+02  0.51100000000E-03 0. -1.
        -11    1    3    3    0    0 -0.14669497030E+02 -0.10762938486E+02 -0.28109915491E+01  0.18410232527E+02  0.51100000000E-03 0.  1.
         12    1    3    3    0    0 -0.14048613992E+01 -0.39209056214E+01  0.14847733616E+02  0.15420840768E+02  0.00000000000E+00 0. -1.
</event>
<event>
 7    1  0.4489290E-013  0.5930195E+02  0.7816164E-02  0.1266605E+00
        -11   -1    0    0    0    0  0.00000000000E+00  0.00000000000E+00  0.45593999997E+02  0.45594000000E+02  0.51100000000E-03 0.  1.
         11   -1    0    0    0    0 -0.00000000000E+00 -0.00000000000E+00 -0.45593999997E+02  0.45594000000E+02  0.51100000000E-03 0. -1.
    9900012    2    1    2    0    0 -0.12544821344E+02  0.34262132552E+00  0.29312626248E+02  0.59301953060E+02  0.50000016472E+02 0.  0.
         12    1    1    2    0    0  0.12544821344E+02 -0.34262132552E+00 -0.29312626248E+02  0.31886046940E+02  0.00000000000E+00 0. -1.
         11    1    3    3    0    0 -0.22695086400E+02  0.17047044448E+02  0.11516126680E+02  0.30631517186E+02  0.51100000000E-03 0. -1.
        -11    1    3    3    0    0 -0.16854320867E+01 -0.63981441687E+01  0.69317245091E+01  0.95825745524E+01  0.51100000000E-03 0.  1.
         12    1    3    3    0    0  0.11835697143E+02 -0.10306278954E+02  0.10864775059E+02  0.19087861321E+02  0.00000000000E+00 0. -1.
</event>
<event>
 7    1  0.4489290E-013  0.5930194E+02  0.7816164E-02  0.1266605E+00
        -11   -1    0    0    0    0  0.00000000000E+00  0.00000000000E+00  0.45593999997E+02  0.45594000000E+02  0.51100000000E-03 0. -1.
         11   -1    0    0    0    0 -0.00000000000E+00 -0.00000000000E+00 -0.45593999997E+02  0.45594000000E+02  0.51100000000E-03 0.  1.
    9900012    2    1    2    0    0 -0.30566528144E+02 -0.49881145313E+01 -0.75846385437E+01  0.59301942369E+02  0.49999996976E+02 0.  0.
         12    1    1    2    0    0  0.30566528144E+02  0.49881145313E+01  0.75846385437E+01  0.31886057631E+02  0.00000000000E+00 0. -1.
         11    1    3    3    0    0 -0.16423089909E+02  0.76179170546E+01 -0.15284860964E+02  0.23693406622E+02  0.51100000000E-03 0. -1.
        -11    1    3    3    0    0  0.40833335097E+01 -0.15385649558E+02  0.85462730685E+00  0.15941211151E+02  0.51100000000E-03 0.  1.
         12    1    3    3    0    0 -0.18226771745E+02  0.27796179717E+01  0.68455951136E+01  0.19667324597E+02  0.00000000000E+00 0. -1.
</event>
<event>
 7    1  0.4489290E-013  0.5930195E+02  0.7816164E-02  0.1266605E+00
        -11   -1    0    0    0    0  0.00000000000E+00  0.00000000000E+00  0.45593999997E+02  0.45594000000E+02  0.51100000000E-03 0. -1.
         11   -1    0    0    0    0 -0.00000000000E+00 -0.00000000000E+00 -0.45593999997E+02  0.45594000000E+02  0.51100000000E-03 0.  1.
    9900012    2    1    2    0    0 -0.53798232659E+01  0.22288662473E+02 -0.22158366431E+02  0.59301950133E+02  0.50000011135E+02 0.  0.
         12    1    1    2    0    0  0.53798232659E+01 -0.22288662473E+02  0.22158366431E+02  0.31886049867E+02  0.00000000000E+00 0. -1.
         11    1    3    3    0    0 -0.14859931980E+01  0.23699055615E+02 -0.15708705773E+02  0.28471333832E+02  0.51100000000E-03 0. -1.
        -11    1    3    3    0    0  0.11309784716E+02 -0.30641721249E+01  0.39169992718E+01  0.12354888291E+02  0.51100000000E-03 0.  1.
        -12    1    3    3    0    0 -0.15203614784E+02  0.16537789831E+01 -0.10366659930E+02  0.18475728011E+02  0.00000000000E+00 0.  1.
</event>
<event>
 7    1  0.4489290E-013  0.5930189E+02  0.7816164E-02  0.1266605E+00
        -11   -1    0    0    0    0  0.00000000000E+00  0.00000000000E+00  0.45593999997E+02  0.45594000000E+02  0.51100000000E-03 0.  1.
         11   -1    0    0    0    0 -0.00000000000E+00 -0.00000000000E+00 -0.45593999997E+02  0.45594000000E+02  0.51100000000E-03 0. -1.
    9900012    2    1    2    0    0 -0.77523641671E+01  0.58749082115E+01  0.30366272899E+02  0.59301886620E+02  0.49999895303E+02 0.  0.
         12    1    1    2    0    0  0.77523641671E+01 -0.58749082115E+01 -0.30366272899E+02  0.31886113380E+02  0.00000000000E+00 0. -1.
         11    1    3    3    0    0 -0.89142513469E+01 -0.14950245404E+02  0.17101507905E+01  0.17489949419E+02  0.51100000000E-03 0. -1.
        -11    1    3    3    0    0  0.82369827885E+01  0.10708782971E+02  0.25826609892E+02  0.29146864273E+02  0.51100000000E-03 0.  1.
        -12    1    3    3    0    0 -0.70750956087E+01  0.10116370645E+02  0.28295122169E+01  0.12665072928E+02  0.00000000000E+00 0.  1.
</event>
<event>
 7    1  0.4489290E-013  0.5930190E+02  0.7816164E-02  0.1266605E+00
        -11   -1    0    0    0    0  0.00000000000E+00  0.00000000000E+00  0.45593999997E+02  0.45594000000E+02  0.51100000000E-03 0. -1.
         11   -1    0    0    0    0 -0.00000000000E+00 -0.00000000000E+00 -0.45593999997E+02  0.45594000000E+02  0.51100000000E-03 0.  1.
    9900012    2    1    2    0    0 -0.14185164654E+02 -0.18447251145E+02 -0.21799167407E+02  0.59301895335E+02  0.49999911196E+02 0.  0.
         12    1    1    2    0    0  0.14185164654E+02  0.18447251145E+02  0.21799167407E+02  0.31886104665E+02  0.00000000000E+00 0. -1.
         11    1    3    3    0    0 -0.22270060866E+02 -0.10086824802E+02 -0.18488098190E+02  0.30651417920E+02  0.51100000000E-03 0. -1.
        -11    1    3    3    0    0  0.12247556601E+02  0.85396871629E+00  0.70631404325E+01  0.14164033970E+02  0.51100000000E-03 0.  1.
        -12    1    3    3    0    0 -0.41626603895E+01 -0.92143950593E+01 -0.10374209650E+02  0.14486443445E+02  0.00000000000E+00 0.  1.
</event>
<event>
 7    1  0.4489290E-013  0.5930196E+02  0.7816164E-02  0.1266605E+00
        -11   -1    0    0    0    0  0.00000000000E+00  0.00000000000E+00  0.45593999997E+02  0.45594000000E+02  0.51100000000E-03 0.  1.
         11   -1    0    0    0    0 -0.00000000000E+00 -0.00000000000E+00 -0.45593999997E+02  0.45594000000E+02  0.51100000000E-03 0. -1.
    9900012    2    1    2    0    0 -0.23991615599E+02 -0.15700970291E+02  0.13949967659E+02  0.59301957837E+02  0.50000025185E+02 0.  0.
         12    1    1    2    0    0  0.23991615599E+02  0.15700970291E+02 -0.13949967659E+02  0.31886042163E+02  0.00000000000E+00 0. -1.
         11    1    3    3    0    0 -0.81039207107E+01 -0.50195483326E+00 -0.10249564755E+02  0.13075896431E+02  0.51100000000E-03 0. -1.
        -11    1    3    3    0    0  0.62413770581E+01 -0.11821886357E+02  0.19022212662E+02  0.23249867944E+02  0.51100000000E-03 0.  1.
         12    1    3    3    0    0 -0.22129071947E+02 -0.33771291011E+01  0.51773197520E+01  0.22976193462E+02  0.00000000000E+00 0. -1.
</event>
<event>
 7    1  0.4489290E-013  0.5930182E+02  0.7816164E-02  0.1266605E+00
        -11   -1    0    0    0    0  0.00000000000E+00  0.00000000000E+00  0.45593999997E+02  0.45594000000E+02  0.51100000000E-03 0.  1.
         11   -1    0    0    0    0 -0.00000000000E+00 -0.00000000000E+00 -0.45593999997E+02  0.45594000000E+02  0.51100000000E-03 0. -1.
    9900012    2    1    2    0    0  0.27206493206E+02 -0.31407506428E+01  0.16330056157E+02  0.59301822411E+02  0.49999778199E+02 0.  0.
         12    1    1    2    0    0 -0.27206493206E+02  0.31407506428E+01 -0.16330056157E+02  0.31886177589E+02  0.00000000000E+00 0. -1.
         11    1    3    3    0    0  0.28518015849E+02 -0.91992366682E+01  0.26101921684E+01  0.30078502068E+02  0.51100000000E-03 0. -1.
        -11    1    3    3    0    0 -0.20598452722E+01  0.10959079318E+02  0.18968660132E+02  0.22003509935E+02  0.51100000000E-03 0.  1.
         12    1    3    3    0    0  0.74832262899E+00 -0.49005932921E+01 -0.52487961425E+01  0.72198104073E+01  0.00000000000E+00 0. -1.
</event>
<event>
 7    1  0.4489290E-013  0.5930205E+02  0.7816164E-02  0.1266604E+00
        -11   -1    0    0    0    0  0.00000000000E+00  0.00000000000E+00  0.45593999997E+02  0.45594000000E+02  0.51100000000E-03 0.  1.
         11   -1    0    0    0    0 -0.00000000000E+00 -0.00000000000E+00 -0.45593999997E+02  0.45594000000E+02  0.51100000000E-03 0. -1.
    9900012    2    1    2    0    0 -0.26564592865E+02 -0.60602318759E+01  0.16562296095E+02  0.59302052368E+02  0.50000197585E+02 0.  0.
         12    1    1    2    0    0  0.26564592865E+02  0.60602318759E+01 -0.16562296095E+02  0.31885947632E+02  0.00000000000E+00 0. -1.
         11    1    3    3    0    0 -0.20428768257E+02  0.48991326341E+01  0.64810521627E-01  0.21008100193E+02  0.51100000000E-03 0. -1.
        -11    1    3    3    0    0 -0.34961496206E+01  0.18973898082E+01  0.23212574005E+02  0.23550939311E+02  0.51100000000E-03 0.  1.
        -12    1    3    3    0    0 -0.26396749872E+01 -0.12856754318E+02 -0.67150884311E+01  0.14743012863E+02  0.00000000000E+00 0.  1.
</event>
<event>
 7    1  0.4489290E-013  0.5930193E+02  0.7816164E-02  0.1266605E+00
        -11   -1    0    0    0    0  0.00000000000E+00  0.00000000000E+00  0.45593999997E+02  0.45594000000E+02  0.51100000000E-03 0. -1.
         11   -1    0    0    0    0 -0.00000000000E+00 -0.00000000000E+00 -0.45593999997E+02  0.45594000000E+02  0.51100000000E-03 0.  1.
    9900012    2    1    2    0    0 -0.11163663429E+01  0.27625475727E+02 -0.15884216741E+02  0.59301928991E+02  0.49999972576E+02 0.  0.
         12    1    1    2    0    0  0.11163663429E+01 -0.27625475727E+02  0.15884216741E+02  0.31886071009E+02  0.00000000000E+00 0. -1.
         11    1    3    3    0    0 -0.90131391490E+01 -0.80006097341E+01  0.62924786038E+01  0.13595650800E+02  0.51100000000E-03 0. -1.
        -11    1    3    3    0    0  0.68136164521E+01  0.16281611507E+02 -0.19241597267E+02  0.26110444425E+02  0.51100000000E-03 0.  1.
         12    1    3    3    0    0  0.10831563539E+01  0.19344473954E+02 -0.29350980772E+01  0.19595833765E+02  0.00000000000E+00 0. -1.
</event>
<event>
 7    1  0.4489290E-013  0.5930197E+02  0.7816164E-02  0.1266605E+00
        -11   -1    0    0    0    0  0.00000000000E+00  0.00000000000E+00  0.45593999997E+02  0.45594000000E+02  0.51100000000E-03 0.  1.
         11   -1    0    0    0    0 -0.00000000000E+00 -0.00000000000E+00 -0.45593999997E+02  0.45594000000E+02  0.51100000000E-03 0. -1.
    9900012    2    1    2    0    0  0.17063885632E+02 -0.16562074920E+02  0.21242421229E+02  0.59301968917E+02  0.50000045393E+02 0.  0.
         12    1    1    2    0    0 -0.17063885632E+02  0.16562074920E+02 -0.21242421229E+02  0.31886031083E+02  0.00000000000E+00 0. -1.
         11    1    3    3    0    0  0.10118763675E+01  0.70149521677E+01  0.20486452928E+02  0.21677827417E+02  0.51100000000E-03 0.  1.
        -11    1    3    3    0    0  0.88419861643E+01 -0.27803391939E+02 -0.45749581911E+00  0.29179078556E+02  0.51100000000E-03 0. -1.
         12    1    3    3    0    0  0.72100231005E+01  0.42263648516E+01  0.12134641199E+01  0.84450629446E+01  0.00000000000E+00 0. -1.
</event>
<event>
 7    1  0.4489290E-013  0.5930194E+02  0.7816164E-02  0.1266605E+00
        -11   -1    0    0    0    0  0.00000000000E+00  0.00000000000E+00  0.45593999997E+02  0.45594000000E+02  0.51100000000E-03 0.  1.
         11   -1    0    0    0    0 -0.00000000000E+00 -0.00000000000E+00 -0.45593999997E+02  0.45594000000E+02  0.51100000000E-03 0. -1.
    9900012    2    1    2    0    0 -0.10603420770E+02  0.82266417231E+01  0.28924223896E+02  0.59301938875E+02  0.49999990602E+02 0.  0.
         12    1    1    2    0    0  0.10603420770E+02 -0.82266417231E+01 -0.28924223896E+02  0.31886061125E+02  0.00000000000E+00 0. -1.
         11    1    3    3    0    0 -0.16158504077E+01 -0.12762386072E+02 -0.50652980973E+01  0.13825581936E+02  0.51100000000E-03 0. -1.
        -11    1    3    3    0    0  0.60198512161E+01  0.97206739408E+01  0.12247484942E+02  0.16755029042E+02  0.51100000000E-03 0.  1.
         12    1    3    3    0    0 -0.15007421579E+02  0.11268353854E+02  0.21742037052E+02  0.28721327897E+02  0.00000000000E+00 0. -1.
</event>
<event>
 7    1  0.4489290E-013  0.5930193E+02  0.7816164E-02  0.1266605E+00
        -11   -1    0    0    0    0  0.00000000000E+00  0.00000000000E+00  0.45593999997E+02  0.45594000000E+02  0.51100000000E-03 0. -1.
         11   -1    0    0    0    0 -0.00000000000E+00 -0.00000000000E+00 -0.45593999997E+02  0.45594000000E+02  0.51100000000E-03 0.  1.
    9900012    2    1    2    0    0  0.11720377063E+02 -0.29367761095E+02 -0.41095709668E+01  0.59301934019E+02  0.49999981747E+02 0.  0.
         12    1    1    2    0    0 -0.11720377063E+02  0.29367761095E+02  0.41095709668E+01  0.31886065981E+02  0.00000000000E+00 0. -1.
         11    1    3    3    0    0  0.21269892673E-01 -0.16879156859E+02 -0.24988123103E+02  0.30154811973E+02  0.51100000000E-03 0.  1.
        -11    1    3    3    0    0  0.11021027225E+02 -0.46851184997E+01  0.15745493384E+02  0.19782162132E+02  0.51100000000E-03 0. -1.
        -12    1    3    3    0    0  0.67807994542E+00 -0.78034857357E+01  0.51330587522E+01  0.93649599141E+01  0.00000000000E+00 0.  1.
</event>
<event>
 7    1  0.4489290E-013  0.5930194E+02  0.7816164E-02  0.1266605E+00
        -11   -1    0    0    0    0  0.00000000000E+00  0.00000000000E+00  0.45593999997E+02  0.45594000000E+02  0.51100000000E-03 0.  1.
         11   -1    0    0    0    0 -0.00000000000E+00 -0.00000000000E+00 -0.45593999997E+02  0.45594000000E+02  0.51100000000E-03 0. -1.
    9900012    2    1    2    0    0 -0.15251983416E+02 -0.27649830972E+02  0.44254355469E+01  0.59301943005E+02  0.49999998135E+02 0.  0.
         12    1    1    2    0    0  0.15251983416E+02  0.27649830972E+02 -0.44254355469E+01  0.31886056995E+02  0.00000000000E+00 0. -1.
         11    1    3    3    0    0 -0.18984142047E+02 -0.29027157896E+02  0.13288640835E+02  0.37142449035E+02  0.51100000000E-03 0. -1.
        -11    1    3    3    0    0 -0.24376019446E+01  0.29051412271E+01  0.53685266295E+01  0.65728857606E+01  0.51100000000E-03 0.  1.
         12    1    3    3    0    0  0.61697605760E+01 -0.15278143033E+01 -0.14231731918E+02  0.15586608210E+02  0.00000000000E+00 0. -1.
</event>
<event>
 7    1  0.4489290E-013  0.5930196E+02  0.7816164E-02  0.1266605E+00
        -11   -1    0    0    0    0  0.00000000000E+00  0.00000000000E+00  0.45593999997E+02  0.45594000000E+02  0.51100000000E-03 0. -1.
         11   -1    0    0    0    0 -0.00000000000E+00 -0.00000000000E+00 -0.45593999997E+02  0.45594000000E+02  0.51100000000E-03 0.  1.
    9900012    2    1    2    0    0 -0.13067934626E+02 -0.20942379478E+02 -0.20183301377E+02  0.59301955591E+02  0.50000021088E+02 0.  0.
         12    1    1    2    0    0  0.13067934626E+02  0.20942379478E+02  0.20183301377E+02  0.31886044409E+02  0.00000000000E+00 0. -1.
         11    1    3    3    0    0  0.10961109242E+02 -0.18617741737E+01  0.87575625065E+01  0.14152986264E+02  0.51100000000E-03 0. -1.
        -11    1    3    3    0    0 -0.39662138276E+01 -0.90229894017E+01 -0.17192218585E+02  0.19817102967E+02  0.51100000000E-03 0.  1.
         12    1    3    3    0    0 -0.20062830040E+02 -0.10057615903E+02 -0.11748645298E+02  0.25331866359E+02  0.00000000000E+00 0. -1.
</event>
<event>
 7    1  0.4489290E-013  0.5930194E+02  0.7816164E-02  0.1266605E+00
        -11   -1    0    0    0    0  0.00000000000E+00  0.00000000000E+00  0.45593999997E+02  0.45594000000E+02  0.51100000000E-03 0.  1.
         11   -1    0    0    0    0 -0.00000000000E+00 -0.00000000000E+00 -0.45593999997E+02  0.45594000000E+02  0.51100000000E-03 0. -1.
    9900012    2    1    2    0    0 -0.51743538007E+01 -0.30893306286E+02 -0.59624250428E+01  0.59301939990E+02  0.49999992637E+02 0.  0.
         12    1    1    2    0    0  0.51743538007E+01  0.30893306286E+02  0.59624250428E+01  0.31886060010E+02  0.00000000000E+00 0. -1.
         11    1    3    3    0    0 -0.20327323078E+02 -0.17922829278E+02 -0.43147027737E+01  0.27441656895E+02  0.51100000000E-03 0. -1.
        -11    1    3    3    0    0  0.17952755621E+02 -0.38112939204E+01  0.63109109384E+01  0.19407601419E+02  0.51100000000E-03 0.  1.
        -12    1    3    3    0    0 -0.27997863436E+01 -0.91591830877E+01 -0.79586332074E+01  0.12452681676E+02  0.00000000000E+00 0.  1.
</event>
<event>
 7    1  0.4489290E-013  0.5930194E+02  0.7816164E-02  0.1266605E+00
        -11   -1    0    0    0    0  0.00000000000E+00  0.00000000000E+00  0.45593999997E+02  0.45594000000E+02  0.51100000000E-03 0.  1.
         11   -1    0    0    0    0 -0.00000000000E+00 -0.00000000000E+00 -0.45593999997E+02  0.45594000000E+02  0.51100000000E-03 0. -1.
    9900012    2    1    2    0    0  0.57436629316E+01  0.28501404360E+02 -0.13092022528E+02  0.59301940848E+02  0.49999994201E+02 0.  0.
         12    1    1    2    0    0 -0.57436629316E+01 -0.28501404360E+02  0.13092022528E+02  0.31886059152E+02  0.00000000000E+00 0. -1.
         11    1    3    3    0    0 -0.20247764325E+02  0.34886846160E+01 -0.66764846192E+01  0.21603664681E+02  0.51100000000E-03 0. -1.
        -11    1    3    3    0    0  0.86190957058E+01  0.76061276514E+01  0.20756842871E+01  0.11681200887E+02  0.51100000000E-03 0.  1.
         12    1    3    3    0    0  0.17372331551E+02  0.17406592093E+02 -0.84912221954E+01  0.26017075281E+02  0.00000000000E+00 0. -1.
</event>
<event>
 7    1  0.4489290E-013  0.5930177E+02  0.7816164E-02  0.1266605E+00
        -11   -1    0    0    0    0  0.00000000000E+00  0.00000000000E+00  0.45593999997E+02  0.45594000000E+02  0.51100000000E-03 0.  1.
         11   -1    0    0    0    0 -0.00000000000E+00 -0.00000000000E+00 -0.45593999997E+02  0.45594000000E+02  0.51100000000E-03 0. -1.
    9900012    2    1    2    0    0  0.78602786301E+01  0.20973867447E+02  0.22694596907E+02  0.59301767476E+02  0.49999678010E+02 0.  0.
         12    1    1    2    0    0 -0.78602786301E+01 -0.20973867447E+02 -0.22694596907E+02  0.31886232524E+02  0.00000000000E+00 0. -1.
         11    1    3    3    0    0 -0.19135576983E+02  0.63391827072E+01  0.67885820189E+00  0.20169689947E+02  0.51100000000E-03 0. -1.
        -11    1    3    3    0    0  0.95106269964E+01  0.18110877200E+01  0.11501349804E+02  0.15033732476E+02  0.51100000000E-03 0.  1.
         12    1    3    3    0    0  0.17485228616E+02  0.12823597020E+02  0.10514388902E+02  0.24098345052E+02  0.00000000000E+00 0. -1.
</event>
<event>
 7    1  0.4489290E-013  0.5930194E+02  0.7816164E-02  0.1266605E+00
        -11   -1    0    0    0    0  0.00000000000E+00  0.00000000000E+00  0.45593999997E+02  0.45594000000E+02  0.51100000000E-03 0.  1.
         11   -1    0    0    0    0 -0.00000000000E+00 -0.00000000000E+00 -0.45593999997E+02  0.45594000000E+02  0.51100000000E-03 0. -1.
    9900012    2    1    2    0    0 -0.21505919621E+02 -0.23540231724E+02  0.27202984771E+00  0.59301935825E+02  0.49999985040E+02 0.  0.
         12    1    1    2    0    0  0.21505919621E+02  0.23540231724E+02 -0.27202984771E+00  0.31886064175E+02  0.00000000000E+00 0. -1.
         11    1    3    3    0    0 -0.78345581859E+01 -0.14197590492E+02  0.23554347835E+02  0.28596488944E+02  0.51100000000E-03 0. -1.
        -11    1    3    3    0    0 -0.12205424040E+02 -0.81449080261E+01 -0.11157420411E+02  0.18433663045E+02  0.51100000000E-03 0.  1.
         12    1    3    3    0    0 -0.14659373943E+01 -0.11977332056E+01 -0.12124897576E+02  0.12271783836E+02  0.00000000000E+00 0. -1.
</event>
<event>
 7    1  0.4489290E-013  0.5930193E+02  0.7816164E-02  0.1266605E+00
        -11   -1    0    0    0    0  0.00000000000E+00  0.00000000000E+00  0.45593999997E+02  0.45594000000E+02  0.51100000000E-03 0. -1.
         11   -1    0    0    0    0 -0.00000000000E+00 -0.00000000000E+00 -0.45593999997E+02  0.45594000000E+02  0.51100000000E-03 0.  1.
    9900012    2    1    2    0    0  0.26805158707E+02 -0.16502243693E+02 -0.50872983253E+01  0.59301934322E+02  0.49999982298E+02 0.  0.
         12    1    1    2    0    0 -0.26805158707E+02  0.16502243693E+02  0.50872983253E+01  0.31886065678E+02  0.00000000000E+00 0. -1.
         11    1    3    3    0    0 -0.66554803206E+01  0.75817875391E+01  0.29273973035E+01  0.10504693038E+02  0.51100000000E-03 0. -1.
        -11    1    3    3    0    0  0.59922241331E+01 -0.12450169190E+02  0.69019506722E+01  0.15445076441E+02  0.51100000000E-03 0.  1.
         12    1    3    3    0    0  0.27468414894E+02 -0.11633862042E+02 -0.14916646301E+02  0.33352164843E+02  0.00000000000E+00 0. -1.
</event>
<event>
 7    1  0.4489290E-013  0.5930195E+02  0.7816164E-02  0.1266605E+00
        -11   -1    0    0    0    0  0.00000000000E+00  0.00000000000E+00  0.45593999997E+02  0.45594000000E+02  0.51100000000E-03 0. -1.
         11   -1    0    0    0    0 -0.00000000000E+00 -0.00000000000E+00 -0.45593999997E+02  0.45594000000E+02  0.51100000000E-03 0.  1.
    9900012    2    1    2    0    0  0.23740034805E+02  0.86182372335E+01 -0.19464246526E+02  0.59301950411E+02  0.50000011641E+02 0.  0.
         12    1    1    2    0    0 -0.23740034805E+02 -0.86182372335E+01  0.19464246526E+02  0.31886049589E+02  0.00000000000E+00 0. -1.
         11    1    3    3    0    0 -0.49274616994E+01 -0.55149126230E+01 -0.79081230691E+01  0.10827398154E+02  0.51100000000E-03 0. -1.
        -11    1    3    3    0    0  0.35842936159E+02  0.63945453224E+01 -0.75305630014E+01  0.37179505938E+02  0.51100000000E-03 0.  1.
        -12    1    3    3    0    0 -0.71754396549E+01  0.77386045341E+01 -0.40255604558E+01  0.11295046319E+02  0.00000000000E+00 0.  1.
</event>
<event>
 7    1  0.4489290E-013  0.5930224E+02  0.7816164E-02  0.1266604E+00
        -11   -1    0    0    0    0  0.00000000000E+00  0.00000000000E+00  0.45593999997E+02  0.45594000000E+02  0.51100000000E-03 0.  1.
         11   -1    0    0    0    0 -0.00000000000E+00 -0.00000000000E+00 -0.45593999997E+02  0.45594000000E+02  0.51100000000E-03 0. -1.
    9900012    2    1    2    0    0 -0.20526009504E+02 -0.15400772615E+02 -0.18926197019E+02  0.59302238336E+02  0.50000536745E+02 0.  0.
         12    1    1    2    0    0  0.20526009504E+02  0.15400772615E+02  0.18926197019E+02  0.31885761664E+02  0.00000000000E+00 0. -1.
         11    1    3    3    0    0 -0.79290739794E+01 -0.68455689600E+01 -0.26253401615E+02  0.28266112665E+02  0.51100000000E-03 0. -1.
        -11    1    3    3    0    0  0.24932216465E+00 -0.11813934543E+02  0.12135064417E+02  0.16937856995E+02  0.51100000000E-03 0.  1.
        -12    1    3    3    0    0 -0.12846257689E+02  0.32587308875E+01 -0.48078598204E+01  0.14098268676E+02  0.00000000000E+00 0.  1.
</event>
<event>
 7    1  0.4489290E-013  0.5930194E+02  0.7816164E-02  0.1266605E+00
        -11   -1    0    0    0    0  0.00000000000E+00  0.00000000000E+00  0.45593999997E+02  0.45594000000E+02  0.51100000000E-03 0.  1.
         11   -1    0    0    0    0 -0.00000000000E+00 -0.00000000000E+00 -0.45593999997E+02  0.45594000000E+02  0.51100000000E-03 0. -1.
    9900012    2    1    2    0    0  0.22240854726E+02 -0.21431701415E+02  0.79213409271E+01  0.59301935857E+02  0.49999985098E+02 0.  0.
         12    1    1    2    0    0 -0.22240854726E+02  0.21431701415E+02 -0.79213409271E+01  0.31886064143E+02  0.00000000000E+00 0. -1.
         11    1    3    3    0    0 -0.42281509934E+01  0.18444231046E+01  0.14582494887E+01  0.48379385325E+01  0.51100000000E-03 0. -1.
        -11    1    3    3    0    0  0.24344670219E+02 -0.31821306026E+02  0.14434405867E+02  0.42586506763E+02  0.51100000000E-03 0.  1.
        -12    1    3    3    0    0  0.21243354998E+01  0.85451815069E+01 -0.79713144285E+01  0.11877490561E+02  0.00000000000E+00 0.  1.
</event>
<event>
 7    1  0.4489290E-013  0.5930198E+02  0.7816164E-02  0.1266605E+00
        -11   -1    0    0    0    0  0.00000000000E+00  0.00000000000E+00  0.45593999997E+02  0.45594000000E+02  0.51100000000E-03 0. -1.
         11   -1    0    0    0    0 -0.00000000000E+00 -0.00000000000E+00 -0.45593999997E+02  0.45594000000E+02  0.51100000000E-03 0.  1.
    9900012    2    1    2    0    0 -0.18490129101E+02 -0.21416923346E+02 -0.14701989358E+02  0.59301984714E+02  0.50000074201E+02 0.  0.
         12    1    1    2    0    0  0.18490129101E+02  0.21416923346E+02  0.14701989358E+02  0.31886015286E+02  0.00000000000E+00 0. -1.
         11    1    3    3    0    0 -0.90454423006E+00  0.69786015487E+01 -0.61901768555E+01  0.93721592818E+01  0.51100000000E-03 0. -1.
        -11    1    3    3    0    0  0.22459041944E+01 -0.26712160023E+02  0.29406727519E+01  0.26967223351E+02  0.51100000000E-03 0.  1.
        -12    1    3    3    0    0 -0.19831489065E+02 -0.16833648715E+01 -0.11452485254E+02  0.22962602081E+02  0.00000000000E+00 0.  1.
</event>
<event>
 7    1  0.4489290E-013  0.5930194E+02  0.7816164E-02  0.1266605E+00
        -11   -1    0    0    0    0  0.00000000000E+00  0.00000000000E+00  0.45593999997E+02  0.45594000000E+02  0.51100000000E-03 0.  1.
         11   -1    0    0    0    0 -0.00000000000E+00 -0.00000000000E+00 -0.45593999997E+02  0.45594000000E+02  0.51100000000E-03 0. -1.
    9900012    2    1    2    0    0  0.46153881890E+01  0.26235095466E+02  0.17525383170E+02  0.59301935685E+02  0.49999984785E+02 0.  0.
         12    1    1    2    0    0 -0.46153881890E+01 -0.26235095466E+02 -0.17525383170E+02  0.31886064315E+02  0.00000000000E+00 0. -1.
         11    1    3    3    0    0 -0.20543259864E+02  0.23449152845E+02  0.89982644446E+01  0.32447758909E+02  0.51100000000E-03 0. -1.
        -11    1    3    3    0    0  0.70449572871E+01  0.20108857521E+01  0.27560051881E+01  0.78275570610E+01  0.51100000000E-03 0.  1.
         12    1    3    3    0    0  0.18113690766E+02  0.77505686947E+00  0.57711135373E+01  0.19026619715E+02  0.00000000000E+00 0. -1.
</event>
<event>
 7    1  0.4489290E-013  0.5930196E+02  0.7816164E-02  0.1266605E+00
        -11   -1    0    0    0    0  0.00000000000E+00  0.00000000000E+00  0.45593999997E+02  0.45594000000E+02  0.51100000000E-03 0.  1.
         11   -1    0    0    0    0 -0.00000000000E+00 -0.00000000000E+00 -0.45593999997E+02  0.45594000000E+02  0.51100000000E-03 0. -1.
    9900012    2    1    2    0    0 -0.15166789893E+02 -0.52449774564E+01  0.27553189645E+02  0.59301959735E+02  0.50000028645E+02 0.  0.
         12    1    1    2    0    0  0.15166789893E+02  0.52449774564E+01 -0.27553189645E+02  0.31886040265E+02  0.00000000000E+00 0. -1.
         11    1    3    3    0    0  0.14250067071E+01 -0.21695154527E+02  0.91983467776E+01  0.23607624992E+02  0.51100000000E-03 0. -1.
        -11    1    3    3    0    0 -0.84439060948E+01  0.90973525124E+01  0.21010152315E+02  0.24402620216E+02  0.51100000000E-03 0.  1.
         12    1    3    3    0    0 -0.81478905055E+01  0.73528245585E+01 -0.26553094469E+01  0.11291714526E+02  0.00000000000E+00 0. -1.
</event>
<event>
 7    1  0.4596795E-013  0.5930193E+02  0.7816164E-02  0.1266605E+00
        -11   -1    0    0    0    0  0.00000000000E+00  0.00000000000E+00  0.45593999997E+02  0.45594000000E+02  0.51100000000E-03 0. -1.
         11   -1    0    0    0    0 -0.00000000000E+00 -0.00000000000E+00 -0.45593999997E+02  0.45594000000E+02  0.51100000000E-03 0.  1.
    9900012    2    1    2    0    0  0.18539922377E+02  0.69128244877E+01 -0.25004108075E+02  0.59301932749E+02  0.49999979430E+02 0.  0.
         12    1    1    2    0    0 -0.18539922377E+02 -0.69128244877E+01  0.25004108075E+02  0.31886067251E+02  0.00000000000E+00 0. -1.
         11    1    3    3    0    0  0.13615129156E+02 -0.11628204517E+02 -0.29329444967E+01  0.18143567618E+02  0.51100000000E-03 0. -1.
        -11    1    3    3    0    0  0.68808318567E+01  0.18546240434E+02 -0.28357140326E+02  0.34575081909E+02  0.51100000000E-03 0.  1.
         12    1    3    3    0    0 -0.19560386354E+01 -0.52114292804E-02  0.62859767481E+01  0.65832832219E+01  0.00000000000E+00 0. -1.
</event>
<event>
 7    1  0.4489290E-013  0.5930194E+02  0.7816164E-02  0.1266605E+00
        -11   -1    0    0    0    0  0.00000000000E+00  0.00000000000E+00  0.45593999997E+02  0.45594000000E+02  0.51100000000E-03 0. -1.
         11   -1    0    0    0    0 -0.00000000000E+00 -0.00000000000E+00 -0.45593999997E+02  0.45594000000E+02  0.51100000000E-03 0.  1.
    9900012    2    1    2    0    0 -0.28953294337E+02 -0.10909690324E+02 -0.77075336774E+01  0.59301942368E+02  0.49999996973E+02 0.  0.
         12    1    1    2    0    0  0.28953294337E+02  0.10909690324E+02  0.77075336774E+01  0.31886057632E+02  0.00000000000E+00 0. -1.
         11    1    3    3    0    0 -0.63983549981E+01 -0.85022596605E+01  0.46361930992E+00  0.10650929966E+02  0.51100000000E-03 0. -1.
        -11    1    3    3    0    0 -0.59564797109E+01  0.18141484549E+02 -0.11079735149E+02  0.22076087593E+02  0.51100000000E-03 0.  1.
        -12    1    3    3    0    0 -0.16598459628E+02 -0.20548915212E+02  0.29085821617E+01  0.26574924809E+02  0.00000000000E+00 0.  1.
</event>
<event>
 7    1  0.4489290E-013  0.5930194E+02  0.7816164E-02  0.1266605E+00
        -11   -1    0    0    0    0  0.00000000000E+00  0.00000000000E+00  0.45593999997E+02  0.45594000000E+02  0.51100000000E-03 0.  1.
         11   -1    0    0    0    0 -0.00000000000E+00 -0.00000000000E+00 -0.45593999997E+02  0.45594000000E+02  0.51100000000E-03 0. -1.
    9900012    2    1    2    0    0 -0.17467793105E+02 -0.15887973958E+02  0.21428233841E+02  0.59301941636E+02  0.49999995638E+02 0.  0.
         12    1    1    2    0    0  0.17467793105E+02  0.15887973958E+02 -0.21428233841E+02  0.31886058364E+02  0.00000000000E+00 0. -1.
         11    1    3    3    0    0  0.63330377147E-01 -0.16230508726E+02  0.50881058063E+01  0.17009475159E+02  0.51100000000E-03 0. -1.
        -11    1    3    3    0    0 -0.95901392509E+00  0.73978383457E+01 -0.86917876175E+01  0.11454033881E+02  0.51100000000E-03 0.  1.
        -12    1    3    3    0    0 -0.16572109557E+02 -0.70553035781E+01  0.25031915652E+02  0.30838432596E+02  0.00000000000E+00 0.  1.
</event>
<event>
 7    1  0.4489290E-013  0.5930195E+02  0.7816164E-02  0.1266605E+00
        -11   -1    0    0    0    0  0.00000000000E+00  0.00000000000E+00  0.45593999997E+02  0.45594000000E+02  0.51100000000E-03 0.  1.
         11   -1    0    0    0    0 -0.00000000000E+00 -0.00000000000E+00 -0.45593999997E+02  0.45594000000E+02  0.51100000000E-03 0. -1.
    9900012    2    1    2    0    0  0.28589763220E+02  0.41175649623E+01  0.13505240681E+02  0.59301946183E+02  0.50000003931E+02 0.  0.
         12    1    1    2    0    0 -0.28589763220E+02 -0.41175649623E+01 -0.13505240681E+02  0.31886053817E+02  0.00000000000E+00 0. -1.
         11    1    3    3    0    0  0.33661198249E+01 -0.22835070203E+01 -0.43634126248E+01  0.59652776115E+01  0.51100000000E-03 0. -1.
        -11    1    3    3    0    0  0.22429158456E+02 -0.94913153557E+01  0.25694547647E+02  0.35402852926E+02  0.51100000000E-03 0.  1.
        -12    1    3    3    0    0  0.27944849385E+01  0.15892387338E+02 -0.78258943413E+01  0.17933815646E+02  0.00000000000E+00 0.  1.
</event>
<event>
 7    1  0.5890644E-013  0.5930196E+02  0.7816164E-02  0.1266605E+00
        -11   -1    0    0    0    0  0.00000000000E+00  0.00000000000E+00  0.45593999997E+02  0.45594000000E+02  0.51100000000E-03 0. -1.
         11   -1    0    0    0    0 -0.00000000000E+00 -0.00000000000E+00 -0.45593999997E+02  0.45594000000E+02  0.51100000000E-03 0.  1.
    9900012    2    1    2    0    0 -0.20545939727E+02  0.32710485637E+01 -0.24163699555E+02  0.59301956437E+02  0.50000022631E+02 0.  0.
         12    1    1    2    0    0  0.20545939727E+02 -0.32710485637E+01  0.24163699555E+02  0.31886043563E+02  0.00000000000E+00 0. -1.
         11    1    3    3    0    0 -0.14642135888E+02  0.89691099225E+01  0.43688025802E+01  0.17717886793E+02  0.51100000000E-03 0. -1.
        -11    1    3    3    0    0 -0.14984931824E+02 -0.72388684628E+01 -0.27727206941E+02  0.32338017926E+02  0.51100000000E-03 0.  1.
         12    1    3    3    0    0  0.90811279849E+01  0.15408071040E+01 -0.80529519397E+00  0.92460517173E+01  0.00000000000E+00 0. -1.
</event>
<event>
 7    1  0.4489290E-013  0.5930182E+02  0.7816164E-02  0.1266605E+00
        -11   -1    0    0    0    0  0.00000000000E+00  0.00000000000E+00  0.45593999997E+02  0.45594000000E+02  0.51100000000E-03 0. -1.
         11   -1    0    0    0    0 -0.00000000000E+00 -0.00000000000E+00 -0.45593999997E+02  0.45594000000E+02  0.51100000000E-03 0.  1.
    9900012    2    1    2    0    0 -0.20939383795E+02  0.17063485806E+02 -0.16944261329E+02  0.59301822217E+02  0.49999777847E+02 0.  0.
         12    1    1    2    0    0  0.20939383795E+02 -0.17063485806E+02  0.16944261329E+02  0.31886177783E+02  0.00000000000E+00 0. -1.
         11    1    3    3    0    0  0.11356051985E+02 -0.48171589758E+01 -0.36348301875E+01  0.12859896113E+02  0.51100000000E-03 0. -1.
        -11    1    3    3    0    0 -0.23653401421E+02  0.64561047098E+01 -0.14898312734E+02  0.28690144813E+02  0.51100000000E-03 0.  1.
         12    1    3    3    0    0 -0.86420343593E+01  0.15424540072E+02  0.15888815918E+01  0.17751781291E+02  0.00000000000E+00 0. -1.
</event>
<event>
 7    1  0.4489290E-013  0.5930196E+02  0.7816164E-02  0.1266605E+00
        -11   -1    0    0    0    0  0.00000000000E+00  0.00000000000E+00  0.45593999997E+02  0.45594000000E+02  0.51100000000E-03 0.  1.
         11   -1    0    0    0    0 -0.00000000000E+00 -0.00000000000E+00 -0.45593999997E+02  0.45594000000E+02  0.51100000000E-03 0. -1.
    9900012    2    1    2    0    0 -0.32098867820E+01  0.29680908260E+02  0.11200900627E+02  0.59301955041E+02  0.50000020085E+02 0.  0.
         12    1    1    2    0    0  0.32098867820E+01 -0.29680908260E+02 -0.11200900627E+02  0.31886044959E+02  0.00000000000E+00 0. -1.
         11    1    3    3    0    0 -0.52140671902E+01 -0.12196897363E+02 -0.11879646224E+01  0.13317734873E+02  0.51100000000E-03 0. -1.
        -11    1    3    3    0    0  0.43553966835E+01  0.29002900746E+01  0.16327349980E+01  0.54815131690E+01  0.51100000000E-03 0.  1.
         12    1    3    3    0    0 -0.23512162752E+01  0.38977515548E+02  0.10756130252E+02  0.40502706999E+02  0.00000000000E+00 0. -1.
</event>
<event>
 7    1  0.4489290E-013  0.5930196E+02  0.7816164E-02  0.1266605E+00
        -11   -1    0    0    0    0  0.00000000000E+00  0.00000000000E+00  0.45593999997E+02  0.45594000000E+02  0.51100000000E-03 0. -1.
         11   -1    0    0    0    0 -0.00000000000E+00 -0.00000000000E+00 -0.45593999997E+02  0.45594000000E+02  0.51100000000E-03 0.  1.
    9900012    2    1    2    0    0 -0.23784935217E+02 -0.16953979891E+02 -0.12789026925E+02  0.59301956234E+02  0.50000022260E+02 0.  0.
         12    1    1    2    0    0  0.23784935217E+02  0.16953979891E+02  0.12789026925E+02  0.31886043766E+02  0.00000000000E+00 0. -1.
         11    1    3    3    0    0  0.53917255408E+01  0.81593856062E+01 -0.11793334042E+02  0.15320868313E+02  0.51100000000E-03 0. -1.
        -11    1    3    3    0    0 -0.23284258991E+02 -0.26896704170E+02 -0.59620543909E+01  0.36071255936E+02  0.51100000000E-03 0.  1.
         12    1    3    3    0    0 -0.58924017663E+01  0.17833386728E+01  0.49663615082E+01  0.79098319848E+01  0.00000000000E+00 0. -1.
</event>
<event>
 7    1  0.5524412E-013  0.5930189E+02  0.7816164E-02  0.1266605E+00
        -11   -1    0    0    0    0  0.00000000000E+00  0.00000000000E+00  0.45593999997E+02  0.45594000000E+02  0.51100000000E-03 0. -1.
         11   -1    0    0    0    0 -0.00000000000E+00 -0.00000000000E+00 -0.45593999997E+02  0.45594000000E+02  0.51100000000E-03 0.  1.
    9900012    2    1    2    0    0 -0.46161423944E+01  0.98965081324E+01 -0.29957873932E+02  0.59301892455E+02  0.49999905944E+02 0.  0.
         12    1    1    2    0    0  0.46161423944E+01 -0.98965081324E+01  0.29957873932E+02  0.31886107545E+02  0.00000000000E+00 0. -1.
         11    1    3    3    0    0  0.11026777659E+02  0.10777729404E+02 -0.19549485830E+01  0.15542557733E+02  0.51100000000E-03 0. -1.
        -11    1    3    3    0    0 -0.31941506563E+01 -0.10186802137E+02 -0.25977346813E+02  0.28085513773E+02  0.51100000000E-03 0.  1.
        -12    1    3    3    0    0 -0.12448769397E+02  0.93055808651E+01 -0.20255785358E+01  0.15673820949E+02  0.00000000000E+00 0.  1.
</event>
<event>
 7    1  0.4489290E-013  0.5930169E+02  0.7816164E-02  0.1266606E+00
        -11   -1    0    0    0    0  0.00000000000E+00  0.00000000000E+00  0.45593999997E+02  0.45594000000E+02  0.51100000000E-03 0. -1.
         11   -1    0    0    0    0 -0.00000000000E+00 -0.00000000000E+00 -0.45593999997E+02  0.45594000000E+02  0.51100000000E-03 0.  1.
    9900012    2    1    2    0    0 -0.26780150613E+02 -0.64494157259E+00 -0.17295781021E+02  0.59301694826E+02  0.49999545514E+02 0.  0.
         12    1    1    2    0    0  0.26780150613E+02  0.64494157259E+00  0.17295781021E+02  0.31886305174E+02  0.00000000000E+00 0. -1.
         11    1    3    3    0    0  0.65588592018E+01 -0.28418627366E+01 -0.29893189031E+00  0.71543118732E+01  0.51100000000E-03 0. -1.
        -11    1    3    3    0    0 -0.17117078707E+02  0.16964710438E+02  0.47237912568E+00  0.24104334175E+02  0.51100000000E-03 0.  1.
        -12    1    3    3    0    0 -0.16221931108E+02 -0.14767789274E+02 -0.17469228257E+02  0.28043048778E+02  0.00000000000E+00 0.  1.
</event>
<event>
 7    1  0.4489290E-013  0.5930193E+02  0.7816164E-02  0.1266605E+00
        -11   -1    0    0    0    0  0.00000000000E+00  0.00000000000E+00  0.45593999997E+02  0.45594000000E+02  0.51100000000E-03 0. -1.
         11   -1    0    0    0    0 -0.00000000000E+00 -0.00000000000E+00 -0.45593999997E+02  0.45594000000E+02  0.51100000000E-03 0.  1.
    9900012    2    1    2    0    0  0.21947961464E+02 -0.23129493869E+02  0.18712642681E+00  0.59301929133E+02  0.49999972835E+02 0.  0.
         12    1    1    2    0    0 -0.21947961464E+02  0.23129493869E+02 -0.18712642681E+00  0.31886070867E+02  0.00000000000E+00 0. -1.
         11    1    3    3    0    0  0.19934605548E+02 -0.14455384553E+02  0.70813345208E+00  0.24634286963E+02  0.51100000000E-03 0.  1.
        -11    1    3    3    0    0 -0.89611211253E+01  0.85993627186E+00  0.12328485326E+02  0.15265409687E+02  0.51100000000E-03 0. -1.
        -12    1    3    3    0    0  0.10974477042E+02 -0.95340455873E+01 -0.12849492352E+02  0.19402232482E+02  0.00000000000E+00 0.  1.
</event>
<event>
 7    1  0.4489290E-013  0.5930179E+02  0.7816164E-02  0.1266605E+00
        -11   -1    0    0    0    0  0.00000000000E+00  0.00000000000E+00  0.45593999997E+02  0.45594000000E+02  0.51100000000E-03 0. -1.
         11   -1    0    0    0    0 -0.00000000000E+00 -0.00000000000E+00 -0.45593999997E+02  0.45594000000E+02  0.51100000000E-03 0.  1.
    9900012    2    1    2    0    0 -0.11279132589E+01 -0.71180946429E+00 -0.31858300081E+02  0.59301793812E+02  0.49999726041E+02 0.  0.
         12    1    1    2    0    0  0.11279132589E+01  0.71180946429E+00  0.31858300081E+02  0.31886206188E+02  0.00000000000E+00 0. -1.
         11    1    3    3    0    0 -0.34046828208E+01  0.37438336062E+01  0.22659708151E+01  0.55446171353E+01  0.51100000000E-03 0. -1.
        -11    1    3    3    0    0  0.83872457333E+01 -0.21627618042E+02 -0.21072266151E+02  0.31339115402E+02  0.51100000000E-03 0.  1.
        -12    1    3    3    0    0 -0.61104761714E+01  0.17171974971E+02 -0.13052004745E+02  0.22418061275E+02  0.00000000000E+00 0.  1.
</event>
<event>
 7    1  0.4489290E-013  0.5930195E+02  0.7816164E-02  0.1266605E+00
        -11   -1    0    0    0    0  0.00000000000E+00  0.00000000000E+00  0.45593999997E+02  0.45594000000E+02  0.51100000000E-03 0. -1.
         11   -1    0    0    0    0 -0.00000000000E+00 -0.00000000000E+00 -0.45593999997E+02  0.45594000000E+02  0.51100000000E-03 0.  1.
    9900012    2    1    2    0    0  0.57633808821E+01  0.18686687034E+01 -0.31305135600E+02  0.59301952944E+02  0.50000016260E+02 0.  0.
         12    1    1    2    0    0 -0.57633808821E+01 -0.18686687034E+01  0.31305135600E+02  0.31886047056E+02  0.00000000000E+00 0. -1.
         11    1    3    3    0    0  0.54912034273E+01 -0.43209408795E+01  0.58780278900E+01  0.91309943216E+01  0.51100000000E-03 0. -1.
        -11    1    3    3    0    0 -0.33284169082E+01  0.19443301074E+02 -0.24710996523E+02  0.31618881466E+02  0.51100000000E-03 0.  1.
        -12    1    3    3    0    0  0.36005943630E+01 -0.13253691491E+02 -0.12472166968E+02  0.18552077156E+02  0.00000000000E+00 0.  1.
</event>
<event>
 7    1  0.4489290E-013  0.5930199E+02  0.7816164E-02  0.1266605E+00
        -11   -1    0    0    0    0  0.00000000000E+00  0.00000000000E+00  0.45593999997E+02  0.45594000000E+02  0.51100000000E-03 0. -1.
         11   -1    0    0    0    0 -0.00000000000E+00 -0.00000000000E+00 -0.45593999997E+02  0.45594000000E+02  0.51100000000E-03 0.  1.
    9900012    2    1    2    0    0  0.11010762086E+01  0.22224270404E+02 -0.22838279999E+02  0.59301990574E+02  0.50000084888E+02 0.  0.
         12    1    1    2    0    0 -0.11010762086E+01 -0.22224270404E+02  0.22838279999E+02  0.31886009426E+02  0.00000000000E+00 0. -1.
         11    1    3    3    0    0 -0.10609150151E+02 -0.66610049378E+01 -0.18823061910E+02  0.22610411620E+02  0.51100000000E-03 0. -1.
        -11    1    3    3    0    0  0.36068793365E+01  0.25814173958E+02 -0.78410960152E+01  0.27218815968E+02  0.51100000000E-03 0.  1.
         12    1    3    3    0    0  0.81033470229E+01  0.30711013835E+01  0.38258779257E+01  0.94727629858E+01  0.00000000000E+00 0. -1.
</event>
<event>
 7    1  0.4489290E-013  0.5930195E+02  0.7816164E-02  0.1266605E+00
        -11   -1    0    0    0    0  0.00000000000E+00  0.00000000000E+00  0.45593999997E+02  0.45594000000E+02  0.51100000000E-03 0.  1.
         11   -1    0    0    0    0 -0.00000000000E+00 -0.00000000000E+00 -0.45593999997E+02  0.45594000000E+02  0.51100000000E-03 0. -1.
    9900012    2    1    2    0    0 -0.29950244985E+02 -0.30431590317E+01  0.10509141582E+02  0.59301952137E+02  0.50000014789E+02 0.  0.
         12    1    1    2    0    0  0.29950244985E+02  0.30431590317E+01 -0.10509141582E+02  0.31886047863E+02  0.00000000000E+00 0. -1.
         11    1    3    3    0    0 -0.20393380528E+02 -0.12041830809E+02 -0.57080439048E+00  0.23690113476E+02  0.51100000000E-03 0.  1.
        -11    1    3    3    0    0 -0.13379183507E+02  0.18875022730E+02  0.62052980814E+01  0.23953595949E+02  0.51100000000E-03 0. -1.
         12    1    3    3    0    0  0.38223190503E+01 -0.98763509521E+01  0.48746478916E+01  0.11658242711E+02  0.00000000000E+00 0. -1.
</event>
<event>
 7    1  0.4489290E-013  0.5930196E+02  0.7816164E-02  0.1266605E+00
        -11   -1    0    0    0    0  0.00000000000E+00  0.00000000000E+00  0.45593999997E+02  0.45594000000E+02  0.51100000000E-03 0.  1.
         11   -1    0    0    0    0 -0.00000000000E+00 -0.00000000000E+00 -0.45593999997E+02  0.45594000000E+02  0.51100000000E-03 0. -1.
    9900012    2    1    2    0    0 -0.35468147485E+01 -0.27026707719E+02 -0.16543786395E+02  0.59301957705E+02  0.50000024944E+02 0.  0.
         12    1    1    2    0    0  0.35468147485E+01  0.27026707719E+02  0.16543786395E+02  0.31886042295E+02  0.00000000000E+00 0. -1.
         11    1    3    3    0    0 -0.99225621317E+01 -0.23847941442E+02 -0.21703571205E+02  0.33737613336E+02  0.51100000000E-03 0. -1.
        -11    1    3    3    0    0  0.39028327985E+01  0.10463075679E+02  0.20065260259E+01  0.11346109618E+02  0.51100000000E-03 0.  1.
         12    1    3    3    0    0  0.24729145847E+01 -0.13641841955E+02  0.31532587837E+01  0.14218234751E+02  0.00000000000E+00 0. -1.
</event>
<event>
 7    1  0.4489290E-013  0.5930194E+02  0.7816164E-02  0.1266605E+00
        -11   -1    0    0    0    0  0.00000000000E+00  0.00000000000E+00  0.45593999997E+02  0.45594000000E+02  0.51100000000E-03 0.  1.
         11   -1    0    0    0    0 -0.00000000000E+00 -0.00000000000E+00 -0.45593999997E+02  0.45594000000E+02  0.51100000000E-03 0. -1.
    9900012    2    1    2    0    0  0.24111801839E+02  0.18360334956E+01  0.20783910126E+02  0.59301938357E+02  0.49999989659E+02 0.  0.
         12    1    1    2    0    0 -0.24111801839E+02 -0.18360334956E+01 -0.20783910126E+02  0.31886061643E+02  0.00000000000E+00 0. -1.
         11    1    3    3    0    0  0.24055704242E+02  0.29048008880E+00  0.69041748902E+01  0.25028562013E+02  0.51100000000E-03 0.  1.
        -11    1    3    3    0    0 -0.73723759768E+00  0.39333235251E+01 -0.97347606224E+01  0.10525213436E+02  0.51100000000E-03 0. -1.
        -12    1    3    3    0    0  0.79333519437E+00 -0.23877701183E+01  0.23614495859E+02  0.23748162908E+02  0.00000000000E+00 0.  1.
</event>
<event>
 7    1  0.4489290E-013  0.5930194E+02  0.7816164E-02  0.1266605E+00
        -11   -1    0    0    0    0  0.00000000000E+00  0.00000000000E+00  0.45593999997E+02  0.45594000000E+02  0.51100000000E-03 0. -1.
         11   -1    0    0    0    0 -0.00000000000E+00 -0.00000000000E+00 -0.45593999997E+02  0.45594000000E+02  0.51100000000E-03 0.  1.
    9900012    2    1    2    0    0  0.11705919971E+02 -0.29648043421E+02  0.82806538433E+00  0.59301941396E+02  0.49999995200E+02 0.  0.
         12    1    1    2    0    0 -0.11705919971E+02  0.29648043421E+02 -0.82806538433E+00  0.31886058604E+02  0.00000000000E+00 0. -1.
         11    1    3    3    0    0  0.41732916707E+01  0.37681486251E+01  0.27679078256E+00  0.56295577827E+01  0.51100000000E-03 0. -1.
        -11    1    3    3    0    0 -0.12489827925E+01 -0.38729526803E+02 -0.88568753978E+01  0.39748967867E+02  0.51100000000E-03 0.  1.
        -12    1    3    3    0    0  0.87816110927E+01  0.53133347575E+01  0.94081499995E+01  0.13923415746E+02  0.00000000000E+00 0.  1.
</event>
<event>
 7    1  0.4489290E-013  0.5930198E+02  0.7816164E-02  0.1266605E+00
        -11   -1    0    0    0    0  0.00000000000E+00  0.00000000000E+00  0.45593999997E+02  0.45594000000E+02  0.51100000000E-03 0.  1.
         11   -1    0    0    0    0 -0.00000000000E+00 -0.00000000000E+00 -0.45593999997E+02  0.45594000000E+02  0.51100000000E-03 0. -1.
    9900012    2    1    2    0    0  0.29259241679E+02 -0.52304615745E+01 -0.11543711618E+02  0.59301980652E+02  0.50000066794E+02 0.  0.
         12    1    1    2    0    0 -0.29259241679E+02  0.52304615745E+01  0.11543711618E+02  0.31886019348E+02  0.00000000000E+00 0. -1.
         11    1    3    3    0    0  0.21606677695E+01 -0.53672515264E+01  0.96808101890E+01  0.11278029985E+02  0.51100000000E-03 0. -1.
        -11    1    3    3    0    0  0.13630668226E+02  0.43043584735E+01 -0.28702933505E+02  0.32065261736E+02  0.51100000000E-03 0.  1.
        -12    1    3    3    0    0  0.13467905684E+02 -0.41675685216E+01  0.74784116979E+01  0.15958688931E+02  0.00000000000E+00 0.  1.
</event>
<event>
 7    1  0.4489290E-013  0.5930194E+02  0.7816164E-02  0.1266605E+00
        -11   -1    0    0    0    0  0.00000000000E+00  0.00000000000E+00  0.45593999997E+02  0.45594000000E+02  0.51100000000E-03 0.  1.
         11   -1    0    0    0    0 -0.00000000000E+00 -0.00000000000E+00 -0.45593999997E+02  0.45594000000E+02  0.51100000000E-03 0. -1.
    9900012    2    1    2    0    0  0.99175569955E+01  0.31650071835E+00  0.30302852856E+02  0.59301937203E+02  0.49999987553E+02 0.  0.
         12    1    1    2    0    0 -0.99175569955E+01 -0.31650071835E+00 -0.30302852856E+02  0.31886062797E+02  0.00000000000E+00 0. -1.
         11    1    3    3    0    0 -0.54082818591E+01  0.42771178002E+01 -0.23078807555E+01  0.72711459336E+01  0.51100000000E-03 0. -1.
        -11    1    3    3    0    0  0.11558771994E+02 -0.18096469674E+02  0.70876874411E+01  0.22612446532E+02  0.51100000000E-03 0.  1.
        -12    1    3    3    0    0  0.37670668604E+01  0.14135852592E+02  0.25523046171E+02  0.29418344737E+02  0.00000000000E+00 0.  1.
</event>
<event>
 7    1  0.4489290E-013  0.5930194E+02  0.7816164E-02  0.1266605E+00
        -11   -1    0    0    0    0  0.00000000000E+00  0.00000000000E+00  0.45593999997E+02  0.45594000000E+02  0.51100000000E-03 0. -1.
         11   -1    0    0    0    0 -0.00000000000E+00 -0.00000000000E+00 -0.45593999997E+02  0.45594000000E+02  0.51100000000E-03 0.  1.
    9900012    2    1    2    0    0  0.53026638076E+01  0.17958578812E+02 -0.25808760119E+02  0.59301938856E+02  0.49999990568E+02 0.  0.
         12    1    1    2    0    0 -0.53026638076E+01 -0.17958578812E+02  0.25808760119E+02  0.31886061144E+02  0.00000000000E+00 0. -1.
         11    1    3    3    0    0  0.19603959150E+02  0.72244473418E+01 -0.80437984259E+01  0.22387732068E+02  0.51100000000E-03 0. -1.
        -11    1    3    3    0    0 -0.13660151224E+02 -0.50966063143E+01 -0.14837924509E+02  0.20802382830E+02  0.51100000000E-03 0.  1.
         12    1    3    3    0    0 -0.64114411818E+00  0.15830737785E+02 -0.29270371835E+01  0.16111823958E+02  0.00000000000E+00 0. -1.
</event>
<event>
 7    1  0.4489290E-013  0.5930192E+02  0.7816164E-02  0.1266605E+00
        -11   -1    0    0    0    0  0.00000000000E+00  0.00000000000E+00  0.45593999997E+02  0.45594000000E+02  0.51100000000E-03 0.  1.
         11   -1    0    0    0    0 -0.00000000000E+00 -0.00000000000E+00 -0.45593999997E+02  0.45594000000E+02  0.51100000000E-03 0. -1.
    9900012    2    1    2    0    0 -0.62381166311E+01 -0.28838839203E+02  0.12088406363E+02  0.59301916608E+02  0.49999949993E+02 0.  0.
         12    1    1    2    0    0  0.62381166311E+01  0.28838839203E+02 -0.12088406363E+02  0.31886083392E+02  0.00000000000E+00 0. -1.
         11    1    3    3    0    0 -0.11772364777E+02  0.13314484967E+01 -0.38196959958E+01  0.12447947835E+02  0.51100000000E-03 0. -1.
        -11    1    3    3    0    0  0.35219016599E+01 -0.13693115536E+02  0.24405984136E+02  0.28205624728E+02  0.51100000000E-03 0.  1.
        -12    1    3    3    0    0  0.20123464861E+01 -0.16477172164E+02 -0.84978817777E+01  0.18648344045E+02  0.00000000000E+00 0.  1.
</event>
<event>
 7    1  0.4489290E-013  0.5930197E+02  0.7816164E-02  0.1266605E+00
        -11   -1    0    0    0    0  0.00000000000E+00  0.00000000000E+00  0.45593999997E+02  0.45594000000E+02  0.51100000000E-03 0.  1.
         11   -1    0    0    0    0 -0.00000000000E+00 -0.00000000000E+00 -0.45593999997E+02  0.45594000000E+02  0.51100000000E-03 0. -1.
    9900012    2    1    2    0    0 -0.79965095453E+00  0.30997222776E+02  0.74331516740E+01  0.59301968492E+02  0.50000044617E+02 0.  0.
         12    1    1    2    0    0  0.79965095453E+00 -0.30997222776E+02 -0.74331516740E+01  0.31886031508E+02  0.00000000000E+00 0. -1.
         11    1    3    3    0    0  0.11883438470E+02  0.12775900014E+02 -0.10782314810E+02  0.20510924991E+02  0.51100000000E-03 0. -1.
        -11    1    3    3    0    0 -0.10561602838E+02  0.18140269393E+02  0.24438524105E+02  0.32215808058E+02  0.51100000000E-03 0.  1.
         12    1    3    3    0    0 -0.21214865870E+01  0.81053369567E-01 -0.62230576205E+01  0.65752354433E+01  0.00000000000E+00 0. -1.
</event>
<event>
 7    1  0.5222292E-013  0.5930194E+02  0.7816164E-02  0.1266605E+00
        -11   -1    0    0    0    0  0.00000000000E+00  0.00000000000E+00  0.45593999997E+02  0.45594000000E+02  0.51100000000E-03 0. -1.
         11   -1    0    0    0    0 -0.00000000000E+00 -0.00000000000E+00 -0.45593999997E+02  0.45594000000E+02  0.51100000000E-03 0.  1.
    9900012    2    1    2    0    0 -0.43359857642E+01  0.97022158834E+01 -0.30063054229E+02  0.59301937290E+02  0.49999987711E+02 0.  0.
         12    1    1    2    0    0  0.43359857642E+01 -0.97022158834E+01  0.30063054229E+02  0.31886062710E+02  0.00000000000E+00 0. -1.
         11    1    3    3    0    0 -0.37903690170E+01 -0.11422229037E+02  0.36909663457E+01  0.12587988174E+02  0.51100000000E-03 0. -1.
        -11    1    3    3    0    0 -0.97265756952E+01  0.15183257609E+02 -0.30275566379E+02  0.35238437908E+02  0.51100000000E-03 0.  1.
         12    1    3    3    0    0  0.91809589479E+01  0.59411873111E+01 -0.34784541952E+01  0.11475511207E+02  0.00000000000E+00 0. -1.
</event>
<event>
 7    1  0.4489290E-013  0.5930196E+02  0.7816164E-02  0.1266605E+00
        -11   -1    0    0    0    0  0.00000000000E+00  0.00000000000E+00  0.45593999997E+02  0.45594000000E+02  0.51100000000E-03 0. -1.
         11   -1    0    0    0    0 -0.00000000000E+00 -0.00000000000E+00 -0.45593999997E+02  0.45594000000E+02  0.51100000000E-03 0.  1.
    9900012    2    1    2    0    0 -0.11170923472E+01 -0.24253236270E+02 -0.20670080611E+02  0.59301959209E+02  0.50000027686E+02 0.  0.
         12    1    1    2    0    0  0.11170923472E+01  0.24253236270E+02  0.20670080611E+02  0.31886040791E+02  0.00000000000E+00 0. -1.
         11    1    3    3    0    0  0.89133186445E+01 -0.26852635812E+01  0.66105538284E+01  0.11417412664E+02  0.51100000000E-03 0. -1.
        -11    1    3    3    0    0 -0.19939249015E+02 -0.21218164068E+02 -0.17574502783E+02  0.34009517580E+02  0.51100000000E-03 0.  1.
         12    1    3    3    0    0  0.99088380232E+01 -0.34980862113E+00 -0.97061316566E+01  0.13875028965E+02  0.00000000000E+00 0. -1.
</event>
<event>
 7    1  0.4489290E-013  0.5930184E+02  0.7816164E-02  0.1266605E+00
        -11   -1    0    0    0    0  0.00000000000E+00  0.00000000000E+00  0.45593999997E+02  0.45594000000E+02  0.51100000000E-03 0.  1.
         11   -1    0    0    0    0 -0.00000000000E+00 -0.00000000000E+00 -0.45593999997E+02  0.45594000000E+02  0.51100000000E-03 0. -1.
    9900012    2    1    2    0    0  0.30719291487E+02  0.22567030319E+01  0.82437514470E+01  0.59301842879E+02  0.49999815529E+02 0.  0.
         12    1    1    2    0    0 -0.30719291487E+02 -0.22567030319E+01 -0.82437514470E+01  0.31886157121E+02  0.00000000000E+00 0. -1.
         11    1    3    3    0    0  0.13618841313E+02 -0.15931056810E+02  0.13698362955E+01  0.21003520217E+02  0.51100000000E-03 0. -1.
        -11    1    3    3    0    0  0.10639979713E+02  0.21951224431E+02  0.13867842454E+02  0.28060336365E+02  0.51100000000E-03 0.  1.
        -12    1    3    3    0    0  0.64604704613E+01 -0.37634645893E+01 -0.69939273024E+01  0.10237986297E+02  0.00000000000E+00 0.  1.
</event>
<event>
 7    1  0.4489290E-013  0.5930190E+02  0.7816164E-02  0.1266605E+00
        -11   -1    0    0    0    0  0.00000000000E+00  0.00000000000E+00  0.45593999997E+02  0.45594000000E+02  0.51100000000E-03 0.  1.
         11   -1    0    0    0    0 -0.00000000000E+00 -0.00000000000E+00 -0.45593999997E+02  0.45594000000E+02  0.51100000000E-03 0. -1.
    9900012    2    1    2    0    0 -0.29728110014E+02 -0.33004348862E+01 -0.11048519317E+02  0.59301903115E+02  0.49999925385E+02 0.  0.
         12    1    1    2    0    0  0.29728110014E+02  0.33004348862E+01  0.11048519317E+02  0.31886096885E+02  0.00000000000E+00 0. -1.
         11    1    3    3    0    0  0.13280130982E+02  0.35828364383E+01 -0.22492122395E+01  0.13937630782E+02  0.51100000000E-03 0. -1.
        -11    1    3    3    0    0 -0.28175161623E+02 -0.83585807088E+01 -0.78937456123E+01  0.30430524544E+02  0.51100000000E-03 0.  1.
         12    1    3    3    0    0 -0.14833079373E+02  0.14753093843E+01 -0.90556146554E+00  0.14933747790E+02  0.00000000000E+00 0. -1.
</event>
<event>
 7    1  0.4489290E-013  0.5930197E+02  0.7816164E-02  0.1266605E+00
        -11   -1    0    0    0    0  0.00000000000E+00  0.00000000000E+00  0.45593999997E+02  0.45594000000E+02  0.51100000000E-03 0.  1.
         11   -1    0    0    0    0 -0.00000000000E+00 -0.00000000000E+00 -0.45593999997E+02  0.45594000000E+02  0.51100000000E-03 0. -1.
    9900012    2    1    2    0    0  0.11481171511E+02  0.16462880126E+01  0.29701703855E+02  0.59301972098E+02  0.50000051193E+02 0.  0.
         12    1    1    2    0    0 -0.11481171511E+02 -0.16462880126E+01 -0.29701703855E+02  0.31886027902E+02  0.00000000000E+00 0. -1.
         11    1    3    3    0    0  0.79327844347E-01  0.66270970593E+01 -0.37892330881E+01  0.76343300949E+01  0.51100000000E-03 0. -1.
        -11    1    3    3    0    0  0.14634305398E+01 -0.20684702751E+02  0.18532426680E+02  0.27810958196E+02  0.51100000000E-03 0.  1.
        -12    1    3    3    0    0  0.99384131270E+01  0.15703893705E+02  0.14958510263E+02  0.23856683807E+02  0.00000000000E+00 0.  1.
</event>
<event>
 7    1  0.4489290E-013  0.5930194E+02  0.7816164E-02  0.1266605E+00
        -11   -1    0    0    0    0  0.00000000000E+00  0.00000000000E+00  0.45593999997E+02  0.45594000000E+02  0.51100000000E-03 0. -1.
         11   -1    0    0    0    0 -0.00000000000E+00 -0.00000000000E+00 -0.45593999997E+02  0.45594000000E+02  0.51100000000E-03 0.  1.
    9900012    2    1    2    0    0 -0.14399846366E+02 -0.27733448103E+01 -0.28313841011E+02  0.59301943336E+02  0.49999998738E+02 0.  0.
         12    1    1    2    0    0  0.14399846366E+02  0.27733448103E+01  0.28313841011E+02  0.31886056664E+02  0.00000000000E+00 0. -1.
         11    1    3    3    0    0 -0.79118419944E+01  0.26728825012E+01 -0.31031017944E+02  0.32135115054E+02  0.51100000000E-03 0. -1.
        -11    1    3    3    0    0 -0.13790619109E+02 -0.84621458991E+01 -0.41445175144E+01  0.16702278716E+02  0.51100000000E-03 0.  1.
         12    1    3    3    0    0  0.73026147373E+01  0.30159185877E+01  0.68616944477E+01  0.10464549566E+02  0.00000000000E+00 0. -1.
</event>
<event>
 7    1  0.4489290E-013  0.5930184E+02  0.7816164E-02  0.1266605E+00
        -11   -1    0    0    0    0  0.00000000000E+00  0.00000000000E+00  0.45593999997E+02  0.45594000000E+02  0.51100000000E-03 0.  1.
         11   -1    0    0    0    0 -0.00000000000E+00 -0.00000000000E+00 -0.45593999997E+02  0.45594000000E+02  0.51100000000E-03 0. -1.
    9900012    2    1    2    0    0 -0.30803177124E+02 -0.53787677666E+01 -0.62418456933E+01  0.59301835268E+02  0.49999801649E+02 0.  0.
         12    1    1    2    0    0  0.30803177124E+02  0.53787677666E+01  0.62418456933E+01  0.31886164732E+02  0.00000000000E+00 0. -1.
         11    1    3    3    0    0  0.11134354337E+02  0.27330513528E+01 -0.69094979120E+01  0.13385984381E+02  0.51100000000E-03 0. -1.
        -11    1    3    3    0    0 -0.22102119646E+02  0.53152173007E+00 -0.66304816749E+01  0.23081366850E+02  0.51100000000E-03 0.  1.
        -12    1    3    3    0    0 -0.19835411815E+02 -0.86433408495E+01  0.72981338936E+01  0.22834484037E+02  0.00000000000E+00 0.  1.
</event>
<event>
 7    1  0.4489290E-013  0.5930197E+02  0.7816164E-02  0.1266605E+00
        -11   -1    0    0    0    0  0.00000000000E+00  0.00000000000E+00  0.45593999997E+02  0.45594000000E+02  0.51100000000E-03 0.  1.
         11   -1    0    0    0    0 -0.00000000000E+00 -0.00000000000E+00 -0.45593999997E+02  0.45594000000E+02  0.51100000000E-03 0. -1.
    9900012    2    1    2    0    0  0.20456076456E+02 -0.24453522673E+02  0.54110937862E+00  0.59301974308E+02  0.50000055223E+02 0.  0.
         12    1    1    2    0    0 -0.20456076456E+02  0.24453522673E+02 -0.54110937862E+00  0.31886025692E+02  0.00000000000E+00 0. -1.
         11    1    3    3    0    0  0.21257664714E+02 -0.51689102825E+01 -0.14290046702E+02  0.26130659724E+02  0.51100000000E-03 0. -1.
        -11    1    3    3    0    0 -0.90047093382E+00 -0.23252652910E+02  0.16838466079E+02  0.28723346870E+02  0.51100000000E-03 0.  1.
        -12    1    3    3    0    0  0.98882676019E-01  0.39680405198E+01 -0.20073099987E+01  0.44479677136E+01  0.00000000000E+00 0.  1.
</event>
<event>
 7    1  0.4489290E-013  0.5930192E+02  0.7816164E-02  0.1266605E+00
        -11   -1    0    0    0    0  0.00000000000E+00  0.00000000000E+00  0.45593999997E+02  0.45594000000E+02  0.51100000000E-03 0. -1.
         11   -1    0    0    0    0 -0.00000000000E+00 -0.00000000000E+00 -0.45593999997E+02  0.45594000000E+02  0.51100000000E-03 0.  1.
    9900012    2    1    2    0    0  0.18165102272E+02  0.38296419305E+01 -0.25924599930E+02  0.59301921856E+02  0.49999959565E+02 0.  0.
         12    1    1    2    0    0 -0.18165102272E+02 -0.38296419305E+01  0.25924599930E+02  0.31886078144E+02  0.00000000000E+00 0. -1.
         11    1    3    3    0    0 -0.22759728996E+01 -0.11668088663E+01  0.92868247637E+01  0.96325806523E+01  0.51100000000E-03 0. -1.
        -11    1    3    3    0    0  0.19059246179E+02  0.83254879643E+00 -0.39291569138E+02  0.43678088420E+02  0.51100000000E-03 0.  1.
        -12    1    3    3    0    0  0.13818289923E+01  0.41639020003E+01  0.40801444449E+01  0.59912527842E+01  0.00000000000E+00 0.  1.
</event>
<event>
 7    1  0.4489290E-013  0.5930197E+02  0.7816164E-02  0.1266605E+00
        -11   -1    0    0    0    0  0.00000000000E+00  0.00000000000E+00  0.45593999997E+02  0.45594000000E+02  0.51100000000E-03 0. -1.
         11   -1    0    0    0    0 -0.00000000000E+00 -0.00000000000E+00 -0.45593999997E+02  0.45594000000E+02  0.51100000000E-03 0.  1.
    9900012    2    1    2    0    0  0.29895898592E+00 -0.14261931641E+02 -0.28517135215E+02  0.59301967455E+02  0.50000042725E+02 0.  0.
         12    1    1    2    0    0 -0.29895898592E+00  0.14261931641E+02  0.28517135215E+02  0.31886032545E+02  0.00000000000E+00 0. -1.
         11    1    3    3    0    0  0.75815931271E+01 -0.18476164845E+01  0.12070185088E+02  0.14373016710E+02  0.51100000000E-03 0. -1.
        -11    1    3    3    0    0 -0.99740270688E+01 -0.11745105631E+02 -0.38465630598E+02  0.41437102454E+02  0.51100000000E-03 0.  1.
         12    1    3    3    0    0  0.26913929276E+01 -0.66920952530E+00 -0.21216897054E+01  0.34918482907E+01  0.00000000000E+00 0. -1.
</event>
<event>
 7    1  0.4489290E-013  0.5930201E+02  0.7816164E-02  0.1266605E+00
        -11   -1    0    0    0    0  0.00000000000E+00  0.00000000000E+00  0.45593999997E+02  0.45594000000E+02  0.51100000000E-03 0.  1.
         11   -1    0    0    0    0 -0.00000000000E+00 -0.00000000000E+00 -0.45593999997E+02  0.45594000000E+02  0.51100000000E-03 0. -1.
    9900012    2    1    2    0    0 -0.28593549728E+02 -0.80312184703E+01  0.11602781457E+02  0.59302014149E+02  0.50000127884E+02 0.  0.
         12    1    1    2    0    0  0.28593549728E+02  0.80312184703E+01 -0.11602781457E+02  0.31885985851E+02  0.00000000000E+00 0. -1.
         11    1    3    3    0    0  0.76997438218E+00 -0.13261210012E+02 -0.36878993141E+01  0.13785976684E+02  0.51100000000E-03 0. -1.
        -11    1    3    3    0    0 -0.34804366465E+02  0.20826278730E+01  0.17292603080E+02  0.38919344617E+02  0.51100000000E-03 0.  1.
        -12    1    3    3    0    0  0.54408423553E+01  0.31473636684E+01 -0.20019223082E+01  0.65966928476E+01  0.00000000000E+00 0.  1.
</event>
<event>
 7    1  0.4489290E-013  0.5930196E+02  0.7816164E-02  0.1266605E+00
        -11   -1    0    0    0    0  0.00000000000E+00  0.00000000000E+00  0.45593999997E+02  0.45594000000E+02  0.51100000000E-03 0.  1.
         11   -1    0    0    0    0 -0.00000000000E+00 -0.00000000000E+00 -0.45593999997E+02  0.45594000000E+02  0.51100000000E-03 0. -1.
    9900012    2    1    2    0    0  0.30946010090E+02 -0.75651858637E+01  0.13535990147E+01  0.59301955907E+02  0.50000021664E+02 0.  0.
         12    1    1    2    0    0 -0.30946010090E+02  0.75651858637E+01 -0.13535990147E+01  0.31886044093E+02  0.00000000000E+00 0. -1.
         11    1    3    3    0    0 -0.56741100435E+01 -0.16511978817E+01 -0.55421735733E+01  0.81017076847E+01  0.51100000000E-03 0. -1.
        -11    1    3    3    0    0  0.16582109746E+02  0.85155817339E+01  0.16314753871E+02  0.24772014250E+02  0.51100000000E-03 0.  1.
        -12    1    3    3    0    0  0.20038010387E+02 -0.14429569716E+02 -0.94189812826E+01  0.26428233972E+02  0.00000000000E+00 0.  1.
</event>
<event>
 7    1  0.4489290E-013  0.5930194E+02  0.7816164E-02  0.1266605E+00
        -11   -1    0    0    0    0  0.00000000000E+00  0.00000000000E+00  0.45593999997E+02  0.45594000000E+02  0.51100000000E-03 0. -1.
         11   -1    0    0    0    0 -0.00000000000E+00 -0.00000000000E+00 -0.45593999997E+02  0.45594000000E+02  0.51100000000E-03 0.  1.
    9900012    2    1    2    0    0  0.23193584924E+02 -0.80143478003E+01 -0.20360471244E+02  0.59301938131E+02  0.49999989245E+02 0.  0.
         12    1    1    2    0    0 -0.23193584924E+02  0.80143478003E+01  0.20360471244E+02  0.31886061869E+02  0.00000000000E+00 0. -1.
         11    1    3    3    0    0 -0.66064168134E+01 -0.23029955524E+01  0.13665223451E+00  0.69976571594E+01  0.51100000000E-03 0. -1.
        -11    1    3    3    0    0  0.36194042095E+02 -0.96879716491E+01 -0.89554216785E+01  0.38523564938E+02  0.51100000000E-03 0.  1.
        -12    1    3    3    0    0 -0.63940403577E+01  0.39766194012E+01 -0.11541701800E+02  0.13780716033E+02  0.00000000000E+00 0.  1.
</event>
<event>
 7    1  0.4489290E-013  0.5930195E+02  0.7816164E-02  0.1266605E+00
        -11   -1    0    0    0    0  0.00000000000E+00  0.00000000000E+00  0.45593999997E+02  0.45594000000E+02  0.51100000000E-03 0.  1.
         11   -1    0    0    0    0 -0.00000000000E+00 -0.00000000000E+00 -0.45593999997E+02  0.45594000000E+02  0.51100000000E-03 0. -1.
    9900012    2    1    2    0    0 -0.17020040472E+02  0.12619477540E+02  0.23828289213E+02  0.59301947284E+02  0.50000005938E+02 0.  0.
         12    1    1    2    0    0  0.17020040472E+02 -0.12619477540E+02 -0.23828289213E+02  0.31886052716E+02  0.00000000000E+00 0. -1.
         11    1    3    3    0    0 -0.36412770734E+01  0.23878376842E+02  0.60933423957E+01  0.24911134079E+02  0.51100000000E-03 0. -1.
        -11    1    3    3    0    0 -0.16865491593E+02 -0.10733913977E+02  0.42313242216E+01  0.20434427344E+02  0.51100000000E-03 0.  1.
        -12    1    3    3    0    0  0.34867281944E+01 -0.52498532476E+00  0.13503622595E+02  0.13956385860E+02  0.00000000000E+00 0.  1.
</event>
<event>
 7    1  0.4489290E-013  0.5930186E+02  0.7816164E-02  0.1266605E+00
        -11   -1    0    0    0    0  0.00000000000E+00  0.00000000000E+00  0.45593999997E+02  0.45594000000E+02  0.51100000000E-03 0.  1.
         11   -1    0    0    0    0 -0.00000000000E+00 -0.00000000000E+00 -0.45593999997E+02  0.45594000000E+02  0.51100000000E-03 0. -1.
    9900012    2    1    2    0    0 -0.23482028122E+02  0.19351954873E+01  0.21484310723E+02  0.59301855148E+02  0.49999837904E+02 0.  0.
         12    1    1    2    0    0  0.23482028122E+02 -0.19351954873E+01 -0.21484310723E+02  0.31886144852E+02  0.00000000000E+00 0. -1.
         11    1    3    3    0    0  0.95220010673E+01  0.10544789674E+02  0.10455137667E+02  0.17640039612E+02  0.51100000000E-03 0. -1.
        -11    1    3    3    0    0 -0.20677981741E+02 -0.10449933241E+02  0.16093372923E+02  0.28209514103E+02  0.51100000000E-03 0.  1.
        -12    1    3    3    0    0 -0.12326047448E+02  0.18403390545E+01 -0.50641998679E+01  0.13452301433E+02  0.00000000000E+00 0.  1.
</event>
<event>
 7    1  0.4489290E-013  0.5930186E+02  0.7816164E-02  0.1266605E+00
        -11   -1    0    0    0    0  0.00000000000E+00  0.00000000000E+00  0.45593999997E+02  0.45594000000E+02  0.51100000000E-03 0.  1.
         11   -1    0    0    0    0 -0.00000000000E+00 -0.00000000000E+00 -0.45593999997E+02  0.45594000000E+02  0.51100000000E-03 0. -1.
    9900012    2    1    2    0    0  0.24907718643E+02  0.57482706789E+01  0.19060131237E+02  0.59301864039E+02  0.49999854119E+02 0.  0.
         12    1    1    2    0    0 -0.24907718643E+02 -0.57482706789E+01 -0.19060131237E+02  0.31886135961E+02  0.00000000000E+00 0. -1.
         11    1    3    3    0    0 -0.49300470136E+01 -0.14685476652E+01 -0.11892048423E+02  0.12956959974E+02  0.51100000000E-03 0. -1.
        -11    1    3    3    0    0  0.24368576444E+02  0.10719398972E+02  0.29410087592E+02  0.39669714956E+02  0.51100000000E-03 0.  1.
        -12    1    3    3    0    0  0.54691892124E+01 -0.35025806275E+01  0.15420920679E+01  0.66751891088E+01  0.00000000000E+00 0.  1.
</event>
<event>
 7    1  0.4489290E-013  0.5930197E+02  0.7816164E-02  0.1266605E+00
        -11   -1    0    0    0    0  0.00000000000E+00  0.00000000000E+00  0.45593999997E+02  0.45594000000E+02  0.51100000000E-03 0. -1.
         11   -1    0    0    0    0 -0.00000000000E+00 -0.00000000000E+00 -0.45593999997E+02  0.45594000000E+02  0.51100000000E-03 0.  1.
    9900012    2    1    2    0    0 -0.24154719781E+02  0.11837416587E+02 -0.17121450843E+02  0.59301968605E+02  0.50000044823E+02 0.  0.
         12    1    1    2    0    0  0.24154719781E+02 -0.11837416587E+02  0.17121450843E+02  0.31886031395E+02  0.00000000000E+00 0. -1.
         11    1    3    3    0    0 -0.26029574869E+02 -0.56845703973E+01 -0.11725698851E+02  0.29109193089E+02  0.51100000000E-03 0. -1.
        -11    1    3    3    0    0  0.33698314911E+01  0.70367554725E+01 -0.14343293859E+02  0.16327944477E+02  0.51100000000E-03 0.  1.
         12    1    3    3    0    0 -0.14949764031E+01  0.10485231512E+02  0.89475418663E+01  0.13864831040E+02  0.00000000000E+00 0. -1.
</event>
<event>
 7    1  0.4489290E-013  0.5930194E+02  0.7816164E-02  0.1266605E+00
        -11   -1    0    0    0    0  0.00000000000E+00  0.00000000000E+00  0.45593999997E+02  0.45594000000E+02  0.51100000000E-03 0.  1.
         11   -1    0    0    0    0 -0.00000000000E+00 -0.00000000000E+00 -0.45593999997E+02  0.45594000000E+02  0.51100000000E-03 0. -1.
    9900012    2    1    2    0    0  0.92540581585E+01 -0.65744145318E+01  0.29796988321E+02  0.59301936714E+02  0.49999986662E+02 0.  0.
         12    1    1    2    0    0 -0.92540581585E+01  0.65744145318E+01 -0.29796988321E+02  0.31886063286E+02  0.00000000000E+00 0. -1.
         11    1    3    3    0    0  0.14760528342E+02 -0.42947466271E+01  0.39375865522E+01  0.15868920368E+02  0.51100000000E-03 0. -1.
        -11    1    3    3    0    0 -0.13155928985E+02  0.10341431393E+02  0.22930099798E+02  0.28386848147E+02  0.51100000000E-03 0.  1.
        -12    1    3    3    0    0  0.76494588016E+01 -0.12621099298E+02  0.29293019708E+01  0.15046168199E+02  0.00000000000E+00 0.  1.
</event>
<event>
 7    1  0.4489290E-013  0.5930196E+02  0.7816164E-02  0.1266605E+00
        -11   -1    0    0    0    0  0.00000000000E+00  0.00000000000E+00  0.45593999997E+02  0.45594000000E+02  0.51100000000E-03 0.  1.
         11   -1    0    0    0    0 -0.00000000000E+00 -0.00000000000E+00 -0.45593999997E+02  0.45594000000E+02  0.51100000000E-03 0. -1.
    9900012    2    1    2    0    0 -0.18478313957E+02  0.18391743172E+02  0.18357982307E+02  0.59301955749E+02  0.50000021376E+02 0.  0.
         12    1    1    2    0    0  0.18478313957E+02 -0.18391743172E+02 -0.18357982307E+02  0.31886044251E+02  0.00000000000E+00 0. -1.
         11    1    3    3    0    0 -0.16398214948E+01 -0.69084725496E+01 -0.10322567222E+02  0.12528822843E+02  0.51100000000E-03 0. -1.
        -11    1    3    3    0    0  0.36916091991E+01  0.10058062112E+02  0.46363961860E+01  0.11674277784E+02  0.51100000000E-03 0.  1.
         12    1    3    3    0    0 -0.20530101662E+02  0.15242153610E+02  0.24044153343E+02  0.35098855122E+02  0.00000000000E+00 0. -1.
</event>
<event>
 7    1  0.4489290E-013  0.5930190E+02  0.7816164E-02  0.1266605E+00
        -11   -1    0    0    0    0  0.00000000000E+00  0.00000000000E+00  0.45593999997E+02  0.45594000000E+02  0.51100000000E-03 0. -1.
         11   -1    0    0    0    0 -0.00000000000E+00 -0.00000000000E+00 -0.45593999997E+02  0.45594000000E+02  0.51100000000E-03 0.  1.
    9900012    2    1    2    0    0  0.18179555896E+02 -0.19854752422E+02 -0.17088482509E+02  0.59301895177E+02  0.49999910909E+02 0.  0.
         12    1    1    2    0    0 -0.18179555896E+02  0.19854752422E+02  0.17088482509E+02  0.31886104823E+02  0.00000000000E+00 0. -1.
         11    1    3    3    0    0 -0.16447274292E+02 -0.85489358640E+01 -0.73446614971E+01  0.19938434964E+02  0.51100000000E-03 0. -1.
        -11    1    3    3    0    0  0.26875893275E+02 -0.12827184036E+02 -0.51384239808E+01  0.30220087539E+02  0.51100000000E-03 0.  1.
         12    1    3    3    0    0  0.77509369138E+01  0.15213674780E+01 -0.46053970310E+01  0.91433726741E+01  0.00000000000E+00 0. -1.
</event>
<event>
 7    1  0.4489290E-013  0.5930195E+02  0.7816164E-02  0.1266605E+00
        -11   -1    0    0    0    0  0.00000000000E+00  0.00000000000E+00  0.45593999997E+02  0.45594000000E+02  0.51100000000E-03 0.  1.
         11   -1    0    0    0    0 -0.00000000000E+00 -0.00000000000E+00 -0.45593999997E+02  0.45594000000E+02  0.51100000000E-03 0. -1.
    9900012    2    1    2    0    0 -0.28227417032E+02 -0.14531547778E+02 -0.29609999211E+01  0.59301945467E+02  0.50000002626E+02 0.  0.
         12    1    1    2    0    0  0.28227417032E+02  0.14531547778E+02  0.29609999211E+01  0.31886054533E+02  0.00000000000E+00 0. -1.
         11    1    3    3    0    0 -0.10245206671E+02  0.34343683902E+01 -0.16774228624E+02  0.19953292765E+02  0.51100000000E-03 0. -1.
        -11    1    3    3    0    0 -0.33347226037E+01 -0.20735489142E+02  0.12364657444E+02  0.24371410275E+02  0.51100000000E-03 0.  1.
        -12    1    3    3    0    0 -0.14647487757E+02  0.27695729739E+01  0.14485712587E+01  0.14977242428E+02  0.00000000000E+00 0.  1.
</event>
<event>
 7    1  0.4489290E-013  0.5930201E+02  0.7816164E-02  0.1266605E+00
        -11   -1    0    0    0    0  0.00000000000E+00  0.00000000000E+00  0.45593999997E+02  0.45594000000E+02  0.51100000000E-03 0. -1.
         11   -1    0    0    0    0 -0.00000000000E+00 -0.00000000000E+00 -0.45593999997E+02  0.45594000000E+02  0.51100000000E-03 0.  1.
    9900012    2    1    2    0    0 -0.12046340318E+01  0.24550515768E+02 -0.20311020512E+02  0.59302007435E+02  0.50000115639E+02 0.  0.
         12    1    1    2    0    0  0.12046340318E+01 -0.24550515768E+02  0.20311020512E+02  0.31885992565E+02  0.00000000000E+00 0. -1.
         11    1    3    3    0    0 -0.16759777420E+02 -0.45518851433E+01  0.97605203025E+00  0.17394323079E+02  0.51100000000E-03 0. -1.
        -11    1    3    3    0    0  0.45802562259E+01  0.15052776731E+02 -0.23668025990E+01  0.15911209546E+02  0.51100000000E-03 0.  1.
         12    1    3    3    0    0  0.10974887163E+02  0.14049624181E+02 -0.18920269943E+02  0.25996474810E+02  0.00000000000E+00 0. -1.
</event>
<event>
 7    1  0.4489290E-013  0.5930194E+02  0.7816164E-02  0.1266605E+00
        -11   -1    0    0    0    0  0.00000000000E+00  0.00000000000E+00  0.45593999997E+02  0.45594000000E+02  0.51100000000E-03 0.  1.
         11   -1    0    0    0    0 -0.00000000000E+00 -0.00000000000E+00 -0.45593999997E+02  0.45594000000E+02  0.51100000000E-03 0. -1.
    9900012    2    1    2    0    0  0.58184006907E+01 -0.10018064601E+02  0.29706996685E+02  0.59301936320E+02  0.49999985943E+02 0.  0.
         12    1    1    2    0    0 -0.58184006907E+01  0.10018064601E+02 -0.29706996685E+02  0.31886063680E+02  0.00000000000E+00 0. -1.
         11    1    3    3    0    0 -0.24437088411E+01 -0.10513328597E+02  0.73014799605E+01  0.13031247099E+02  0.51100000000E-03 0. -1.
        -11    1    3    3    0    0 -0.17690241031E+01 -0.56764569649E+00  0.32174668032E+02  0.32228262925E+02  0.51100000000E-03 0.  1.
         12    1    3    3    0    0  0.10031133635E+02  0.10629096923E+01 -0.97691513072E+01  0.14042426296E+02  0.00000000000E+00 0. -1.
</event>
<event>
 7    1  0.4489290E-013  0.5930195E+02  0.7816164E-02  0.1266605E+00
        -11   -1    0    0    0    0  0.00000000000E+00  0.00000000000E+00  0.45593999997E+02  0.45594000000E+02  0.51100000000E-03 0.  1.
         11   -1    0    0    0    0 -0.00000000000E+00 -0.00000000000E+00 -0.45593999997E+02  0.45594000000E+02  0.51100000000E-03 0. -1.
    9900012    2    1    2    0    0  0.52719819148E+01 -0.24661200503E+02  0.19512858732E+02  0.59301948827E+02  0.50000008752E+02 0.  0.
         12    1    1    2    0    0 -0.52719819148E+01  0.24661200503E+02 -0.19512858732E+02  0.31886051173E+02  0.00000000000E+00 0. -1.
         11    1    3    3    0    0 -0.13163687024E+02 -0.19534360352E+01  0.20164959248E+02  0.24160383899E+02  0.51100000000E-03 0. -1.
        -11    1    3    3    0    0  0.12764672534E+02 -0.14400545404E+02  0.89615137741E+01  0.21227842618E+02  0.51100000000E-03 0.  1.
         12    1    3    3    0    0  0.56709964048E+01 -0.83072190634E+01 -0.96136142901E+01  0.13913722310E+02  0.00000000000E+00 0. -1.
</event>
<event>
 7    1  0.4489290E-013  0.5930190E+02  0.7816164E-02  0.1266605E+00
        -11   -1    0    0    0    0  0.00000000000E+00  0.00000000000E+00  0.45593999997E+02  0.45594000000E+02  0.51100000000E-03 0.  1.
         11   -1    0    0    0    0 -0.00000000000E+00 -0.00000000000E+00 -0.45593999997E+02  0.45594000000E+02  0.51100000000E-03 0. -1.
    9900012    2    1    2    0    0 -0.28401934853E+02  0.92167711255E+01  0.11185019134E+02  0.59301899166E+02  0.49999918184E+02 0.  0.
         12    1    1    2    0    0  0.28401934853E+02 -0.92167711255E+01 -0.11185019134E+02  0.31886100834E+02  0.00000000000E+00 0. -1.
         11    1    3    3    0    0 -0.32208027802E+02  0.78710642055E+01 -0.37188714777E+01  0.33363763456E+02  0.51100000000E-03 0. -1.
        -11    1    3    3    0    0 -0.11673774626E+01  0.23936803328E+01  0.19138300879E+02  0.19322707793E+02  0.51100000000E-03 0.  1.
         12    1    3    3    0    0  0.49734704120E+01 -0.10479734128E+01 -0.42344102675E+01  0.66154279171E+01  0.00000000000E+00 0. -1.
</event>
<event>
 7    1  0.4489290E-013  0.5930195E+02  0.7816164E-02  0.1266605E+00
        -11   -1    0    0    0    0  0.00000000000E+00  0.00000000000E+00  0.45593999997E+02  0.45594000000E+02  0.51100000000E-03 0.  1.
         11   -1    0    0    0    0 -0.00000000000E+00 -0.00000000000E+00 -0.45593999997E+02  0.45594000000E+02  0.51100000000E-03 0. -1.
    9900012    2    1    2    0    0  0.14917869430E+02  0.22718475978E+01  0.28089426862E+02  0.59301952562E+02  0.50000015564E+02 0.  0.
         12    1    1    2    0    0 -0.14917869430E+02 -0.22718475978E+01 -0.28089426862E+02  0.31886047438E+02  0.00000000000E+00 0. -1.
         11    1    3    3    0    0  0.18082800917E+01 -0.37788003091E+01 -0.89815709426E+01  0.99104906803E+01  0.51100000000E-03 0. -1.
        -11    1    3    3    0    0 -0.79843333613E+01 -0.38695583685E+01  0.14138124064E+02  0.16691603083E+02  0.51100000000E-03 0.  1.
        -12    1    3    3    0    0  0.21093922700E+02  0.99202062754E+01  0.22932873740E+02  0.32699858798E+02  0.00000000000E+00 0.  1.
</event>
<event>
 7    1  0.4489290E-013  0.5930194E+02  0.7816164E-02  0.1266605E+00
        -11   -1    0    0    0    0  0.00000000000E+00  0.00000000000E+00  0.45593999997E+02  0.45594000000E+02  0.51100000000E-03 0.  1.
         11   -1    0    0    0    0 -0.00000000000E+00 -0.00000000000E+00 -0.45593999997E+02  0.45594000000E+02  0.51100000000E-03 0. -1.
    9900012    2    1    2    0    0  0.26299136148E+02 -0.17567130943E+02  0.40585846323E+01  0.59301940963E+02  0.49999994411E+02 0.  0.
         12    1    1    2    0    0 -0.26299136148E+02  0.17567130943E+02 -0.40585846323E+01  0.31886059037E+02  0.00000000000E+00 0. -1.
         11    1    3    3    0    0 -0.20229728462E+01  0.13208227775E+02  0.47772302948E-01  0.13362334472E+02  0.51100000000E-03 0. -1.
        -11    1    3    3    0    0  0.93202970914E+01 -0.16331123066E+01  0.58091822618E+01  0.11103224419E+02  0.51100000000E-03 0.  1.
         12    1    3    3    0    0  0.19001811903E+02 -0.29142246411E+02 -0.17983699325E+01  0.34836382072E+02  0.00000000000E+00 0. -1.
</event>
<event>
 7    1  0.4489290E-013  0.5930194E+02  0.7816164E-02  0.1266605E+00
        -11   -1    0    0    0    0  0.00000000000E+00  0.00000000000E+00  0.45593999997E+02  0.45594000000E+02  0.51100000000E-03 0.  1.
         11   -1    0    0    0    0 -0.00000000000E+00 -0.00000000000E+00 -0.45593999997E+02  0.45594000000E+02  0.51100000000E-03 0. -1.
    9900012    2    1    2    0    0  0.30912544760E+01  0.26294090542E+01  0.31626746198E+02  0.59301941585E+02  0.49999995545E+02 0.  0.
         12    1    1    2    0    0 -0.30912544760E+01 -0.26294090542E+01 -0.31626746198E+02  0.31886058415E+02  0.00000000000E+00 0. -1.
         11    1    3    3    0    0 -0.18583695878E+02 -0.74214870164E+01  0.26157835065E+02  0.32934245969E+02  0.51100000000E-03 0. -1.
        -11    1    3    3    0    0  0.80081154944E+00  0.31363298178E+01  0.26791577012E+01  0.42018745951E+01  0.51100000000E-03 0.  1.
         12    1    3    3    0    0  0.20874138805E+02  0.69145662529E+01  0.27897534314E+01  0.22165821020E+02  0.00000000000E+00 0. -1.
</event>
<event>
 7    1  0.4489290E-013  0.5930191E+02  0.7816164E-02  0.1266605E+00
        -11   -1    0    0    0    0  0.00000000000E+00  0.00000000000E+00  0.45593999997E+02  0.45594000000E+02  0.51100000000E-03 0.  1.
         11   -1    0    0    0    0 -0.00000000000E+00 -0.00000000000E+00 -0.45593999997E+02  0.45594000000E+02  0.51100000000E-03 0. -1.
    9900012    2    1    2    0    0 -0.26462078485E+02  0.17502797751E+02  0.31832772641E+01  0.59301909286E+02  0.49999936640E+02 0.  0.
         12    1    1    2    0    0  0.26462078485E+02 -0.17502797751E+02 -0.31832772641E+01  0.31886090714E+02  0.00000000000E+00 0. -1.
         11    1    3    3    0    0 -0.30662839847E+02  0.16546665539E+02 -0.33637802839E+01  0.35004526936E+02  0.51100000000E-03 0. -1.
        -11    1    3    3    0    0  0.10497204727E+02  0.80986513428E+01  0.65225368246E+01  0.14775755397E+02  0.51100000000E-03 0.  1.
        -12    1    3    3    0    0 -0.62964433653E+01 -0.71425191305E+01  0.24520723374E-01  0.95216269538E+01  0.00000000000E+00 0.  1.
</event>
<event>
 7    1  0.4489290E-013  0.5930193E+02  0.7816164E-02  0.1266605E+00
        -11   -1    0    0    0    0  0.00000000000E+00  0.00000000000E+00  0.45593999997E+02  0.45594000000E+02  0.51100000000E-03 0. -1.
         11   -1    0    0    0    0 -0.00000000000E+00 -0.00000000000E+00 -0.45593999997E+02  0.45594000000E+02  0.51100000000E-03 0.  1.
    9900012    2    1    2    0    0 -0.49704162834E+01 -0.23241787027E+02 -0.21256423578E+02  0.59301933363E+02  0.49999980551E+02 0.  0.
         12    1    1    2    0    0  0.49704162834E+01  0.23241787027E+02  0.21256423578E+02  0.31886066637E+02  0.00000000000E+00 0. -1.
         11    1    3    3    0    0 -0.24855045135E+02 -0.16352685673E+02 -0.13836191422E+02  0.32811945854E+02  0.51100000000E-03 0.  1.
        -11    1    3    3    0    0  0.44298161737E+01 -0.75010630637E+01  0.11829397761E+01  0.87913915391E+01  0.51100000000E-03 0. -1.
         12    1    3    3    0    0  0.15454812678E+02  0.61196170992E+00 -0.86031719322E+01  0.17698595971E+02  0.00000000000E+00 0. -1.
</event>
<event>
 7    1  0.4489290E-013  0.5930198E+02  0.7816164E-02  0.1266605E+00
        -11   -1    0    0    0    0  0.00000000000E+00  0.00000000000E+00  0.45593999997E+02  0.45594000000E+02  0.51100000000E-03 0.  1.
         11   -1    0    0    0    0 -0.00000000000E+00 -0.00000000000E+00 -0.45593999997E+02  0.45594000000E+02  0.51100000000E-03 0. -1.
    9900012    2    1    2    0    0  0.26488622065E+02 -0.86247426527E+00  0.17729284981E+02  0.59301976311E+02  0.50000058876E+02 0.  0.
         12    1    1    2    0    0 -0.26488622065E+02  0.86247426527E+00 -0.17729284981E+02  0.31886023689E+02  0.00000000000E+00 0. -1.
         11    1    3    3    0    0  0.16716845444E+02  0.75191616264E+00 -0.11138823206E+02  0.20102031793E+02  0.51100000000E-03 0. -1.
        -11    1    3    3    0    0  0.15124248868E+01  0.82112696656E+01  0.24102866092E+02  0.25508048390E+02  0.51100000000E-03 0.  1.
        -12    1    3    3    0    0  0.82593517344E+01 -0.98256600935E+01  0.47652420957E+01  0.13691896128E+02  0.00000000000E+00 0.  1.
</event>
<event>
 7    1  0.4489290E-013  0.5930195E+02  0.7816164E-02  0.1266605E+00
        -11   -1    0    0    0    0  0.00000000000E+00  0.00000000000E+00  0.45593999997E+02  0.45594000000E+02  0.51100000000E-03 0. -1.
         11   -1    0    0    0    0 -0.00000000000E+00 -0.00000000000E+00 -0.45593999997E+02  0.45594000000E+02  0.51100000000E-03 0.  1.
    9900012    2    1    2    0    0  0.48226041487E+01  0.10081766589E+02 -0.29863361491E+02  0.59301954653E+02  0.50000019379E+02 0.  0.
         12    1    1    2    0    0 -0.48226041487E+01 -0.10081766589E+02  0.29863361491E+02  0.31886045347E+02  0.00000000000E+00 0. -1.
         11    1    3    3    0    0 -0.15339365233E+02  0.32785501156E+01  0.22628653992E+01  0.15848204211E+02  0.51100000000E-03 0. -1.
        -11    1    3    3    0    0  0.21485880797E+02  0.10589321639E+02 -0.21848795694E+02  0.32421392320E+02  0.51100000000E-03 0.  1.
        -12    1    3    3    0    0 -0.13239114154E+01 -0.37861051664E+01 -0.10277431196E+02  0.11032358123E+02  0.00000000000E+00 0.  1.
</event>
<event>
 7    1  0.4489290E-013  0.5930188E+02  0.7816164E-02  0.1266605E+00
        -11   -1    0    0    0    0  0.00000000000E+00  0.00000000000E+00  0.45593999997E+02  0.45594000000E+02  0.51100000000E-03 0.  1.
         11   -1    0    0    0    0 -0.00000000000E+00 -0.00000000000E+00 -0.45593999997E+02  0.45594000000E+02  0.51100000000E-03 0. -1.
    9900012    2    1    2    0    0  0.29849353613E+02  0.98063389946E+01  0.54384248902E+01  0.59301879808E+02  0.49999882878E+02 0.  0.
         12    1    1    2    0    0 -0.29849353613E+02 -0.98063389946E+01 -0.54384248902E+01  0.31886120192E+02  0.00000000000E+00 0. -1.
         11    1    3    3    0    0  0.32782267486E+02 -0.90162045684E+01  0.13506516699E+02  0.36584081237E+02  0.51100000000E-03 0. -1.
        -11    1    3    3    0    0  0.22541248893E+01  0.88041162658E+01 -0.43880892381E+00  0.90986864860E+01  0.51100000000E-03 0.  1.
         12    1    3    3    0    0 -0.51870387623E+01  0.10018427297E+02 -0.76292828850E+01  0.13619112085E+02  0.00000000000E+00 0. -1.
</event>
<event>
 7    1  0.4489290E-013  0.5930194E+02  0.7816164E-02  0.1266605E+00
        -11   -1    0    0    0    0  0.00000000000E+00  0.00000000000E+00  0.45593999997E+02  0.45594000000E+02  0.51100000000E-03 0.  1.
         11   -1    0    0    0    0 -0.00000000000E+00 -0.00000000000E+00 -0.45593999997E+02  0.45594000000E+02  0.51100000000E-03 0. -1.
    9900012    2    1    2    0    0 -0.14619228162E+02  0.22688401355E+02  0.16977490377E+02  0.59301943994E+02  0.49999999939E+02 0.  0.
         12    1    1    2    0    0  0.14619228162E+02 -0.22688401355E+02 -0.16977490377E+02  0.31886056006E+02  0.00000000000E+00 0. -1.
         11    1    3    3    0    0 -0.39904745367E+00 -0.49169319875E+01 -0.46569493435E+01  0.67839985620E+01  0.51100000000E-03 0. -1.
        -11    1    3    3    0    0 -0.19909350910E+02  0.17307759068E+02  0.28549301408E+02  0.38871627040E+02  0.51100000000E-03 0.  1.
         12    1    3    3    0    0  0.56891702008E+01  0.10297574274E+02 -0.69148616871E+01  0.13646318392E+02  0.00000000000E+00 0. -1.
</event>
<event>
 7    1  0.4489290E-013  0.5930194E+02  0.7816164E-02  0.1266605E+00
        -11   -1    0    0    0    0  0.00000000000E+00  0.00000000000E+00  0.45593999997E+02  0.45594000000E+02  0.51100000000E-03 0.  1.
         11   -1    0    0    0    0 -0.00000000000E+00 -0.00000000000E+00 -0.45593999997E+02  0.45594000000E+02  0.51100000000E-03 0. -1.
    9900012    2    1    2    0    0 -0.31767232827E+02 -0.40799923699E+00 -0.27198014870E+01  0.59301939331E+02  0.49999991434E+02 0.  0.
         12    1    1    2    0    0  0.31767232827E+02  0.40799923699E+00  0.27198014870E+01  0.31886060669E+02  0.00000000000E+00 0. -1.
         11    1    3    3    0    0  0.52325670331E+01 -0.90995918165E+00  0.10007175049E+01  0.54045554168E+01  0.51100000000E-03 0. -1.
        -11    1    3    3    0    0 -0.19984733465E+02  0.11375519948E+02 -0.17969166108E+02  0.29183607670E+02  0.51100000000E-03 0.  1.
        -12    1    3    3    0    0 -0.17015066395E+02 -0.10873560003E+02  0.14248647116E+02  0.24713776244E+02  0.00000000000E+00 0.  1.
</event>
<event>
 7    1  0.4489290E-013  0.5930193E+02  0.7816164E-02  0.1266605E+00
        -11   -1    0    0    0    0  0.00000000000E+00  0.00000000000E+00  0.45593999997E+02  0.45594000000E+02  0.51100000000E-03 0. -1.
         11   -1    0    0    0    0 -0.00000000000E+00 -0.00000000000E+00 -0.45593999997E+02  0.45594000000E+02  0.51100000000E-03 0.  1.
    9900012    2    1    2    0    0 -0.34071056106E+01  0.77766657747E+01 -0.30734943451E+02  0.59301927050E+02  0.49999969037E+02 0.  0.
         12    1    1    2    0    0  0.34071056106E+01 -0.77766657747E+01  0.30734943451E+02  0.31886072950E+02  0.00000000000E+00 0. -1.
         11    1    3    3    0    0  0.21831081085E+01 -0.39918663148E+00 -0.32365327787E+02  0.32441327871E+02  0.51100000000E-03 0.  1.
        -11    1    3    3    0    0  0.25364573643E+01  0.14622821293E+02  0.54444425030E+01  0.15808303924E+02  0.51100000000E-03 0. -1.
        -12    1    3    3    0    0 -0.81266710833E+01 -0.64469688864E+01 -0.38140581670E+01  0.11052295256E+02  0.00000000000E+00 0.  1.
</event>
<event>
 7    1  0.4489290E-013  0.5930196E+02  0.7816164E-02  0.1266605E+00
        -11   -1    0    0    0    0  0.00000000000E+00  0.00000000000E+00  0.45593999997E+02  0.45594000000E+02  0.51100000000E-03 0.  1.
         11   -1    0    0    0    0 -0.00000000000E+00 -0.00000000000E+00 -0.45593999997E+02  0.45594000000E+02  0.51100000000E-03 0. -1.
    9900012    2    1    2    0    0 -0.80004026473E+01 -0.18974931257E+01  0.30807668552E+02  0.59301962863E+02  0.50000034352E+02 0.  0.
         12    1    1    2    0    0  0.80004026473E+01  0.18974931257E+01 -0.30807668552E+02  0.31886037137E+02  0.00000000000E+00 0. -1.
         11    1    3    3    0    0 -0.70015983711E+01 -0.10394466368E+02 -0.56459984340E+01  0.13745712401E+02  0.51100000000E-03 0. -1.
        -11    1    3    3    0    0 -0.10553241210E+02  0.11506504333E+02  0.29452340321E+02  0.33334830023E+02  0.51100000000E-03 0.  1.
        -12    1    3    3    0    0  0.95544369339E+01 -0.30095310906E+01  0.70013266645E+01  0.12221420440E+02  0.00000000000E+00 0.  1.
</event>
<event>
 7    1  0.4489290E-013  0.5930192E+02  0.7816164E-02  0.1266605E+00
        -11   -1    0    0    0    0  0.00000000000E+00  0.00000000000E+00  0.45593999997E+02  0.45594000000E+02  0.51100000000E-03 0. -1.
         11   -1    0    0    0    0 -0.00000000000E+00 -0.00000000000E+00 -0.45593999997E+02  0.45594000000E+02  0.51100000000E-03 0.  1.
    9900012    2    1    2    0    0  0.19897954800E+02 -0.87482056674E+01 -0.23329433533E+02  0.59301918764E+02  0.49999953925E+02 0.  0.
         12    1    1    2    0    0 -0.19897954800E+02  0.87482056674E+01  0.23329433533E+02  0.31886081236E+02  0.00000000000E+00 0. -1.
         11    1    3    3    0    0  0.52134382339E+01  0.77750205596E+01  0.11787684134E+02  0.15052587167E+02  0.51100000000E-03 0. -1.
        -11    1    3    3    0    0 -0.85166032059E+00 -0.99126704923E+01 -0.14784231853E+02  0.17820209689E+02  0.51100000000E-03 0.  1.
        -12    1    3    3    0    0  0.15536176886E+02 -0.66105557347E+01 -0.20332885813E+02  0.26429121909E+02  0.00000000000E+00 0.  1.
</event>
<event>
 7    1  0.4489290E-013  0.5930194E+02  0.7816164E-02  0.1266605E+00
        -11   -1    0    0    0    0  0.00000000000E+00  0.00000000000E+00  0.45593999997E+02  0.45594000000E+02  0.51100000000E-03 0.  1.
         11   -1    0    0    0    0 -0.00000000000E+00 -0.00000000000E+00 -0.45593999997E+02  0.45594000000E+02  0.51100000000E-03 0. -1.
    9900012    2    1    2    0    0  0.27548884899E+02  0.34019578805E+01  0.15690970895E+02  0.59301938088E+02  0.49999989168E+02 0.  0.
         12    1    1    2    0    0 -0.27548884899E+02 -0.34019578805E+01 -0.15690970895E+02  0.31886061912E+02  0.00000000000E+00 0. -1.
         11    1    3    3    0    0 -0.66575926530E+01 -0.49048782301E+01 -0.14851663953E+00  0.82706364832E+01  0.51100000000E-03 0. -1.
        -11    1    3    3    0    0  0.18397294112E+02  0.78305176238E+01 -0.87251273944E+01  0.21815253499E+02  0.51100000000E-03 0.  1.
        -12    1    3    3    0    0  0.15809183440E+02  0.47631848679E+00  0.24564614929E+02  0.29216048106E+02  0.00000000000E+00 0.  1.
</event>
<event>
 7    1  0.4489290E-013  0.5930196E+02  0.7816164E-02  0.1266605E+00
        -11   -1    0    0    0    0  0.00000000000E+00  0.00000000000E+00  0.45593999997E+02  0.45594000000E+02  0.51100000000E-03 0. -1.
         11   -1    0    0    0    0 -0.00000000000E+00 -0.00000000000E+00 -0.45593999997E+02  0.45594000000E+02  0.51100000000E-03 0.  1.
    9900012    2    1    2    0    0 -0.13579971037E+02  0.28459242485E+02 -0.47302460302E+01  0.59301963500E+02  0.50000035513E+02 0.  0.
         12    1    1    2    0    0  0.13579971037E+02 -0.28459242485E+02  0.47302460302E+01  0.31886036500E+02  0.00000000000E+00 0. -1.
         11    1    3    3    0    0 -0.56976816805E+01 -0.21518431612E+01 -0.39859616043E+01  0.72788663743E+01  0.51100000000E-03 0. -1.
        -11    1    3    3    0    0  0.97874204130E+00  0.70924548122E+01  0.18844205892E+02  0.20158495658E+02  0.51100000000E-03 0.  1.
        -12    1    3    3    0    0 -0.88610313975E+01  0.23518630834E+02 -0.19588490318E+02  0.31864601467E+02  0.00000000000E+00 0.  1.
</event>
<event>
 7    1  0.4489290E-013  0.5930194E+02  0.7816164E-02  0.1266605E+00
        -11   -1    0    0    0    0  0.00000000000E+00  0.00000000000E+00  0.45593999997E+02  0.45594000000E+02  0.51100000000E-03 0. -1.
         11   -1    0    0    0    0 -0.00000000000E+00 -0.00000000000E+00 -0.45593999997E+02  0.45594000000E+02  0.51100000000E-03 0.  1.
    9900012    2    1    2    0    0  0.12954820806E+02  0.26558420081E+02 -0.11980962335E+02  0.59301944775E+02  0.50000001363E+02 0.  0.
         12    1    1    2    0    0 -0.12954820806E+02 -0.26558420081E+02  0.11980962335E+02  0.31886055225E+02  0.00000000000E+00 0. -1.
         11    1    3    3    0    0 -0.15618668358E+01  0.29394163337E+01  0.14469427826E+02  0.14847354588E+02  0.51100000000E-03 0. -1.
        -11    1    3    3    0    0  0.35457178579E+01  0.64460892736E+01 -0.22532582911E+02  0.23703195458E+02  0.51100000000E-03 0.  1.
        -12    1    3    3    0    0  0.10970969784E+02  0.17172914474E+02 -0.39178072501E+01  0.20751394729E+02  0.00000000000E+00 0.  1.
</event>
<event>
 7    1  0.4489290E-013  0.5930193E+02  0.7816164E-02  0.1266605E+00
        -11   -1    0    0    0    0  0.00000000000E+00  0.00000000000E+00  0.45593999997E+02  0.45594000000E+02  0.51100000000E-03 0. -1.
         11   -1    0    0    0    0 -0.00000000000E+00 -0.00000000000E+00 -0.45593999997E+02  0.45594000000E+02  0.51100000000E-03 0.  1.
    9900012    2    1    2    0    0 -0.18495274007E+02 -0.23696180615E+01 -0.25865638098E+02  0.59301929616E+02  0.49999973716E+02 0.  0.
         12    1    1    2    0    0  0.18495274007E+02  0.23696180615E+01  0.25865638098E+02  0.31886070384E+02  0.00000000000E+00 0. -1.
         11    1    3    3    0    0 -0.30657254192E+01 -0.40842637820E+01  0.14486845617E+02  0.15360617799E+02  0.51100000000E-03 0. -1.
        -11    1    3    3    0    0 -0.80966957520E+01  0.21443313506E+01 -0.11874672629E+02  0.14531431084E+02  0.51100000000E-03 0.  1.
         12    1    3    3    0    0 -0.73328528359E+01 -0.42968563003E+00 -0.28477811086E+02  0.29409880732E+02  0.00000000000E+00 0. -1.
</event>
<event>
 7    1  0.4489290E-013  0.5930194E+02  0.7816164E-02  0.1266605E+00
        -11   -1    0    0    0    0  0.00000000000E+00  0.00000000000E+00  0.45593999997E+02  0.45594000000E+02  0.51100000000E-03 0.  1.
         11   -1    0    0    0    0 -0.00000000000E+00 -0.00000000000E+00 -0.45593999997E+02  0.45594000000E+02  0.51100000000E-03 0. -1.
    9900012    2    1    2    0    0 -0.24488931617E+02  0.17321756411E+02  0.10815259690E+02  0.59301939423E+02  0.49999991603E+02 0.  0.
         12    1    1    2    0    0  0.24488931617E+02 -0.17321756411E+02 -0.10815259690E+02  0.31886060577E+02  0.00000000000E+00 0. -1.
         11    1    3    3    0    0  0.24344720324E+00 -0.82656525016E+01 -0.70235947775E+00  0.82990112011E+01  0.51100000000E-03 0. -1.
        -11    1    3    3    0    0 -0.22271436414E+02  0.26011565660E+02  0.21685785658E+02  0.40532600803E+02  0.51100000000E-03 0.  1.
        -12    1    3    3    0    0 -0.24609424066E+01 -0.42415674655E+00 -0.10168166491E+02  0.10470327419E+02  0.00000000000E+00 0.  1.
</event>
<event>
 7    1  0.4489290E-013  0.5930193E+02  0.7816164E-02  0.1266605E+00
        -11   -1    0    0    0    0  0.00000000000E+00  0.00000000000E+00  0.45593999997E+02  0.45594000000E+02  0.51100000000E-03 0.  1.
         11   -1    0    0    0    0 -0.00000000000E+00 -0.00000000000E+00 -0.45593999997E+02  0.45594000000E+02  0.51100000000E-03 0. -1.
    9900012    2    1    2    0    0  0.21803854758E+02 -0.19374568563E+02  0.12881760582E+02  0.59301925531E+02  0.49999966267E+02 0.  0.
         12    1    1    2    0    0 -0.21803854758E+02  0.19374568563E+02 -0.12881760582E+02  0.31886074469E+02  0.00000000000E+00 0. -1.
         11    1    3    3    0    0  0.11124240120E+02  0.11428663590E+02  0.50396735258E+01  0.16726068851E+02  0.51100000000E-03 0. -1.
        -11    1    3    3    0    0  0.10455674179E+02 -0.32691831179E+02 -0.18798880850E+00  0.34323640372E+02  0.51100000000E-03 0.  1.
        -12    1    3    3    0    0  0.22394045888E+00  0.18885990253E+01  0.80300758647E+01  0.82522163084E+01  0.00000000000E+00 0.  1.
</event>
<event>
 7    1  0.4489290E-013  0.5930194E+02  0.7816164E-02  0.1266605E+00
        -11   -1    0    0    0    0  0.00000000000E+00  0.00000000000E+00  0.45593999997E+02  0.45594000000E+02  0.51100000000E-03 0. -1.
         11   -1    0    0    0    0 -0.00000000000E+00 -0.00000000000E+00 -0.45593999997E+02  0.45594000000E+02  0.51100000000E-03 0.  1.
    9900012    2    1    2    0    0  0.29999595756E+02  0.13172314716E+01 -0.10724260162E+02  0.59301943482E+02  0.49999999004E+02 0.  0.
         12    1    1    2    0    0 -0.29999595756E+02 -0.13172314716E+01  0.10724260162E+02  0.31886056518E+02  0.00000000000E+00 0. -1.
         11    1    3    3    0    0  0.14993119440E+02 -0.61686307257E+01  0.14199467472E+02  0.21551577955E+02  0.51100000000E-03 0. -1.
        -11    1    3    3    0    0 -0.11611753340E+01 -0.95417917315E+00 -0.18277273158E+02  0.18338961268E+02  0.51100000000E-03 0.  1.
        -12    1    3    3    0    0  0.16167651650E+02  0.84400413705E+01 -0.66464544773E+01  0.19411404259E+02  0.00000000000E+00 0.  1.
</event>
<event>
 7    1  0.4489290E-013  0.5930193E+02  0.7816164E-02  0.1266605E+00
        -11   -1    0    0    0    0  0.00000000000E+00  0.00000000000E+00  0.45593999997E+02  0.45594000000E+02  0.51100000000E-03 0. -1.
         11   -1    0    0    0    0 -0.00000000000E+00 -0.00000000000E+00 -0.45593999997E+02  0.45594000000E+02  0.51100000000E-03 0.  1.
    9900012    2    1    2    0    0 -0.12424184573E+02  0.12376038863E+02 -0.26630709758E+02  0.59301930904E+02  0.49999976065E+02 0.  0.
         12    1    1    2    0    0  0.12424184573E+02 -0.12376038863E+02  0.26630709758E+02  0.31886069096E+02  0.00000000000E+00 0. -1.
         11    1    3    3    0    0  0.17869735503E+02  0.70493668851E+01 -0.42683158780E+01  0.19678402911E+02  0.51100000000E-03 0. -1.
        -11    1    3    3    0    0 -0.20593019434E+02  0.40964724748E+00 -0.92253677190E+01  0.22568732133E+02  0.51100000000E-03 0.  1.
        -12    1    3    3    0    0 -0.97009006416E+01  0.49170247301E+01 -0.13137026160E+02  0.17054795859E+02  0.00000000000E+00 0.  1.
</event>
<event>
 7    1  0.4489290E-013  0.5930194E+02  0.7816164E-02  0.1266605E+00
        -11   -1    0    0    0    0  0.00000000000E+00  0.00000000000E+00  0.45593999997E+02  0.45594000000E+02  0.51100000000E-03 0. -1.
         11   -1    0    0    0    0 -0.00000000000E+00 -0.00000000000E+00 -0.45593999997E+02  0.45594000000E+02  0.51100000000E-03 0.  1.
    9900012    2    1    2    0    0  0.20931711238E+02 -0.16177368711E+02 -0.17801039357E+02  0.59301940414E+02  0.49999993409E+02 0.  0.
         12    1    1    2    0    0 -0.20931711238E+02  0.16177368711E+02  0.17801039357E+02  0.31886059586E+02  0.00000000000E+00 0. -1.
         11    1    3    3    0    0  0.19870497325E+01 -0.14522912834E+02  0.65573412202E+00  0.14672878086E+02  0.51100000000E-03 0. -1.
        -11    1    3    3    0    0  0.29529219994E+02 -0.39086113506E+01 -0.14225523073E+02  0.33009355994E+02  0.51100000000E-03 0.  1.
        -12    1    3    3    0    0 -0.10584558489E+02  0.22541554738E+01 -0.42312504063E+01  0.11619706334E+02  0.00000000000E+00 0.  1.
</event>
<event>
 7    1  0.4489290E-013  0.5930193E+02  0.7816164E-02  0.1266605E+00
        -11   -1    0    0    0    0  0.00000000000E+00  0.00000000000E+00  0.45593999997E+02  0.45594000000E+02  0.51100000000E-03 0.  1.
         11   -1    0    0    0    0 -0.00000000000E+00 -0.00000000000E+00 -0.45593999997E+02  0.45594000000E+02  0.51100000000E-03 0. -1.
    9900012    2    1    2    0    0  0.23453205371E+02  0.16586367822E+01  0.21538752018E+02  0.59301925349E+02  0.49999965934E+02 0.  0.
         12    1    1    2    0    0 -0.23453205371E+02 -0.16586367822E+01 -0.21538752018E+02  0.31886074651E+02  0.00000000000E+00 0. -1.
         11    1    3    3    0    0  0.21551762948E+00  0.80047181785E+00 -0.12776154001E+02  0.12803019734E+02  0.51100000000E-03 0. -1.
        -11    1    3    3    0    0  0.42228723039E+01 -0.64549510246E+01  0.20448550675E+02  0.21855028442E+02  0.51100000000E-03 0.  1.
        -12    1    3    3    0    0  0.19014815438E+02  0.73131159890E+01  0.13866355344E+02  0.24643877173E+02  0.00000000000E+00 0.  1.
</event>
<event>
 7    1  0.4489290E-013  0.5930195E+02  0.7816164E-02  0.1266605E+00
        -11   -1    0    0    0    0  0.00000000000E+00  0.00000000000E+00  0.45593999997E+02  0.45594000000E+02  0.51100000000E-03 0. -1.
         11   -1    0    0    0    0 -0.00000000000E+00 -0.00000000000E+00 -0.45593999997E+02  0.45594000000E+02  0.51100000000E-03 0.  1.
    9900012    2    1    2    0    0 -0.10501011154E+02 -0.29867917133E+02  0.37890170409E+01  0.59301947261E+02  0.50000005896E+02 0.  0.
         12    1    1    2    0    0  0.10501011154E+02  0.29867917133E+02 -0.37890170409E+01  0.31886052739E+02  0.00000000000E+00 0. -1.
         11    1    3    3    0    0  0.99618893304E+01  0.82847429440E+01  0.16995832671E+01  0.13067700189E+02  0.51100000000E-03 0. -1.
        -11    1    3    3    0    0 -0.20743734370E+02 -0.35073644632E+02 -0.23588675343E+01  0.40816997926E+02  0.51100000000E-03 0.  1.
         12    1    3    3    0    0  0.28083388548E+00 -0.30790154454E+01  0.44483013081E+01  0.54172491462E+01  0.00000000000E+00 0. -1.
</event>
<event>
 7    1  0.4489290E-013  0.5930207E+02  0.7816164E-02  0.1266604E+00
        -11   -1    0    0    0    0  0.00000000000E+00  0.00000000000E+00  0.45593999997E+02  0.45594000000E+02  0.51100000000E-03 0. -1.
         11   -1    0    0    0    0 -0.00000000000E+00 -0.00000000000E+00 -0.45593999997E+02  0.45594000000E+02  0.51100000000E-03 0.  1.
    9900012    2    1    2    0    0 -0.10464129997E+02 -0.81374908573E+01 -0.28999923303E+02  0.59302073235E+02  0.50000235643E+02 0.  0.
         12    1    1    2    0    0  0.10464129997E+02  0.81374908573E+01  0.28999923303E+02  0.31885926765E+02  0.00000000000E+00 0. -1.
         11    1    3    3    0    0 -0.29552111515E+02 -0.58562080027E+01 -0.10969934163E+02  0.32061845283E+02  0.51100000000E-03 0. -1.
        -11    1    3    3    0    0  0.22040690847E+01  0.20176445783E+01 -0.29248812206E+01  0.41813563099E+01  0.51100000000E-03 0.  1.
         12    1    3    3    0    0  0.16883912433E+02 -0.42989274329E+01 -0.15105107920E+02  0.23058871642E+02  0.00000000000E+00 0. -1.
</event>
<event>
 7    1  0.4489290E-013  0.5930193E+02  0.7816164E-02  0.1266605E+00
        -11   -1    0    0    0    0  0.00000000000E+00  0.00000000000E+00  0.45593999997E+02  0.45594000000E+02  0.51100000000E-03 0.  1.
         11   -1    0    0    0    0 -0.00000000000E+00 -0.00000000000E+00 -0.45593999997E+02  0.45594000000E+02  0.51100000000E-03 0. -1.
    9900012    2    1    2    0    0  0.10068086648E+02 -0.18650418714E+02 -0.23822608418E+02  0.59301934724E+02  0.49999983032E+02 0.  0.
         12    1    1    2    0    0 -0.10068086648E+02  0.18650418714E+02  0.23822608418E+02  0.31886065276E+02  0.00000000000E+00 0. -1.
         11    1    3    3    0    0  0.81256590148E+01 -0.10174828077E+01 -0.20688760428E+02  0.22250537387E+02  0.51100000000E-03 0. -1.
        -11    1    3    3    0    0  0.93828830549E+01 -0.41409130424E+01  0.11772413514E+02  0.15613307640E+02  0.51100000000E-03 0.  1.
        -12    1    3    3    0    0 -0.74404554221E+01 -0.13492022864E+02 -0.14906261504E+02  0.21438089697E+02  0.00000000000E+00 0.  1.
</event>
<event>
 7    1  0.4489290E-013  0.5930180E+02  0.7816164E-02  0.1266605E+00
        -11   -1    0    0    0    0  0.00000000000E+00  0.00000000000E+00  0.45593999997E+02  0.45594000000E+02  0.51100000000E-03 0.  1.
         11   -1    0    0    0    0 -0.00000000000E+00 -0.00000000000E+00 -0.45593999997E+02  0.45594000000E+02  0.51100000000E-03 0. -1.
    9900012    2    1    2    0    0 -0.25732392624E+02 -0.72063121845E-01  0.18829981793E+02  0.59301804906E+02  0.49999746274E+02 0.  0.
         12    1    1    2    0    0  0.25732392624E+02  0.72063121845E-01 -0.18829981793E+02  0.31886195094E+02  0.00000000000E+00 0. -1.
         11    1    3    3    0    0  0.83042605762E+01 -0.49359128424E+01  0.81372922929E+01  0.12630894878E+02  0.51100000000E-03 0. -1.
        -11    1    3    3    0    0 -0.39494155217E+02  0.44221314566E+01  0.10842587792E+02  0.41193509843E+02  0.51100000000E-03 0.  1.
        -12    1    3    3    0    0  0.54575020161E+01  0.44171826399E+00 -0.14989829141E+00  0.54774001843E+01  0.00000000000E+00 0.  1.
</event>
<event>
 7    1  0.4489290E-013  0.5930197E+02  0.7816164E-02  0.1266605E+00
        -11   -1    0    0    0    0  0.00000000000E+00  0.00000000000E+00  0.45593999997E+02  0.45594000000E+02  0.51100000000E-03 0.  1.
         11   -1    0    0    0    0 -0.00000000000E+00 -0.00000000000E+00 -0.45593999997E+02  0.45594000000E+02  0.51100000000E-03 0. -1.
    9900012    2    1    2    0    0  0.30125012933E+00 -0.14404688660E+02  0.28445260964E+02  0.59301973619E+02  0.50000053968E+02 0.  0.
         12    1    1    2    0    0 -0.30125012933E+00  0.14404688660E+02 -0.28445260964E+02  0.31886026381E+02  0.00000000000E+00 0. -1.
         11    1    3    3    0    0 -0.16199206308E+02  0.31705638451E+01  0.80296487963E+00  0.16526085834E+02  0.51100000000E-03 0. -1.
        -11    1    3    3    0    0  0.17713004408E+02 -0.72079292958E+01  0.25897710036E+02  0.32193107264E+02  0.51100000000E-03 0.  1.
        -12    1    3    3    0    0 -0.12125479707E+01 -0.10367323209E+02  0.17445860482E+01  0.10582780522E+02  0.00000000000E+00 0.  1.
</event>
<event>
 7    1  0.4489290E-013  0.5930192E+02  0.7816164E-02  0.1266605E+00
        -11   -1    0    0    0    0  0.00000000000E+00  0.00000000000E+00  0.45593999997E+02  0.45594000000E+02  0.51100000000E-03 0.  1.
         11   -1    0    0    0    0 -0.00000000000E+00 -0.00000000000E+00 -0.45593999997E+02  0.45594000000E+02  0.51100000000E-03 0. -1.
    9900012    2    1    2    0    0  0.15465190342E+02 -0.19910338462E+02  0.19522514739E+02  0.59301917272E+02  0.49999951205E+02 0.  0.
         12    1    1    2    0    0 -0.15465190342E+02  0.19910338462E+02 -0.19522514739E+02  0.31886082728E+02  0.00000000000E+00 0. -1.
         11    1    3    3    0    0 -0.92625296173E+01 -0.18998660324E+02 -0.75308854082E+01  0.22437864968E+02  0.51100000000E-03 0. -1.
        -11    1    3    3    0    0  0.27388630469E+01  0.10490217259E+01  0.25949957664E+01  0.39160976316E+01  0.51100000000E-03 0.  1.
         12    1    3    3    0    0  0.21988856912E+02 -0.19606998637E+01  0.24458404381E+02  0.32947954673E+02  0.00000000000E+00 0. -1.
</event>
<event>
 7    1  0.4489290E-013  0.5930194E+02  0.7816164E-02  0.1266605E+00
        -11   -1    0    0    0    0  0.00000000000E+00  0.00000000000E+00  0.45593999997E+02  0.45594000000E+02  0.51100000000E-03 0. -1.
         11   -1    0    0    0    0 -0.00000000000E+00 -0.00000000000E+00 -0.45593999997E+02  0.45594000000E+02  0.51100000000E-03 0.  1.
    9900012    2    1    2    0    0 -0.11789386040E+02 -0.98064675073E+01 -0.27956469852E+02  0.59301942941E+02  0.49999998018E+02 0.  0.
         12    1    1    2    0    0  0.11789386040E+02  0.98064675073E+01  0.27956469852E+02  0.31886057059E+02  0.00000000000E+00 0. -1.
         11    1    3    3    0    0 -0.81454349459E+01 -0.11779781328E+02 -0.26463760908E+01  0.14564156868E+02  0.51100000000E-03 0. -1.
        -11    1    3    3    0    0  0.13798468105E+02  0.90085207273E+01 -0.53807682300E+01  0.17335046431E+02  0.51100000000E-03 0.  1.
        -12    1    3    3    0    0 -0.17442419199E+02 -0.70352069063E+01 -0.19929325532E+02  0.27402739642E+02  0.00000000000E+00 0.  1.
</event>
<event>
 7    1  0.4489290E-013  0.5930194E+02  0.7816164E-02  0.1266605E+00
        -11   -1    0    0    0    0  0.00000000000E+00  0.00000000000E+00  0.45593999997E+02  0.45594000000E+02  0.51100000000E-03 0. -1.
         11   -1    0    0    0    0 -0.00000000000E+00 -0.00000000000E+00 -0.45593999997E+02  0.45594000000E+02  0.51100000000E-03 0.  1.
    9900012    2    1    2    0    0  0.22147217633E+02  0.53754599557E+01 -0.22300808521E+02  0.59301939107E+02  0.49999991025E+02 0.  0.
         12    1    1    2    0    0 -0.22147217633E+02 -0.53754599557E+01  0.22300808521E+02  0.31886060893E+02  0.00000000000E+00 0. -1.
         11    1    3    3    0    0  0.21464233353E+02  0.20367540060E+02 -0.20758134971E+02  0.36144849831E+02  0.51100000000E-03 0.  1.
        -11    1    3    3    0    0 -0.69762480586E+01 -0.92712168172E+01 -0.54630763484E+01  0.12824535145E+02  0.51100000000E-03 0. -1.
        -12    1    3    3    0    0  0.76592323381E+01 -0.57208632873E+01  0.39204027983E+01  0.10332554131E+02  0.00000000000E+00 0.  1.
</event>
<event>
 7    1  0.4489290E-013  0.5930189E+02  0.7816164E-02  0.1266605E+00
        -11   -1    0    0    0    0  0.00000000000E+00  0.00000000000E+00  0.45593999997E+02  0.45594000000E+02  0.51100000000E-03 0.  1.
         11   -1    0    0    0    0 -0.00000000000E+00 -0.00000000000E+00 -0.45593999997E+02  0.45594000000E+02  0.51100000000E-03 0. -1.
    9900012    2    1    2    0    0 -0.13401586029E+02  0.38652595038E+01  0.28673700783E+02  0.59301892434E+02  0.49999905905E+02 0.  0.
         12    1    1    2    0    0  0.13401586029E+02 -0.38652595038E+01 -0.28673700783E+02  0.31886107566E+02  0.00000000000E+00 0. -1.
         11    1    3    3    0    0  0.32305191186E+01  0.83423761489E+01 -0.61025454605E+01  0.10829245354E+02  0.51100000000E-03 0. -1.
        -11    1    3    3    0    0 -0.77650590079E+01 -0.81925202020E+01  0.36933244390E+02  0.38619659114E+02  0.51100000000E-03 0.  1.
        -12    1    3    3    0    0 -0.88670461401E+01  0.37154035569E+01 -0.21569981469E+01  0.98529879654E+01  0.00000000000E+00 0.  1.
</event>
<event>
 7    1  0.4489290E-013  0.5930196E+02  0.7816164E-02  0.1266605E+00
        -11   -1    0    0    0    0  0.00000000000E+00  0.00000000000E+00  0.45593999997E+02  0.45594000000E+02  0.51100000000E-03 0. -1.
         11   -1    0    0    0    0 -0.00000000000E+00 -0.00000000000E+00 -0.45593999997E+02  0.45594000000E+02  0.51100000000E-03 0.  1.
    9900012    2    1    2    0    0  0.11898421534E+02 -0.25187093823E+02  0.15516365424E+02  0.59301957188E+02  0.50000024001E+02 0.  0.
         12    1    1    2    0    0 -0.11898421534E+02  0.25187093823E+02 -0.15516365424E+02  0.31886042812E+02  0.00000000000E+00 0. -1.
         11    1    3    3    0    0 -0.79722025159E+01 -0.10708338815E+02 -0.14464685046E+02  0.19683791476E+02  0.51100000000E-03 0. -1.
        -11    1    3    3    0    0  0.14674863913E+02 -0.13166829091E+02  0.18911087421E+02  0.27319338332E+02  0.51100000000E-03 0.  1.
         12    1    3    3    0    0  0.51957601370E+01 -0.13119259168E+01  0.11069963049E+02  0.12298827380E+02  0.00000000000E+00 0. -1.
</event>
<event>
 7    1  0.4489290E-013  0.5930199E+02  0.7816164E-02  0.1266605E+00
        -11   -1    0    0    0    0  0.00000000000E+00  0.00000000000E+00  0.45593999997E+02  0.45594000000E+02  0.51100000000E-03 0.  1.
         11   -1    0    0    0    0 -0.00000000000E+00 -0.00000000000E+00 -0.45593999997E+02  0.45594000000E+02  0.51100000000E-03 0. -1.
    9900012    2    1    2    0    0 -0.20431401197E+02  0.63060008735E+01  0.23653964137E+02  0.59301987059E+02  0.50000078479E+02 0.  0.
         12    1    1    2    0    0  0.20431401197E+02 -0.63060008735E+01 -0.23653964137E+02  0.31886012941E+02  0.00000000000E+00 0. -1.
         11    1    3    3    0    0 -0.25520348960E+02  0.22945907374E+02  0.99186318255E+01  0.35723691492E+02  0.51100000000E-03 0. -1.
        -11    1    3    3    0    0  0.48957568885E+01 -0.10199340093E+02  0.12773681231E+02  0.17063467007E+02  0.51100000000E-03 0.  1.
         12    1    3    3    0    0  0.19319087470E+00 -0.64405664076E+01  0.96165108049E+00  0.65148285599E+01  0.00000000000E+00 0. -1.
</event>
<event>
 7    1  0.4489290E-013  0.5930194E+02  0.7816164E-02  0.1266605E+00
        -11   -1    0    0    0    0  0.00000000000E+00  0.00000000000E+00  0.45593999997E+02  0.45594000000E+02  0.51100000000E-03 0.  1.
         11   -1    0    0    0    0 -0.00000000000E+00 -0.00000000000E+00 -0.45593999997E+02  0.45594000000E+02  0.51100000000E-03 0. -1.
    9900012    2    1    2    0    0 -0.23500348813E+02 -0.18605349853E+02  0.10876358191E+02  0.59301943408E+02  0.49999998869E+02 0.  0.
         12    1    1    2    0    0  0.23500348813E+02  0.18605349853E+02 -0.10876358191E+02  0.31886056592E+02  0.00000000000E+00 0. -1.
         11    1    3    3    0    0 -0.35522924195E+02 -0.11134830054E+02 -0.29806271950E+00  0.37228368556E+02  0.51100000000E-03 0. -1.
        -11    1    3    3    0    0  0.12713008442E+02 -0.10122199882E+02  0.10080570046E+02  0.19123216435E+02  0.51100000000E-03 0.  1.
         12    1    3    3    0    0 -0.69043306100E+00  0.26516800829E+01  0.10938508649E+01  0.29503584170E+01  0.00000000000E+00 0. -1.
</event>
<event>
 7    1  0.4489290E-013  0.5930193E+02  0.7816164E-02  0.1266605E+00
        -11   -1    0    0    0    0  0.00000000000E+00  0.00000000000E+00  0.45593999997E+02  0.45594000000E+02  0.51100000000E-03 0.  1.
         11   -1    0    0    0    0 -0.00000000000E+00 -0.00000000000E+00 -0.45593999997E+02  0.45594000000E+02  0.51100000000E-03 0. -1.
    9900012    2    1    2    0    0 -0.43035772925E+01 -0.75933128858E+01  0.30668263387E+02  0.59301928475E+02  0.49999971636E+02 0.  0.
         12    1    1    2    0    0  0.43035772925E+01  0.75933128858E+01 -0.30668263387E+02  0.31886071525E+02  0.00000000000E+00 0. -1.
         11    1    3    3    0    0 -0.26365577963E+01 -0.21212618731E+02 -0.27215033476E+01  0.21548392310E+02  0.51100000000E-03 0. -1.
        -11    1    3    3    0    0 -0.33288605972E+01  0.88461462449E+01  0.30501306269E+02  0.31932198494E+02  0.51100000000E-03 0.  1.
         12    1    3    3    0    0  0.16618411011E+01  0.47731596001E+01  0.28884604657E+01  0.58213376706E+01  0.00000000000E+00 0. -1.
</event>
<event>
 7    1  0.4489290E-013  0.5930159E+02  0.7816164E-02  0.1266606E+00
        -11   -1    0    0    0    0  0.00000000000E+00  0.00000000000E+00  0.45593999997E+02  0.45594000000E+02  0.51100000000E-03 0. -1.
         11   -1    0    0    0    0 -0.00000000000E+00 -0.00000000000E+00 -0.45593999997E+02  0.45594000000E+02  0.51100000000E-03 0.  1.
    9900012    2    1    2    0    0  0.13428294467E+02  0.28038418614E+02  0.70902155752E+01  0.59301589610E+02  0.49999353623E+02 0.  0.
         12    1    1    2    0    0 -0.13428294467E+02 -0.28038418614E+02 -0.70902155752E+01  0.31886410390E+02  0.00000000000E+00 0. -1.
         11    1    3    3    0    0  0.84503378149E+01  0.29901826739E+02  0.75162283868E+01  0.31969065375E+02  0.51100000000E-03 0. -1.
        -11    1    3    3    0    0 -0.10019640329E+01 -0.13779384182E+02 -0.17874069353E+01  0.13930907514E+02  0.51100000000E-03 0.  1.
        -12    1    3    3    0    0  0.59799206850E+01  0.11915976057E+02  0.13613941237E+01  0.13401616721E+02  0.00000000000E+00 0.  1.
</event>
<event>
 7    1  0.4489290E-013  0.5930184E+02  0.7816164E-02  0.1266605E+00
        -11   -1    0    0    0    0  0.00000000000E+00  0.00000000000E+00  0.45593999997E+02  0.45594000000E+02  0.51100000000E-03 0.  1.
         11   -1    0    0    0    0 -0.00000000000E+00 -0.00000000000E+00 -0.45593999997E+02  0.45594000000E+02  0.51100000000E-03 0. -1.
    9900012    2    1    2    0    0 -0.32738242589E+00 -0.28341121429E+02  0.14608238136E+02  0.59301843685E+02  0.49999816998E+02 0.  0.
         12    1    1    2    0    0  0.32738242589E+00  0.28341121429E+02 -0.14608238136E+02  0.31886156315E+02  0.00000000000E+00 0. -1.
         11    1    3    3    0    0 -0.21181511785E+02 -0.69271883080E+01  0.16232452305E+01  0.22344513973E+02  0.51100000000E-03 0. -1.
        -11    1    3    3    0    0  0.21470339522E+01 -0.14401342259E+02  0.65722662994E+01  0.15975077409E+02  0.51100000000E-03 0.  1.
         12    1    3    3    0    0  0.18707095407E+02 -0.70125908622E+01  0.64127266063E+01  0.20982252302E+02  0.00000000000E+00 0. -1.
</event>
<event>
 7    1  0.4489290E-013  0.5930194E+02  0.7816164E-02  0.1266605E+00
        -11   -1    0    0    0    0  0.00000000000E+00  0.00000000000E+00  0.45593999997E+02  0.45594000000E+02  0.51100000000E-03 0. -1.
         11   -1    0    0    0    0 -0.00000000000E+00 -0.00000000000E+00 -0.45593999997E+02  0.45594000000E+02  0.51100000000E-03 0.  1.
    9900012    2    1    2    0    0  0.10365008129E+02 -0.11729176003E+01 -0.30131571293E+02  0.59301941639E+02  0.49999995644E+02 0.  0.
         12    1    1    2    0    0 -0.10365008129E+02  0.11729176003E+01  0.30131571293E+02  0.31886058361E+02  0.00000000000E+00 0. -1.
         11    1    3    3    0    0 -0.20751969308E+01 -0.58290427448E+01  0.64101613490E+01  0.89092283843E+01  0.51100000000E-03 0. -1.
        -11    1    3    3    0    0  0.21535656643E+02  0.98184804929E+01 -0.29331202679E+02  0.37689607548E+02  0.51100000000E-03 0.  1.
         12    1    3    3    0    0 -0.90954515837E+01 -0.51623553484E+01 -0.72105299628E+01  0.12703105707E+02  0.00000000000E+00 0. -1.
</event>
<event>
 7    1  0.4489290E-013  0.5930179E+02  0.7816164E-02  0.1266605E+00
        -11   -1    0    0    0    0  0.00000000000E+00  0.00000000000E+00  0.45593999997E+02  0.45594000000E+02  0.51100000000E-03 0.  1.
         11   -1    0    0    0    0 -0.00000000000E+00 -0.00000000000E+00 -0.45593999997E+02  0.45594000000E+02  0.51100000000E-03 0. -1.
    9900012    2    1    2    0    0 -0.30577938428E+02  0.20794275340E+01 -0.87974856118E+01  0.59301794668E+02  0.49999727603E+02 0.  0.
         12    1    1    2    0    0  0.30577938428E+02 -0.20794275340E+01  0.87974856118E+01  0.31886205332E+02  0.00000000000E+00 0. -1.
         11    1    3    3    0    0 -0.33780442238E+02  0.49008028483E+01 -0.14136757854E+02  0.36945690807E+02  0.51100000000E-03 0. -1.
        -11    1    3    3    0    0  0.92277918440E+01 -0.83685434701E+01 -0.21711393781E+00  0.12459205466E+02  0.51100000000E-03 0.  1.
        -12    1    3    3    0    0 -0.60252880341E+01  0.55471681559E+01  0.55563861804E+01  0.98968983944E+01  0.00000000000E+00 0.  1.
</event>
<event>
 7    1  0.4489290E-013  0.5930184E+02  0.7816164E-02  0.1266605E+00
        -11   -1    0    0    0    0  0.00000000000E+00  0.00000000000E+00  0.45593999997E+02  0.45594000000E+02  0.51100000000E-03 0.  1.
         11   -1    0    0    0    0 -0.00000000000E+00 -0.00000000000E+00 -0.45593999997E+02  0.45594000000E+02  0.51100000000E-03 0. -1.
    9900012    2    1    2    0    0  0.13511849390E+02  0.52451291573E+01  0.28401505599E+02  0.59301843535E+02  0.49999816725E+02 0.  0.
         12    1    1    2    0    0 -0.13511849390E+02 -0.52451291573E+01 -0.28401505599E+02  0.31886156465E+02  0.00000000000E+00 0. -1.
         11    1    3    3    0    0 -0.47235927292E+01 -0.10583508650E+02  0.25336185580E+00  0.11592548301E+02  0.51100000000E-03 0. -1.
        -11    1    3    3    0    0  0.17436010863E+02  0.10230788569E+02  0.34009939849E+02  0.39564624583E+02  0.51100000000E-03 0.  1.
         12    1    3    3    0    0  0.79943125602E+00  0.55978492388E+01 -0.58617961058E+01  0.81446706514E+01  0.00000000000E+00 0. -1.
</event>
<event>
 7    1  0.4489290E-013  0.5930194E+02  0.7816164E-02  0.1266605E+00
        -11   -1    0    0    0    0  0.00000000000E+00  0.00000000000E+00  0.45593999997E+02  0.45594000000E+02  0.51100000000E-03 0.  1.
         11   -1    0    0    0    0 -0.00000000000E+00 -0.00000000000E+00 -0.45593999997E+02  0.45594000000E+02  0.51100000000E-03 0. -1.
    9900012    2    1    2    0    0  0.15610263823E+02  0.23977468943E+02  0.14075563406E+02  0.59301939743E+02  0.49999992185E+02 0.  0.
         12    1    1    2    0    0 -0.15610263823E+02 -0.23977468943E+02 -0.14075563406E+02  0.31886060257E+02  0.00000000000E+00 0. -1.
         11    1    3    3    0    0  0.56501967227E+01 -0.48755074191E+01 -0.11836536540E+02  0.13992815768E+02  0.51100000000E-03 0. -1.
        -11    1    3    3    0    0  0.68207098610E+01  0.28001641628E+02  0.12337213606E+02  0.31349973791E+02  0.51100000000E-03 0.  1.
         12    1    3    3    0    0  0.31393572395E+01  0.85133473400E+00  0.13574886340E+02  0.13959150184E+02  0.00000000000E+00 0. -1.
</event>
<event>
 7    1  0.4489290E-013  0.5930192E+02  0.7816164E-02  0.1266605E+00
        -11   -1    0    0    0    0  0.00000000000E+00  0.00000000000E+00  0.45593999997E+02  0.45594000000E+02  0.51100000000E-03 0.  1.
         11   -1    0    0    0    0 -0.00000000000E+00 -0.00000000000E+00 -0.45593999997E+02  0.45594000000E+02  0.51100000000E-03 0. -1.
    9900012    2    1    2    0    0 -0.14514510590E+02  0.27409245282E+02 -0.74016380720E+01  0.59301921678E+02  0.49999959240E+02 0.  0.
         12    1    1    2    0    0  0.14514510590E+02 -0.27409245282E+02  0.74016380720E+01  0.31886078322E+02  0.00000000000E+00 0. -1.
         11    1    3    3    0    0  0.36571612173E+01  0.20144441021E+01  0.89844345883E+01  0.99072134499E+01  0.51100000000E-03 0. -1.
        -11    1    3    3    0    0 -0.28319615252E+02  0.16793095662E+02 -0.14433926991E+02  0.35949226954E+02  0.51100000000E-03 0.  1.
        -12    1    3    3    0    0  0.10147943445E+02  0.86017055182E+01 -0.19521456697E+01  0.13445481275E+02  0.00000000000E+00 0.  1.
</event>
<event>
 7    1  0.4489290E-013  0.5930195E+02  0.7816164E-02  0.1266605E+00
        -11   -1    0    0    0    0  0.00000000000E+00  0.00000000000E+00  0.45593999997E+02  0.45594000000E+02  0.51100000000E-03 0. -1.
         11   -1    0    0    0    0 -0.00000000000E+00 -0.00000000000E+00 -0.45593999997E+02  0.45594000000E+02  0.51100000000E-03 0.  1.
    9900012    2    1    2    0    0 -0.31278127382E+02 -0.20514692089E+01  0.58472797721E+01  0.59301945694E+02  0.50000003039E+02 0.  0.
         12    1    1    2    0    0  0.31278127382E+02  0.20514692089E+01 -0.58472797721E+01  0.31886054306E+02  0.00000000000E+00 0. -1.
         11    1    3    3    0    0 -0.13481064855E+02 -0.19883241843E+01 -0.19124097404E+02  0.23482411385E+02  0.51100000000E-03 0. -1.
        -11    1    3    3    0    0 -0.18754750280E+02 -0.50273022416E+01  0.23639192641E+02  0.30591270893E+02  0.51100000000E-03 0.  1.
         12    1    3    3    0    0  0.95768775288E+00  0.49641572169E+01  0.13321845356E+01  0.52282634156E+01  0.00000000000E+00 0. -1.
</event>
<event>
 7    1  0.4489290E-013  0.5930195E+02  0.7816164E-02  0.1266605E+00
        -11   -1    0    0    0    0  0.00000000000E+00  0.00000000000E+00  0.45593999997E+02  0.45594000000E+02  0.51100000000E-03 0.  1.
         11   -1    0    0    0    0 -0.00000000000E+00 -0.00000000000E+00 -0.45593999997E+02  0.45594000000E+02  0.51100000000E-03 0. -1.
    9900012    2    1    2    0    0  0.76703164585E+01  0.19441169761E+02 -0.24081681926E+02  0.59301949121E+02  0.50000009289E+02 0.  0.
         12    1    1    2    0    0 -0.76703164585E+01 -0.19441169761E+02  0.24081681926E+02  0.31886050879E+02  0.00000000000E+00 0. -1.
         11    1    3    3    0    0 -0.85777797901E+01 -0.11877091319E+02 -0.77029052097E+01  0.16552291481E+02  0.51100000000E-03 0. -1.
        -11    1    3    3    0    0  0.15023039825E+02  0.27084568889E+02 -0.20149369143E+02  0.36949461086E+02  0.51100000000E-03 0.  1.
        -12    1    3    3    0    0  0.12250564231E+01  0.42336921922E+01  0.37705924259E+01  0.58001965535E+01  0.00000000000E+00 0.  1.
</event>
<event>
 7    1  0.4489290E-013  0.5930195E+02  0.7816164E-02  0.1266605E+00
        -11   -1    0    0    0    0  0.00000000000E+00  0.00000000000E+00  0.45593999997E+02  0.45594000000E+02  0.51100000000E-03 0.  1.
         11   -1    0    0    0    0 -0.00000000000E+00 -0.00000000000E+00 -0.45593999997E+02  0.45594000000E+02  0.51100000000E-03 0. -1.
    9900012    2    1    2    0    0 -0.24710501317E+02  0.16258926149E+02  0.11906233918E+02  0.59301953507E+02  0.50000017287E+02 0.  0.
         12    1    1    2    0    0  0.24710501317E+02 -0.16258926149E+02 -0.11906233918E+02  0.31886046493E+02  0.00000000000E+00 0. -1.
         11    1    3    3    0    0 -0.27799342853E+02  0.20239530189E+02 -0.73268628699E+01  0.35158568871E+02  0.51100000000E-03 0. -1.
        -11    1    3    3    0    0 -0.22255947330E+01  0.37352306326E+01  0.10377511281E+02  0.11251575909E+02  0.51100000000E-03 0.  1.
         12    1    3    3    0    0  0.53144362688E+01 -0.77158346723E+01  0.88555855070E+01  0.12891808726E+02  0.00000000000E+00 0. -1.
</event>
<event>
 7    1  0.4489290E-013  0.5930195E+02  0.7816164E-02  0.1266605E+00
        -11   -1    0    0    0    0  0.00000000000E+00  0.00000000000E+00  0.45593999997E+02  0.45594000000E+02  0.51100000000E-03 0.  1.
         11   -1    0    0    0    0 -0.00000000000E+00 -0.00000000000E+00 -0.45593999997E+02  0.45594000000E+02  0.51100000000E-03 0. -1.
    9900012    2    1    2    0    0 -0.16809036451E+02 -0.20097085046E+02  0.18173708387E+02  0.59301949597E+02  0.50000010157E+02 0.  0.
         12    1    1    2    0    0  0.16809036451E+02  0.20097085046E+02 -0.18173708387E+02  0.31886050403E+02  0.00000000000E+00 0. -1.
         11    1    3    3    0    0  0.54109219198E+01 -0.10832319428E+02 -0.12517863914E+02  0.17415916210E+02  0.51100000000E-03 0. -1.
        -11    1    3    3    0    0 -0.17472360448E+02 -0.64615447221E+00  0.25035618057E+02  0.30536585712E+02  0.51100000000E-03 0.  1.
        -12    1    3    3    0    0 -0.47475979234E+01 -0.86186111453E+01  0.56559542438E+01  0.11349447675E+02  0.00000000000E+00 0.  1.
</event>
<event>
 7    1  0.4489290E-013  0.5930194E+02  0.7816164E-02  0.1266605E+00
        -11   -1    0    0    0    0  0.00000000000E+00  0.00000000000E+00  0.45593999997E+02  0.45594000000E+02  0.51100000000E-03 0.  1.
         11   -1    0    0    0    0 -0.00000000000E+00 -0.00000000000E+00 -0.45593999997E+02  0.45594000000E+02  0.51100000000E-03 0. -1.
    9900012    2    1    2    0    0  0.18438736664E+01  0.47373836455E+01  0.31478220636E+02  0.59301936456E+02  0.49999986191E+02 0.  0.
         12    1    1    2    0    0 -0.18438736664E+01 -0.47373836455E+01 -0.31478220636E+02  0.31886063544E+02  0.00000000000E+00 0. -1.
         11    1    3    3    0    0 -0.13905712847E+02  0.13110022515E+02 -0.24407798152E+01  0.19266523986E+02  0.51100000000E-03 0. -1.
        -11    1    3    3    0    0  0.13829865836E+02 -0.12442603645E+01  0.22084711795E+02  0.26087312400E+02  0.51100000000E-03 0.  1.
        -12    1    3    3    0    0  0.19197206776E+01 -0.71283785047E+01  0.11834288656E+02  0.13948100071E+02  0.00000000000E+00 0.  1.
</event>
<event>
 7    1  0.4489290E-013  0.5930193E+02  0.7816164E-02  0.1266605E+00
        -11   -1    0    0    0    0  0.00000000000E+00  0.00000000000E+00  0.45593999997E+02  0.45594000000E+02  0.51100000000E-03 0.  1.
         11   -1    0    0    0    0 -0.00000000000E+00 -0.00000000000E+00 -0.45593999997E+02  0.45594000000E+02  0.51100000000E-03 0. -1.
    9900012    2    1    2    0    0  0.29807068659E+02  0.94186415472E+01 -0.62888014477E+01  0.59301934481E+02  0.49999982589E+02 0.  0.
         12    1    1    2    0    0 -0.29807068659E+02 -0.94186415472E+01  0.62888014477E+01  0.31886065519E+02  0.00000000000E+00 0. -1.
         11    1    3    3    0    0  0.17261571790E+02  0.42963235149E+01 -0.11765622845E+02  0.21327215889E+02  0.51100000000E-03 0. -1.
        -11    1    3    3    0    0 -0.75841090580E+01 -0.34535964134E+01  0.12475116821E+02  0.15002485739E+02  0.51100000000E-03 0.  1.
        -12    1    3    3    0    0  0.20129605927E+02  0.85759144458E+01 -0.69982954239E+01  0.22972232852E+02  0.00000000000E+00 0.  1.
</event>
<event>
 7    1  0.4489290E-013  0.5930194E+02  0.7816164E-02  0.1266605E+00
        -11   -1    0    0    0    0  0.00000000000E+00  0.00000000000E+00  0.45593999997E+02  0.45594000000E+02  0.51100000000E-03 0.  1.
         11   -1    0    0    0    0 -0.00000000000E+00 -0.00000000000E+00 -0.45593999997E+02  0.45594000000E+02  0.51100000000E-03 0. -1.
    9900012    2    1    2    0    0 -0.31839597290E+02 -0.17029383873E+01 -0.24714044697E+00  0.59301936694E+02  0.49999986625E+02 0.  0.
         12    1    1    2    0    0  0.31839597290E+02  0.17029383873E+01  0.24714044697E+00  0.31886063306E+02  0.00000000000E+00 0. -1.
         11    1    3    3    0    0 -0.28327362636E+02 -0.22683370129E+02  0.20485971192E+01  0.36347922977E+02  0.51100000000E-03 0. -1.
        -11    1    3    3    0    0 -0.27772597563E+01  0.11546936028E+02 -0.53298362463E+01  0.13017375237E+02  0.51100000000E-03 0.  1.
         12    1    3    3    0    0 -0.73497489810E+00  0.94334957139E+01  0.30340986801E+01  0.99366384802E+01  0.00000000000E+00 0. -1.
</event>
<event>
 7    1  0.4489290E-013  0.5930199E+02  0.7816164E-02  0.1266605E+00
        -11   -1    0    0    0    0  0.00000000000E+00  0.00000000000E+00  0.45593999997E+02  0.45594000000E+02  0.51100000000E-03 0.  1.
         11   -1    0    0    0    0 -0.00000000000E+00 -0.00000000000E+00 -0.45593999997E+02  0.45594000000E+02  0.51100000000E-03 0. -1.
    9900012    2    1    2    0    0  0.23429419159E+02 -0.14809807868E+02  0.15762273459E+02  0.59301994358E+02  0.50000091790E+02 0.  0.
         12    1    1    2    0    0 -0.23429419159E+02  0.14809807868E+02 -0.15762273459E+02  0.31886005642E+02  0.00000000000E+00 0. -1.
         11    1    3    3    0    0  0.15209119649E+02 -0.27856169176E+01  0.13887379413E+02  0.20783076994E+02  0.51100000000E-03 0.  1.
        -11    1    3    3    0    0 -0.13361244330E+02 -0.53633173786E+00  0.40549891712E+01  0.13973311676E+02  0.51100000000E-03 0. -1.
        -12    1    3    3    0    0  0.21581543840E+02 -0.11487859213E+02 -0.21800951253E+01  0.24545605687E+02  0.00000000000E+00 0.  1.
</event>
<event>
 7    1  0.4489290E-013  0.5930189E+02  0.7816164E-02  0.1266605E+00
        -11   -1    0    0    0    0  0.00000000000E+00  0.00000000000E+00  0.45593999997E+02  0.45594000000E+02  0.51100000000E-03 0.  1.
         11   -1    0    0    0    0 -0.00000000000E+00 -0.00000000000E+00 -0.45593999997E+02  0.45594000000E+02  0.51100000000E-03 0. -1.
    9900012    2    1    2    0    0  0.15822371948E+02  0.14954416395E+02  0.23296829705E+02  0.59301885497E+02  0.49999893254E+02 0.  0.
         12    1    1    2    0    0 -0.15822371948E+02 -0.14954416395E+02 -0.23296829705E+02  0.31886114503E+02  0.00000000000E+00 0. -1.
         11    1    3    3    0    0  0.10768665831E+02  0.20884327956E+02 -0.69590128060E+01  0.24506064095E+02  0.51100000000E-03 0. -1.
        -11    1    3    3    0    0 -0.30423765593E+01 -0.48332602933E+01  0.23530907723E+02  0.24214047136E+02  0.51100000000E-03 0.  1.
        -12    1    3    3    0    0  0.80960826761E+01 -0.10966512675E+01  0.67249347882E+01  0.10581774266E+02  0.00000000000E+00 0.  1.
</event>
<event>
 7    1  0.4489290E-013  0.5930193E+02  0.7816164E-02  0.1266605E+00
        -11   -1    0    0    0    0  0.00000000000E+00  0.00000000000E+00  0.45593999997E+02  0.45594000000E+02  0.51100000000E-03 0. -1.
         11   -1    0    0    0    0 -0.00000000000E+00 -0.00000000000E+00 -0.45593999997E+02  0.45594000000E+02  0.51100000000E-03 0.  1.
    9900012    2    1    2    0    0  0.27099886553E+02 -0.15823419510E+02  0.56512700433E+01  0.59301932364E+02  0.49999978728E+02 0.  0.
         12    1    1    2    0    0 -0.27099886553E+02  0.15823419510E+02 -0.56512700433E+01  0.31886067636E+02  0.00000000000E+00 0. -1.
         11    1    3    3    0    0  0.32607140932E+01  0.15644550955E+02  0.48431541897E+00  0.15988082833E+02  0.51100000000E-03 0. -1.
        -11    1    3    3    0    0  0.18013643659E+02 -0.19582955358E+02  0.11072943852E+02  0.28820020545E+02  0.51100000000E-03 0.  1.
        -12    1    3    3    0    0  0.58255288010E+01 -0.11885015108E+02 -0.59059892273E+01  0.14493828986E+02  0.00000000000E+00 0.  1.
</event>
<event>
 7    1  0.4489290E-013  0.5930194E+02  0.7816164E-02  0.1266605E+00
        -11   -1    0    0    0    0  0.00000000000E+00  0.00000000000E+00  0.45593999997E+02  0.45594000000E+02  0.51100000000E-03 0.  1.
         11   -1    0    0    0    0 -0.00000000000E+00 -0.00000000000E+00 -0.45593999997E+02  0.45594000000E+02  0.51100000000E-03 0. -1.
    9900012    2    1    2    0    0 -0.17408799453E+02  0.13361033821E+02  0.23133036873E+02  0.59301938497E+02  0.49999989914E+02 0.  0.
         12    1    1    2    0    0  0.17408799453E+02 -0.13361033821E+02 -0.23133036873E+02  0.31886061503E+02  0.00000000000E+00 0. -1.
         11    1    3    3    0    0 -0.29531965274E+01 -0.10534337399E+02  0.21268899844E+01  0.11145281307E+02  0.51100000000E-03 0. -1.
        -11    1    3    3    0    0 -0.20594848746E+02  0.21012333092E+02  0.26369591963E+02  0.39509762305E+02  0.51100000000E-03 0.  1.
        -12    1    3    3    0    0  0.61392458200E+01  0.28830381277E+01 -0.53634450742E+01  0.86468948848E+01  0.00000000000E+00 0.  1.
</event>
<event>
 7    1  0.4489290E-013  0.5930194E+02  0.7816164E-02  0.1266605E+00
        -11   -1    0    0    0    0  0.00000000000E+00  0.00000000000E+00  0.45593999997E+02  0.45594000000E+02  0.51100000000E-03 0.  1.
         11   -1    0    0    0    0 -0.00000000000E+00 -0.00000000000E+00 -0.45593999997E+02  0.45594000000E+02  0.51100000000E-03 0. -1.
    9900012    2    1    2    0    0 -0.15886410309E+02  0.25009692378E+02 -0.11783808263E+02  0.59301939056E+02  0.49999990933E+02 0.  0.
         12    1    1    2    0    0  0.15886410309E+02 -0.25009692378E+02  0.11783808263E+02  0.31886060944E+02  0.00000000000E+00 0. -1.
         11    1    3    3    0    0  0.34201535937E+01  0.44285883342E+01 -0.19012003245E+02  0.19818327702E+02  0.51100000000E-03 0.  1.
        -11    1    3    3    0    0 -0.22457877862E+02  0.73515891566E+01 -0.88616554449E+00  0.23647144243E+02  0.51100000000E-03 0. -1.
         12    1    3    3    0    0  0.31513139600E+01  0.13229514887E+02  0.81143605264E+01  0.15836467112E+02  0.00000000000E+00 0. -1.
</event>
<event>
 7    1  0.4489290E-013  0.5930209E+02  0.7816164E-02  0.1266604E+00
        -11   -1    0    0    0    0  0.00000000000E+00  0.00000000000E+00  0.45593999997E+02  0.45594000000E+02  0.51100000000E-03 0.  1.
         11   -1    0    0    0    0 -0.00000000000E+00 -0.00000000000E+00 -0.45593999997E+02  0.45594000000E+02  0.51100000000E-03 0. -1.
    9900012    2    1    2    0    0  0.24430461144E+02 -0.99631350782E+01  0.17905307297E+02  0.59302085842E+02  0.50000258635E+02 0.  0.
         12    1    1    2    0    0 -0.24430461144E+02  0.99631350782E+01 -0.17905307297E+02  0.31885914158E+02  0.00000000000E+00 0. -1.
         11    1    3    3    0    0  0.12615507704E+02  0.59943844445E+01 -0.12872705501E+02  0.18994478847E+02  0.51100000000E-03 0. -1.
        -11    1    3    3    0    0  0.99263860035E+01 -0.34382382658E+01  0.23409656002E+02  0.25658655769E+02  0.51100000000E-03 0.  1.
         12    1    3    3    0    0  0.18885674361E+01 -0.12519281257E+02  0.73683567955E+01  0.14648951226E+02  0.00000000000E+00 0. -1.
</event>
<event>
 7    1  0.4489290E-013  0.5930196E+02  0.7816164E-02  0.1266605E+00
        -11   -1    0    0    0    0  0.00000000000E+00  0.00000000000E+00  0.45593999997E+02  0.45594000000E+02  0.51100000000E-03 0. -1.
         11   -1    0    0    0    0 -0.00000000000E+00 -0.00000000000E+00 -0.45593999997E+02  0.45594000000E+02  0.51100000000E-03 0.  1.
    9900012    2    1    2    0    0  0.13831035897E+02 -0.23296544621E+02  0.16813473710E+02  0.59301961621E+02  0.50000032087E+02 0.  0.
         12    1    1    2    0    0 -0.13831035897E+02  0.23296544621E+02 -0.16813473710E+02  0.31886038379E+02  0.00000000000E+00 0. -1.
         11    1    3    3    0    0 -0.53341481386E+01 -0.96321791754E+01  0.36599140817E+01  0.11602886855E+02  0.51100000000E-03 0. -1.
        -11    1    3    3    0    0  0.24386012585E+02 -0.22645912585E+02  0.16002389007E+02  0.36926838760E+02  0.51100000000E-03 0.  1.
        -12    1    3    3    0    0 -0.52208285492E+01  0.89815471393E+01 -0.28488293781E+01  0.10772236007E+02  0.00000000000E+00 0.  1.
</event>
<event>
 7    1  0.4489290E-013  0.5930193E+02  0.7816164E-02  0.1266605E+00
        -11   -1    0    0    0    0  0.00000000000E+00  0.00000000000E+00  0.45593999997E+02  0.45594000000E+02  0.51100000000E-03 0.  1.
         11   -1    0    0    0    0 -0.00000000000E+00 -0.00000000000E+00 -0.45593999997E+02  0.45594000000E+02  0.51100000000E-03 0. -1.
    9900012    2    1    2    0    0  0.19459019880E+02  0.25233579572E+02 -0.11550956580E+01  0.59301933471E+02  0.49999980747E+02 0.  0.
         12    1    1    2    0    0 -0.19459019880E+02 -0.25233579572E+02  0.11550956580E+01  0.31886066529E+02  0.00000000000E+00 0. -1.
         11    1    3    3    0    0 -0.11372147948E+02  0.20370399158E+02 -0.82730910852E+01  0.24753241145E+02  0.51100000000E-03 0. -1.
        -11    1    3    3    0    0  0.11625704492E+02  0.78431299640E+01  0.54363594829E+01  0.15040801084E+02  0.51100000000E-03 0.  1.
         12    1    3    3    0    0  0.19205463336E+02 -0.29799495496E+01  0.16816359443E+01  0.19507891242E+02  0.00000000000E+00 0. -1.
</event>
<event>
 7    1  0.4489290E-013  0.5930196E+02  0.7816164E-02  0.1266605E+00
        -11   -1    0    0    0    0  0.00000000000E+00  0.00000000000E+00  0.45593999997E+02  0.45594000000E+02  0.51100000000E-03 0. -1.
         11   -1    0    0    0    0 -0.00000000000E+00 -0.00000000000E+00 -0.45593999997E+02  0.45594000000E+02  0.51100000000E-03 0.  1.
    9900012    2    1    2    0    0  0.79657026325E+01  0.30874928879E+02 -0.78586330045E-01  0.59301955599E+02  0.50000021104E+02 0.  0.
         12    1    1    2    0    0 -0.79657026325E+01 -0.30874928879E+02  0.78586330045E-01  0.31886044401E+02  0.00000000000E+00 0. -1.
         11    1    3    3    0    0 -0.13233049712E+02  0.13386353986E+02 -0.42482774353E+01  0.19296526608E+02  0.51100000000E-03 0. -1.
        -11    1    3    3    0    0  0.18353574355E+02  0.69491428836E+01  0.14944073483E+02  0.24667176793E+02  0.51100000000E-03 0.  1.
        -12    1    3    3    0    0  0.28451779895E+01  0.10539432009E+02 -0.10774382378E+02  0.15338252198E+02  0.00000000000E+00 0.  1.
</event>
<event>
 7    1  0.4489290E-013  0.5930194E+02  0.7816164E-02  0.1266605E+00
        -11   -1    0    0    0    0  0.00000000000E+00  0.00000000000E+00  0.45593999997E+02  0.45594000000E+02  0.51100000000E-03 0. -1.
         11   -1    0    0    0    0 -0.00000000000E+00 -0.00000000000E+00 -0.45593999997E+02  0.45594000000E+02  0.51100000000E-03 0.  1.
    9900012    2    1    2    0    0  0.31512045159E+02  0.37146375996E+00  0.48552715140E+01  0.59301942908E+02  0.49999997958E+02 0.  0.
         12    1    1    2    0    0 -0.31512045159E+02 -0.37146375996E+00 -0.48552715140E+01  0.31886057092E+02  0.00000000000E+00 0. -1.
         11    1    3    3    0    0  0.20944485544E+01  0.28461029826E+01  0.43970411389E+01  0.56410094817E+01  0.51100000000E-03 0. -1.
        -11    1    3    3    0    0  0.25964192310E+02 -0.16698063754E+02 -0.13262763226E+02  0.33598593782E+02  0.51100000000E-03 0.  1.
        -12    1    3    3    0    0  0.34534042939E+01  0.14223424531E+02  0.13720993601E+02  0.20062339644E+02  0.00000000000E+00 0.  1.
</event>
<event>
 7    1  0.4489290E-013  0.5930194E+02  0.7816164E-02  0.1266605E+00
        -11   -1    0    0    0    0  0.00000000000E+00  0.00000000000E+00  0.45593999997E+02  0.45594000000E+02  0.51100000000E-03 0. -1.
         11   -1    0    0    0    0 -0.00000000000E+00 -0.00000000000E+00 -0.45593999997E+02  0.45594000000E+02  0.51100000000E-03 0.  1.
    9900012    2    1    2    0    0  0.15779476058E+02 -0.89024111132E+01 -0.26238821496E+02  0.59301944399E+02  0.50000000677E+02 0.  0.
         12    1    1    2    0    0 -0.15779476058E+02  0.89024111132E+01  0.26238821496E+02  0.31886055601E+02  0.00000000000E+00 0. -1.
         11    1    3    3    0    0  0.17251614083E+02 -0.24177297966E+02 -0.25221732603E+02  0.38965314334E+02  0.51100000000E-03 0. -1.
        -11    1    3    3    0    0 -0.18132103756E+01  0.16210243739E+02 -0.43308877334E+01  0.16876502089E+02  0.51100000000E-03 0.  1.
         12    1    3    3    0    0  0.34107235099E+00 -0.93535688573E+00  0.33137988403E+01  0.34601279754E+01  0.00000000000E+00 0. -1.
</event>
<event>
 7    1  0.4489290E-013  0.5930195E+02  0.7816164E-02  0.1266605E+00
        -11   -1    0    0    0    0  0.00000000000E+00  0.00000000000E+00  0.45593999997E+02  0.45594000000E+02  0.51100000000E-03 0.  1.
         11   -1    0    0    0    0 -0.00000000000E+00 -0.00000000000E+00 -0.45593999997E+02  0.45594000000E+02  0.51100000000E-03 0. -1.
    9900012    2    1    2    0    0 -0.18855690231E+02  0.19522037527E+02  0.16735379375E+02  0.59301954054E+02  0.50000018285E+02 0.  0.
         12    1    1    2    0    0  0.18855690231E+02 -0.19522037527E+02 -0.16735379375E+02  0.31886045946E+02  0.00000000000E+00 0. -1.
         11    1    3    3    0    0 -0.43549673180E+01  0.13072284864E+02  0.49271654830E+01  0.14633090305E+02  0.51100000000E-03 0. -1.
        -11    1    3    3    0    0 -0.55382594784E+01 -0.75915066547E+00 -0.14724753809E+02  0.15750142944E+02  0.51100000000E-03 0.  1.
        -12    1    3    3    0    0 -0.89624634343E+01  0.72089033277E+01  0.26532967700E+02  0.28918720805E+02  0.00000000000E+00 0.  1.
</event>
<event>
 7    1  0.4489290E-013  0.5930198E+02  0.7816164E-02  0.1266605E+00
        -11   -1    0    0    0    0  0.00000000000E+00  0.00000000000E+00  0.45593999997E+02  0.45594000000E+02  0.51100000000E-03 0. -1.
         11   -1    0    0    0    0 -0.00000000000E+00 -0.00000000000E+00 -0.45593999997E+02  0.45594000000E+02  0.51100000000E-03 0.  1.
    9900012    2    1    2    0    0  0.23966852745E+02  0.10423889494E+02 -0.18266106223E+02  0.59301982073E+02  0.50000069386E+02 0.  0.
         12    1    1    2    0    0 -0.23966852745E+02 -0.10423889494E+02  0.18266106223E+02  0.31886017927E+02  0.00000000000E+00 0. -1.
         11    1    3    3    0    0  0.26209468009E+02 -0.43814990375E+01 -0.15615388346E+01  0.26619018594E+02  0.51100000000E-03 0. -1.
        -11    1    3    3    0    0  0.38928741345E+01  0.13087084104E+02 -0.20964348168E+02  0.25018595759E+02  0.51100000000E-03 0.  1.
         12    1    3    3    0    0 -0.61354893985E+01  0.17183044275E+01  0.42597807794E+01  0.76643677203E+01  0.00000000000E+00 0. -1.
</event>
<event>
 7    1  0.4489290E-013  0.5930194E+02  0.7816164E-02  0.1266605E+00
        -11   -1    0    0    0    0  0.00000000000E+00  0.00000000000E+00  0.45593999997E+02  0.45594000000E+02  0.51100000000E-03 0. -1.
         11   -1    0    0    0    0 -0.00000000000E+00 -0.00000000000E+00 -0.45593999997E+02  0.45594000000E+02  0.51100000000E-03 0.  1.
    9900012    2    1    2    0    0  0.20941189533E+02  0.22157612431E+02 -0.93395615296E+01  0.59301943216E+02  0.49999998519E+02 0.  0.
         12    1    1    2    0    0 -0.20941189533E+02 -0.22157612431E+02  0.93395615296E+01  0.31886056784E+02  0.00000000000E+00 0. -1.
         11    1    3    3    0    0  0.69441469060E+01  0.23305680516E+02 -0.65911791583E+01  0.25195625881E+02  0.51100000000E-03 0.  1.
        -11    1    3    3    0    0  0.21834478996E+02 -0.18584279341E+01  0.56162391474E+01  0.22621679200E+02  0.51100000000E-03 0. -1.
         12    1    3    3    0    0 -0.78374363686E+01  0.71035984907E+00 -0.83646215188E+01  0.11484638135E+02  0.00000000000E+00 0. -1.
</event>
<event>
 7    1  0.4489290E-013  0.5930195E+02  0.7816164E-02  0.1266605E+00
        -11   -1    0    0    0    0  0.00000000000E+00  0.00000000000E+00  0.45593999997E+02  0.45594000000E+02  0.51100000000E-03 0. -1.
         11   -1    0    0    0    0 -0.00000000000E+00 -0.00000000000E+00 -0.45593999997E+02  0.45594000000E+02  0.51100000000E-03 0.  1.
    9900012    2    1    2    0    0  0.20628529696E+02  0.91597679788E+01 -0.22522932164E+02  0.59301951952E+02  0.50000014451E+02 0.  0.
         12    1    1    2    0    0 -0.20628529696E+02 -0.91597679788E+01  0.22522932164E+02  0.31886048048E+02  0.00000000000E+00 0. -1.
         11    1    3    3    0    0  0.45238157973E+01  0.78395208639E+00  0.63541878209E+01  0.78393362835E+01  0.51100000000E-03 0. -1.
        -11    1    3    3    0    0  0.11276140369E+02 -0.50747493541E+01 -0.34079997758E+02  0.36253974542E+02  0.51100000000E-03 0.  1.
        -12    1    3    3    0    0  0.48285735303E+01  0.13450565247E+02  0.52028777730E+01  0.15208641126E+02  0.00000000000E+00 0.  1.
</event>
<event>
 7    1  0.4489290E-013  0.5930195E+02  0.7816164E-02  0.1266605E+00
        -11   -1    0    0    0    0  0.00000000000E+00  0.00000000000E+00  0.45593999997E+02  0.45594000000E+02  0.51100000000E-03 0. -1.
         11   -1    0    0    0    0 -0.00000000000E+00 -0.00000000000E+00 -0.45593999997E+02  0.45594000000E+02  0.51100000000E-03 0.  1.
    9900012    2    1    2    0    0 -0.24462459272E+01 -0.30476966875E+02 -0.90493551307E+01  0.59301945724E+02  0.50000003094E+02 0.  0.
         12    1    1    2    0    0  0.24462459272E+01  0.30476966875E+02  0.90493551307E+01  0.31886054276E+02  0.00000000000E+00 0. -1.
         11    1    3    3    0    0  0.12499385772E+02  0.83818946661E+01 -0.34986555033E+01  0.15450935035E+02  0.51100000000E-03 0. -1.
        -11    1    3    3    0    0 -0.19247092762E+01 -0.22523872051E+02 -0.26404643089E+01  0.22759643450E+02  0.51100000000E-03 0.  1.
         12    1    3    3    0    0 -0.13020922423E+02 -0.16334989490E+02 -0.29102353185E+01  0.21091367239E+02  0.00000000000E+00 0. -1.
</event>
<event>
 7    1  0.4489290E-013  0.5930194E+02  0.7816164E-02  0.1266605E+00
        -11   -1    0    0    0    0  0.00000000000E+00  0.00000000000E+00  0.45593999997E+02  0.45594000000E+02  0.51100000000E-03 0.  1.
         11   -1    0    0    0    0 -0.00000000000E+00 -0.00000000000E+00 -0.45593999997E+02  0.45594000000E+02  0.51100000000E-03 0. -1.
    9900012    2    1    2    0    0  0.15600838189E+02 -0.27546074869E+02  0.38142049624E+01  0.59301944233E+02  0.50000000375E+02 0.  0.
         12    1    1    2    0    0 -0.15600838189E+02  0.27546074869E+02 -0.38142049624E+01  0.31886055767E+02  0.00000000000E+00 0. -1.
         11    1    3    3    0    0  0.12970092702E+02 -0.89633716265E+00 -0.23896767141E+01  0.13218822946E+02  0.51100000000E-03 0. -1.
        -11    1    3    3    0    0  0.79006395520E+01 -0.34197805271E+02  0.21213239841E+00  0.35099216389E+02  0.51100000000E-03 0.  1.
        -12    1    3    3    0    0 -0.52698940654E+01  0.75480675649E+01  0.59917492781E+01  0.10983904899E+02  0.00000000000E+00 0.  1.
</event>
<event>
 7    1  0.4489290E-013  0.5930191E+02  0.7816164E-02  0.1266605E+00
        -11   -1    0    0    0    0  0.00000000000E+00  0.00000000000E+00  0.45593999997E+02  0.45594000000E+02  0.51100000000E-03 0. -1.
         11   -1    0    0    0    0 -0.00000000000E+00 -0.00000000000E+00 -0.45593999997E+02  0.45594000000E+02  0.51100000000E-03 0.  1.
    9900012    2    1    2    0    0  0.25000047206E+02  0.12205800789E+02 -0.15580086843E+02  0.59301905237E+02  0.49999929255E+02 0.  0.
         12    1    1    2    0    0 -0.25000047206E+02 -0.12205800789E+02  0.15580086843E+02  0.31886094763E+02  0.00000000000E+00 0. -1.
         11    1    3    3    0    0  0.27579567889E+00  0.19822751944E+02 -0.45275153071E+01  0.20335091664E+02  0.51100000000E-03 0.  1.
        -11    1    3    3    0    0  0.67406817296E+01 -0.16094882370E+02 -0.60118554452E+01  0.18456013514E+02  0.51100000000E-03 0. -1.
        -12    1    3    3    0    0  0.17983569798E+02  0.84779312149E+01 -0.50407160903E+01  0.20510800059E+02  0.00000000000E+00 0.  1.
</event>
<event>
 7    1  0.4489290E-013  0.5930189E+02  0.7816164E-02  0.1266605E+00
        -11   -1    0    0    0    0  0.00000000000E+00  0.00000000000E+00  0.45593999997E+02  0.45594000000E+02  0.51100000000E-03 0. -1.
         11   -1    0    0    0    0 -0.00000000000E+00 -0.00000000000E+00 -0.45593999997E+02  0.45594000000E+02  0.51100000000E-03 0.  1.
    9900012    2    1    2    0    0  0.19752019807E+02 -0.18499901652E+02  0.16862252051E+02  0.59301887164E+02  0.49999896293E+02 0.  0.
         12    1    1    2    0    0 -0.19752019807E+02  0.18499901652E+02 -0.16862252051E+02  0.31886112836E+02  0.00000000000E+00 0. -1.
         11    1    3    3    0    0  0.89913999173E+01  0.11223695822E+02  0.42089150400E+01  0.14984378080E+02  0.51100000000E-03 0. -1.
        -11    1    3    3    0    0  0.71213673487E+01 -0.27018999750E+02 -0.29234179401E+01  0.28094244840E+02  0.51100000000E-03 0.  1.
        -12    1    3    3    0    0  0.36392525411E+01 -0.27045977238E+01  0.15576754951E+02  0.16223264243E+02  0.00000000000E+00 0.  1.
</event>
<event>
 7    1  0.4489290E-013  0.5930202E+02  0.7816164E-02  0.1266604E+00
        -11   -1    0    0    0    0  0.00000000000E+00  0.00000000000E+00  0.45593999997E+02  0.45594000000E+02  0.51100000000E-03 0. -1.
         11   -1    0    0    0    0 -0.00000000000E+00 -0.00000000000E+00 -0.45593999997E+02  0.45594000000E+02  0.51100000000E-03 0.  1.
    9900012    2    1    2    0    0  0.20808203808E+02 -0.18689177102E+02 -0.15311729627E+02  0.59302019529E+02  0.50000137695E+02 0.  0.
         12    1    1    2    0    0 -0.20808203808E+02  0.18689177102E+02  0.15311729627E+02  0.31885980471E+02  0.00000000000E+00 0. -1.
         11    1    3    3    0    0  0.13475477314E+02 -0.28003781661E+02  0.50770517726E+00  0.31081474241E+02  0.51100000000E-03 0.  1.
        -11    1    3    3    0    0 -0.73222191267E+00  0.10169860189E+01 -0.16577208659E+02  0.16624507712E+02  0.51100000000E-03 0. -1.
        -12    1    3    3    0    0  0.80649484066E+01  0.82976185400E+01  0.75777385508E+00  0.11596037575E+02  0.00000000000E+00 0.  1.
</event>
<event>
 7    1  0.4489290E-013  0.5930192E+02  0.7816164E-02  0.1266605E+00
        -11   -1    0    0    0    0  0.00000000000E+00  0.00000000000E+00  0.45593999997E+02  0.45594000000E+02  0.51100000000E-03 0.  1.
         11   -1    0    0    0    0 -0.00000000000E+00 -0.00000000000E+00 -0.45593999997E+02  0.45594000000E+02  0.51100000000E-03 0. -1.
    9900012    2    1    2    0    0  0.35872065223E+01  0.29626404892E+02  0.11230769159E+02  0.59301920070E+02  0.49999956306E+02 0.  0.
         12    1    1    2    0    0 -0.35872065223E+01 -0.29626404892E+02 -0.11230769159E+02  0.31886079930E+02  0.00000000000E+00 0. -1.
         11    1    3    3    0    0 -0.17527223851E+02  0.17048792323E+02  0.57387198055E+01  0.25115688342E+02  0.51100000000E-03 0. -1.
        -11    1    3    3    0    0  0.81985266337E+01  0.17950430757E+02  0.26440656220E+01  0.19910421557E+02  0.51100000000E-03 0.  1.
         12    1    3    3    0    0  0.12915903740E+02 -0.53728181882E+01  0.28479837313E+01  0.14275810171E+02  0.00000000000E+00 0. -1.
</event>
<event>
 7    1  0.4489290E-013  0.5930194E+02  0.7816164E-02  0.1266605E+00
        -11   -1    0    0    0    0  0.00000000000E+00  0.00000000000E+00  0.45593999997E+02  0.45594000000E+02  0.51100000000E-03 0. -1.
         11   -1    0    0    0    0 -0.00000000000E+00 -0.00000000000E+00 -0.45593999997E+02  0.45594000000E+02  0.51100000000E-03 0.  1.
    9900012    2    1    2    0    0  0.22790212039E+02  0.20926574029E+02  0.77075038941E+01  0.59301939070E+02  0.49999990958E+02 0.  0.
         12    1    1    2    0    0 -0.22790212039E+02 -0.20926574029E+02 -0.77075038941E+01  0.31886060930E+02  0.00000000000E+00 0. -1.
         11    1    3    3    0    0 -0.33498248339E+01  0.85033977429E+01  0.14365134083E+02  0.17026044082E+02  0.51100000000E-03 0. -1.
        -11    1    3    3    0    0  0.99221663575E+01  0.14040525241E+02 -0.16003393730E+02  0.23488174587E+02  0.51100000000E-03 0.  1.
         12    1    3    3    0    0  0.16217870516E+02 -0.16173489549E+01  0.93457635409E+01  0.18787720401E+02  0.00000000000E+00 0. -1.
</event>
<event>
 7    1  0.4489290E-013  0.5930195E+02  0.7816164E-02  0.1266605E+00
        -11   -1    0    0    0    0  0.00000000000E+00  0.00000000000E+00  0.45593999997E+02  0.45594000000E+02  0.51100000000E-03 0. -1.
         11   -1    0    0    0    0 -0.00000000000E+00 -0.00000000000E+00 -0.45593999997E+02  0.45594000000E+02  0.51100000000E-03 0.  1.
    9900012    2    1    2    0    0 -0.17832561924E+02 -0.13782514081E+02 -0.22555751927E+02  0.59301954398E+02  0.50000018912E+02 0.  0.
         12    1    1    2    0    0  0.17832561924E+02  0.13782514081E+02  0.22555751927E+02  0.31886045602E+02  0.00000000000E+00 0. -1.
         11    1    3    3    0    0  0.70374401364E+01 -0.91097246154E+01 -0.24256682227E+02  0.26849567579E+02  0.51100000000E-03 0. -1.
        -11    1    3    3    0    0 -0.17096106256E+02  0.69229767208E+01  0.11740086502E+01  0.18481957482E+02  0.51100000000E-03 0.  1.
         12    1    3    3    0    0 -0.77738958043E+01 -0.11595766186E+02  0.52692165022E+00  0.13970429337E+02  0.00000000000E+00 0. -1.
</event>
<event>
 7    1  0.4489290E-013  0.5930194E+02  0.7816164E-02  0.1266605E+00
        -11   -1    0    0    0    0  0.00000000000E+00  0.00000000000E+00  0.45593999997E+02  0.45594000000E+02  0.51100000000E-03 0.  1.
         11   -1    0    0    0    0 -0.00000000000E+00 -0.00000000000E+00 -0.45593999997E+02  0.45594000000E+02  0.51100000000E-03 0. -1.
    9900012    2    1    2    0    0  0.13663902318E+02  0.22750621728E+02 -0.17675633652E+02  0.59301936578E+02  0.49999986413E+02 0.  0.
         12    1    1    2    0    0 -0.13663902318E+02 -0.22750621728E+02  0.17675633652E+02  0.31886063422E+02  0.00000000000E+00 0. -1.
         11    1    3    3    0    0 -0.37531608312E+01  0.14692144675E+02 -0.27279467269E+02  0.31210810084E+02  0.51100000000E-03 0. -1.
        -11    1    3    3    0    0  0.95019824843E+00 -0.21486077204E+01  0.83529358403E+01  0.86770345891E+01  0.51100000000E-03 0.  1.
         12    1    3    3    0    0  0.16466864901E+02  0.10207084774E+02  0.12508977764E+01  0.19414091905E+02  0.00000000000E+00 0. -1.
</event>
<event>
 7    1  0.4489290E-013  0.5930195E+02  0.7816164E-02  0.1266605E+00
        -11   -1    0    0    0    0  0.00000000000E+00  0.00000000000E+00  0.45593999997E+02  0.45594000000E+02  0.51100000000E-03 0. -1.
         11   -1    0    0    0    0 -0.00000000000E+00 -0.00000000000E+00 -0.45593999997E+02  0.45594000000E+02  0.51100000000E-03 0.  1.
    9900012    2    1    2    0    0 -0.11400240595E+02  0.80469483970E+01 -0.28670570945E+02  0.59301945016E+02  0.50000001802E+02 0.  0.
         12    1    1    2    0    0  0.11400240595E+02 -0.80469483970E+01  0.28670570945E+02  0.31886054984E+02  0.00000000000E+00 0. -1.
         11    1    3    3    0    0 -0.13384400366E+02  0.76822486847E+01  0.81765131979E+01  0.17464663935E+02  0.51100000000E-03 0. -1.
        -11    1    3    3    0    0  0.30821533298E+01 -0.84974031232E+01 -0.27333184043E+02  0.28789034009E+02  0.51100000000E-03 0.  1.
         12    1    3    3    0    0 -0.10979935584E+01  0.88621028356E+01 -0.95139001002E+01  0.13048247072E+02  0.00000000000E+00 0. -1.
</event>
<event>
 7    1  0.4489290E-013  0.5930193E+02  0.7816164E-02  0.1266605E+00
        -11   -1    0    0    0    0  0.00000000000E+00  0.00000000000E+00  0.45593999997E+02  0.45594000000E+02  0.51100000000E-03 0. -1.
         11   -1    0    0    0    0 -0.00000000000E+00 -0.00000000000E+00 -0.45593999997E+02  0.45594000000E+02  0.51100000000E-03 0.  1.
    9900012    2    1    2    0    0 -0.28304120709E+02  0.10557218466E+02 -0.10205050801E+02  0.59301934506E+02  0.49999982634E+02 0.  0.
         12    1    1    2    0    0  0.28304120709E+02 -0.10557218466E+02  0.10205050801E+02  0.31886065494E+02  0.00000000000E+00 0. -1.
         11    1    3    3    0    0 -0.10786324533E+02  0.90019483916E+01  0.46493078194E+01  0.14798511250E+02  0.51100000000E-03 0. -1.
        -11    1    3    3    0    0 -0.12786388230E+02 -0.24346974980E+01 -0.27499780298E+02  0.30424618200E+02  0.51100000000E-03 0.  1.
        -12    1    3    3    0    0 -0.47314079465E+01  0.39899675720E+01  0.12645421678E+02  0.14078805056E+02  0.00000000000E+00 0.  1.
</event>
<event>
 7    1  0.4489290E-013  0.5930188E+02  0.7816164E-02  0.1266605E+00
        -11   -1    0    0    0    0  0.00000000000E+00  0.00000000000E+00  0.45593999997E+02  0.45594000000E+02  0.51100000000E-03 0.  1.
         11   -1    0    0    0    0 -0.00000000000E+00 -0.00000000000E+00 -0.45593999997E+02  0.45594000000E+02  0.51100000000E-03 0. -1.
    9900012    2    1    2    0    0  0.16365121072E+02  0.95244759003E+01  0.25655249846E+02  0.59301879610E+02  0.49999882518E+02 0.  0.
         12    1    1    2    0    0 -0.16365121072E+02 -0.95244759003E+01 -0.25655249846E+02  0.31886120390E+02  0.00000000000E+00 0. -1.
         11    1    3    3    0    0  0.13697890499E+02  0.23870021094E+02  0.19710266632E+01  0.27591575843E+02  0.51100000000E-03 0. -1.
        -11    1    3    3    0    0 -0.28916683719E+01  0.15348993644E+01  0.82593719271E+01  0.88845307655E+01  0.51100000000E-03 0.  1.
         12    1    3    3    0    0  0.55588989452E+01 -0.15880444558E+02  0.15424851255E+02  0.22825773001E+02  0.00000000000E+00 0. -1.
</event>
<event>
 7    1  0.4489290E-013  0.5930192E+02  0.7816164E-02  0.1266605E+00
        -11   -1    0    0    0    0  0.00000000000E+00  0.00000000000E+00  0.45593999997E+02  0.45594000000E+02  0.51100000000E-03 0.  1.
         11   -1    0    0    0    0 -0.00000000000E+00 -0.00000000000E+00 -0.45593999997E+02  0.45594000000E+02  0.51100000000E-03 0. -1.
    9900012    2    1    2    0    0 -0.27940964100E+02 -0.12721129278E+02  0.86137836980E+01  0.59301923501E+02  0.49999962564E+02 0.  0.
         12    1    1    2    0    0  0.27940964100E+02  0.12721129278E+02 -0.86137836980E+01  0.31886076499E+02  0.00000000000E+00 0. -1.
         11    1    3    3    0    0 -0.10233700802E+02 -0.24941693036E+02  0.24534411786E+01  0.27070944895E+02  0.51100000000E-03 0. -1.
        -11    1    3    3    0    0 -0.55783744236E+01  0.14638196958E+02  0.10794144867E+02  0.19023896422E+02  0.51100000000E-03 0.  1.
        -12    1    3    3    0    0 -0.12128888874E+02 -0.24176332000E+01 -0.46338023480E+01  0.13207082184E+02  0.00000000000E+00 0.  1.
</event>
<event>
 7    1  0.4489290E-013  0.5930194E+02  0.7816164E-02  0.1266605E+00
        -11   -1    0    0    0    0  0.00000000000E+00  0.00000000000E+00  0.45593999997E+02  0.45594000000E+02  0.51100000000E-03 0.  1.
         11   -1    0    0    0    0 -0.00000000000E+00 -0.00000000000E+00 -0.45593999997E+02  0.45594000000E+02  0.51100000000E-03 0. -1.
    9900012    2    1    2    0    0  0.14875535311E+02 -0.14937908902E+02  0.23922755956E+02  0.59301938379E+02  0.49999989699E+02 0.  0.
         12    1    1    2    0    0 -0.14875535311E+02  0.14937908902E+02 -0.23922755956E+02  0.31886061621E+02  0.00000000000E+00 0. -1.
         11    1    3    3    0    0 -0.36371145125E+01  0.46521333115E+01 -0.12479646546E+02  0.13806249473E+02  0.51100000000E-03 0. -1.
        -11    1    3    3    0    0  0.41182626770E+01 -0.28141965287E+01  0.47436179765E+01  0.68834367396E+01  0.51100000000E-03 0.  1.
         12    1    3    3    0    0  0.14394387146E+02 -0.16775845685E+02  0.31658784526E+02  0.38612252167E+02  0.00000000000E+00 0. -1.
</event>
<event>
 7    1  0.4489290E-013  0.5930196E+02  0.7816164E-02  0.1266605E+00
        -11   -1    0    0    0    0  0.00000000000E+00  0.00000000000E+00  0.45593999997E+02  0.45594000000E+02  0.51100000000E-03 0.  1.
         11   -1    0    0    0    0 -0.00000000000E+00 -0.00000000000E+00 -0.45593999997E+02  0.45594000000E+02  0.51100000000E-03 0. -1.
    9900012    2    1    2    0    0  0.10521042772E+02  0.28482691478E+02 -0.97346391187E+01  0.59301964599E+02  0.50000037517E+02 0.  0.
         12    1    1    2    0    0 -0.10521042772E+02 -0.28482691478E+02  0.97346391187E+01  0.31886035401E+02  0.00000000000E+00 0. -1.
         11    1    3    3    0    0 -0.16023934452E+02  0.10598309719E+01 -0.73266444862E+00  0.16075649737E+02  0.51100000000E-03 0. -1.
        -11    1    3    3    0    0  0.55704426275E+01  0.10626300848E+02  0.49145384240E+01  0.12965368833E+02  0.51100000000E-03 0.  1.
         12    1    3    3    0    0  0.20974534596E+02  0.16796559658E+02 -0.13916513094E+02  0.30260946029E+02  0.00000000000E+00 0. -1.
</event>
<event>
 7    1  0.4489290E-013  0.5930194E+02  0.7816164E-02  0.1266605E+00
        -11   -1    0    0    0    0  0.00000000000E+00  0.00000000000E+00  0.45593999997E+02  0.45594000000E+02  0.51100000000E-03 0.  1.
         11   -1    0    0    0    0 -0.00000000000E+00 -0.00000000000E+00 -0.45593999997E+02  0.45594000000E+02  0.51100000000E-03 0. -1.
    9900012    2    1    2    0    0  0.13886831866E+01 -0.11103106494E+02  0.29858220327E+02  0.59301941355E+02  0.49999995125E+02 0.  0.
         12    1    1    2    0    0 -0.13886831866E+01  0.11103106494E+02 -0.29858220327E+02  0.31886058645E+02  0.00000000000E+00 0. -1.
         11    1    3    3    0    0  0.11313118032E+02 -0.22472575290E+02  0.17867570754E+01  0.25222921735E+02  0.51100000000E-03 0. -1.
        -11    1    3    3    0    0 -0.11736420960E+02  0.65170762108E+01  0.23965736901E+02  0.27469481334E+02  0.51100000000E-03 0.  1.
         12    1    3    3    0    0  0.18119861147E+01  0.48523925851E+01  0.41057263509E+01  0.66095382855E+01  0.00000000000E+00 0. -1.
</event>
<event>
 7    1  0.4489290E-013  0.5930196E+02  0.7816164E-02  0.1266605E+00
        -11   -1    0    0    0    0  0.00000000000E+00  0.00000000000E+00  0.45593999997E+02  0.45594000000E+02  0.51100000000E-03 0.  1.
         11   -1    0    0    0    0 -0.00000000000E+00 -0.00000000000E+00 -0.45593999997E+02  0.45594000000E+02  0.51100000000E-03 0. -1.
    9900012    2    1    2    0    0 -0.20547237319E+02  0.14792584594E+01  0.24338087029E+02  0.59301958426E+02  0.50000026259E+02 0.  0.
         12    1    1    2    0    0  0.20547237319E+02 -0.14792584594E+01 -0.24338087029E+02  0.31886041574E+02  0.00000000000E+00 0. -1.
         11    1    3    3    0    0 -0.22194997607E+02  0.18145507184E+02  0.17157711768E+02  0.33410543592E+02  0.51100000000E-03 0. -1.
        -11    1    3    3    0    0  0.42022633971E+01 -0.14081180082E+02  0.12606016536E+02  0.19361051194E+02  0.51100000000E-03 0.  1.
         12    1    3    3    0    0 -0.25545031099E+01 -0.25850686420E+01 -0.54256412753E+01  0.65303636400E+01  0.00000000000E+00 0. -1.
</event>
<event>
 7    1  0.4489290E-013  0.5930193E+02  0.7816164E-02  0.1266605E+00
        -11   -1    0    0    0    0  0.00000000000E+00  0.00000000000E+00  0.45593999997E+02  0.45594000000E+02  0.51100000000E-03 0. -1.
         11   -1    0    0    0    0 -0.00000000000E+00 -0.00000000000E+00 -0.45593999997E+02  0.45594000000E+02  0.51100000000E-03 0.  1.
    9900012    2    1    2    0    0 -0.47259505101E-01  0.29883839743E+02  0.11120945469E+02  0.59301928756E+02  0.49999972148E+02 0.  0.
         12    1    1    2    0    0  0.47259505101E-01 -0.29883839743E+02 -0.11120945469E+02  0.31886071244E+02  0.00000000000E+00 0. -1.
         11    1    3    3    0    0 -0.13904115666E+02  0.18385151063E+01  0.57398409400E+01  0.15154218704E+02  0.51100000000E-03 0. -1.
        -11    1    3    3    0    0  0.94659247822E+01  0.26863667518E+02  0.15948328432E+02  0.32643675414E+02  0.51100000000E-03 0.  1.
        -12    1    3    3    0    0  0.43909313788E+01  0.11816571190E+01 -0.10567223903E+02  0.11504034638E+02  0.00000000000E+00 0.  1.
</event>
<event>
 7    1  0.4489290E-013  0.5930193E+02  0.7816164E-02  0.1266605E+00
        -11   -1    0    0    0    0  0.00000000000E+00  0.00000000000E+00  0.45593999997E+02  0.45594000000E+02  0.51100000000E-03 0.  1.
         11   -1    0    0    0    0 -0.00000000000E+00 -0.00000000000E+00 -0.45593999997E+02  0.45594000000E+02  0.51100000000E-03 0. -1.
    9900012    2    1    2    0    0  0.13018985586E+02 -0.15459231825E+02  0.24662519318E+02  0.59301926340E+02  0.49999967742E+02 0.  0.
         12    1    1    2    0    0 -0.13018985586E+02  0.15459231825E+02 -0.24662519318E+02  0.31886073660E+02  0.00000000000E+00 0. -1.
         11    1    3    3    0    0  0.22272689582E+02  0.81033900090E+01  0.15318343385E+00  0.23701499874E+02  0.51100000000E-03 0. -1.
        -11    1    3    3    0    0 -0.28040637697E+01 -0.36722406058E+01  0.25465659237E+01  0.52757106588E+01  0.51100000000E-03 0.  1.
         12    1    3    3    0    0 -0.64496402261E+01 -0.19890381228E+02  0.21962769961E+02  0.30324715807E+02  0.00000000000E+00 0. -1.
</event>
<event>
 7    1  0.4489290E-013  0.5930196E+02  0.7816164E-02  0.1266605E+00
        -11   -1    0    0    0    0  0.00000000000E+00  0.00000000000E+00  0.45593999997E+02  0.45594000000E+02  0.51100000000E-03 0.  1.
         11   -1    0    0    0    0 -0.00000000000E+00 -0.00000000000E+00 -0.45593999997E+02  0.45594000000E+02  0.51100000000E-03 0. -1.
    9900012    2    1    2    0    0 -0.24550762293E+02 -0.14484480483E+02  0.14289146865E+02  0.59301955684E+02  0.50000021258E+02 0.  0.
         12    1    1    2    0    0  0.24550762293E+02  0.14484480483E+02 -0.14289146865E+02  0.31886044316E+02  0.00000000000E+00 0. -1.
         11    1    3    3    0    0 -0.16911593549E+02  0.18783695344E+01 -0.27556004502E+01  0.17237273641E+02  0.51100000000E-03 0. -1.
        -11    1    3    3    0    0 -0.11973258406E+02 -0.72822425055E+01  0.25384488737E+02  0.28995900425E+02  0.51100000000E-03 0.  1.
         12    1    3    3    0    0  0.43340896625E+01 -0.90806075117E+01 -0.83397414222E+01  0.13068781618E+02  0.00000000000E+00 0. -1.
</event>
<event>
 7    1  0.4489290E-013  0.5930194E+02  0.7816164E-02  0.1266605E+00
        -11   -1    0    0    0    0  0.00000000000E+00  0.00000000000E+00  0.45593999997E+02  0.45594000000E+02  0.51100000000E-03 0. -1.
         11   -1    0    0    0    0 -0.00000000000E+00 -0.00000000000E+00 -0.45593999997E+02  0.45594000000E+02  0.51100000000E-03 0.  1.
    9900012    2    1    2    0    0  0.10158570460E+02  0.24458864367E+02 -0.17756363290E+02  0.59301936630E+02  0.49999986509E+02 0.  0.
         12    1    1    2    0    0 -0.10158570460E+02 -0.24458864367E+02  0.17756363290E+02  0.31886063370E+02  0.00000000000E+00 0. -1.
         11    1    3    3    0    0  0.13163157542E+02 -0.12002925118E+02  0.94267279229E+00  0.17838933828E+02  0.51100000000E-03 0. -1.
        -11    1    3    3    0    0 -0.25014217224E+01  0.13706738062E+02 -0.45236502484E+01  0.14649067915E+02  0.51100000000E-03 0.  1.
         12    1    3    3    0    0 -0.50316535918E+00  0.22755051423E+02 -0.14175385834E+02  0.26813934888E+02  0.00000000000E+00 0. -1.
</event>
<event>
 7    1  0.4489290E-013  0.5930197E+02  0.7816164E-02  0.1266605E+00
        -11   -1    0    0    0    0  0.00000000000E+00  0.00000000000E+00  0.45593999997E+02  0.45594000000E+02  0.51100000000E-03 0.  1.
         11   -1    0    0    0    0 -0.00000000000E+00 -0.00000000000E+00 -0.45593999997E+02  0.45594000000E+02  0.51100000000E-03 0. -1.
    9900012    2    1    2    0    0  0.17865504756E+02 -0.20903884954E+01  0.26328181083E+02  0.59301966954E+02  0.50000041812E+02 0.  0.
         12    1    1    2    0    0 -0.17865504756E+02  0.20903884954E+01 -0.26328181083E+02  0.31886033046E+02  0.00000000000E+00 0. -1.
         11    1    3    3    0    0  0.11402351730E+02 -0.24745617988E+01 -0.13117091591E+02  0.17555488405E+02  0.51100000000E-03 0. -1.
        -11    1    3    3    0    0  0.82383633340E+00  0.44632899542E+01  0.56763871782E+01  0.72678081412E+01  0.51100000000E-03 0.  1.
         12    1    3    3    0    0  0.56393166929E+01 -0.40791166508E+01  0.33768885496E+02  0.34478670408E+02  0.00000000000E+00 0. -1.
</event>
<event>
 7    1  0.4489290E-013  0.5930194E+02  0.7816164E-02  0.1266605E+00
        -11   -1    0    0    0    0  0.00000000000E+00  0.00000000000E+00  0.45593999997E+02  0.45594000000E+02  0.51100000000E-03 0. -1.
         11   -1    0    0    0    0 -0.00000000000E+00 -0.00000000000E+00 -0.45593999997E+02  0.45594000000E+02  0.51100000000E-03 0.  1.
    9900012    2    1    2    0    0  0.21497076775E+02  0.16694250184E+02  0.16610189169E+02  0.59301942181E+02  0.49999996631E+02 0.  0.
         12    1    1    2    0    0 -0.21497076775E+02 -0.16694250184E+02 -0.16610189169E+02  0.31886057819E+02  0.00000000000E+00 0. -1.
         11    1    3    3    0    0 -0.12002992449E+01  0.21029864733E+01  0.16797163338E+01  0.29469844939E+01  0.51100000000E-03 0. -1.
        -11    1    3    3    0    0  0.30010787410E+02  0.25791112789E+02  0.54146165520E+01  0.39939290586E+02  0.51100000000E-03 0.  1.
        -12    1    3    3    0    0 -0.73134113909E+01 -0.11199849078E+02  0.95158562828E+01  0.16415667100E+02  0.00000000000E+00 0.  1.
</event>
<event>
 7    1  0.4489290E-013  0.5930195E+02  0.7816164E-02  0.1266605E+00
        -11   -1    0    0    0    0  0.00000000000E+00  0.00000000000E+00  0.45593999997E+02  0.45594000000E+02  0.51100000000E-03 0.  1.
         11   -1    0    0    0    0 -0.00000000000E+00 -0.00000000000E+00 -0.45593999997E+02  0.45594000000E+02  0.51100000000E-03 0. -1.
    9900012    2    1    2    0    0  0.10856814132E+01  0.18769629701E+02  0.25753500702E+02  0.59301945029E+02  0.50000001826E+02 0.  0.
         12    1    1    2    0    0 -0.10856814132E+01 -0.18769629701E+02 -0.25753500702E+02  0.31886054971E+02  0.00000000000E+00 0. -1.
         11    1    3    3    0    0 -0.21233390431E+02  0.10862047139E+02  0.17543989077E+02  0.29607980179E+02  0.51100000000E-03 0. -1.
        -11    1    3    3    0    0  0.12734974993E+02  0.12135214095E+02  0.77114831551E+01  0.19207029492E+02  0.51100000000E-03 0.  1.
        -12    1    3    3    0    0  0.95840968518E+01 -0.42276315335E+01  0.49802846974E+00  0.10486935358E+02  0.00000000000E+00 0.  1.
</event>
<event>
 7    1  0.4489290E-013  0.5930191E+02  0.7816164E-02  0.1266605E+00
        -11   -1    0    0    0    0  0.00000000000E+00  0.00000000000E+00  0.45593999997E+02  0.45594000000E+02  0.51100000000E-03 0. -1.
         11   -1    0    0    0    0 -0.00000000000E+00 -0.00000000000E+00 -0.45593999997E+02  0.45594000000E+02  0.51100000000E-03 0.  1.
    9900012    2    1    2    0    0  0.37883427274E+01 -0.27481848792E+02 -0.15720019054E+02  0.59301912866E+02  0.49999943169E+02 0.  0.
         12    1    1    2    0    0 -0.37883427274E+01  0.27481848792E+02  0.15720019054E+02  0.31886087134E+02  0.00000000000E+00 0. -1.
         11    1    3    3    0    0 -0.13028477022E+02 -0.23420551091E+02  0.50902219970E+01  0.27279548881E+02  0.51100000000E-03 0. -1.
        -11    1    3    3    0    0  0.13463864279E+02 -0.92810655155E+01 -0.89604832942E+01  0.18646824918E+02  0.51100000000E-03 0.  1.
         12    1    3    3    0    0  0.33529554703E+01  0.52197678147E+01 -0.11849757757E+02  0.13375539067E+02  0.00000000000E+00 0. -1.
</event>
<event>
 7    1  0.4489290E-013  0.5930216E+02  0.7816164E-02  0.1266604E+00
        -11   -1    0    0    0    0  0.00000000000E+00  0.00000000000E+00  0.45593999997E+02  0.45594000000E+02  0.51100000000E-03 0.  1.
         11   -1    0    0    0    0 -0.00000000000E+00 -0.00000000000E+00 -0.45593999997E+02  0.45594000000E+02  0.51100000000E-03 0. -1.
    9900012    2    1    2    0    0  0.24706477818E+01 -0.31776542297E+02 -0.92428448255E+00  0.59302156078E+02  0.50000386728E+02 0.  0.
         12    1    1    2    0    0 -0.24706477818E+01  0.31776542297E+02  0.92428448255E+00  0.31885843922E+02  0.00000000000E+00 0. -1.
         11    1    3    3    0    0  0.73040058260E+01  0.11652858774E+02 -0.23678895629E+01  0.13955089393E+02  0.51100000000E-03 0. -1.
        -11    1    3    3    0    0  0.15977131260E+01 -0.37814155472E+01  0.31041174808E+01  0.51465849230E+01  0.51100000000E-03 0.  1.
         12    1    3    3    0    0 -0.64310711702E+01 -0.39647985524E+02 -0.16605124005E+01  0.40200481762E+02  0.00000000000E+00 0. -1.
</event>
<event>
 7    1  0.4489290E-013  0.5930201E+02  0.7816164E-02  0.1266605E+00
        -11   -1    0    0    0    0  0.00000000000E+00  0.00000000000E+00  0.45593999997E+02  0.45594000000E+02  0.51100000000E-03 0. -1.
         11   -1    0    0    0    0 -0.00000000000E+00 -0.00000000000E+00 -0.45593999997E+02  0.45594000000E+02  0.51100000000E-03 0.  1.
    9900012    2    1    2    0    0 -0.41744350038E+01 -0.24702235087E+02 -0.19725364045E+02  0.59302010716E+02  0.50000121624E+02 0.  0.
         12    1    1    2    0    0  0.41744350038E+01  0.24702235087E+02  0.19725364045E+02  0.31885989284E+02  0.00000000000E+00 0. -1.
         11    1    3    3    0    0  0.17642388934E+02 -0.18307492603E+02 -0.21285789565E+02  0.33158754656E+02  0.51100000000E-03 0. -1.
        -11    1    3    3    0    0 -0.51490952800E+01  0.23115454918E+01 -0.35359685684E+01  0.66602926918E+01  0.51100000000E-03 0.  1.
         12    1    3    3    0    0 -0.16667728658E+02 -0.87062879760E+01  0.50963940879E+01  0.19482963369E+02  0.00000000000E+00 0. -1.
</event>
<event>
 7    1  0.4489290E-013  0.5930196E+02  0.7816164E-02  0.1266605E+00
        -11   -1    0    0    0    0  0.00000000000E+00  0.00000000000E+00  0.45593999997E+02  0.45594000000E+02  0.51100000000E-03 0.  1.
         11   -1    0    0    0    0 -0.00000000000E+00 -0.00000000000E+00 -0.45593999997E+02  0.45594000000E+02  0.51100000000E-03 0. -1.
    9900012    2    1    2    0    0  0.29175792867E+02  0.84065591640E+01  0.97376955912E+01  0.59301955375E+02  0.50000020695E+02 0.  0.
         12    1    1    2    0    0 -0.29175792867E+02 -0.84065591640E+01 -0.97376955912E+01  0.31886044625E+02  0.00000000000E+00 0. -1.
         11    1    3    3    0    0 -0.36224840105E+01  0.11105840213E+02  0.20721661517E+01  0.11864061280E+02  0.51100000000E-03 0. -1.
        -11    1    3    3    0    0  0.39330408519E+02  0.17304435645E+00  0.85444549704E+01  0.40248213496E+02  0.51100000000E-03 0.  1.
        -12    1    3    3    0    0 -0.65321316418E+01 -0.28723254053E+01 -0.87892553093E+00  0.71896805985E+01  0.00000000000E+00 0.  1.
</event>
<event>
 7    1  0.4489290E-013  0.5930198E+02  0.7816164E-02  0.1266605E+00
        -11   -1    0    0    0    0  0.00000000000E+00  0.00000000000E+00  0.45593999997E+02  0.45594000000E+02  0.51100000000E-03 0.  1.
         11   -1    0    0    0    0 -0.00000000000E+00 -0.00000000000E+00 -0.45593999997E+02  0.45594000000E+02  0.51100000000E-03 0. -1.
    9900012    2    1    2    0    0 -0.17718051860E+02 -0.88295491969E+01  0.24996557035E+02  0.59301981680E+02  0.50000068669E+02 0.  0.
         12    1    1    2    0    0  0.17718051860E+02  0.88295491969E+01 -0.24996557035E+02  0.31886018320E+02  0.00000000000E+00 0. -1.
         11    1    3    3    0    0 -0.11775076312E+01 -0.95543187806E+00 -0.71702573272E+01  0.73288447040E+01  0.51100000000E-03 0. -1.
        -11    1    3    3    0    0 -0.12391976780E+02 -0.14924910600E+01  0.39487055462E+02  0.41412753680E+02  0.51100000000E-03 0.  1.
        -12    1    3    3    0    0 -0.41485674486E+01 -0.63816262589E+01 -0.73202411003E+01  0.10560383296E+02  0.00000000000E+00 0.  1.
</event>
<event>
 7    1  0.4489290E-013  0.5930194E+02  0.7816164E-02  0.1266605E+00
        -11   -1    0    0    0    0  0.00000000000E+00  0.00000000000E+00  0.45593999997E+02  0.45594000000E+02  0.51100000000E-03 0.  1.
         11   -1    0    0    0    0 -0.00000000000E+00 -0.00000000000E+00 -0.45593999997E+02  0.45594000000E+02  0.51100000000E-03 0. -1.
    9900012    2    1    2    0    0  0.38301696391E+01 -0.28161513769E+02  0.14456129717E+02  0.59301941235E+02  0.49999994906E+02 0.  0.
         12    1    1    2    0    0 -0.38301696391E+01  0.28161513769E+02 -0.14456129717E+02  0.31886058765E+02  0.00000000000E+00 0. -1.
         11    1    3    3    0    0  0.16369291875E+02 -0.18255778140E+01 -0.82556995378E+01  0.18423979645E+02  0.51100000000E-03 0. -1.
        -11    1    3    3    0    0 -0.24028533438E+01 -0.15159952352E+02  0.20529263215E+02  0.25632957455E+02  0.51100000000E-03 0.  1.
         12    1    3    3    0    0 -0.10136268892E+02 -0.11175983603E+02  0.21825660397E+01  0.15245004134E+02  0.00000000000E+00 0. -1.
</event>
<event>
 7    1  0.4489290E-013  0.5930196E+02  0.7816164E-02  0.1266605E+00
        -11   -1    0    0    0    0  0.00000000000E+00  0.00000000000E+00  0.45593999997E+02  0.45594000000E+02  0.51100000000E-03 0. -1.
         11   -1    0    0    0    0 -0.00000000000E+00 -0.00000000000E+00 -0.45593999997E+02  0.45594000000E+02  0.51100000000E-03 0.  1.
    9900012    2    1    2    0    0  0.64677873412E+01  0.30140515452E+02 -0.81508699359E+01  0.59301958767E+02  0.50000026882E+02 0.  0.
         12    1    1    2    0    0 -0.64677873412E+01 -0.30140515452E+02  0.81508699359E+01  0.31886041233E+02  0.00000000000E+00 0. -1.
         11    1    3    3    0    0 -0.47128439611E+00 -0.11537379494E+02  0.19529744996E+01  0.11710992453E+02  0.51100000000E-03 0. -1.
        -11    1    3    3    0    0  0.12713494089E+02  0.23375469397E+02 -0.17701568980E+01  0.26667938750E+02  0.51100000000E-03 0.  1.
        -12    1    3    3    0    0 -0.57744223520E+01  0.18302425549E+02 -0.83336875374E+01  0.20923027564E+02  0.00000000000E+00 0.  1.
</event>
<event>
 7    1  0.4489290E-013  0.5930195E+02  0.7816164E-02  0.1266605E+00
        -11   -1    0    0    0    0  0.00000000000E+00  0.00000000000E+00  0.45593999997E+02  0.45594000000E+02  0.51100000000E-03 0.  1.
         11   -1    0    0    0    0 -0.00000000000E+00 -0.00000000000E+00 -0.45593999997E+02  0.45594000000E+02  0.51100000000E-03 0. -1.
    9900012    2    1    2    0    0 -0.79116597127E+01 -0.22293083207E+02  0.21380937300E+02  0.59301946652E+02  0.50000004786E+02 0.  0.
         12    1    1    2    0    0  0.79116597127E+01  0.22293083207E+02 -0.21380937300E+02  0.31886053348E+02  0.00000000000E+00 0. -1.
         11    1    3    3    0    0  0.76887052894E+00  0.10585222783E+02  0.17093730558E+02  0.20120480310E+02  0.51100000000E-03 0. -1.
        -11    1    3    3    0    0 -0.89735161245E+01 -0.11177547321E+02  0.90639526662E+01  0.16959268674E+02  0.51100000000E-03 0.  1.
         12    1    3    3    0    0  0.29298588290E+00 -0.21700758670E+02 -0.47767459239E+01  0.22222197668E+02  0.00000000000E+00 0. -1.
</event>
<event>
 7    1  0.4489290E-013  0.5930197E+02  0.7816164E-02  0.1266605E+00
        -11   -1    0    0    0    0  0.00000000000E+00  0.00000000000E+00  0.45593999997E+02  0.45594000000E+02  0.51100000000E-03 0.  1.
         11   -1    0    0    0    0 -0.00000000000E+00 -0.00000000000E+00 -0.45593999997E+02  0.45594000000E+02  0.51100000000E-03 0. -1.
    9900012    2    1    2    0    0  0.54991777424E+01 -0.23255393772E+02  0.21110776830E+02  0.59301965538E+02  0.50000039230E+02 0.  0.
         12    1    1    2    0    0 -0.54991777424E+01  0.23255393772E+02 -0.21110776830E+02  0.31886034462E+02  0.00000000000E+00 0. -1.
         11    1    3    3    0    0 -0.15645520689E+02 -0.18910457435E+02  0.23521074686E+02  0.33994538866E+02  0.51100000000E-03 0. -1.
        -11    1    3    3    0    0  0.10933403200E+02 -0.36637562988E+01  0.51049591646E+01  0.12610433144E+02  0.51100000000E-03 0.  1.
         12    1    3    3    0    0  0.10211295232E+02 -0.68118003812E+00 -0.75152570210E+01  0.12696993528E+02  0.00000000000E+00 0. -1.
</event>
<event>
 7    1  0.4489290E-013  0.5930195E+02  0.7816164E-02  0.1266605E+00
        -11   -1    0    0    0    0  0.00000000000E+00  0.00000000000E+00  0.45593999997E+02  0.45594000000E+02  0.51100000000E-03 0. -1.
         11   -1    0    0    0    0 -0.00000000000E+00 -0.00000000000E+00 -0.45593999997E+02  0.45594000000E+02  0.51100000000E-03 0.  1.
    9900012    2    1    2    0    0 -0.28878891432E+02 -0.20761957858E+01 -0.13357372074E+02  0.59301947438E+02  0.50000006219E+02 0.  0.
         12    1    1    2    0    0  0.28878891432E+02  0.20761957858E+01  0.13357372074E+02  0.31886052562E+02  0.00000000000E+00 0. -1.
         11    1    3    3    0    0 -0.68692099065E+01  0.14783507092E+02  0.99451731487E+01  0.19095669559E+02  0.51100000000E-03 0. -1.
        -11    1    3    3    0    0 -0.14500332654E+02 -0.22622129730E+00 -0.10876115540E+02  0.18127347094E+02  0.51100000000E-03 0.  1.
         12    1    3    3    0    0 -0.75093488711E+01 -0.16633481580E+02 -0.12426429683E+02  0.22078930785E+02  0.00000000000E+00 0. -1.
</event>
<event>
 7    1  0.4489290E-013  0.5930196E+02  0.7816164E-02  0.1266605E+00
        -11   -1    0    0    0    0  0.00000000000E+00  0.00000000000E+00  0.45593999997E+02  0.45594000000E+02  0.51100000000E-03 0.  1.
         11   -1    0    0    0    0 -0.00000000000E+00 -0.00000000000E+00 -0.45593999997E+02  0.45594000000E+02  0.51100000000E-03 0. -1.
    9900012    2    1    2    0    0  0.28995722233E+02 -0.71369686951E+01  0.11181753189E+02  0.59301955492E+02  0.50000020908E+02 0.  0.
         12    1    1    2    0    0 -0.28995722233E+02  0.71369686951E+01 -0.11181753189E+02  0.31886044508E+02  0.00000000000E+00 0. -1.
         11    1    3    3    0    0  0.88315697119E+01  0.15575315356E+02 -0.44010944728E+01  0.18437914873E+02  0.51100000000E-03 0. -1.
        -11    1    3    3    0    0 -0.20928604999E+01 -0.38375087624E+01  0.10324053519E+02  0.11211272002E+02  0.51100000000E-03 0.  1.
        -12    1    3    3    0    0  0.22257013021E+02 -0.18874775289E+02  0.52587941420E+01  0.29652768617E+02  0.00000000000E+00 0.  1.
</event>
<event>
 7    1  0.4489290E-013  0.5930162E+02  0.7816164E-02  0.1266606E+00
        -11   -1    0    0    0    0  0.00000000000E+00  0.00000000000E+00  0.45593999997E+02  0.45594000000E+02  0.51100000000E-03 0. -1.
         11   -1    0    0    0    0 -0.00000000000E+00 -0.00000000000E+00 -0.45593999997E+02  0.45594000000E+02  0.51100000000E-03 0.  1.
    9900012    2    1    2    0    0 -0.25940665635E+02 -0.18301590968E+02 -0.29790691968E+01  0.59301620168E+02  0.49999409353E+02 0.  0.
         12    1    1    2    0    0  0.25940665635E+02  0.18301590968E+02  0.29790691968E+01  0.31886379832E+02  0.00000000000E+00 0. -1.
         11    1    3    3    0    0 -0.31878108891E+02 -0.14392364844E+02 -0.16428127213E+00  0.34976863508E+02  0.51100000000E-03 0. -1.
        -11    1    3    3    0    0  0.20997782305E+01 -0.13410611763E+02  0.41595885600E+00  0.13580375492E+02  0.51100000000E-03 0.  1.
         12    1    3    3    0    0  0.38376650253E+01  0.95013856393E+01 -0.32307467806E+01  0.10744381168E+02  0.00000000000E+00 0. -1.
</event>
<event>
 7    1  0.4489290E-013  0.5930195E+02  0.7816164E-02  0.1266605E+00
        -11   -1    0    0    0    0  0.00000000000E+00  0.00000000000E+00  0.45593999997E+02  0.45594000000E+02  0.51100000000E-03 0.  1.
         11   -1    0    0    0    0 -0.00000000000E+00 -0.00000000000E+00 -0.45593999997E+02  0.45594000000E+02  0.51100000000E-03 0. -1.
    9900012    2    1    2    0    0 -0.25385112874E+02  0.16916272447E+02  0.92820273537E+01  0.59301948803E+02  0.50000008709E+02 0.  0.
         12    1    1    2    0    0  0.25385112874E+02 -0.16916272447E+02 -0.92820273537E+01  0.31886051197E+02  0.00000000000E+00 0. -1.
         11    1    3    3    0    0 -0.28566737619E+02  0.13267693328E+02 -0.66904309646E+01  0.32200187130E+02  0.51100000000E-03 0. -1.
        -11    1    3    3    0    0  0.11898461883E+02 -0.11254846217E+01  0.84391177885E+01  0.14630749131E+02  0.51100000000E-03 0.  1.
        -12    1    3    3    0    0 -0.87168371385E+01  0.47740637398E+01  0.75333405297E+01  0.12471012542E+02  0.00000000000E+00 0.  1.
</event>
<event>
 7    1  0.4489290E-013  0.5930200E+02  0.7816164E-02  0.1266605E+00
        -11   -1    0    0    0    0  0.00000000000E+00  0.00000000000E+00  0.45593999997E+02  0.45594000000E+02  0.51100000000E-03 0. -1.
         11   -1    0    0    0    0 -0.00000000000E+00 -0.00000000000E+00 -0.45593999997E+02  0.45594000000E+02  0.51100000000E-03 0.  1.
    9900012    2    1    2    0    0 -0.27314267831E+02 -0.18726945828E-01 -0.16451365528E+02  0.59301999850E+02  0.50000101806E+02 0.  0.
         12    1    1    2    0    0  0.27314267831E+02  0.18726945828E-01  0.16451365528E+02  0.31886000150E+02  0.00000000000E+00 0. -1.
         11    1    3    3    0    0 -0.72080710469E+01  0.90190901251E+01 -0.15284391821E+02  0.19154970856E+02  0.51100000000E-03 0. -1.
        -11    1    3    3    0    0 -0.19829168168E+02  0.17892138349E+01  0.11884479940E+02  0.23187023528E+02  0.51100000000E-03 0.  1.
        -12    1    3    3    0    0 -0.27702861658E+00 -0.10827030906E+02 -0.13051453647E+02  0.16960005465E+02  0.00000000000E+00 0.  1.
</event>
<event>
 7    1  0.4489290E-013  0.5930196E+02  0.7816164E-02  0.1266605E+00
        -11   -1    0    0    0    0  0.00000000000E+00  0.00000000000E+00  0.45593999997E+02  0.45594000000E+02  0.51100000000E-03 0.  1.
         11   -1    0    0    0    0 -0.00000000000E+00 -0.00000000000E+00 -0.45593999997E+02  0.45594000000E+02  0.51100000000E-03 0. -1.
    9900012    2    1    2    0    0 -0.33840599778E+01  0.99533316472E+01  0.30103137985E+02  0.59301959334E+02  0.50000027915E+02 0.  0.
         12    1    1    2    0    0  0.33840599778E+01 -0.99533316472E+01 -0.30103137985E+02  0.31886040666E+02  0.00000000000E+00 0. -1.
         11    1    3    3    0    0  0.18522386284E+02  0.84310564612E+01  0.12465876263E+02  0.23865447366E+02  0.51100000000E-03 0. -1.
        -11    1    3    3    0    0 -0.96315040383E+01 -0.42287123812E+01  0.19097408815E+02  0.21802726943E+02  0.51100000000E-03 0.  1.
         12    1    3    3    0    0 -0.12274942223E+02  0.57509875671E+01 -0.14601470935E+01  0.13633785025E+02  0.00000000000E+00 0. -1.
</event>
<event>
 7    1  0.4489290E-013  0.5930199E+02  0.7816164E-02  0.1266605E+00
        -11   -1    0    0    0    0  0.00000000000E+00  0.00000000000E+00  0.45593999997E+02  0.45594000000E+02  0.51100000000E-03 0. -1.
         11   -1    0    0    0    0 -0.00000000000E+00 -0.00000000000E+00 -0.45593999997E+02  0.45594000000E+02  0.51100000000E-03 0.  1.
    9900012    2    1    2    0    0 -0.19705422652E+02  0.24888847505E+02 -0.29932200249E+01  0.59301987736E+02  0.50000079713E+02 0.  0.
         12    1    1    2    0    0  0.19705422652E+02 -0.24888847505E+02  0.29932200249E+01  0.31886012264E+02  0.00000000000E+00 0. -1.
         11    1    3    3    0    0 -0.53808460956E+01  0.30494390720E+02  0.51383388873E+01  0.31388913598E+02  0.51100000000E-03 0. -1.
        -11    1    3    3    0    0 -0.85382365532E+01 -0.72710830195E+01 -0.15032270179E+02  0.18754713506E+02  0.51100000000E-03 0.  1.
         12    1    3    3    0    0 -0.57863400027E+01  0.16655398040E+01  0.69007112666E+01  0.91583606312E+01  0.00000000000E+00 0. -1.
</event>
<event>
 7    1  0.4489290E-013  0.5930195E+02  0.7816164E-02  0.1266605E+00
        -11   -1    0    0    0    0  0.00000000000E+00  0.00000000000E+00  0.45593999997E+02  0.45594000000E+02  0.51100000000E-03 0. -1.
         11   -1    0    0    0    0 -0.00000000000E+00 -0.00000000000E+00 -0.45593999997E+02  0.45594000000E+02  0.51100000000E-03 0.  1.
    9900012    2    1    2    0    0 -0.15278768500E+02 -0.16729464096E+02 -0.22436679429E+02  0.59301947883E+02  0.50000007032E+02 0.  0.
         12    1    1    2    0    0  0.15278768500E+02  0.16729464096E+02  0.22436679429E+02  0.31886052117E+02  0.00000000000E+00 0. -1.
         11    1    3    3    0    0  0.66137481804E+01 -0.17358643368E+02  0.82598387642E+01  0.20329513059E+02  0.51100000000E-03 0. -1.
        -11    1    3    3    0    0 -0.18231163475E+02 -0.31142877300E+01 -0.26199821164E+02  0.32070309306E+02  0.51100000000E-03 0.  1.
        -12    1    3    3    0    0 -0.36613532052E+01  0.37434670021E+01 -0.44966970289E+01  0.69021255175E+01  0.00000000000E+00 0.  1.
</event>
<event>
 7    1  0.4489290E-013  0.5930192E+02  0.7816164E-02  0.1266605E+00
        -11   -1    0    0    0    0  0.00000000000E+00  0.00000000000E+00  0.45593999997E+02  0.45594000000E+02  0.51100000000E-03 0. -1.
         11   -1    0    0    0    0 -0.00000000000E+00 -0.00000000000E+00 -0.45593999997E+02  0.45594000000E+02  0.51100000000E-03 0.  1.
    9900012    2    1    2    0    0 -0.30935290746E+01 -0.27191948344E+02 -0.16363075418E+02  0.59301918177E+02  0.49999952854E+02 0.  0.
         12    1    1    2    0    0  0.30935290746E+01  0.27191948344E+02  0.16363075418E+02  0.31886081823E+02  0.00000000000E+00 0. -1.
         11    1    3    3    0    0 -0.55512618745E+01 -0.48363791614E+01 -0.25700793721E+02  0.26734581911E+02  0.51100000000E-03 0.  1.
        -11    1    3    3    0    0  0.10732814692E+02 -0.79680715774E+01  0.87167284379E+01  0.15958221417E+02  0.51100000000E-03 0. -1.
         12    1    3    3    0    0 -0.82750818918E+01 -0.14387497605E+02  0.62098986522E+00  0.16609114849E+02  0.00000000000E+00 0. -1.
</event>
<event>
 7    1  0.4489290E-013  0.5930200E+02  0.7816164E-02  0.1266605E+00
        -11   -1    0    0    0    0  0.00000000000E+00  0.00000000000E+00  0.45593999997E+02  0.45594000000E+02  0.51100000000E-03 0. -1.
         11   -1    0    0    0    0 -0.00000000000E+00 -0.00000000000E+00 -0.45593999997E+02  0.45594000000E+02  0.51100000000E-03 0.  1.
    9900012    2    1    2    0    0  0.26531580098E+02 -0.14686670218E+02  0.98536278602E+01  0.59301999834E+02  0.50000101776E+02 0.  0.
         12    1    1    2    0    0 -0.26531580098E+02  0.14686670218E+02 -0.98536278602E+01  0.31886000166E+02  0.00000000000E+00 0. -1.
         11    1    3    3    0    0 -0.27187780163E+01 -0.11024815340E+02  0.15835523672E+02  0.19485946664E+02  0.51100000000E-03 0. -1.
        -11    1    3    3    0    0  0.28942093694E+02  0.13982514910E+01 -0.12501281686E+02  0.31557597163E+02  0.51100000000E-03 0.  1.
        -12    1    3    3    0    0  0.30826442000E+00 -0.50601063698E+01  0.65193858750E+01  0.82584560066E+01  0.00000000000E+00 0.  1.
</event>
<event>
 7    1  0.4489290E-013  0.5930194E+02  0.7816164E-02  0.1266605E+00
        -11   -1    0    0    0    0  0.00000000000E+00  0.00000000000E+00  0.45593999997E+02  0.45594000000E+02  0.51100000000E-03 0. -1.
         11   -1    0    0    0    0 -0.00000000000E+00 -0.00000000000E+00 -0.45593999997E+02  0.45594000000E+02  0.51100000000E-03 0.  1.
    9900012    2    1    2    0    0 -0.40147283933E+01 -0.31631297201E+02  0.25249236316E+00  0.59301940992E+02  0.49999994463E+02 0.  0.
         12    1    1    2    0    0  0.40147283933E+01  0.31631297201E+02 -0.25249236316E+00  0.31886059008E+02  0.00000000000E+00 0. -1.
         11    1    3    3    0    0  0.40995798578E+01 -0.17371310686E+01  0.17001411739E+02  0.17574759763E+02  0.51100000000E-03 0. -1.
        -11    1    3    3    0    0  0.48963809894E+01 -0.15385554930E+02 -0.15204702053E+02  0.22178205790E+02  0.51100000000E-03 0.  1.
         12    1    3    3    0    0 -0.13010689240E+02 -0.14508611203E+02 -0.15442173230E+01  0.19548975438E+02  0.00000000000E+00 0. -1.
</event>
<event>
 7    1  0.4489290E-013  0.5930204E+02  0.7816164E-02  0.1266604E+00
        -11   -1    0    0    0    0  0.00000000000E+00  0.00000000000E+00  0.45593999997E+02  0.45594000000E+02  0.51100000000E-03 0. -1.
         11   -1    0    0    0    0 -0.00000000000E+00 -0.00000000000E+00 -0.45593999997E+02  0.45594000000E+02  0.51100000000E-03 0.  1.
    9900012    2    1    2    0    0  0.16747573984E+02 -0.12195192995E+02 -0.24238615492E+02  0.59302039962E+02  0.50000174961E+02 0.  0.
         12    1    1    2    0    0 -0.16747573984E+02  0.12195192995E+02  0.24238615492E+02  0.31885960038E+02  0.00000000000E+00 0. -1.
         11    1    3    3    0    0  0.25389329378E+01 -0.72922371456E+01  0.10544111875E+02  0.13069093256E+02  0.51100000000E-03 0. -1.
        -11    1    3    3    0    0  0.15542723304E+02  0.68613882504E+01 -0.27523453514E+02  0.32344943809E+02  0.51100000000E-03 0.  1.
         12    1    3    3    0    0 -0.13340822576E+01 -0.11764344100E+02 -0.72592738532E+01  0.13888002897E+02  0.00000000000E+00 0. -1.
</event>
<event>
 7    1  0.4489290E-013  0.5930191E+02  0.7816164E-02  0.1266605E+00
        -11   -1    0    0    0    0  0.00000000000E+00  0.00000000000E+00  0.45593999997E+02  0.45594000000E+02  0.51100000000E-03 0.  1.
         11   -1    0    0    0    0 -0.00000000000E+00 -0.00000000000E+00 -0.45593999997E+02  0.45594000000E+02  0.51100000000E-03 0. -1.
    9900012    2    1    2    0    0  0.21293527381E+02 -0.64394944261E+01  0.22843845260E+02  0.59301911136E+02  0.49999940014E+02 0.  0.
         12    1    1    2    0    0 -0.21293527381E+02  0.64394944261E+01 -0.22843845260E+02  0.31886088864E+02  0.00000000000E+00 0. -1.
         11    1    3    3    0    0  0.75092884360E+01 -0.95700616431E+01 -0.84577111245E+01  0.14815814874E+02  0.51100000000E-03 0. -1.
        -11    1    3    3    0    0  0.19383993969E+02  0.18893417299E+01  0.33160394534E+02  0.38456736734E+02  0.51100000000E-03 0.  1.
         12    1    3    3    0    0 -0.55997550244E+01  0.12412254871E+01 -0.18588381495E+01  0.60293595273E+01  0.00000000000E+00 0. -1.
</event>
<event>
 7    1  0.4489290E-013  0.5930195E+02  0.7816164E-02  0.1266605E+00
        -11   -1    0    0    0    0  0.00000000000E+00  0.00000000000E+00  0.45593999997E+02  0.45594000000E+02  0.51100000000E-03 0.  1.
         11   -1    0    0    0    0 -0.00000000000E+00 -0.00000000000E+00 -0.45593999997E+02  0.45594000000E+02  0.51100000000E-03 0. -1.
    9900012    2    1    2    0    0  0.86409137329E+01  0.30030561190E+02 -0.63419524260E+01  0.59301947311E+02  0.50000005988E+02 0.  0.
         12    1    1    2    0    0 -0.86409137329E+01 -0.30030561190E+02  0.63419524260E+01  0.31886052689E+02  0.00000000000E+00 0. -1.
         11    1    3    3    0    0 -0.15278766775E+02  0.35982209831E+01 -0.14017978823E+02  0.21044990828E+02  0.51100000000E-03 0. -1.
        -11    1    3    3    0    0  0.17622234365E+02  0.19104384383E+02  0.10737471870E+02  0.28121414422E+02  0.51100000000E-03 0.  1.
         12    1    3    3    0    0  0.62974461434E+01  0.73279558238E+01 -0.30614454735E+01  0.10135542061E+02  0.00000000000E+00 0. -1.
</event>
<event>
 7    1  0.4489290E-013  0.5930193E+02  0.7816164E-02  0.1266605E+00
        -11   -1    0    0    0    0  0.00000000000E+00  0.00000000000E+00  0.45593999997E+02  0.45594000000E+02  0.51100000000E-03 0.  1.
         11   -1    0    0    0    0 -0.00000000000E+00 -0.00000000000E+00 -0.45593999997E+02  0.45594000000E+02  0.51100000000E-03 0. -1.
    9900012    2    1    2    0    0 -0.23032006930E+02  0.37073309521E+01  0.21737155800E+02  0.59301927989E+02  0.49999970750E+02 0.  0.
         12    1    1    2    0    0  0.23032006930E+02 -0.37073309521E+01 -0.21737155800E+02  0.31886072011E+02  0.00000000000E+00 0. -1.
         11    1    3    3    0    0 -0.34633581315E+01 -0.14265982012E+02 -0.28571914188E+01  0.14955822791E+02  0.51100000000E-03 0. -1.
        -11    1    3    3    0    0 -0.49343082295E+01  0.10156274090E+02  0.25336030601E+02  0.27738272261E+02  0.51100000000E-03 0.  1.
        -12    1    3    3    0    0 -0.14634340569E+02  0.78170388737E+01 -0.74168338256E+00  0.16607832937E+02  0.00000000000E+00 0.  1.
</event>
<event>
 7    1  0.4489290E-013  0.5930195E+02  0.7816164E-02  0.1266605E+00
        -11   -1    0    0    0    0  0.00000000000E+00  0.00000000000E+00  0.45593999997E+02  0.45594000000E+02  0.51100000000E-03 0.  1.
         11   -1    0    0    0    0 -0.00000000000E+00 -0.00000000000E+00 -0.45593999997E+02  0.45594000000E+02  0.51100000000E-03 0. -1.
    9900012    2    1    2    0    0 -0.10451224407E+02  0.20724080032E+02  0.21863316651E+02  0.59301949763E+02  0.50000010459E+02 0.  0.
         12    1    1    2    0    0  0.10451224407E+02 -0.20724080032E+02 -0.21863316651E+02  0.31886050237E+02  0.00000000000E+00 0. -1.
         11    1    3    3    0    0 -0.24685533545E+01  0.19025918678E+02  0.14800902108E+01  0.19242401214E+02  0.51100000000E-03 0.  1.
        -11    1    3    3    0    0 -0.44933235095E+01 -0.11736839427E+02 -0.29505165953E+01  0.12909256537E+02  0.51100000000E-03 0. -1.
         12    1    3    3    0    0 -0.34893475434E+01  0.13435000781E+02  0.23333743035E+02  0.27150292011E+02  0.00000000000E+00 0. -1.
</event>
<event>
 7    1  0.4489290E-013  0.5930197E+02  0.7816164E-02  0.1266605E+00
        -11   -1    0    0    0    0  0.00000000000E+00  0.00000000000E+00  0.45593999997E+02  0.45594000000E+02  0.51100000000E-03 0.  1.
         11   -1    0    0    0    0 -0.00000000000E+00 -0.00000000000E+00 -0.45593999997E+02  0.45594000000E+02  0.51100000000E-03 0. -1.
    9900012    2    1    2    0    0 -0.14579376583E+02 -0.15538200514E+02  0.23721823270E+02  0.59301971774E+02  0.50000050602E+02 0.  0.
         12    1    1    2    0    0  0.14579376583E+02  0.15538200514E+02 -0.23721823270E+02  0.31886028226E+02  0.00000000000E+00 0. -1.
         11    1    3    3    0    0 -0.30697271755E+02 -0.19073951414E+02  0.15257343283E+02  0.39229129993E+02  0.51100000000E-03 0. -1.
        -11    1    3    3    0    0  0.14991962071E+02  0.36898499195E+01  0.98247994347E+01  0.18300289707E+02  0.51100000000E-03 0.  1.
         12    1    3    3    0    0  0.11259331000E+01 -0.15409901992E+00 -0.13603194477E+01  0.17725520735E+01  0.00000000000E+00 0. -1.
</event>
<event>
 7    1  0.4489290E-013  0.5930196E+02  0.7816164E-02  0.1266605E+00
        -11   -1    0    0    0    0  0.00000000000E+00  0.00000000000E+00  0.45593999997E+02  0.45594000000E+02  0.51100000000E-03 0.  1.
         11   -1    0    0    0    0 -0.00000000000E+00 -0.00000000000E+00 -0.45593999997E+02  0.45594000000E+02  0.51100000000E-03 0. -1.
    9900012    2    1    2    0    0  0.24708266805E+01  0.13699303981E+02  0.28686997691E+02  0.59301956806E+02  0.50000023304E+02 0.  0.
         12    1    1    2    0    0 -0.24708266805E+01 -0.13699303981E+02 -0.28686997691E+02  0.31886043194E+02  0.00000000000E+00 0. -1.
         11    1    3    3    0    0 -0.14193762303E+02  0.17995724302E+02  0.51553323958E+01  0.23492263276E+02  0.51100000000E-03 0. -1.
        -11    1    3    3    0    0  0.18742824585E+02  0.26912655608E+01  0.20521365152E+02  0.27922442796E+02  0.51100000000E-03 0.  1.
         12    1    3    3    0    0 -0.20782356021E+01 -0.69876858812E+01  0.30103001433E+01  0.78872507342E+01  0.00000000000E+00 0. -1.
</event>
<event>
 7    1  0.4489290E-013  0.5930199E+02  0.7816164E-02  0.1266605E+00
        -11   -1    0    0    0    0  0.00000000000E+00  0.00000000000E+00  0.45593999997E+02  0.45594000000E+02  0.51100000000E-03 0.  1.
         11   -1    0    0    0    0 -0.00000000000E+00 -0.00000000000E+00 -0.45593999997E+02  0.45594000000E+02  0.51100000000E-03 0. -1.
    9900012    2    1    2    0    0 -0.24088993256E+02 -0.78873660381E+01  0.19344954329E+02  0.59301993710E+02  0.50000090609E+02 0.  0.
         12    1    1    2    0    0  0.24088993256E+02  0.78873660381E+01 -0.19344954329E+02  0.31886006290E+02  0.00000000000E+00 0. -1.
         11    1    3    3    0    0 -0.14616792906E+01 -0.27020001336E+01  0.87706767757E+01  0.92931201669E+01  0.51100000000E-03 0. -1.
        -11    1    3    3    0    0 -0.18623043847E+01 -0.18711262131E+02 -0.65213642467E+01  0.19902454624E+02  0.51100000000E-03 0.  1.
        -12    1    3    3    0    0 -0.20765009581E+02  0.13525896226E+02  0.17095641800E+02  0.30106418920E+02  0.00000000000E+00 0.  1.
</event>
<event>
 7    1  0.4489290E-013  0.5930196E+02  0.7816164E-02  0.1266605E+00
        -11   -1    0    0    0    0  0.00000000000E+00  0.00000000000E+00  0.45593999997E+02  0.45594000000E+02  0.51100000000E-03 0.  1.
         11   -1    0    0    0    0 -0.00000000000E+00 -0.00000000000E+00 -0.45593999997E+02  0.45594000000E+02  0.51100000000E-03 0. -1.
    9900012    2    1    2    0    0 -0.22708969657E+02  0.15874659740E+02  0.15780295698E+02  0.59301955136E+02  0.50000020259E+02 0.  0.
         12    1    1    2    0    0  0.22708969657E+02 -0.15874659740E+02 -0.15780295698E+02  0.31886044864E+02  0.00000000000E+00 0. -1.
         11    1    3    3    0    0 -0.90433792724E+01 -0.46349029006E+01 -0.42483379676E+00  0.10170816957E+02  0.51100000000E-03 0. -1.
        -11    1    3    3    0    0  0.14064085559E+01  0.46030820488E+01  0.25044221213E+02  0.25502536458E+02  0.51100000000E-03 0.  1.
        -12    1    3    3    0    0 -0.15071998941E+02  0.15906480592E+02 -0.88390917181E+01  0.23628601721E+02  0.00000000000E+00 0.  1.
</event>
<event>
 7    1  0.4489290E-013  0.5930195E+02  0.7816164E-02  0.1266605E+00
        -11   -1    0    0    0    0  0.00000000000E+00  0.00000000000E+00  0.45593999997E+02  0.45594000000E+02  0.51100000000E-03 0. -1.
         11   -1    0    0    0    0 -0.00000000000E+00 -0.00000000000E+00 -0.45593999997E+02  0.45594000000E+02  0.51100000000E-03 0.  1.
    9900012    2    1    2    0    0 -0.43902080660E+01  0.17996819533E+02 -0.25953053650E+02  0.59301946091E+02  0.50000003762E+02 0.  0.
         12    1    1    2    0    0  0.43902080660E+01 -0.17996819533E+02  0.25953053650E+02  0.31886053909E+02  0.00000000000E+00 0. -1.
         11    1    3    3    0    0  0.19217152919E+02  0.67219438323E+01 -0.10390091897E+02  0.22856891851E+02  0.51100000000E-03 0. -1.
        -11    1    3    3    0    0 -0.13905124650E+02 -0.43233581485E+01 -0.61946319849E+01  0.15824581603E+02  0.51100000000E-03 0.  1.
         12    1    3    3    0    0 -0.97022363352E+01  0.15598233849E+02 -0.93683297680E+01  0.20620472636E+02  0.00000000000E+00 0. -1.
</event>
<event>
 7    1  0.4489290E-013  0.5930194E+02  0.7816164E-02  0.1266605E+00
        -11   -1    0    0    0    0  0.00000000000E+00  0.00000000000E+00  0.45593999997E+02  0.45594000000E+02  0.51100000000E-03 0.  1.
         11   -1    0    0    0    0 -0.00000000000E+00 -0.00000000000E+00 -0.45593999997E+02  0.45594000000E+02  0.51100000000E-03 0. -1.
    9900012    2    1    2    0    0 -0.20288000515E+02  0.21045497551E+02  0.12735972556E+02  0.59301938327E+02  0.49999989604E+02 0.  0.
         12    1    1    2    0    0  0.20288000515E+02 -0.21045497551E+02 -0.12735972556E+02  0.31886061673E+02  0.00000000000E+00 0. -1.
         11    1    3    3    0    0 -0.19466446968E+02  0.19017627627E+02  0.22849793402E+02  0.35534852989E+02  0.51100000000E-03 0.  1.
        -11    1    3    3    0    0  0.64637158166E+01  0.52375087035E+01 -0.12885205585E+02  0.15337524012E+02  0.51100000000E-03 0. -1.
         12    1    3    3    0    0 -0.72852693635E+01 -0.32096387799E+01  0.27713847385E+01  0.84295613270E+01  0.00000000000E+00 0. -1.
</event>
<event>
 7    1  0.4489290E-013  0.5930197E+02  0.7816164E-02  0.1266605E+00
        -11   -1    0    0    0    0  0.00000000000E+00  0.00000000000E+00  0.45593999997E+02  0.45594000000E+02  0.51100000000E-03 0. -1.
         11   -1    0    0    0    0 -0.00000000000E+00 -0.00000000000E+00 -0.45593999997E+02  0.45594000000E+02  0.51100000000E-03 0.  1.
    9900012    2    1    2    0    0 -0.17668449470E+02  0.62858508331E+00 -0.26535817633E+02  0.59301971032E+02  0.50000049250E+02 0.  0.
         12    1    1    2    0    0  0.17668449470E+02 -0.62858508331E+00  0.26535817633E+02  0.31886028968E+02  0.00000000000E+00 0. -1.
         11    1    3    3    0    0 -0.68568688293E+00  0.12234807488E+02 -0.14762335432E+02  0.19185599507E+02  0.51100000000E-03 0.  1.
        -11    1    3    3    0    0 -0.31771676848E+00 -0.61358493717E+01  0.10256921926E+02  0.11956338868E+02  0.51100000000E-03 0. -1.
        -12    1    3    3    0    0 -0.16665045819E+02 -0.54703730328E+01 -0.22030404127E+02  0.28160032658E+02  0.00000000000E+00 0.  1.
</event>
<event>
 7    1  0.4489290E-013  0.5930191E+02  0.7816164E-02  0.1266605E+00
        -11   -1    0    0    0    0  0.00000000000E+00  0.00000000000E+00  0.45593999997E+02  0.45594000000E+02  0.51100000000E-03 0. -1.
         11   -1    0    0    0    0 -0.00000000000E+00 -0.00000000000E+00 -0.45593999997E+02  0.45594000000E+02  0.51100000000E-03 0.  1.
    9900012    2    1    2    0    0  0.15419962853E+02  0.27100337363E+02  0.66722471224E+01  0.59301914927E+02  0.49999946928E+02 0.  0.
         12    1    1    2    0    0 -0.15419962853E+02 -0.27100337363E+02 -0.66722471224E+01  0.31886085073E+02  0.00000000000E+00 0. -1.
         11    1    3    3    0    0  0.68608744434E+00 -0.56350312498E+01  0.94012058428E+01  0.10982120229E+02  0.51100000000E-03 0. -1.
        -11    1    3    3    0    0 -0.82910941410E+01  0.17560115791E+02 -0.65200054351E+01  0.20484393567E+02  0.51100000000E-03 0.  1.
         12    1    3    3    0    0  0.23024969550E+02  0.15175252822E+02  0.37910467147E+01  0.27835401132E+02  0.00000000000E+00 0. -1.
</event>
<event>
 7    1  0.4489290E-013  0.5930190E+02  0.7816164E-02  0.1266605E+00
        -11   -1    0    0    0    0  0.00000000000E+00  0.00000000000E+00  0.45593999997E+02  0.45594000000E+02  0.51100000000E-03 0. -1.
         11   -1    0    0    0    0 -0.00000000000E+00 -0.00000000000E+00 -0.45593999997E+02  0.45594000000E+02  0.51100000000E-03 0.  1.
    9900012    2    1    2    0    0  0.60853261678E+01  0.27264209855E+02 -0.15373838441E+02  0.59301902057E+02  0.49999923456E+02 0.  0.
         12    1    1    2    0    0 -0.60853261678E+01 -0.27264209855E+02  0.15373838441E+02  0.31886097943E+02  0.00000000000E+00 0. -1.
         11    1    3    3    0    0 -0.63962470613E+01  0.19370261305E+02  0.31704371470E+01  0.20643901556E+02  0.51100000000E-03 0. -1.
        -11    1    3    3    0    0  0.16814980198E+02  0.16623956130E+02 -0.99130587503E+01  0.25639192860E+02  0.51100000000E-03 0.  1.
        -12    1    3    3    0    0 -0.43334069691E+01 -0.87300075793E+01 -0.86312168379E+01  0.13018807641E+02  0.00000000000E+00 0.  1.
</event>
<event>
 7    1  0.4489290E-013  0.5930186E+02  0.7816164E-02  0.1266605E+00
        -11   -1    0    0    0    0  0.00000000000E+00  0.00000000000E+00  0.45593999997E+02  0.45594000000E+02  0.51100000000E-03 0. -1.
         11   -1    0    0    0    0 -0.00000000000E+00 -0.00000000000E+00 -0.45593999997E+02  0.45594000000E+02  0.51100000000E-03 0.  1.
    9900012    2    1    2    0    0 -0.23374929663E+02  0.16473065566E+02 -0.14105906376E+02  0.59301861623E+02  0.49999849713E+02 0.  0.
         12    1    1    2    0    0  0.23374929663E+02 -0.16473065566E+02  0.14105906376E+02  0.31886138377E+02  0.00000000000E+00 0. -1.
         11    1    3    3    0    0 -0.15708723016E+02  0.17913007422E+01 -0.25351322342E+02  0.29877454408E+02  0.51100000000E-03 0. -1.
        -11    1    3    3    0    0 -0.57348312743E+01  0.18984829089E+02  0.31861510889E+01  0.20086402971E+02  0.51100000000E-03 0.  1.
         12    1    3    3    0    0 -0.19313753730E+01 -0.43030642655E+01  0.80592648769E+01  0.93380042440E+01  0.00000000000E+00 0. -1.
</event>
<event>
 7    1  0.4489290E-013  0.5930193E+02  0.7816164E-02  0.1266605E+00
        -11   -1    0    0    0    0  0.00000000000E+00  0.00000000000E+00  0.45593999997E+02  0.45594000000E+02  0.51100000000E-03 0.  1.
         11   -1    0    0    0    0 -0.00000000000E+00 -0.00000000000E+00 -0.45593999997E+02  0.45594000000E+02  0.51100000000E-03 0. -1.
    9900012    2    1    2    0    0  0.10884076732E+02 -0.26072525162E+02  0.14781127967E+02  0.59301930337E+02  0.49999975031E+02 0.  0.
         12    1    1    2    0    0 -0.10884076732E+02  0.26072525162E+02 -0.14781127967E+02  0.31886069663E+02  0.00000000000E+00 0. -1.
         11    1    3    3    0    0  0.66119953403E+01 -0.29234881509E+02  0.39656489816E+00  0.29975891033E+02  0.51100000000E-03 0. -1.
        -11    1    3    3    0    0  0.14522188071E+02  0.39178054000E+01  0.10476027760E+02  0.18330038282E+02  0.51100000000E-03 0.  1.
         12    1    3    3    0    0 -0.10250106680E+02 -0.75544905231E+00  0.39085353084E+01  0.10996001022E+02  0.00000000000E+00 0. -1.
</event>
<event>
 7    1  0.4489290E-013  0.5930195E+02  0.7816164E-02  0.1266605E+00
        -11   -1    0    0    0    0  0.00000000000E+00  0.00000000000E+00  0.45593999997E+02  0.45594000000E+02  0.51100000000E-03 0.  1.
         11   -1    0    0    0    0 -0.00000000000E+00 -0.00000000000E+00 -0.45593999997E+02  0.45594000000E+02  0.51100000000E-03 0. -1.
    9900012    2    1    2    0    0  0.24364045846E+02 -0.19616225932E+02  0.61900868470E+01  0.59301949367E+02  0.50000009738E+02 0.  0.
         12    1    1    2    0    0 -0.24364045846E+02  0.19616225932E+02 -0.61900868470E+01  0.31886050633E+02  0.00000000000E+00 0. -1.
         11    1    3    3    0    0  0.13369959917E+02  0.37758522324E+01  0.18011156738E+02  0.22746750440E+02  0.51100000000E-03 0.  1.
        -11    1    3    3    0    0  0.14231290064E+02 -0.10274160224E+02 -0.14516457334E+02  0.22777522231E+02  0.51100000000E-03 0. -1.
         12    1    3    3    0    0 -0.32372041349E+01 -0.13117917940E+02  0.26953874427E+01  0.13777676696E+02  0.00000000000E+00 0. -1.
</event>
<event>
 7    1  0.4489290E-013  0.5930193E+02  0.7816164E-02  0.1266605E+00
        -11   -1    0    0    0    0  0.00000000000E+00  0.00000000000E+00  0.45593999997E+02  0.45594000000E+02  0.51100000000E-03 0.  1.
         11   -1    0    0    0    0 -0.00000000000E+00 -0.00000000000E+00 -0.45593999997E+02  0.45594000000E+02  0.51100000000E-03 0. -1.
    9900012    2    1    2    0    0  0.71547510517E+01 -0.31002771211E+02 -0.20878645570E+01  0.59301929942E+02  0.49999974310E+02 0.  0.
         12    1    1    2    0    0 -0.71547510517E+01  0.31002771211E+02  0.20878645570E+01  0.31886070058E+02  0.00000000000E+00 0. -1.
         11    1    3    3    0    0 -0.12284230171E+02  0.58793014818E+01  0.74252437443E+01  0.15511374592E+02  0.51100000000E-03 0. -1.
        -11    1    3    3    0    0  0.39656630305E+01 -0.23646148950E+01  0.54510028102E+00  0.46491957854E+01  0.51100000000E-03 0.  1.
         12    1    3    3    0    0  0.15473318192E+02 -0.34517457798E+02 -0.10058208582E+02  0.39141359565E+02  0.00000000000E+00 0. -1.
</event>
<event>
 7    1  0.4489290E-013  0.5930194E+02  0.7816164E-02  0.1266605E+00
        -11   -1    0    0    0    0  0.00000000000E+00  0.00000000000E+00  0.45593999997E+02  0.45594000000E+02  0.51100000000E-03 0. -1.
         11   -1    0    0    0    0 -0.00000000000E+00 -0.00000000000E+00 -0.45593999997E+02  0.45594000000E+02  0.51100000000E-03 0.  1.
    9900012    2    1    2    0    0 -0.68931346585E+01 -0.31082029846E+02  0.17643201726E+01  0.59301941755E+02  0.49999995855E+02 0.  0.
         12    1    1    2    0    0  0.68931346585E+01  0.31082029846E+02 -0.17643201726E+01  0.31886058245E+02  0.00000000000E+00 0. -1.
         11    1    3    3    0    0  0.74364793079E+01 -0.58962471508E+00  0.16828120067E+02  0.18407457919E+02  0.51100000000E-03 0. -1.
        -11    1    3    3    0    0 -0.16464493390E+01 -0.22849831484E+02 -0.66108050973E+01  0.23843832296E+02  0.51100000000E-03 0.  1.
        -12    1    3    3    0    0 -0.12683164627E+02 -0.76425736469E+01 -0.84529947966E+01  0.17050651540E+02  0.00000000000E+00 0.  1.
</event>
<event>
 7    1  0.4489290E-013  0.5930169E+02  0.7816164E-02  0.1266606E+00
        -11   -1    0    0    0    0  0.00000000000E+00  0.00000000000E+00  0.45593999997E+02  0.45594000000E+02  0.51100000000E-03 0. -1.
         11   -1    0    0    0    0 -0.00000000000E+00 -0.00000000000E+00 -0.45593999997E+02  0.45594000000E+02  0.51100000000E-03 0.  1.
    9900012    2    1    2    0    0  0.16767374734E+02  0.25417735454E+02 -0.94620763426E+01  0.59301686011E+02  0.49999529438E+02 0.  0.
         12    1    1    2    0    0 -0.16767374734E+02 -0.25417735454E+02  0.94620763426E+01  0.31886313989E+02  0.00000000000E+00 0. -1.
         11    1    3    3    0    0 -0.53220571887E+01 -0.89772668673E+01 -0.66207331022E+01  0.12359195775E+02  0.51100000000E-03 0. -1.
        -11    1    3    3    0    0  0.23752117930E+02  0.36803789295E+02 -0.18132657069E+01  0.43840277662E+02  0.51100000000E-03 0.  1.
        -12    1    3    3    0    0 -0.16626860075E+01 -0.24087869739E+01 -0.10280775335E+01  0.31022125750E+01  0.00000000000E+00 0.  1.
</event>
<event>
 7    1  0.4489290E-013  0.5930192E+02  0.7816164E-02  0.1266605E+00
        -11   -1    0    0    0    0  0.00000000000E+00  0.00000000000E+00  0.45593999997E+02  0.45594000000E+02  0.51100000000E-03 0. -1.
         11   -1    0    0    0    0 -0.00000000000E+00 -0.00000000000E+00 -0.45593999997E+02  0.45594000000E+02  0.51100000000E-03 0.  1.
    9900012    2    1    2    0    0 -0.14358193311E+02  0.95522638381E+01 -0.26820118172E+02  0.59301918423E+02  0.49999953303E+02 0.  0.
         12    1    1    2    0    0  0.14358193311E+02 -0.95522638381E+01  0.26820118172E+02  0.31886081577E+02  0.00000000000E+00 0. -1.
         11    1    3    3    0    0 -0.44624527454E+01 -0.83211187997E+01 -0.88447393732E+01  0.12937693667E+02  0.51100000000E-03 0. -1.
        -11    1    3    3    0    0  0.14159411065E+02  0.86301154557E+01 -0.10108245145E+02  0.19420206865E+02  0.51100000000E-03 0.  1.
        -12    1    3    3    0    0 -0.24055151631E+02  0.92432671820E+01 -0.78671336540E+01  0.26944017891E+02  0.00000000000E+00 0.  1.
</event>
<event>
 7    1  0.4489290E-013  0.5930222E+02  0.7816164E-02  0.1266604E+00
        -11   -1    0    0    0    0  0.00000000000E+00  0.00000000000E+00  0.45593999997E+02  0.45594000000E+02  0.51100000000E-03 0.  1.
         11   -1    0    0    0    0 -0.00000000000E+00 -0.00000000000E+00 -0.45593999997E+02  0.45594000000E+02  0.51100000000E-03 0. -1.
    9900012    2    1    2    0    0  0.24553506608E+02  0.19640443728E+02  0.52992005867E+01  0.59302215653E+02  0.50000495377E+02 0.  0.
         12    1    1    2    0    0 -0.24553506608E+02 -0.19640443728E+02 -0.52992005867E+01  0.31885784347E+02  0.00000000000E+00 0. -1.
         11    1    3    3    0    0  0.25299346532E+02 -0.33786262158E+01 -0.77753587340E+00  0.25535790811E+02  0.51100000000E-03 0. -1.
        -11    1    3    3    0    0 -0.10889250711E+02  0.53646247667E+01  0.56786908390E+01  0.13401586094E+02  0.51100000000E-03 0.  1.
         12    1    3    3    0    0  0.10143410787E+02  0.17654445177E+02  0.39804562108E+00  0.20364838747E+02  0.00000000000E+00 0. -1.
</event>
<event>
 7    1  0.4489290E-013  0.5930194E+02  0.7816164E-02  0.1266605E+00
        -11   -1    0    0    0    0  0.00000000000E+00  0.00000000000E+00  0.45593999997E+02  0.45594000000E+02  0.51100000000E-03 0.  1.
         11   -1    0    0    0    0 -0.00000000000E+00 -0.00000000000E+00 -0.45593999997E+02  0.45594000000E+02  0.51100000000E-03 0. -1.
    9900012    2    1    2    0    0 -0.29493834389E+02  0.11039852146E+02  0.49956318413E+01  0.59301938157E+02  0.49999989292E+02 0.  0.
         12    1    1    2    0    0  0.29493834389E+02 -0.11039852146E+02 -0.49956318413E+01  0.31886061843E+02  0.00000000000E+00 0. -1.
         11    1    3    3    0    0  0.11257541042E+02  0.51013778570E+01 -0.52394430579E+01  0.13424159198E+02  0.51100000000E-03 0. -1.
        -11    1    3    3    0    0 -0.16034432083E+02 -0.24790466535E+01 -0.31624697954E+01  0.16530272230E+02  0.51100000000E-03 0.  1.
         12    1    3    3    0    0 -0.24716943349E+02  0.84175209424E+01  0.13397544695E+02  0.29347506729E+02  0.00000000000E+00 0. -1.
</event>
<event>
 7    1  0.4489290E-013  0.5930194E+02  0.7816164E-02  0.1266605E+00
        -11   -1    0    0    0    0  0.00000000000E+00  0.00000000000E+00  0.45593999997E+02  0.45594000000E+02  0.51100000000E-03 0.  1.
         11   -1    0    0    0    0 -0.00000000000E+00 -0.00000000000E+00 -0.45593999997E+02  0.45594000000E+02  0.51100000000E-03 0. -1.
    9900012    2    1    2    0    0 -0.19827120504E+02  0.11989315509E+02  0.21905764196E+02  0.59301938800E+02  0.49999990466E+02 0.  0.
         12    1    1    2    0    0  0.19827120504E+02 -0.11989315509E+02 -0.21905764196E+02  0.31886061200E+02  0.00000000000E+00 0. -1.
         11    1    3    3    0    0 -0.28377259208E+02  0.27335109480E+01  0.64869650885E+01  0.29237332959E+02  0.51100000000E-03 0. -1.
        -11    1    3    3    0    0  0.10578054678E+02  0.13711524859E+02  0.41933581971E+01  0.17818120214E+02  0.51100000000E-03 0.  1.
        -12    1    3    3    0    0 -0.20279159739E+01 -0.44557202985E+01  0.11225440910E+02  0.12246485627E+02  0.00000000000E+00 0.  1.
</event>
<event>
 7    1  0.4489290E-013  0.5930196E+02  0.7816164E-02  0.1266605E+00
        -11   -1    0    0    0    0  0.00000000000E+00  0.00000000000E+00  0.45593999997E+02  0.45594000000E+02  0.51100000000E-03 0.  1.
         11   -1    0    0    0    0 -0.00000000000E+00 -0.00000000000E+00 -0.45593999997E+02  0.45594000000E+02  0.51100000000E-03 0. -1.
    9900012    2    1    2    0    0 -0.31735118869E+02  0.28007799735E+01  0.13256191554E+01  0.59301962237E+02  0.50000033210E+02 0.  0.
         12    1    1    2    0    0  0.31735118869E+02 -0.28007799735E+01 -0.13256191554E+01  0.31886037763E+02  0.00000000000E+00 0. -1.
         11    1    3    3    0    0 -0.37260577793E+02  0.67513296671E+01 -0.14256382740E+02  0.40462026133E+02  0.51100000000E-03 0. -1.
        -11    1    3    3    0    0  0.34305249960E+01  0.55413009472E-01  0.13377353099E+02  0.13810327604E+02  0.51100000000E-03 0.  1.
        -12    1    3    3    0    0  0.20949339281E+01 -0.40059627031E+01  0.22046487964E+01  0.50296084994E+01  0.00000000000E+00 0.  1.
</event>
<event>
 7    1  0.4489290E-013  0.5930194E+02  0.7816164E-02  0.1266605E+00
        -11   -1    0    0    0    0  0.00000000000E+00  0.00000000000E+00  0.45593999997E+02  0.45594000000E+02  0.51100000000E-03 0. -1.
         11   -1    0    0    0    0 -0.00000000000E+00 -0.00000000000E+00 -0.45593999997E+02  0.45594000000E+02  0.51100000000E-03 0.  1.
    9900012    2    1    2    0    0 -0.23778284276E+02 -0.20668101490E+02 -0.49136245496E+01  0.59301938335E+02  0.49999989618E+02 0.  0.
         12    1    1    2    0    0  0.23778284276E+02  0.20668101490E+02  0.49136245496E+01  0.31886061665E+02  0.00000000000E+00 0. -1.
         11    1    3    3    0    0 -0.14108842035E+02  0.15553194046E+02 -0.11637403871E+01  0.21031299545E+02  0.51100000000E-03 0. -1.
        -11    1    3    3    0    0 -0.44483220330E+01 -0.62961192841E+01 -0.70336498724E+00  0.77410212192E+01  0.51100000000E-03 0.  1.
         12    1    3    3    0    0 -0.52211202082E+01 -0.29925176252E+02 -0.30465191752E+01  0.30529617571E+02  0.00000000000E+00 0. -1.
</event>
<event>
 7    1  0.4489290E-013  0.5930198E+02  0.7816164E-02  0.1266605E+00
        -11   -1    0    0    0    0  0.00000000000E+00  0.00000000000E+00  0.45593999997E+02  0.45594000000E+02  0.51100000000E-03 0.  1.
         11   -1    0    0    0    0 -0.00000000000E+00 -0.00000000000E+00 -0.45593999997E+02  0.45594000000E+02  0.51100000000E-03 0. -1.
    9900012    2    1    2    0    0 -0.21082008052E+02 -0.22737523472E+02 -0.74345089119E+01  0.59301984886E+02  0.50000074515E+02 0.  0.
         12    1    1    2    0    0  0.21082008052E+02  0.22737523472E+02  0.74345089119E+01  0.31886015114E+02  0.00000000000E+00 0. -1.
         11    1    3    3    0    0 -0.21005355056E+02 -0.34721048286E+02  0.88452699372E+00  0.40590128398E+02  0.51100000000E-03 0.  1.
        -11    1    3    3    0    0 -0.38643066674E+01  0.11153928181E+02 -0.30900489107E+01  0.12202105655E+02  0.51100000000E-03 0. -1.
        -12    1    3    3    0    0  0.37876536720E+01  0.82959663357E+00 -0.52289869950E+01  0.65097508330E+01  0.00000000000E+00 0.  1.
</event>
<event>
 7    1  0.4489290E-013  0.5930195E+02  0.7816164E-02  0.1266605E+00
        -11   -1    0    0    0    0  0.00000000000E+00  0.00000000000E+00  0.45593999997E+02  0.45594000000E+02  0.51100000000E-03 0.  1.
         11   -1    0    0    0    0 -0.00000000000E+00 -0.00000000000E+00 -0.45593999997E+02  0.45594000000E+02  0.51100000000E-03 0. -1.
    9900012    2    1    2    0    0  0.15692293645E+02  0.11802093975E+02  0.25123352985E+02  0.59301947136E+02  0.50000005669E+02 0.  0.
         12    1    1    2    0    0 -0.15692293645E+02 -0.11802093975E+02 -0.25123352985E+02  0.31886052864E+02  0.00000000000E+00 0. -1.
         11    1    3    3    0    0  0.15683725653E+01  0.10854934546E+02 -0.12863962586E+02  0.16904760577E+02  0.51100000000E-03 0. -1.
        -11    1    3    3    0    0  0.11194922845E+02  0.70834150017E+00  0.37825821612E+02  0.39454034344E+02  0.51100000000E-03 0.  1.
        -12    1    3    3    0    0  0.29289982342E+01  0.23881792938E+00  0.16149395926E+00  0.29431522146E+01  0.00000000000E+00 0.  1.
</event>
<event>
 7    1  0.4489290E-013  0.5930198E+02  0.7816164E-02  0.1266605E+00
        -11   -1    0    0    0    0  0.00000000000E+00  0.00000000000E+00  0.45593999997E+02  0.45594000000E+02  0.51100000000E-03 0.  1.
         11   -1    0    0    0    0 -0.00000000000E+00 -0.00000000000E+00 -0.45593999997E+02  0.45594000000E+02  0.51100000000E-03 0. -1.
    9900012    2    1    2    0    0  0.43654445623E+01  0.84687821131E+01  0.30429280633E+02  0.59301976470E+02  0.50000059167E+02 0.  0.
         12    1    1    2    0    0 -0.43654445623E+01 -0.84687821131E+01 -0.30429280633E+02  0.31886023530E+02  0.00000000000E+00 0. -1.
         11    1    3    3    0    0  0.19625297940E+02  0.12475160835E+02  0.16016693012E+02  0.28236791822E+02  0.51100000000E-03 0. -1.
        -11    1    3    3    0    0  0.27053581284E+01 -0.49024293190E+01  0.11570960677E+02  0.12854567557E+02  0.51100000000E-03 0.  1.
         12    1    3    3    0    0 -0.17965211506E+02  0.89605059744E+00  0.28416269439E+01  0.18210617091E+02  0.00000000000E+00 0. -1.
</event>
<event>
 7    1  0.4489290E-013  0.5930227E+02  0.7816164E-02  0.1266604E+00
        -11   -1    0    0    0    0  0.00000000000E+00  0.00000000000E+00  0.45593999997E+02  0.45594000000E+02  0.51100000000E-03 0. -1.
         11   -1    0    0    0    0 -0.00000000000E+00 -0.00000000000E+00 -0.45593999997E+02  0.45594000000E+02  0.51100000000E-03 0.  1.
    9900012    2    1    2    0    0  0.14029467463E+02  0.93382462523E+01 -0.27067900975E+02  0.59302265516E+02  0.50000586315E+02 0.  0.
         12    1    1    2    0    0 -0.14029467463E+02 -0.93382462523E+01  0.27067900975E+02  0.31885734484E+02  0.00000000000E+00 0. -1.
         11    1    3    3    0    0  0.22784313742E+02 -0.11791160958E+02 -0.54340849904E+01  0.26223762305E+02  0.51100000000E-03 0. -1.
        -11    1    3    3    0    0 -0.10917966427E+02  0.15228087138E+02 -0.16285669484E+02  0.24825786183E+02  0.51100000000E-03 0.  1.
         12    1    3    3    0    0  0.21631201476E+01  0.59013200730E+01 -0.53481465000E+01  0.82527170291E+01  0.00000000000E+00 0. -1.
</event>
<event>
 7    1  0.4489290E-013  0.5930190E+02  0.7816164E-02  0.1266605E+00
        -11   -1    0    0    0    0  0.00000000000E+00  0.00000000000E+00  0.45593999997E+02  0.45594000000E+02  0.51100000000E-03 0.  1.
         11   -1    0    0    0    0 -0.00000000000E+00 -0.00000000000E+00 -0.45593999997E+02  0.45594000000E+02  0.51100000000E-03 0. -1.
    9900012    2    1    2    0    0  0.63939989229E+01  0.24433109886E+02  0.19464410558E+02  0.59301900218E+02  0.49999920102E+02 0.  0.
         12    1    1    2    0    0 -0.63939989229E+01 -0.24433109886E+02 -0.19464410558E+02  0.31886099782E+02  0.00000000000E+00 0. -1.
         11    1    3    3    0    0  0.77467651385E+01  0.36255938663E+02  0.12199869141E+02  0.39030017496E+02  0.51100000000E-03 0. -1.
        -11    1    3    3    0    0  0.40052600109E+01 -0.48558168542E+01  0.93192218561E+01  0.11245841958E+02  0.51100000000E-03 0.  1.
         12    1    3    3    0    0 -0.53580262265E+01 -0.69670119222E+01 -0.20546804396E+01  0.90260407642E+01  0.00000000000E+00 0. -1.
</event>
<event>
 7    1  0.4489290E-013  0.5930193E+02  0.7816164E-02  0.1266605E+00
        -11   -1    0    0    0    0  0.00000000000E+00  0.00000000000E+00  0.45593999997E+02  0.45594000000E+02  0.51100000000E-03 0.  1.
         11   -1    0    0    0    0 -0.00000000000E+00 -0.00000000000E+00 -0.45593999997E+02  0.45594000000E+02  0.51100000000E-03 0. -1.
    9900012    2    1    2    0    0 -0.19099564980E+02 -0.21986367698E+02  0.12981817589E+02  0.59301931962E+02  0.49999977996E+02 0.  0.
         12    1    1    2    0    0  0.19099564980E+02  0.21986367698E+02 -0.12981817589E+02  0.31886068038E+02  0.00000000000E+00 0. -1.
         11    1    3    3    0    0 -0.33680006829E+02 -0.10030879865E+02  0.15027605497E+02  0.38220286996E+02  0.51100000000E-03 0. -1.
        -11    1    3    3    0    0  0.61976791033E+01 -0.10856419845E+01  0.22753158733E+01  0.66908076770E+01  0.51100000000E-03 0.  1.
         12    1    3    3    0    0  0.83827627450E+01 -0.10869845848E+02 -0.43211037806E+01  0.14390837289E+02  0.00000000000E+00 0. -1.
</event>
<event>
 7    1  0.4489290E-013  0.5930205E+02  0.7816164E-02  0.1266604E+00
        -11   -1    0    0    0    0  0.00000000000E+00  0.00000000000E+00  0.45593999997E+02  0.45594000000E+02  0.51100000000E-03 0.  1.
         11   -1    0    0    0    0 -0.00000000000E+00 -0.00000000000E+00 -0.45593999997E+02  0.45594000000E+02  0.51100000000E-03 0. -1.
    9900012    2    1    2    0    0  0.27656387049E+02 -0.93801626687E+01  0.12800425399E+02  0.59302045621E+02  0.50000185281E+02 0.  0.
         12    1    1    2    0    0 -0.27656387049E+02  0.93801626687E+01 -0.12800425399E+02  0.31885954379E+02  0.00000000000E+00 0. -1.
         11    1    3    3    0    0  0.71558112510E+01 -0.84499011699E+01 -0.12572869915E+02  0.16753612225E+02  0.51100000000E-03 0. -1.
        -11    1    3    3    0    0  0.61806780785E+01 -0.37811288959E+01  0.26908599943E+02  0.27867013985E+02  0.51100000000E-03 0.  1.
        -12    1    3    3    0    0  0.14319897719E+02  0.28508673972E+01 -0.15353046294E+01  0.14681419411E+02  0.00000000000E+00 0.  1.
</event>
<event>
 7    1  0.4489290E-013  0.5930193E+02  0.7816164E-02  0.1266605E+00
        -11   -1    0    0    0    0  0.00000000000E+00  0.00000000000E+00  0.45593999997E+02  0.45594000000E+02  0.51100000000E-03 0.  1.
         11   -1    0    0    0    0 -0.00000000000E+00 -0.00000000000E+00 -0.45593999997E+02  0.45594000000E+02  0.51100000000E-03 0. -1.
    9900012    2    1    2    0    0  0.17154750959E+02 -0.23895286524E+02  0.12306545251E+02  0.59301933223E+02  0.49999980295E+02 0.  0.
         12    1    1    2    0    0 -0.17154750959E+02  0.23895286524E+02 -0.12306545251E+02  0.31886066777E+02  0.00000000000E+00 0. -1.
         11    1    3    3    0    0  0.34039846968E+01 -0.84662098021E+01 -0.23059246220E+01  0.94117537608E+01  0.51100000000E-03 0. -1.
        -11    1    3    3    0    0 -0.37176293702E+01 -0.10722609545E+02  0.26099491347E+02  0.28460122495E+02  0.51100000000E-03 0.  1.
        -12    1    3    3    0    0  0.17468395632E+02 -0.47064671761E+01 -0.11487021475E+02  0.21430056967E+02  0.00000000000E+00 0.  1.
</event>
<event>
 7    1  0.4489290E-013  0.5930194E+02  0.7816164E-02  0.1266605E+00
        -11   -1    0    0    0    0  0.00000000000E+00  0.00000000000E+00  0.45593999997E+02  0.45594000000E+02  0.51100000000E-03 0.  1.
         11   -1    0    0    0    0 -0.00000000000E+00 -0.00000000000E+00 -0.45593999997E+02  0.45594000000E+02  0.51100000000E-03 0. -1.
    9900012    2    1    2    0    0  0.17006891239E+02 -0.25754006729E+02  0.80135880179E+01  0.59301940269E+02  0.49999993146E+02 0.  0.
         12    1    1    2    0    0 -0.17006891239E+02  0.25754006729E+02 -0.80135880179E+01  0.31886059731E+02  0.00000000000E+00 0. -1.
         11    1    3    3    0    0  0.12046872662E+01 -0.29848615629E+02 -0.42275260705E+00  0.29875907458E+02  0.51100000000E-03 0. -1.
        -11    1    3    3    0    0 -0.47295316681E+01  0.44070394565E+01  0.58703610267E+01  0.87322165236E+01  0.51100000000E-03 0.  1.
        -12    1    3    3    0    0  0.20531735641E+02 -0.31243055653E+00  0.25659795982E+01  0.20693816288E+02  0.00000000000E+00 0.  1.
</event>
<event>
 7    1  0.4489290E-013  0.5930195E+02  0.7816164E-02  0.1266605E+00
        -11   -1    0    0    0    0  0.00000000000E+00  0.00000000000E+00  0.45593999997E+02  0.45594000000E+02  0.51100000000E-03 0. -1.
         11   -1    0    0    0    0 -0.00000000000E+00 -0.00000000000E+00 -0.45593999997E+02  0.45594000000E+02  0.51100000000E-03 0.  1.
    9900012    2    1    2    0    0 -0.15484635379E+02  0.27865767351E+02  0.66743174956E+00  0.59301946810E+02  0.50000005074E+02 0.  0.
         12    1    1    2    0    0  0.15484635379E+02 -0.27865767351E+02 -0.66743174956E+00  0.31886053190E+02  0.00000000000E+00 0. -1.
         11    1    3    3    0    0  0.84174616870E+01  0.18669084137E+02  0.14427100935E+01  0.20529729089E+02  0.51100000000E-03 0. -1.
        -11    1    3    3    0    0 -0.23147367566E+02 -0.41960149922E+01 -0.61601406912E+01  0.24317781573E+02  0.51100000000E-03 0.  1.
        -12    1    3    3    0    0 -0.75472949978E+00  0.13392698206E+02  0.53848623472E+01  0.14454436148E+02  0.00000000000E+00 0.  1.
</event>
<event>
 7    1  0.4489290E-013  0.5930164E+02  0.7816164E-02  0.1266606E+00
        -11   -1    0    0    0    0  0.00000000000E+00  0.00000000000E+00  0.45593999997E+02  0.45594000000E+02  0.51100000000E-03 0.  1.
         11   -1    0    0    0    0 -0.00000000000E+00 -0.00000000000E+00 -0.45593999997E+02  0.45594000000E+02  0.51100000000E-03 0. -1.
    9900012    2    1    2    0    0  0.27576936994E+02 -0.14711499126E+02  0.63106511836E+01  0.59301639611E+02  0.49999444814E+02 0.  0.
         12    1    1    2    0    0 -0.27576936994E+02  0.14711499126E+02 -0.63106511836E+01  0.31886360389E+02  0.00000000000E+00 0. -1.
         11    1    3    3    0    0  0.25376216627E+00  0.20371286647E+00  0.83585901041E+01  0.83649221729E+01  0.51100000000E-03 0. -1.
        -11    1    3    3    0    0  0.19841465793E+02 -0.70418209496E+01 -0.20589487388E+02  0.29448225724E+02  0.51100000000E-03 0.  1.
        -12    1    3    3    0    0  0.74817090339E+01 -0.78733910429E+01  0.18541548468E+02  0.21488491714E+02  0.00000000000E+00 0.  1.
</event>
<event>
 7    1  0.4489290E-013  0.5930195E+02  0.7816164E-02  0.1266605E+00
        -11   -1    0    0    0    0  0.00000000000E+00  0.00000000000E+00  0.45593999997E+02  0.45594000000E+02  0.51100000000E-03 0.  1.
         11   -1    0    0    0    0 -0.00000000000E+00 -0.00000000000E+00 -0.45593999997E+02  0.45594000000E+02  0.51100000000E-03 0. -1.
    9900012    2    1    2    0    0  0.13213937281E+02 -0.28062649778E+02  0.73891792666E+01  0.59301946288E+02  0.50000004123E+02 0.  0.
         12    1    1    2    0    0 -0.13213937281E+02  0.28062649778E+02 -0.73891792666E+01  0.31886053712E+02  0.00000000000E+00 0. -1.
         11    1    3    3    0    0  0.24702489514E+01 -0.44507331378E+00  0.46084001458E+01  0.52476253964E+01  0.51100000000E-03 0.  1.
        -11    1    3    3    0    0  0.14881220805E+02 -0.56592416300E+01 -0.17655263522E+02  0.23773642522E+02  0.51100000000E-03 0. -1.
        -12    1    3    3    0    0 -0.41375324746E+01 -0.21958334835E+02  0.20436042643E+02  0.30280678370E+02  0.00000000000E+00 0.  1.
</event>
<event>
 7    1  0.4489290E-013  0.5930193E+02  0.7816164E-02  0.1266605E+00
        -11   -1    0    0    0    0  0.00000000000E+00  0.00000000000E+00  0.45593999997E+02  0.45594000000E+02  0.51100000000E-03 0. -1.
         11   -1    0    0    0    0 -0.00000000000E+00 -0.00000000000E+00 -0.45593999997E+02  0.45594000000E+02  0.51100000000E-03 0.  1.
    9900012    2    1    2    0    0 -0.22410401177E+02  0.15395912710E+02  0.16657168673E+02  0.59301929729E+02  0.49999973923E+02 0.  0.
         12    1    1    2    0    0  0.22410401177E+02 -0.15395912710E+02 -0.16657168673E+02  0.31886070271E+02  0.00000000000E+00 0. -1.
         11    1    3    3    0    0 -0.88108174767E+01  0.86260347842E+00  0.22982094358E+02  0.24628261220E+02  0.51100000000E-03 0. -1.
        -11    1    3    3    0    0 -0.51047470734E+01 -0.49966483102E+01 -0.10763973771E+02  0.12918516503E+02  0.51100000000E-03 0.  1.
        -12    1    3    3    0    0 -0.84948366270E+01  0.19529957542E+02  0.44390480859E+01  0.21755152007E+02  0.00000000000E+00 0.  1.
</event>
<event>
 7    1  0.4489290E-013  0.5930186E+02  0.7816164E-02  0.1266605E+00
        -11   -1    0    0    0    0  0.00000000000E+00  0.00000000000E+00  0.45593999997E+02  0.45594000000E+02  0.51100000000E-03 0. -1.
         11   -1    0    0    0    0 -0.00000000000E+00 -0.00000000000E+00 -0.45593999997E+02  0.45594000000E+02  0.51100000000E-03 0.  1.
    9900012    2    1    2    0    0  0.27537696954E+02  0.83033227537E+01 -0.13764293815E+02  0.59301863412E+02  0.49999852975E+02 0.  0.
         12    1    1    2    0    0 -0.27537696954E+02 -0.83033227537E+01  0.13764293815E+02  0.31886136588E+02  0.00000000000E+00 0. -1.
         11    1    3    3    0    0 -0.76876793570E+01  0.42856381034E+01 -0.97389752804E+01  0.13126871205E+02  0.51100000000E-03 0. -1.
        -11    1    3    3    0    0  0.27690381946E+02 -0.71199407976E+01 -0.11468434001E+02  0.30805450621E+02  0.51100000000E-03 0.  1.
         12    1    3    3    0    0  0.75349943657E+01  0.11137625448E+02  0.74431154669E+01  0.15369541586E+02  0.00000000000E+00 0. -1.
</event>
<event>
 7    1  0.4489290E-013  0.5930192E+02  0.7816164E-02  0.1266605E+00
        -11   -1    0    0    0    0  0.00000000000E+00  0.00000000000E+00  0.45593999997E+02  0.45594000000E+02  0.51100000000E-03 0. -1.
         11   -1    0    0    0    0 -0.00000000000E+00 -0.00000000000E+00 -0.45593999997E+02  0.45594000000E+02  0.51100000000E-03 0.  1.
    9900012    2    1    2    0    0  0.28684683028E+02 -0.89952328061E+01  0.10629982832E+02  0.59301924847E+02  0.49999965019E+02 0.  0.
         12    1    1    2    0    0 -0.28684683028E+02  0.89952328061E+01 -0.10629982832E+02  0.31886075153E+02  0.00000000000E+00 0. -1.
         11    1    3    3    0    0  0.16770293727E+02 -0.31983982002E+01  0.25352556908E+02  0.30565088660E+02  0.51100000000E-03 0. -1.
        -11    1    3    3    0    0  0.91112345997E+01 -0.12337547505E+02 -0.39698165241E+01  0.15842636077E+02  0.51100000000E-03 0.  1.
         12    1    3    3    0    0  0.28031547015E+01  0.65407128987E+01 -0.10752757552E+02  0.12894200110E+02  0.00000000000E+00 0. -1.
</event>
<event>
 7    1  0.4489290E-013  0.5930194E+02  0.7816164E-02  0.1266605E+00
        -11   -1    0    0    0    0  0.00000000000E+00  0.00000000000E+00  0.45593999997E+02  0.45594000000E+02  0.51100000000E-03 0. -1.
         11   -1    0    0    0    0 -0.00000000000E+00 -0.00000000000E+00 -0.45593999997E+02  0.45594000000E+02  0.51100000000E-03 0.  1.
    9900012    2    1    2    0    0 -0.29462084482E+02 -0.62779839369E+01  0.10454352652E+02  0.59301937313E+02  0.49999987754E+02 0.  0.
         12    1    1    2    0    0  0.29462084482E+02  0.62779839369E+01 -0.10454352652E+02  0.31886062687E+02  0.00000000000E+00 0. -1.
         11    1    3    3    0    0 -0.77845238564E+01  0.14288265926E+02  0.76686530251E+01  0.17987817942E+02  0.51100000000E-03 0. -1.
        -11    1    3    3    0    0 -0.30868288189E+01 -0.15439811317E+02  0.12138551884E+02  0.19881165151E+02  0.51100000000E-03 0.  1.
        -12    1    3    3    0    0 -0.18590731806E+02 -0.51264385452E+01 -0.93528522572E+01  0.21432954220E+02  0.00000000000E+00 0.  1.
</event>
<event>
 7    1  0.4489290E-013  0.5930195E+02  0.7816164E-02  0.1266605E+00
        -11   -1    0    0    0    0  0.00000000000E+00  0.00000000000E+00  0.45593999997E+02  0.45594000000E+02  0.51100000000E-03 0. -1.
         11   -1    0    0    0    0 -0.00000000000E+00 -0.00000000000E+00 -0.45593999997E+02  0.45594000000E+02  0.51100000000E-03 0.  1.
    9900012    2    1    2    0    0  0.28073667239E+01  0.31675476456E+02  0.23459227814E+01  0.59301945520E+02  0.50000002721E+02 0.  0.
         12    1    1    2    0    0 -0.28073667239E+01 -0.31675476456E+02 -0.23459227814E+01  0.31886054480E+02  0.00000000000E+00 0. -1.
         11    1    3    3    0    0 -0.11808454487E+02  0.34251683221E+02  0.14540406354E+02  0.39038965382E+02  0.51100000000E-03 0. -1.
        -11    1    3    3    0    0  0.64895905850E+01 -0.39347203093E+01 -0.37503807701E+01  0.84653509115E+01  0.51100000000E-03 0.  1.
         12    1    3    3    0    0  0.81262306254E+01  0.13585135438E+01 -0.84441028026E+01  0.11797629227E+02  0.00000000000E+00 0. -1.
</event>
<event>
 7    1  0.4489290E-013  0.5930194E+02  0.7816164E-02  0.1266605E+00
        -11   -1    0    0    0    0  0.00000000000E+00  0.00000000000E+00  0.45593999997E+02  0.45594000000E+02  0.51100000000E-03 0.  1.
         11   -1    0    0    0    0 -0.00000000000E+00 -0.00000000000E+00 -0.45593999997E+02  0.45594000000E+02  0.51100000000E-03 0. -1.
    9900012    2    1    2    0    0  0.99444141988E+01 -0.30031608061E+02  0.39914829814E+01  0.59301940462E+02  0.49999993496E+02 0.  0.
         12    1    1    2    0    0 -0.99444141988E+01  0.30031608061E+02 -0.39914829814E+01  0.31886059538E+02  0.00000000000E+00 0. -1.
         11    1    3    3    0    0  0.24263183192E+02 -0.27726851658E+02 -0.80428129881E+01  0.37711632190E+02  0.51100000000E-03 0.  1.
        -11    1    3    3    0    0 -0.10818568720E+02  0.32583786902E+01  0.84068502520E+01  0.14083095976E+02  0.51100000000E-03 0. -1.
        -12    1    3    3    0    0 -0.35002002730E+01 -0.55631350937E+01  0.36274457174E+01  0.75072122959E+01  0.00000000000E+00 0.  1.
</event>
<event>
 7    1  0.4489290E-013  0.5930192E+02  0.7816164E-02  0.1266605E+00
        -11   -1    0    0    0    0  0.00000000000E+00  0.00000000000E+00  0.45593999997E+02  0.45594000000E+02  0.51100000000E-03 0. -1.
         11   -1    0    0    0    0 -0.00000000000E+00 -0.00000000000E+00 -0.45593999997E+02  0.45594000000E+02  0.51100000000E-03 0.  1.
    9900012    2    1    2    0    0  0.28214284544E+02  0.14590335241E+02 -0.27925790815E+01  0.59301917884E+02  0.49999952320E+02 0.  0.
         12    1    1    2    0    0 -0.28214284544E+02 -0.14590335241E+02  0.27925790815E+01  0.31886082116E+02  0.00000000000E+00 0. -1.
         11    1    3    3    0    0  0.21998487851E+02  0.21533354256E+02  0.10850397338E+02  0.32639698771E+02  0.51100000000E-03 0.  1.
        -11    1    3    3    0    0  0.49960514100E+01 -0.14214412960E+02 -0.65421842300E+01  0.16425901505E+02  0.51100000000E-03 0. -1.
         12    1    3    3    0    0  0.12197452836E+01  0.72713939444E+01 -0.71007921898E+01  0.10236317608E+02  0.00000000000E+00 0. -1.
</event>
<event>
 7    1  0.4489290E-013  0.5930197E+02  0.7816164E-02  0.1266605E+00
        -11   -1    0    0    0    0  0.00000000000E+00  0.00000000000E+00  0.45593999997E+02  0.45594000000E+02  0.51100000000E-03 0. -1.
         11   -1    0    0    0    0 -0.00000000000E+00 -0.00000000000E+00 -0.45593999997E+02  0.45594000000E+02  0.51100000000E-03 0.  1.
    9900012    2    1    2    0    0 -0.23295998381E+02  0.21544536067E+02 -0.31381803260E+01  0.59301972486E+02  0.50000051900E+02 0.  0.
         12    1    1    2    0    0  0.23295998381E+02 -0.21544536067E+02  0.31381803260E+01  0.31886027514E+02  0.00000000000E+00 0. -1.
         11    1    3    3    0    0  0.12489171165E+02 -0.10683014591E+01 -0.35120793989E+01  0.13017502309E+02  0.51100000000E-03 0. -1.
        -11    1    3    3    0    0 -0.15141347753E+02  0.19870284780E+02 -0.30935348542E+01  0.25172576094E+02  0.51100000000E-03 0.  1.
         12    1    3    3    0    0 -0.20643821792E+02  0.27425527459E+01  0.34674339271E+01  0.21111894083E+02  0.00000000000E+00 0. -1.
</event>
<event>
 7    1  0.4489290E-013  0.5930185E+02  0.7816164E-02  0.1266605E+00
        -11   -1    0    0    0    0  0.00000000000E+00  0.00000000000E+00  0.45593999997E+02  0.45594000000E+02  0.51100000000E-03 0. -1.
         11   -1    0    0    0    0 -0.00000000000E+00 -0.00000000000E+00 -0.45593999997E+02  0.45594000000E+02  0.51100000000E-03 0.  1.
    9900012    2    1    2    0    0  0.68264639927E+00 -0.13862177777E+01 -0.31848683800E+02  0.59301854645E+02  0.49999836987E+02 0.  0.
         12    1    1    2    0    0 -0.68264639927E+00  0.13862177777E+01  0.31848683800E+02  0.31886145355E+02  0.00000000000E+00 0. -1.
         11    1    3    3    0    0 -0.76043323992E+01 -0.17360894891E+02 -0.34361124562E+01  0.19262227590E+02  0.51100000000E-03 0. -1.
        -11    1    3    3    0    0 -0.42642241129E-01 -0.22446316600E+01 -0.16666195690E+02  0.16816725861E+02  0.51100000000E-03 0.  1.
         12    1    3    3    0    0  0.83296210396E+01  0.18219308774E+02 -0.11746375654E+02  0.23222901194E+02  0.00000000000E+00 0. -1.
</event>
<event>
 7    1  0.4489290E-013  0.5930191E+02  0.7816164E-02  0.1266605E+00
        -11   -1    0    0    0    0  0.00000000000E+00  0.00000000000E+00  0.45593999997E+02  0.45594000000E+02  0.51100000000E-03 0. -1.
         11   -1    0    0    0    0 -0.00000000000E+00 -0.00000000000E+00 -0.45593999997E+02  0.45594000000E+02  0.51100000000E-03 0.  1.
    9900012    2    1    2    0    0  0.41400853793E+01 -0.29328176592E+02 -0.11808482773E+02  0.59301913464E+02  0.49999944260E+02 0.  0.
         12    1    1    2    0    0 -0.41400853793E+01  0.29328176592E+02  0.11808482773E+02  0.31886086536E+02  0.00000000000E+00 0. -1.
         11    1    3    3    0    0 -0.82019949876E+01 -0.94855274959E+01  0.67415767264E+01  0.14237163013E+02  0.51100000000E-03 0. -1.
        -11    1    3    3    0    0  0.80942204411E+01  0.87623718356E+01 -0.33273388417E+01  0.12384132944E+02  0.51100000000E-03 0.  1.
        -12    1    3    3    0    0  0.42478599257E+01 -0.28605020931E+02 -0.15222720658E+02  0.32680617507E+02  0.00000000000E+00 0.  1.
</event>
<event>
 7    1  0.4489290E-013  0.5930194E+02  0.7816164E-02  0.1266605E+00
        -11   -1    0    0    0    0  0.00000000000E+00  0.00000000000E+00  0.45593999997E+02  0.45594000000E+02  0.51100000000E-03 0.  1.
         11   -1    0    0    0    0 -0.00000000000E+00 -0.00000000000E+00 -0.45593999997E+02  0.45594000000E+02  0.51100000000E-03 0. -1.
    9900012    2    1    2    0    0 -0.20246418984E+02  0.20848677537E+02  0.13120064597E+02  0.59301938284E+02  0.49999989525E+02 0.  0.
         12    1    1    2    0    0  0.20246418984E+02 -0.20848677537E+02 -0.13120064597E+02  0.31886061716E+02  0.00000000000E+00 0. -1.
         11    1    3    3    0    0 -0.31333685158E+01 -0.71293430203E+01 -0.55402000960E+01  0.95571621061E+01  0.51100000000E-03 0. -1.
        -11    1    3    3    0    0 -0.11606247061E+02  0.28079327207E+02  0.99019014991E-01  0.30383604004E+02  0.51100000000E-03 0.  1.
        -12    1    3    3    0    0 -0.55068034069E+01 -0.10130664970E+00  0.18561245678E+02  0.19361172174E+02  0.00000000000E+00 0.  1.
</event>
<event>
 7    1  0.4489290E-013  0.5930195E+02  0.7816164E-02  0.1266605E+00
        -11   -1    0    0    0    0  0.00000000000E+00  0.00000000000E+00  0.45593999997E+02  0.45594000000E+02  0.51100000000E-03 0. -1.
         11   -1    0    0    0    0 -0.00000000000E+00 -0.00000000000E+00 -0.45593999997E+02  0.45594000000E+02  0.51100000000E-03 0.  1.
    9900012    2    1    2    0    0  0.13770193310E+02 -0.27734298406E+02  0.76099039900E+01  0.59301950220E+02  0.50000011293E+02 0.  0.
         12    1    1    2    0    0 -0.13770193310E+02  0.27734298406E+02 -0.76099039900E+01  0.31886049780E+02  0.00000000000E+00 0. -1.
         11    1    3    3    0    0  0.42319965702E+01  0.10961857924E+02 -0.74973208139E+01  0.13938505794E+02  0.51100000000E-03 0. -1.
        -11    1    3    3    0    0  0.65982425718E+01 -0.56381914339E+01 -0.48956777598E+00  0.86928524978E+01  0.51100000000E-03 0.  1.
         12    1    3    3    0    0  0.29399541678E+01 -0.33057964896E+02  0.15596792580E+02  0.36670591928E+02  0.00000000000E+00 0. -1.
</event>
<event>
 7    1  0.4489290E-013  0.5930204E+02  0.7816164E-02  0.1266604E+00
        -11   -1    0    0    0    0  0.00000000000E+00  0.00000000000E+00  0.45593999997E+02  0.45594000000E+02  0.51100000000E-03 0. -1.
         11   -1    0    0    0    0 -0.00000000000E+00 -0.00000000000E+00 -0.45593999997E+02  0.45594000000E+02  0.51100000000E-03 0.  1.
    9900012    2    1    2    0    0  0.17290702145E+02  0.26790599764E+02  0.98360925964E-01  0.59302042413E+02  0.50000179430E+02 0.  0.
         12    1    1    2    0    0 -0.17290702145E+02 -0.26790599764E+02 -0.98360925964E-01  0.31885957587E+02  0.00000000000E+00 0. -1.
         11    1    3    3    0    0  0.56966038122E+01  0.23754424831E+02 -0.12688855232E+02  0.27526914854E+02  0.51100000000E-03 0. -1.
        -11    1    3    3    0    0  0.88686544491E+01 -0.94604043338E+01  0.13810182351E+02  0.18943954675E+02  0.51100000000E-03 0.  1.
        -12    1    3    3    0    0  0.27254438840E+01  0.12496579267E+02 -0.10229661926E+01  0.12831172884E+02  0.00000000000E+00 0.  1.
</event>
<event>
 7    1  0.4489290E-013  0.5930194E+02  0.7816164E-02  0.1266605E+00
        -11   -1    0    0    0    0  0.00000000000E+00  0.00000000000E+00  0.45593999997E+02  0.45594000000E+02  0.51100000000E-03 0.  1.
         11   -1    0    0    0    0 -0.00000000000E+00 -0.00000000000E+00 -0.45593999997E+02  0.45594000000E+02  0.51100000000E-03 0. -1.
    9900012    2    1    2    0    0 -0.28914001432E+02 -0.60764410736E+01  0.11990761907E+02  0.59301937433E+02  0.49999987972E+02 0.  0.
         12    1    1    2    0    0  0.28914001432E+02  0.60764410736E+01 -0.11990761907E+02  0.31886062567E+02  0.00000000000E+00 0. -1.
         11    1    3    3    0    0 -0.15026491763E+02 -0.11532295040E+02  0.58303151513E+01  0.19818724949E+02  0.51100000000E-03 0. -1.
        -11    1    3    3    0    0 -0.99127111379E+01  0.18367701698E+02 -0.55580270017E+01  0.21599212305E+02  0.51100000000E-03 0.  1.
        -12    1    3    3    0    0 -0.39747985316E+01 -0.12911847731E+02  0.11718473757E+02  0.17884000179E+02  0.00000000000E+00 0.  1.
</event>
<event>
 7    1  0.4489290E-013  0.5930197E+02  0.7816164E-02  0.1266605E+00
        -11   -1    0    0    0    0  0.00000000000E+00  0.00000000000E+00  0.45593999997E+02  0.45594000000E+02  0.51100000000E-03 0.  1.
         11   -1    0    0    0    0 -0.00000000000E+00 -0.00000000000E+00 -0.45593999997E+02  0.45594000000E+02  0.51100000000E-03 0. -1.
    9900012    2    1    2    0    0  0.11709961913E+02  0.79630223501E+01  0.28568972440E+02  0.59301966706E+02  0.50000041359E+02 0.  0.
         12    1    1    2    0    0 -0.11709961913E+02 -0.79630223501E+01 -0.28568972440E+02  0.31886033294E+02  0.00000000000E+00 0. -1.
         11    1    3    3    0    0 -0.23751408427E+01 -0.53930583913E+01 -0.84506958718E+01  0.10302457659E+02  0.51100000000E-03 0. -1.
        -11    1    3    3    0    0 -0.54940128292E+01  0.57090814961E+01  0.21377098745E+02  0.22798204743E+02  0.51100000000E-03 0.  1.
        -12    1    3    3    0    0  0.19579115585E+02  0.76469992453E+01  0.15642569567E+02  0.26201304304E+02  0.00000000000E+00 0.  1.
</event>
<event>
 7    1  0.4489290E-013  0.5930192E+02  0.7816164E-02  0.1266605E+00
        -11   -1    0    0    0    0  0.00000000000E+00  0.00000000000E+00  0.45593999997E+02  0.45594000000E+02  0.51100000000E-03 0. -1.
         11   -1    0    0    0    0 -0.00000000000E+00 -0.00000000000E+00 -0.45593999997E+02  0.45594000000E+02  0.51100000000E-03 0.  1.
    9900012    2    1    2    0    0  0.17192359375E+02  0.10756645801E+02 -0.24605679951E+02  0.59301919406E+02  0.49999955096E+02 0.  0.
         12    1    1    2    0    0 -0.17192359375E+02 -0.10756645801E+02  0.24605679951E+02  0.31886080594E+02  0.00000000000E+00 0. -1.
         11    1    3    3    0    0 -0.26721990773E+01  0.18780072726E+02  0.43061801876E+01  0.19451862830E+02  0.51100000000E-03 0. -1.
        -11    1    3    3    0    0  0.17344789934E+02 -0.12736431330E+02 -0.26047488942E+02  0.33786537280E+02  0.51100000000E-03 0.  1.
        -12    1    3    3    0    0  0.25197685185E+01  0.47130044048E+01 -0.28643711964E+01  0.60635192963E+01  0.00000000000E+00 0.  1.
</event>
<event>
 7    1  0.4489290E-013  0.5930195E+02  0.7816164E-02  0.1266605E+00
        -11   -1    0    0    0    0  0.00000000000E+00  0.00000000000E+00  0.45593999997E+02  0.45594000000E+02  0.51100000000E-03 0.  1.
         11   -1    0    0    0    0 -0.00000000000E+00 -0.00000000000E+00 -0.45593999997E+02  0.45594000000E+02  0.51100000000E-03 0. -1.
    9900012    2    1    2    0    0 -0.13208597067E+02  0.18172475983E+02  0.22627738012E+02  0.59301945880E+02  0.50000003377E+02 0.  0.
         12    1    1    2    0    0  0.13208597067E+02 -0.18172475983E+02 -0.22627738012E+02  0.31886054120E+02  0.00000000000E+00 0. -1.
         11    1    3    3    0    0  0.83934829428E+01 -0.46516808259E+00  0.32118542568E+01  0.89990524659E+01  0.51100000000E-03 0. -1.
        -11    1    3    3    0    0 -0.21595101461E+02 -0.24812772183E+01  0.19472917678E+02  0.29183893964E+02  0.51100000000E-03 0.  1.
         12    1    3    3    0    0 -0.69785491852E-02  0.21118921284E+02 -0.57033922874E-01  0.21118999450E+02  0.00000000000E+00 0. -1.
</event>
<event>
 7    1  0.4489290E-013  0.5930196E+02  0.7816164E-02  0.1266605E+00
        -11   -1    0    0    0    0  0.00000000000E+00  0.00000000000E+00  0.45593999997E+02  0.45594000000E+02  0.51100000000E-03 0.  1.
         11   -1    0    0    0    0 -0.00000000000E+00 -0.00000000000E+00 -0.45593999997E+02  0.45594000000E+02  0.51100000000E-03 0. -1.
    9900012    2    1    2    0    0 -0.62901944194E+01 -0.25787358890E+02  0.17668197974E+02  0.59301958477E+02  0.50000026352E+02 0.  0.
         12    1    1    2    0    0  0.62901944194E+01  0.25787358890E+02 -0.17668197974E+02  0.31886041523E+02  0.00000000000E+00 0. -1.
         11    1    3    3    0    0 -0.58393466215E+01 -0.84709185553E+01 -0.16847793441E+02  0.19740885852E+02  0.51100000000E-03 0. -1.
        -11    1    3    3    0    0  0.14306574524E+01 -0.83370364594E+01  0.24777783864E+02  0.26181893193E+02  0.51100000000E-03 0.  1.
         12    1    3    3    0    0 -0.18815052503E+01 -0.89794038757E+01  0.97382075508E+01  0.13379179432E+02  0.00000000000E+00 0. -1.
</event>
<event>
 7    1  0.4489290E-013  0.5930195E+02  0.7816164E-02  0.1266605E+00
        -11   -1    0    0    0    0  0.00000000000E+00  0.00000000000E+00  0.45593999997E+02  0.45594000000E+02  0.51100000000E-03 0.  1.
         11   -1    0    0    0    0 -0.00000000000E+00 -0.00000000000E+00 -0.45593999997E+02  0.45594000000E+02  0.51100000000E-03 0. -1.
    9900012    2    1    2    0    0 -0.83292639854E+01  0.23462638782E+02  0.19921047768E+02  0.59301949738E+02  0.50000010414E+02 0.  0.
         12    1    1    2    0    0  0.83292639854E+01 -0.23462638782E+02 -0.19921047768E+02  0.31886050262E+02  0.00000000000E+00 0. -1.
         11    1    3    3    0    0 -0.21235831011E+02  0.34291644813E+01  0.16854495986E+02  0.27327526836E+02  0.51100000000E-03 0. -1.
        -11    1    3    3    0    0  0.92516754365E+01  0.17393395798E+02  0.11209458986E+02  0.22666620542E+02  0.51100000000E-03 0.  1.
        -12    1    3    3    0    0  0.36548915894E+01  0.26400785025E+01 -0.81429072042E+01  0.93078023596E+01  0.00000000000E+00 0.  1.
</event>
<event>
 7    1  0.4489290E-013  0.5930193E+02  0.7816164E-02  0.1266605E+00
        -11   -1    0    0    0    0  0.00000000000E+00  0.00000000000E+00  0.45593999997E+02  0.45594000000E+02  0.51100000000E-03 0.  1.
         11   -1    0    0    0    0 -0.00000000000E+00 -0.00000000000E+00 -0.45593999997E+02  0.45594000000E+02  0.51100000000E-03 0. -1.
    9900012    2    1    2    0    0  0.17114664584E+02  0.16502239268E+02  0.21248197425E+02  0.59301928770E+02  0.49999972173E+02 0.  0.
         12    1    1    2    0    0 -0.17114664584E+02 -0.16502239268E+02 -0.21248197425E+02  0.31886071230E+02  0.00000000000E+00 0. -1.
         11    1    3    3    0    0  0.11782521436E+02  0.14913613430E+02  0.51604909952E+01  0.19694525750E+02  0.51100000000E-03 0. -1.
        -11    1    3    3    0    0 -0.22860823775E+01 -0.53985793296E+01 -0.99745721721E+01  0.11569914507E+02  0.51100000000E-03 0.  1.
        -12    1    3    3    0    0  0.76182255262E+01  0.69872051673E+01  0.26062278602E+02  0.28037488513E+02  0.00000000000E+00 0.  1.
</event>
<event>
 7    1  0.4489290E-013  0.5930194E+02  0.7816164E-02  0.1266605E+00
        -11   -1    0    0    0    0  0.00000000000E+00  0.00000000000E+00  0.45593999997E+02  0.45594000000E+02  0.51100000000E-03 0.  1.
         11   -1    0    0    0    0 -0.00000000000E+00 -0.00000000000E+00 -0.45593999997E+02  0.45594000000E+02  0.51100000000E-03 0. -1.
    9900012    2    1    2    0    0  0.73886770532E+01 -0.29441148812E+02  0.97645801921E+01  0.59301940063E+02  0.49999992769E+02 0.  0.
         12    1    1    2    0    0 -0.73886770532E+01  0.29441148812E+02 -0.97645801921E+01  0.31886059937E+02  0.00000000000E+00 0. -1.
         11    1    3    3    0    0 -0.14516180829E+01 -0.64148437045E+01 -0.11044871726E+02  0.12854828140E+02  0.51100000000E-03 0. -1.
        -11    1    3    3    0    0  0.13857394186E+02 -0.29000885882E+02  0.21414424848E+02  0.38621967161E+02  0.51100000000E-03 0.  1.
         12    1    3    3    0    0 -0.50170990498E+01  0.59745807740E+01 -0.60497292955E+00  0.78251447620E+01  0.00000000000E+00 0. -1.
</event>
<event>
 7    1  0.4489290E-013  0.5930209E+02  0.7816164E-02  0.1266604E+00
        -11   -1    0    0    0    0  0.00000000000E+00  0.00000000000E+00  0.45593999997E+02  0.45594000000E+02  0.51100000000E-03 0.  1.
         11   -1    0    0    0    0 -0.00000000000E+00 -0.00000000000E+00 -0.45593999997E+02  0.45594000000E+02  0.51100000000E-03 0. -1.
    9900012    2    1    2    0    0 -0.30535867651E+02  0.85431888553E+01  0.33594169347E+01  0.59302094475E+02  0.50000274378E+02 0.  0.
         12    1    1    2    0    0  0.30535867651E+02 -0.85431888553E+01 -0.33594169347E+01  0.31885905525E+02  0.00000000000E+00 0. -1.
         11    1    3    3    0    0 -0.17016974307E+02 -0.14381502109E+02  0.13425203478E+02  0.26012326043E+02  0.51100000000E-03 0. -1.
        -11    1    3    3    0    0 -0.71647112729E+01  0.72444700576E+01  0.43342326506E+01  0.11072533900E+02  0.51100000000E-03 0.  1.
         12    1    3    3    0    0 -0.63541820711E+01  0.15680220906E+02 -0.14400019194E+02  0.22217234532E+02  0.00000000000E+00 0. -1.
</event>
<event>
 7    1  0.4489290E-013  0.5930194E+02  0.7816164E-02  0.1266605E+00
        -11   -1    0    0    0    0  0.00000000000E+00  0.00000000000E+00  0.45593999997E+02  0.45594000000E+02  0.51100000000E-03 0. -1.
         11   -1    0    0    0    0 -0.00000000000E+00 -0.00000000000E+00 -0.45593999997E+02  0.45594000000E+02  0.51100000000E-03 0.  1.
    9900012    2    1    2    0    0 -0.18892844859E+01  0.97755543940E+01 -0.30291751350E+02  0.59301936282E+02  0.49999985874E+02 0.  0.
         12    1    1    2    0    0  0.18892844859E+01 -0.97755543940E+01  0.30291751350E+02  0.31886063718E+02  0.00000000000E+00 0. -1.
         11    1    3    3    0    0  0.37775484636E+01  0.16014858693E+00  0.57928487307E+01  0.69175585752E+01  0.51100000000E-03 0. -1.
        -11    1    3    3    0    0  0.60117413024E+01  0.49730654963E+00 -0.37048664901E+02  0.37536541110E+02  0.51100000000E-03 0.  1.
        -12    1    3    3    0    0 -0.11678574252E+02  0.91180992574E+01  0.96406482031E+00  0.14847836597E+02  0.00000000000E+00 0.  1.
</event>
<event>
 7    1  0.4489290E-013  0.5930195E+02  0.7816164E-02  0.1266605E+00
        -11   -1    0    0    0    0  0.00000000000E+00  0.00000000000E+00  0.45593999997E+02  0.45594000000E+02  0.51100000000E-03 0.  1.
         11   -1    0    0    0    0 -0.00000000000E+00 -0.00000000000E+00 -0.45593999997E+02  0.45594000000E+02  0.51100000000E-03 0. -1.
    9900012    2    1    2    0    0 -0.12272845570E+02  0.29994474529E+01  0.29276284872E+02  0.59301948515E+02  0.50000008183E+02 0.  0.
         12    1    1    2    0    0  0.12272845570E+02 -0.29994474529E+01 -0.29276284872E+02  0.31886051485E+02  0.00000000000E+00 0. -1.
         11    1    3    3    0    0  0.53951165397E-01 -0.46917457819E+01 -0.44006924489E+01  0.64328441223E+01  0.51100000000E-03 0. -1.
        -11    1    3    3    0    0  0.11941455469E+02  0.10403415786E+02  0.17365576838E+02  0.23503035504E+02  0.51100000000E-03 0.  1.
        -12    1    3    3    0    0 -0.24268252205E+02 -0.27122225510E+01  0.16311400483E+02  0.29366068888E+02  0.00000000000E+00 0.  1.
</event>
<event>
 7    1  0.4489290E-013  0.5930193E+02  0.7816164E-02  0.1266605E+00
        -11   -1    0    0    0    0  0.00000000000E+00  0.00000000000E+00  0.45593999997E+02  0.45594000000E+02  0.51100000000E-03 0.  1.
         11   -1    0    0    0    0 -0.00000000000E+00 -0.00000000000E+00 -0.45593999997E+02  0.45594000000E+02  0.51100000000E-03 0. -1.
    9900012    2    1    2    0    0 -0.20256989867E+02  0.24420998015E+02  0.31607860580E+01  0.59301931710E+02  0.49999977535E+02 0.  0.
         12    1    1    2    0    0  0.20256989867E+02 -0.24420998015E+02 -0.31607860580E+01  0.31886068290E+02  0.00000000000E+00 0. -1.
         11    1    3    3    0    0 -0.25282912793E+02  0.88960666935E+01  0.19259735126E+02  0.33004591791E+02  0.51100000000E-03 0. -1.
        -11    1    3    3    0    0  0.72273784183E+01  0.88500467701E+01 -0.15481816195E+02  0.19241750430E+02  0.51100000000E-03 0.  1.
         12    1    3    3    0    0 -0.22014554921E+01  0.66748845515E+01 -0.61713287223E+00  0.70555894893E+01  0.00000000000E+00 0. -1.
</event>
<event>
 7    1  0.4489290E-013  0.5930193E+02  0.7816164E-02  0.1266605E+00
        -11   -1    0    0    0    0  0.00000000000E+00  0.00000000000E+00  0.45593999997E+02  0.45594000000E+02  0.51100000000E-03 0.  1.
         11   -1    0    0    0    0 -0.00000000000E+00 -0.00000000000E+00 -0.45593999997E+02  0.45594000000E+02  0.51100000000E-03 0. -1.
    9900012    2    1    2    0    0  0.13922187476E+02 -0.28597702488E+02 -0.22506165888E+01  0.59301934599E+02  0.49999982805E+02 0.  0.
         12    1    1    2    0    0 -0.13922187476E+02  0.28597702488E+02  0.22506165888E+01  0.31886065401E+02  0.00000000000E+00 0. -1.
         11    1    3    3    0    0 -0.75514807534E+01  0.11006578042E+02 -0.36472395626E+01  0.13837340006E+02  0.51100000000E-03 0. -1.
        -11    1    3    3    0    0  0.76679026023E+01 -0.19600979577E+02 -0.78368296663E+00  0.21062034326E+02  0.51100000000E-03 0.  1.
         12    1    3    3    0    0  0.13805765627E+02 -0.20003300953E+02  0.21803059404E+01  0.24402560267E+02  0.00000000000E+00 0. -1.
</event>
<event>
 7    1  0.4489290E-013  0.5930193E+02  0.7816164E-02  0.1266605E+00
        -11   -1    0    0    0    0  0.00000000000E+00  0.00000000000E+00  0.45593999997E+02  0.45594000000E+02  0.51100000000E-03 0.  1.
         11   -1    0    0    0    0 -0.00000000000E+00 -0.00000000000E+00 -0.45593999997E+02  0.45594000000E+02  0.51100000000E-03 0. -1.
    9900012    2    1    2    0    0  0.23181202128E+02 -0.20068488183E+02  0.87526452464E+01  0.59301934880E+02  0.49999983317E+02 0.  0.
         12    1    1    2    0    0 -0.23181202128E+02  0.20068488183E+02 -0.87526452464E+01  0.31886065120E+02  0.00000000000E+00 0. -1.
         11    1    3    3    0    0  0.65604829275E+01 -0.20829513942E+02 -0.10897240174E+02  0.24406114623E+02  0.51100000000E-03 0.  1.
        -11    1    3    3    0    0  0.47312004425E+01  0.10351324446E+02  0.20033689933E+01  0.11556282404E+02  0.51100000000E-03 0. -1.
        -12    1    3    3    0    0  0.11889518758E+02 -0.95902986869E+01  0.17646516427E+02  0.23339537853E+02  0.00000000000E+00 0.  1.
</event>
<event>
 7    1  0.4489290E-013  0.5930194E+02  0.7816164E-02  0.1266605E+00
        -11   -1    0    0    0    0  0.00000000000E+00  0.00000000000E+00  0.45593999997E+02  0.45594000000E+02  0.51100000000E-03 0.  1.
         11   -1    0    0    0    0 -0.00000000000E+00 -0.00000000000E+00 -0.45593999997E+02  0.45594000000E+02  0.51100000000E-03 0. -1.
    9900012    2    1    2    0    0  0.28325038630E+02 -0.13194020859E+02  0.63506731934E+01  0.59301936433E+02  0.49999986148E+02 0.  0.
         12    1    1    2    0    0 -0.28325038630E+02  0.13194020859E+02 -0.63506731934E+01  0.31886063567E+02  0.00000000000E+00 0. -1.
         11    1    3    3    0    0  0.27627086883E+02  0.41829738378E+01 -0.11026818709E+02  0.30039040112E+02  0.51100000000E-03 0. -1.
        -11    1    3    3    0    0 -0.55056045889E+01 -0.87884546360E+01  0.15273163950E+02  0.18461260902E+02  0.51100000000E-03 0.  1.
         12    1    3    3    0    0  0.62035563355E+01 -0.85885400608E+01  0.21043279518E+01  0.10801635418E+02  0.00000000000E+00 0. -1.
</event>
<event>
 7    1  0.4489290E-013  0.5930195E+02  0.7816164E-02  0.1266605E+00
        -11   -1    0    0    0    0  0.00000000000E+00  0.00000000000E+00  0.45593999997E+02  0.45594000000E+02  0.51100000000E-03 0.  1.
         11   -1    0    0    0    0 -0.00000000000E+00 -0.00000000000E+00 -0.45593999997E+02  0.45594000000E+02  0.51100000000E-03 0. -1.
    9900012    2    1    2    0    0 -0.23980962142E+02 -0.50561682031E+01  0.20397760079E+02  0.59301952920E+02  0.50000016217E+02 0.  0.
         12    1    1    2    0    0  0.23980962142E+02  0.50561682031E+01 -0.20397760079E+02  0.31886047080E+02  0.00000000000E+00 0. -1.
         11    1    3    3    0    0  0.47804745929E+01  0.13271868756E+02  0.22100502478E+01  0.14278646994E+02  0.51100000000E-03 0. -1.
        -11    1    3    3    0    0 -0.16086337426E+02 -0.22596494631E+02  0.13524950007E+02  0.30859295104E+02  0.51100000000E-03 0.  1.
         12    1    3    3    0    0 -0.12675099308E+02  0.42684576719E+01  0.46627598248E+01  0.14164010822E+02  0.00000000000E+00 0. -1.
</event>
<event>
 7    1  0.4489290E-013  0.5930193E+02  0.7816164E-02  0.1266605E+00
        -11   -1    0    0    0    0  0.00000000000E+00  0.00000000000E+00  0.45593999997E+02  0.45594000000E+02  0.51100000000E-03 0.  1.
         11   -1    0    0    0    0 -0.00000000000E+00 -0.00000000000E+00 -0.45593999997E+02  0.45594000000E+02  0.51100000000E-03 0. -1.
    9900012    2    1    2    0    0 -0.84321649133E+01  0.25386437061E+02  0.17353644717E+02  0.59301928170E+02  0.49999971079E+02 0.  0.
         12    1    1    2    0    0  0.84321649133E+01 -0.25386437061E+02 -0.17353644717E+02  0.31886071830E+02  0.00000000000E+00 0. -1.
         11    1    3    3    0    0 -0.28231857276E+02  0.12365247351E+02  0.15524238333E+02  0.34509985270E+02  0.51100000000E-03 0. -1.
        -11    1    3    3    0    0  0.72807002211E+01  0.10848257537E+01  0.13757923767E+01  0.74885410829E+01  0.51100000000E-03 0.  1.
         12    1    3    3    0    0  0.12518992141E+02  0.11936363957E+02  0.45361400738E+00  0.17303401816E+02  0.00000000000E+00 0. -1.
</event>
<event>
 7    1  0.4489290E-013  0.5930202E+02  0.7816164E-02  0.1266605E+00
        -11   -1    0    0    0    0  0.00000000000E+00  0.00000000000E+00  0.45593999997E+02  0.45594000000E+02  0.51100000000E-03 0.  1.
         11   -1    0    0    0    0 -0.00000000000E+00 -0.00000000000E+00 -0.45593999997E+02  0.45594000000E+02  0.51100000000E-03 0. -1.
    9900012    2    1    2    0    0 -0.14236760807E+02  0.19274341659E+02  0.21036404530E+02  0.59302016869E+02  0.50000132845E+02 0.  0.
         12    1    1    2    0    0  0.14236760807E+02 -0.19274341659E+02 -0.21036404530E+02  0.31885983131E+02  0.00000000000E+00 0. -1.
         11    1    3    3    0    0 -0.67592380943E+00  0.11969160615E+02 -0.15529239400E+02  0.19618230181E+02  0.51100000000E-03 0. -1.
        -11    1    3    3    0    0 -0.10450935565E+02  0.53300874556E+01  0.28188948521E+02  0.30532748082E+02  0.51100000000E-03 0.  1.
         12    1    3    3    0    0 -0.31099014323E+01  0.19750935878E+01  0.83766954091E+01  0.91510386064E+01  0.00000000000E+00 0. -1.
</event>
<event>
 7    1  0.4489290E-013  0.5930195E+02  0.7816164E-02  0.1266605E+00
        -11   -1    0    0    0    0  0.00000000000E+00  0.00000000000E+00  0.45593999997E+02  0.45594000000E+02  0.51100000000E-03 0.  1.
         11   -1    0    0    0    0 -0.00000000000E+00 -0.00000000000E+00 -0.45593999997E+02  0.45594000000E+02  0.51100000000E-03 0. -1.
    9900012    2    1    2    0    0  0.81582391135E+01 -0.19301280745E+02  0.24033812494E+02  0.59301945888E+02  0.50000003393E+02 0.  0.
         12    1    1    2    0    0 -0.81582391135E+01  0.19301280745E+02 -0.24033812494E+02  0.31886054112E+02  0.00000000000E+00 0. -1.
         11    1    3    3    0    0  0.13473874404E+02  0.41560262868E+01  0.40874587377E+00  0.14106201452E+02  0.51100000000E-03 0. -1.
        -11    1    3    3    0    0 -0.94102198678E+01 -0.82564712451E+01  0.26393099782E+02  0.29211594817E+02  0.51100000000E-03 0.  1.
         12    1    3    3    0    0  0.40945845775E+01 -0.15200835787E+02 -0.27680331619E+01  0.15984149620E+02  0.00000000000E+00 0. -1.
</event>
<event>
 7    1  0.4489290E-013  0.5930196E+02  0.7816164E-02  0.1266605E+00
        -11   -1    0    0    0    0  0.00000000000E+00  0.00000000000E+00  0.45593999997E+02  0.45594000000E+02  0.51100000000E-03 0.  1.
         11   -1    0    0    0    0 -0.00000000000E+00 -0.00000000000E+00 -0.45593999997E+02  0.45594000000E+02  0.51100000000E-03 0. -1.
    9900012    2    1    2    0    0 -0.99052654969E+01 -0.29444068879E+02  0.71869476912E+01  0.59301957696E+02  0.50000024927E+02 0.  0.
         12    1    1    2    0    0  0.99052654969E+01  0.29444068879E+02 -0.71869476912E+01  0.31886042304E+02  0.00000000000E+00 0. -1.
         11    1    3    3    0    0 -0.16688024662E+02 -0.14824101376E+02  0.24612644619E+02  0.33226893086E+02  0.51100000000E-03 0. -1.
        -11    1    3    3    0    0  0.91293715401E+01 -0.12773297452E+02 -0.11573601132E+02  0.19505147934E+02  0.51100000000E-03 0.  1.
        -12    1    3    3    0    0 -0.23466123753E+01 -0.18466700508E+01 -0.58520957964E+01  0.65699166758E+01  0.00000000000E+00 0.  1.
</event>
<event>
 7    1  0.4489290E-013  0.5930193E+02  0.7816164E-02  0.1266605E+00
        -11   -1    0    0    0    0  0.00000000000E+00  0.00000000000E+00  0.45593999997E+02  0.45594000000E+02  0.51100000000E-03 0.  1.
         11   -1    0    0    0    0 -0.00000000000E+00 -0.00000000000E+00 -0.45593999997E+02  0.45594000000E+02  0.51100000000E-03 0. -1.
    9900012    2    1    2    0    0  0.13057444126E+02 -0.14469636968E+02  0.25235965126E+02  0.59301934440E+02  0.49999982514E+02 0.  0.
         12    1    1    2    0    0 -0.13057444126E+02  0.14469636968E+02 -0.25235965126E+02  0.31886065560E+02  0.00000000000E+00 0. -1.
         11    1    3    3    0    0  0.14635070281E+02 -0.10177821215E+02 -0.62531971478E+01  0.18891156705E+02  0.51100000000E-03 0. -1.
        -11    1    3    3    0    0 -0.34217715961E+01 -0.40706432317E+01  0.35549896237E+02  0.35945427803E+02  0.51100000000E-03 0.  1.
        -12    1    3    3    0    0  0.18441454409E+01 -0.22117252070E+00 -0.40607339639E+01  0.44653499322E+01  0.00000000000E+00 0.  1.
</event>
<event>
 7    1  0.4489290E-013  0.5930211E+02  0.7816164E-02  0.1266604E+00
        -11   -1    0    0    0    0  0.00000000000E+00  0.00000000000E+00  0.45593999997E+02  0.45594000000E+02  0.51100000000E-03 0.  1.
         11   -1    0    0    0    0 -0.00000000000E+00 -0.00000000000E+00 -0.45593999997E+02  0.45594000000E+02  0.51100000000E-03 0. -1.
    9900012    2    1    2    0    0 -0.21432119366E+02 -0.23466154067E+02 -0.25911586820E+01  0.59302106088E+02  0.50000295559E+02 0.  0.
         12    1    1    2    0    0  0.21432119366E+02  0.23466154067E+02  0.25911586820E+01  0.31885893912E+02  0.00000000000E+00 0. -1.
         11    1    3    3    0    0  0.51915423348E+01 -0.28233980493E+02  0.36871362275E+01  0.28943129411E+02  0.51100000000E-03 0. -1.
        -11    1    3    3    0    0 -0.97239118644E+01 -0.13143072906E+01  0.28413638124E+01  0.10215439989E+02  0.51100000000E-03 0.  1.
         12    1    3    3    0    0 -0.16899749837E+02  0.60821337163E+01 -0.91196587218E+01  0.20143536688E+02  0.00000000000E+00 0. -1.
</event>
<event>
 7    1  0.4489290E-013  0.5930194E+02  0.7816164E-02  0.1266605E+00
        -11   -1    0    0    0    0  0.00000000000E+00  0.00000000000E+00  0.45593999997E+02  0.45594000000E+02  0.51100000000E-03 0.  1.
         11   -1    0    0    0    0 -0.00000000000E+00 -0.00000000000E+00 -0.45593999997E+02  0.45594000000E+02  0.51100000000E-03 0. -1.
    9900012    2    1    2    0    0  0.20864457982E+02 -0.11146693480E+02  0.21380981295E+02  0.59301941236E+02  0.49999994908E+02 0.  0.
         12    1    1    2    0    0 -0.20864457982E+02  0.11146693480E+02 -0.21380981295E+02  0.31886058764E+02  0.00000000000E+00 0. -1.
         11    1    3    3    0    0 -0.49682333369E+01  0.79629852273E+01  0.18779793688E+00  0.93876378576E+01  0.51100000000E-03 0. -1.
        -11    1    3    3    0    0  0.30468865333E+02 -0.82509454191E+01  0.87405246908E+01  0.32754032227E+02  0.51100000000E-03 0.  1.
        -12    1    3    3    0    0 -0.46361740144E+01 -0.10858733288E+02  0.12452658667E+02  0.17160271151E+02  0.00000000000E+00 0.  1.
</event>
<event>
 7    1  0.4489290E-013  0.5930196E+02  0.7816164E-02  0.1266605E+00
        -11   -1    0    0    0    0  0.00000000000E+00  0.00000000000E+00  0.45593999997E+02  0.45594000000E+02  0.51100000000E-03 0.  1.
         11   -1    0    0    0    0 -0.00000000000E+00 -0.00000000000E+00 -0.45593999997E+02  0.45594000000E+02  0.51100000000E-03 0. -1.
    9900012    2    1    2    0    0 -0.31787282476E+02 -0.20764423717E+01 -0.14059564177E+01  0.59301958327E+02  0.50000026078E+02 0.  0.
         12    1    1    2    0    0  0.31787282476E+02  0.20764423717E+01  0.14059564177E+01  0.31886041673E+02  0.00000000000E+00 0. -1.
         11    1    3    3    0    0 -0.21955141606E+02 -0.80555061857E+01 -0.23386317753E+02  0.33073241164E+02  0.51100000000E-03 0. -1.
        -11    1    3    3    0    0  0.12771137240E+00  0.33532202990E+01  0.93315932291E+01  0.99166037041E+01  0.51100000000E-03 0.  1.
         12    1    3    3    0    0 -0.99598522432E+01  0.26258435150E+01  0.12648768106E+02  0.16312113458E+02  0.00000000000E+00 0. -1.
</event>
<event>
 7    1  0.4489290E-013  0.5930194E+02  0.7816164E-02  0.1266605E+00
        -11   -1    0    0    0    0  0.00000000000E+00  0.00000000000E+00  0.45593999997E+02  0.45594000000E+02  0.51100000000E-03 0.  1.
         11   -1    0    0    0    0 -0.00000000000E+00 -0.00000000000E+00 -0.45593999997E+02  0.45594000000E+02  0.51100000000E-03 0. -1.
    9900012    2    1    2    0    0  0.24360636659E+02  0.17121760134E+02 -0.11407265702E+02  0.59301937224E+02  0.49999987592E+02 0.  0.
         12    1    1    2    0    0 -0.24360636659E+02 -0.17121760134E+02  0.11407265702E+02  0.31886062776E+02  0.00000000000E+00 0. -1.
         11    1    3    3    0    0 -0.42203843501E+01  0.11751366316E+02  0.42759443845E+01  0.13198104220E+02  0.51100000000E-03 0. -1.
        -11    1    3    3    0    0  0.35272567238E+02  0.15259881998E+01 -0.10598499401E+02  0.36862051345E+02  0.51100000000E-03 0.  1.
        -12    1    3    3    0    0 -0.66915462288E+01  0.38444056185E+01 -0.50847106855E+01  0.92417816598E+01  0.00000000000E+00 0.  1.
</event>
<event>
 7    1  0.4489290E-013  0.5930190E+02  0.7816164E-02  0.1266605E+00
        -11   -1    0    0    0    0  0.00000000000E+00  0.00000000000E+00  0.45593999997E+02  0.45594000000E+02  0.51100000000E-03 0. -1.
         11   -1    0    0    0    0 -0.00000000000E+00 -0.00000000000E+00 -0.45593999997E+02  0.45594000000E+02  0.51100000000E-03 0.  1.
    9900012    2    1    2    0    0  0.30202039600E+02  0.43307961419E+01  0.92630766165E+01  0.59301896763E+02  0.49999913800E+02 0.  0.
         12    1    1    2    0    0 -0.30202039600E+02 -0.43307961419E+01 -0.92630766165E+01  0.31886103237E+02  0.00000000000E+00 0. -1.
         11    1    3    3    0    0  0.13439028216E+02  0.12100536400E+02  0.21476164332E+02  0.28075898832E+02  0.51100000000E-03 0. -1.
        -11    1    3    3    0    0  0.16351945526E+02 -0.24144375289E+01 -0.17229858280E+02  0.23876424517E+02  0.51100000000E-03 0.  1.
        -12    1    3    3    0    0  0.41106585806E+00 -0.53553027296E+01  0.50167705654E+01  0.73495734142E+01  0.00000000000E+00 0.  1.
</event>
<event>
 7    1  0.4489290E-013  0.5930192E+02  0.7816164E-02  0.1266605E+00
        -11   -1    0    0    0    0  0.00000000000E+00  0.00000000000E+00  0.45593999997E+02  0.45594000000E+02  0.51100000000E-03 0.  1.
         11   -1    0    0    0    0 -0.00000000000E+00 -0.00000000000E+00 -0.45593999997E+02  0.45594000000E+02  0.51100000000E-03 0. -1.
    9900012    2    1    2    0    0  0.18993052226E+01 -0.16859424070E+02  0.26997682591E+02  0.59301915173E+02  0.49999947377E+02 0.  0.
         12    1    1    2    0    0 -0.18993052226E+01  0.16859424070E+02 -0.26997682591E+02  0.31886084827E+02  0.00000000000E+00 0. -1.
         11    1    3    3    0    0  0.48765386498E+01  0.39720209785E+01 -0.11838535264E+02  0.13405539800E+02  0.51100000000E-03 0. -1.
        -11    1    3    3    0    0  0.42799010021E+01 -0.31579896901E+01  0.94924031434E+01  0.10881000375E+02  0.51100000000E-03 0.  1.
         12    1    3    3    0    0 -0.72571344293E+01 -0.17673455358E+02  0.29343814712E+02  0.35015374998E+02  0.00000000000E+00 0. -1.
</event>
<event>
 7    1  0.4489290E-013  0.5930195E+02  0.7816164E-02  0.1266605E+00
        -11   -1    0    0    0    0  0.00000000000E+00  0.00000000000E+00  0.45593999997E+02  0.45594000000E+02  0.51100000000E-03 0. -1.
         11   -1    0    0    0    0 -0.00000000000E+00 -0.00000000000E+00 -0.45593999997E+02  0.45594000000E+02  0.51100000000E-03 0.  1.
    9900012    2    1    2    0    0 -0.87870931249E+01 -0.30595136657E+02  0.18560839440E+01  0.59301945991E+02  0.50000003581E+02 0.  0.
         12    1    1    2    0    0  0.87870931249E+01  0.30595136657E+02 -0.18560839440E+01  0.31886054009E+02  0.00000000000E+00 0. -1.
         11    1    3    3    0    0  0.74800188044E+01  0.32223264008E+00 -0.61121766713E+01  0.96650514283E+01  0.51100000000E-03 0. -1.
        -11    1    3    3    0    0 -0.22667637227E+02 -0.24770293453E+02 -0.49753688060E+01  0.33943239536E+02  0.51100000000E-03 0.  1.
         12    1    3    3    0    0  0.64005252975E+01 -0.61470758443E+01  0.12943629421E+02  0.15693655027E+02  0.00000000000E+00 0. -1.
</event>
<event>
 7    1  0.4489290E-013  0.5930194E+02  0.7816164E-02  0.1266605E+00
        -11   -1    0    0    0    0  0.00000000000E+00  0.00000000000E+00  0.45593999997E+02  0.45594000000E+02  0.51100000000E-03 0.  1.
         11   -1    0    0    0    0 -0.00000000000E+00 -0.00000000000E+00 -0.45593999997E+02  0.45594000000E+02  0.51100000000E-03 0. -1.
    9900012    2    1    2    0    0  0.18875006684E+02 -0.16511767382E+02  0.19693052611E+02  0.59301942537E+02  0.49999997282E+02 0.  0.
         12    1    1    2    0    0 -0.18875006684E+02  0.16511767382E+02 -0.19693052611E+02  0.31886057463E+02  0.00000000000E+00 0. -1.
         11    1    3    3    0    0 -0.37418095392E+00  0.66554096192E+01 -0.88088284402E+01  0.11046716586E+02  0.51100000000E-03 0. -1.
        -11    1    3    3    0    0  0.22855416752E+02 -0.15493107452E+02  0.28629567384E+02  0.39775100029E+02  0.51100000000E-03 0.  1.
        -12    1    3    3    0    0 -0.36062291137E+01 -0.76740695490E+01 -0.12768633373E+00  0.84801259226E+01  0.00000000000E+00 0.  1.
</event>
<event>
 7    1  0.4489290E-013  0.5930191E+02  0.7816164E-02  0.1266605E+00
        -11   -1    0    0    0    0  0.00000000000E+00  0.00000000000E+00  0.45593999997E+02  0.45594000000E+02  0.51100000000E-03 0. -1.
         11   -1    0    0    0    0 -0.00000000000E+00 -0.00000000000E+00 -0.45593999997E+02  0.45594000000E+02  0.51100000000E-03 0.  1.
    9900012    2    1    2    0    0 -0.17459696225E+02 -0.60568087152E+01 -0.25984548667E+02  0.59301910659E+02  0.49999939143E+02 0.  0.
         12    1    1    2    0    0  0.17459696225E+02  0.60568087152E+01  0.25984548667E+02  0.31886089341E+02  0.00000000000E+00 0. -1.
         11    1    3    3    0    0 -0.64244710006E+01 -0.70300682638E+01  0.11748999977E+02  0.15123977260E+02  0.51100000000E-03 0. -1.
        -11    1    3    3    0    0  0.54394989239E+01 -0.25081361842E+01 -0.12213908613E+02  0.13603619354E+02  0.51100000000E-03 0.  1.
         12    1    3    3    0    0 -0.16474724148E+02  0.34813957328E+01 -0.25519640031E+02  0.30574314045E+02  0.00000000000E+00 0. -1.
</event>
<event>
 7    1  0.4489290E-013  0.5930180E+02  0.7816164E-02  0.1266605E+00
        -11   -1    0    0    0    0  0.00000000000E+00  0.00000000000E+00  0.45593999997E+02  0.45594000000E+02  0.51100000000E-03 0.  1.
         11   -1    0    0    0    0 -0.00000000000E+00 -0.00000000000E+00 -0.45593999997E+02  0.45594000000E+02  0.51100000000E-03 0. -1.
    9900012    2    1    2    0    0  0.10158127804E+02  0.30096903694E+02 -0.27782026375E+01  0.59301802636E+02  0.49999742135E+02 0.  0.
         12    1    1    2    0    0 -0.10158127804E+02 -0.30096903694E+02  0.27782026375E+01  0.31886197364E+02  0.00000000000E+00 0. -1.
         11    1    3    3    0    0  0.39452825018E+01  0.15765339931E+02 -0.23227499425E+02  0.28348331997E+02  0.51100000000E-03 0.  1.
        -11    1    3    3    0    0 -0.20724478195E+01  0.11813345377E+02  0.18547516917E+02  0.22087565575E+02  0.51100000000E-03 0. -1.
         12    1    3    3    0    0  0.82852931215E+01  0.25182183852E+01  0.19017798709E+01  0.88659050650E+01  0.00000000000E+00 0. -1.
</event>
<event>
 7    1  0.4489290E-013  0.5930189E+02  0.7816164E-02  0.1266605E+00
        -11   -1    0    0    0    0  0.00000000000E+00  0.00000000000E+00  0.45593999997E+02  0.45594000000E+02  0.51100000000E-03 0. -1.
         11   -1    0    0    0    0 -0.00000000000E+00 -0.00000000000E+00 -0.45593999997E+02  0.45594000000E+02  0.51100000000E-03 0.  1.
    9900012    2    1    2    0    0 -0.13621732807E+02 -0.76913670058E+01 -0.27785158052E+02  0.59301894263E+02  0.49999909241E+02 0.  0.
         12    1    1    2    0    0  0.13621732807E+02  0.76913670058E+01  0.27785158052E+02  0.31886105737E+02  0.00000000000E+00 0. -1.
         11    1    3    3    0    0 -0.64000731088E+01  0.35202955605E+00  0.37562026564E+01  0.74292610173E+01  0.51100000000E-03 0. -1.
        -11    1    3    3    0    0 -0.12023869771E+02 -0.19247426804E+02 -0.32506369239E+02  0.39644683430E+02  0.51100000000E-03 0.  1.
        -12    1    3    3    0    0  0.48022100725E+01  0.11204030242E+02  0.96500853090E+00  0.12227949816E+02  0.00000000000E+00 0.  1.
</event>
<event>
 7    1  0.4489290E-013  0.5930193E+02  0.7816164E-02  0.1266605E+00
        -11   -1    0    0    0    0  0.00000000000E+00  0.00000000000E+00  0.45593999997E+02  0.45594000000E+02  0.51100000000E-03 0. -1.
         11   -1    0    0    0    0 -0.00000000000E+00 -0.00000000000E+00 -0.45593999997E+02  0.45594000000E+02  0.51100000000E-03 0.  1.
    9900012    2    1    2    0    0  0.61052709461E+01 -0.30986877198E+02  0.43886944202E+01  0.59301928895E+02  0.49999972401E+02 0.  0.
         12    1    1    2    0    0 -0.61052709461E+01  0.30986877198E+02 -0.43886944202E+01  0.31886071105E+02  0.00000000000E+00 0. -1.
         11    1    3    3    0    0  0.27756937640E+01 -0.18679966150E+02  0.20088215351E+02  0.27571398359E+02  0.51100000000E-03 0. -1.
        -11    1    3    3    0    0  0.67412955894E+01 -0.51956759157E+01 -0.20706986055E+02  0.22387929475E+02  0.51100000000E-03 0.  1.
        -12    1    3    3    0    0 -0.34117184073E+01 -0.71112351327E+01  0.50074651243E+01  0.93426010605E+01  0.00000000000E+00 0.  1.
</event>
<event>
 7    1  0.4489290E-013  0.5930198E+02  0.7816164E-02  0.1266605E+00
        -11   -1    0    0    0    0  0.00000000000E+00  0.00000000000E+00  0.45593999997E+02  0.45594000000E+02  0.51100000000E-03 0.  1.
         11   -1    0    0    0    0 -0.00000000000E+00 -0.00000000000E+00 -0.45593999997E+02  0.45594000000E+02  0.51100000000E-03 0. -1.
    9900012    2    1    2    0    0 -0.74968468622E+00  0.30152262206E+02  0.10343946789E+02  0.59301981458E+02  0.50000068264E+02 0.  0.
         12    1    1    2    0    0  0.74968468622E+00 -0.30152262206E+02 -0.10343946789E+02  0.31886018542E+02  0.00000000000E+00 0. -1.
         11    1    3    3    0    0  0.21540723827E+02  0.28424539299E+02  0.38579324771E+01  0.35872564177E+02  0.51100000000E-03 0. -1.
        -11    1    3    3    0    0 -0.59676973283E+01  0.16795111251E+00  0.29338621355E+01  0.66520046805E+01  0.51100000000E-03 0.  1.
         12    1    3    3    0    0 -0.16322711185E+02  0.15597717946E+01  0.35521521768E+01  0.16777412601E+02  0.00000000000E+00 0. -1.
</event>
<event>
 7    1  0.4489290E-013  0.5930195E+02  0.7816164E-02  0.1266605E+00
        -11   -1    0    0    0    0  0.00000000000E+00  0.00000000000E+00  0.45593999997E+02  0.45594000000E+02  0.51100000000E-03 0. -1.
         11   -1    0    0    0    0 -0.00000000000E+00 -0.00000000000E+00 -0.45593999997E+02  0.45594000000E+02  0.51100000000E-03 0.  1.
    9900012    2    1    2    0    0 -0.15157697786E+02 -0.20331132942E+02  0.19328976929E+02  0.59301951044E+02  0.50000012797E+02 0.  0.
         12    1    1    2    0    0  0.15157697786E+02  0.20331132942E+02 -0.19328976929E+02  0.31886048956E+02  0.00000000000E+00 0. -1.
         11    1    3    3    0    0 -0.42626402726E+01 -0.10854203765E+02  0.21857757781E+02  0.24773885786E+02  0.51100000000E-03 0. -1.
        -11    1    3    3    0    0 -0.55265756137E+01  0.32784474648E+01 -0.14734946396E+02  0.16075133012E+02  0.51100000000E-03 0.  1.
        -12    1    3    3    0    0 -0.53684818997E+01 -0.12755376642E+02  0.12206165544E+02  0.18452932246E+02  0.00000000000E+00 0.  1.
</event>
<event>
 7    1  0.4489290E-013  0.5930199E+02  0.7816164E-02  0.1266605E+00
        -11   -1    0    0    0    0  0.00000000000E+00  0.00000000000E+00  0.45593999997E+02  0.45594000000E+02  0.51100000000E-03 0.  1.
         11   -1    0    0    0    0 -0.00000000000E+00 -0.00000000000E+00 -0.45593999997E+02  0.45594000000E+02  0.51100000000E-03 0. -1.
    9900012    2    1    2    0    0  0.11096048513E+00 -0.22673502672E+02  0.22419137809E+02  0.59301987773E+02  0.50000079780E+02 0.  0.
         12    1    1    2    0    0 -0.11096048513E+00  0.22673502672E+02 -0.22419137809E+02  0.31886012227E+02  0.00000000000E+00 0. -1.
         11    1    3    3    0    0  0.41500287164E+01  0.10106348908E+00 -0.96411684361E+01  0.10496908176E+02  0.51100000000E-03 0. -1.
        -11    1    3    3    0    0  0.75783765246E+01 -0.16442058773E+01  0.20787426127E+02  0.22186759317E+02  0.51100000000E-03 0.  1.
         12    1    3    3    0    0 -0.11617444756E+02 -0.21130360284E+02  0.11272880118E+02  0.26618320280E+02  0.00000000000E+00 0. -1.
</event>
<event>
 7    1  0.4489290E-013  0.5930192E+02  0.7816164E-02  0.1266605E+00
        -11   -1    0    0    0    0  0.00000000000E+00  0.00000000000E+00  0.45593999997E+02  0.45594000000E+02  0.51100000000E-03 0. -1.
         11   -1    0    0    0    0 -0.00000000000E+00 -0.00000000000E+00 -0.45593999997E+02  0.45594000000E+02  0.51100000000E-03 0.  1.
    9900012    2    1    2    0    0  0.95938676207E+00  0.15036316297E+01 -0.31836156353E+02  0.59301918674E+02  0.49999953761E+02 0.  0.
         12    1    1    2    0    0 -0.95938676207E+00 -0.15036316297E+01  0.31836156353E+02  0.31886081326E+02  0.00000000000E+00 0. -1.
         11    1    3    3    0    0 -0.16602778082E+02 -0.62169217969E+01 -0.17980734854E+02  0.25250924395E+02  0.51100000000E-03 0. -1.
        -11    1    3    3    0    0  0.20239403051E+02 -0.10230229452E+01 -0.14446908967E+02  0.24887611191E+02  0.51100000000E-03 0.  1.
        -12    1    3    3    0    0 -0.26772382073E+01  0.87435763718E+01  0.59148746837E+00  0.91633830878E+01  0.00000000000E+00 0.  1.
</event>
<event>
 7    1  0.4489290E-013  0.5930191E+02  0.7816164E-02  0.1266605E+00
        -11   -1    0    0    0    0  0.00000000000E+00  0.00000000000E+00  0.45593999997E+02  0.45594000000E+02  0.51100000000E-03 0.  1.
         11   -1    0    0    0    0 -0.00000000000E+00 -0.00000000000E+00 -0.45593999997E+02  0.45594000000E+02  0.51100000000E-03 0. -1.
    9900012    2    1    2    0    0 -0.23549261823E+02 -0.14394505414E+02  0.15967246835E+02  0.59301913849E+02  0.49999944962E+02 0.  0.
         12    1    1    2    0    0  0.23549261823E+02  0.14394505414E+02 -0.15967246835E+02  0.31886086151E+02  0.00000000000E+00 0. -1.
         11    1    3    3    0    0 -0.14471643111E+02 -0.14994260617E+02  0.13936150890E+02  0.25069355948E+02  0.51100000000E-03 0.  1.
        -11    1    3    3    0    0 -0.97927495055E+01  0.15862254532E+02 -0.94763480722E+00  0.18665665638E+02  0.51100000000E-03 0. -1.
        -12    1    3    3    0    0  0.71513079300E+00 -0.15262499329E+02  0.29787307521E+01  0.15566892263E+02  0.00000000000E+00 0.  1.
</event>
<event>
 7    1  0.4489290E-013  0.5930194E+02  0.7816164E-02  0.1266605E+00
        -11   -1    0    0    0    0  0.00000000000E+00  0.00000000000E+00  0.45593999997E+02  0.45594000000E+02  0.51100000000E-03 0. -1.
         11   -1    0    0    0    0 -0.00000000000E+00 -0.00000000000E+00 -0.45593999997E+02  0.45594000000E+02  0.51100000000E-03 0.  1.
    9900012    2    1    2    0    0  0.13266994503E+02  0.25920260757E+02  0.12994142451E+02  0.59301940367E+02  0.49999993324E+02 0.  0.
         12    1    1    2    0    0 -0.13266994503E+02 -0.25920260757E+02 -0.12994142451E+02  0.31886059633E+02  0.00000000000E+00 0. -1.
         11    1    3    3    0    0  0.15642988983E+01 -0.14366151596E+01  0.38014389719E+01  0.43545186506E+01  0.51100000000E-03 0. -1.
        -11    1    3    3    0    0  0.88469941873E+00  0.29611959251E+02  0.22825377445E+02  0.37398511728E+02  0.51100000000E-03 0.  1.
        -12    1    3    3    0    0  0.10817996186E+02 -0.22550833341E+01 -0.13632673966E+02  0.17548909989E+02  0.00000000000E+00 0.  1.
</event>
<event>
 7    1  0.4489290E-013  0.5930194E+02  0.7816164E-02  0.1266605E+00
        -11   -1    0    0    0    0  0.00000000000E+00  0.00000000000E+00  0.45593999997E+02  0.45594000000E+02  0.51100000000E-03 0. -1.
         11   -1    0    0    0    0 -0.00000000000E+00 -0.00000000000E+00 -0.45593999997E+02  0.45594000000E+02  0.51100000000E-03 0.  1.
    9900012    2    1    2    0    0  0.28713063983E+02 -0.65392337304E+01 -0.12227794640E+02  0.59301943756E+02  0.49999999504E+02 0.  0.
         12    1    1    2    0    0 -0.28713063983E+02  0.65392337304E+01  0.12227794640E+02  0.31886056244E+02  0.00000000000E+00 0. -1.
         11    1    3    3    0    0  0.28025840243E+02 -0.20922546176E+02  0.51072065054E+00  0.34978014462E+02  0.51100000000E-03 0. -1.
        -11    1    3    3    0    0  0.67218406497E+00  0.31472641692E+01 -0.12685899177E+02  0.13087747757E+02  0.51100000000E-03 0.  1.
         12    1    3    3    0    0  0.15039674479E-01  0.11236048277E+02 -0.52616113350E-01  0.11236181537E+02  0.00000000000E+00 0. -1.
</event>
<event>
 7    1  0.4489290E-013  0.5930194E+02  0.7816164E-02  0.1266605E+00
        -11   -1    0    0    0    0  0.00000000000E+00  0.00000000000E+00  0.45593999997E+02  0.45594000000E+02  0.51100000000E-03 0. -1.
         11   -1    0    0    0    0 -0.00000000000E+00 -0.00000000000E+00 -0.45593999997E+02  0.45594000000E+02  0.51100000000E-03 0.  1.
    9900012    2    1    2    0    0 -0.14303973476E+02  0.21523369217E+02 -0.18677846706E+02  0.59301936630E+02  0.49999986509E+02 0.  0.
         12    1    1    2    0    0  0.14303973476E+02 -0.21523369217E+02  0.18677846706E+02  0.31886063370E+02  0.00000000000E+00 0. -1.
         11    1    3    3    0    0  0.79124599026E+01  0.14350323052E+02 -0.74904974421E+01  0.18017945099E+02  0.51100000000E-03 0. -1.
        -11    1    3    3    0    0 -0.22205373960E+02  0.16784402135E+02 -0.18701954547E+01  0.27897892735E+02  0.51100000000E-03 0.  1.
         12    1    3    3    0    0 -0.11059418894E-01 -0.96113559699E+01 -0.93171538093E+01  0.13386098797E+02  0.00000000000E+00 0. -1.
</event>
<event>
 7    1  0.4489290E-013  0.5930186E+02  0.7816164E-02  0.1266605E+00
        -11   -1    0    0    0    0  0.00000000000E+00  0.00000000000E+00  0.45593999997E+02  0.45594000000E+02  0.51100000000E-03 0.  1.
         11   -1    0    0    0    0 -0.00000000000E+00 -0.00000000000E+00 -0.45593999997E+02  0.45594000000E+02  0.51100000000E-03 0. -1.
    9900012    2    1    2    0    0 -0.18473967880E+02  0.37413667918E+01  0.25718486705E+02  0.59301860800E+02  0.49999848212E+02 0.  0.
         12    1    1    2    0    0  0.18473967880E+02 -0.37413667918E+01 -0.25718486705E+02  0.31886139200E+02  0.00000000000E+00 0. -1.
         11    1    3    3    0    0  0.38507401916E+01  0.79432396226E+01 -0.10758284461E+02  0.13916319216E+02  0.51100000000E-03 0. -1.
        -11    1    3    3    0    0 -0.19842539821E+02 -0.62022938153E+01  0.20874126445E+02  0.29460549727E+02  0.51100000000E-03 0.  1.
         12    1    3    3    0    0 -0.24821682505E+01  0.20004209845E+01  0.15602644721E+02  0.15924991857E+02  0.00000000000E+00 0. -1.
</event>
<event>
 7    1  0.4489290E-013  0.5930193E+02  0.7816164E-02  0.1266605E+00
        -11   -1    0    0    0    0  0.00000000000E+00  0.00000000000E+00  0.45593999997E+02  0.45594000000E+02  0.51100000000E-03 0.  1.
         11   -1    0    0    0    0 -0.00000000000E+00 -0.00000000000E+00 -0.45593999997E+02  0.45594000000E+02  0.51100000000E-03 0. -1.
    9900012    2    1    2    0    0  0.12545892183E+02  0.10602230593E+02  0.27329735458E+02  0.59301934949E+02  0.49999983443E+02 0.  0.
         12    1    1    2    0    0 -0.12545892183E+02 -0.10602230593E+02 -0.27329735458E+02  0.31886065051E+02  0.00000000000E+00 0. -1.
         11    1    3    3    0    0 -0.13582014527E+02 -0.27974000330E+01  0.18751376687E+02  0.23321893008E+02  0.51100000000E-03 0. -1.
        -11    1    3    3    0    0  0.23897014557E+02  0.56872822540E+01  0.11895617527E+02  0.27293189641E+02  0.51100000000E-03 0.  1.
         12    1    3    3    0    0  0.22308921534E+01  0.77123483723E+01 -0.33172587562E+01  0.86868522994E+01  0.00000000000E+00 0. -1.
</event>
<event>
 7    1  0.4489290E-013  0.5930191E+02  0.7816164E-02  0.1266605E+00
        -11   -1    0    0    0    0  0.00000000000E+00  0.00000000000E+00  0.45593999997E+02  0.45594000000E+02  0.51100000000E-03 0. -1.
         11   -1    0    0    0    0 -0.00000000000E+00 -0.00000000000E+00 -0.45593999997E+02  0.45594000000E+02  0.51100000000E-03 0.  1.
    9900012    2    1    2    0    0  0.25451985445E+02  0.57442488169E+01 -0.18328193941E+02  0.59301911329E+02  0.49999940365E+02 0.  0.
         12    1    1    2    0    0 -0.25451985445E+02 -0.57442488169E+01  0.18328193941E+02  0.31886088671E+02  0.00000000000E+00 0. -1.
         11    1    3    3    0    0  0.15673187347E+02 -0.16112680157E+02 -0.15098686306E+02  0.27078360214E+02  0.51100000000E-03 0. -1.
        -11    1    3    3    0    0  0.48035440764E+01  0.11089780420E+02 -0.12336305039E+02  0.17269675380E+02  0.51100000000E-03 0.  1.
         12    1    3    3    0    0  0.49752540222E+01  0.10767148553E+02  0.91067974036E+01  0.14953875735E+02  0.00000000000E+00 0. -1.
</event>
<event>
 7    1  0.4489290E-013  0.5930195E+02  0.7816164E-02  0.1266605E+00
        -11   -1    0    0    0    0  0.00000000000E+00  0.00000000000E+00  0.45593999997E+02  0.45594000000E+02  0.51100000000E-03 0.  1.
         11   -1    0    0    0    0 -0.00000000000E+00 -0.00000000000E+00 -0.45593999997E+02  0.45594000000E+02  0.51100000000E-03 0. -1.
    9900012    2    1    2    0    0 -0.15790461883E+02  0.11465147729E+02  0.25217687917E+02  0.59301951596E+02  0.50000013803E+02 0.  0.
         12    1    1    2    0    0  0.15790461883E+02 -0.11465147729E+02 -0.25217687917E+02  0.31886048404E+02  0.00000000000E+00 0. -1.
         11    1    3    3    0    0 -0.24459993583E+02  0.30454866605E+01 -0.32185177116E+01  0.24858099920E+02  0.51100000000E-03 0. -1.
        -11    1    3    3    0    0  0.10726441462E+01 -0.16589391491E+01  0.17883815622E+02  0.17992595867E+02  0.51100000000E-03 0.  1.
         12    1    3    3    0    0  0.75968875540E+01  0.10078600218E+02  0.10552390006E+02  0.16451255809E+02  0.00000000000E+00 0. -1.
</event>
<event>
 7    1  0.4489290E-013  0.5930190E+02  0.7816164E-02  0.1266605E+00
        -11   -1    0    0    0    0  0.00000000000E+00  0.00000000000E+00  0.45593999997E+02  0.45594000000E+02  0.51100000000E-03 0.  1.
         11   -1    0    0    0    0 -0.00000000000E+00 -0.00000000000E+00 -0.45593999997E+02  0.45594000000E+02  0.51100000000E-03 0. -1.
    9900012    2    1    2    0    0  0.19578303135E+02 -0.24071406133E+02  0.73471541873E+01  0.59301902379E+02  0.49999924042E+02 0.  0.
         12    1    1    2    0    0 -0.19578303135E+02  0.24071406133E+02 -0.73471541873E+01  0.31886097621E+02  0.00000000000E+00 0. -1.
         11    1    3    3    0    0  0.29850178145E+01  0.63328977328E+01  0.71647150287E+01  0.10017438133E+02  0.51100000000E-03 0. -1.
        -11    1    3    3    0    0  0.10254759259E+02 -0.22655336542E+02  0.16710384885E+02  0.29960996722E+02  0.51100000000E-03 0.  1.
         12    1    3    3    0    0  0.63385260613E+01 -0.77489673241E+01 -0.16527945726E+02  0.19323467524E+02  0.00000000000E+00 0. -1.
</event>
<event>
 7    1  0.4489290E-013  0.5930195E+02  0.7816164E-02  0.1266605E+00
        -11   -1    0    0    0    0  0.00000000000E+00  0.00000000000E+00  0.45593999997E+02  0.45594000000E+02  0.51100000000E-03 0.  1.
         11   -1    0    0    0    0 -0.00000000000E+00 -0.00000000000E+00 -0.45593999997E+02  0.45594000000E+02  0.51100000000E-03 0. -1.
    9900012    2    1    2    0    0 -0.23385651866E+02  0.18145736194E+02  0.11855968886E+02  0.59301945784E+02  0.50000003203E+02 0.  0.
         12    1    1    2    0    0  0.23385651866E+02 -0.18145736194E+02 -0.11855968886E+02  0.31886054216E+02  0.00000000000E+00 0. -1.
         11    1    3    3    0    0 -0.13258908441E+02 -0.95771244259E+01 -0.38217051368E+01  0.16796588813E+02  0.51100000000E-03 0. -1.
        -11    1    3    3    0    0 -0.18156834480E+02  0.19356126710E+02  0.55600403611E+01  0.27115389148E+02  0.51100000000E-03 0.  1.
         12    1    3    3    0    0  0.80300910557E+01  0.83667339098E+01  0.10117633662E+02  0.15389967823E+02  0.00000000000E+00 0. -1.
</event>
<event>
 7    1  0.4489290E-013  0.5930193E+02  0.7816164E-02  0.1266605E+00
        -11   -1    0    0    0    0  0.00000000000E+00  0.00000000000E+00  0.45593999997E+02  0.45594000000E+02  0.51100000000E-03 0. -1.
         11   -1    0    0    0    0 -0.00000000000E+00 -0.00000000000E+00 -0.45593999997E+02  0.45594000000E+02  0.51100000000E-03 0.  1.
    9900012    2    1    2    0    0 -0.24850563484E+01  0.28564379899E+02 -0.13950694741E+02  0.59301934269E+02  0.49999982202E+02 0.  0.
         12    1    1    2    0    0  0.24850563484E+01 -0.28564379899E+02  0.13950694741E+02  0.31886065731E+02  0.00000000000E+00 0. -1.
         11    1    3    3    0    0  0.10762152064E+02 -0.90141590258E+01  0.16677773882E+01  0.14137201338E+02  0.51100000000E-03 0. -1.
        -11    1    3    3    0    0 -0.44678108247E+01  0.22413954968E+02 -0.15547715466E+02  0.27641963884E+02  0.51100000000E-03 0.  1.
         12    1    3    3    0    0 -0.87793975876E+01  0.15164583957E+02 -0.70756663294E-01  0.17522769047E+02  0.00000000000E+00 0. -1.
</event>
<event>
 7    1  0.4489290E-013  0.5930194E+02  0.7816164E-02  0.1266605E+00
        -11   -1    0    0    0    0  0.00000000000E+00  0.00000000000E+00  0.45593999997E+02  0.45594000000E+02  0.51100000000E-03 0. -1.
         11   -1    0    0    0    0 -0.00000000000E+00 -0.00000000000E+00 -0.45593999997E+02  0.45594000000E+02  0.51100000000E-03 0.  1.
    9900012    2    1    2    0    0 -0.20379457093E+02  0.11205187424E+01 -0.24497814165E+02  0.59301941408E+02  0.49999995223E+02 0.  0.
         12    1    1    2    0    0  0.20379457093E+02 -0.11205187424E+01  0.24497814165E+02  0.31886058592E+02  0.00000000000E+00 0. -1.
         11    1    3    3    0    0 -0.56512308604E+00 -0.12386014809E+02 -0.60035853283E+01  0.13775912457E+02  0.51100000000E-03 0. -1.
        -11    1    3    3    0    0 -0.29233770334E+02  0.70322935950E+01 -0.14809046549E+02  0.33516777009E+02  0.51100000000E-03 0.  1.
         12    1    3    3    0    0  0.94194363267E+01  0.64742399565E+01 -0.36851822881E+01  0.12009251943E+02  0.00000000000E+00 0. -1.
</event>
<event>
 7    1  0.4489290E-013  0.5930203E+02  0.7816164E-02  0.1266604E+00
        -11   -1    0    0    0    0  0.00000000000E+00  0.00000000000E+00  0.45593999997E+02  0.45594000000E+02  0.51100000000E-03 0.  1.
         11   -1    0    0    0    0 -0.00000000000E+00 -0.00000000000E+00 -0.45593999997E+02  0.45594000000E+02  0.51100000000E-03 0. -1.
    9900012    2    1    2    0    0  0.22986876876E+02  0.16833026344E+02  0.14316693921E+02  0.59302031155E+02  0.50000158898E+02 0.  0.
         12    1    1    2    0    0 -0.22986876876E+02 -0.16833026344E+02 -0.14316693921E+02  0.31885968845E+02  0.00000000000E+00 0. -1.
         11    1    3    3    0    0  0.32031449444E+02  0.11870993683E+02  0.15545860254E+02  0.37531427042E+02  0.51100000000E-03 0. -1.
        -11    1    3    3    0    0 -0.10626295948E+02  0.48570981769E+01  0.68457509968E+01  0.13541561034E+02  0.51100000000E-03 0.  1.
        -12    1    3    3    0    0  0.15817233793E+01  0.10493448406E+00 -0.80749173304E+01  0.82290430784E+01  0.00000000000E+00 0.  1.
</event>
<event>
 7    1  0.4489290E-013  0.5930191E+02  0.7816164E-02  0.1266605E+00
        -11   -1    0    0    0    0  0.00000000000E+00  0.00000000000E+00  0.45593999997E+02  0.45594000000E+02  0.51100000000E-03 0.  1.
         11   -1    0    0    0    0 -0.00000000000E+00 -0.00000000000E+00 -0.45593999997E+02  0.45594000000E+02  0.51100000000E-03 0. -1.
    9900012    2    1    2    0    0 -0.15595246709E+02 -0.26671056335E+02  0.78845212521E+01  0.59301911476E+02  0.49999940634E+02 0.  0.
         12    1    1    2    0    0  0.15595246709E+02  0.26671056335E+02 -0.78845212521E+01  0.31886088524E+02  0.00000000000E+00 0. -1.
         11    1    3    3    0    0 -0.36090097402E+01 -0.24057368855E+02 -0.34783888492E+01  0.24573993098E+02  0.51100000000E-03 0.  1.
        -11    1    3    3    0    0 -0.10256163575E+02 -0.24631109212E+00  0.21689337135E+02  0.23993267932E+02  0.51100000000E-03 0. -1.
         12    1    3    3    0    0 -0.17300733941E+01 -0.23673763883E+01 -0.10326427034E+02  0.10734650446E+02  0.00000000000E+00 0. -1.
</event>
<event>
 7    1  0.4489290E-013  0.5930194E+02  0.7816164E-02  0.1266605E+00
        -11   -1    0    0    0    0  0.00000000000E+00  0.00000000000E+00  0.45593999997E+02  0.45594000000E+02  0.51100000000E-03 0.  1.
         11   -1    0    0    0    0 -0.00000000000E+00 -0.00000000000E+00 -0.45593999997E+02  0.45594000000E+02  0.51100000000E-03 0. -1.
    9900012    2    1    2    0    0 -0.20980585104E+02 -0.78340882134E+01  0.22697202332E+02  0.59301939046E+02  0.49999990915E+02 0.  0.
         12    1    1    2    0    0  0.20980585104E+02  0.78340882134E+01 -0.22697202332E+02  0.31886060954E+02  0.00000000000E+00 0. -1.
         11    1    3    3    0    0  0.93345117515E+01 -0.18616475919E+02  0.13909989100E+02  0.25043843201E+02  0.51100000000E-03 0. -1.
        -11    1    3    3    0    0 -0.73768554508E+01 -0.79044015470E+00  0.18830985801E+01  0.76543355364E+01  0.51100000000E-03 0.  1.
         12    1    3    3    0    0 -0.22938241405E+02  0.11572827860E+02  0.69041146520E+01  0.26603760308E+02  0.00000000000E+00 0. -1.
</event>
<event>
 7    1  0.4489290E-013  0.5930195E+02  0.7816164E-02  0.1266605E+00
        -11   -1    0    0    0    0  0.00000000000E+00  0.00000000000E+00  0.45593999997E+02  0.45594000000E+02  0.51100000000E-03 0. -1.
         11   -1    0    0    0    0 -0.00000000000E+00 -0.00000000000E+00 -0.45593999997E+02  0.45594000000E+02  0.51100000000E-03 0.  1.
    9900012    2    1    2    0    0 -0.85621957673E+01 -0.19120375636E+02 -0.24037890824E+02  0.59301950447E+02  0.50000011707E+02 0.  0.
         12    1    1    2    0    0  0.85621957673E+01  0.19120375636E+02  0.24037890824E+02  0.31886049553E+02  0.00000000000E+00 0. -1.
         11    1    3    3    0    0  0.10689166413E+02  0.37531073374E-01 -0.12068191950E+01  0.10757141815E+02  0.51100000000E-03 0. -1.
        -11    1    3    3    0    0 -0.95553664428E+01 -0.25343333743E+02 -0.24979224576E+02  0.36844962393E+02  0.51100000000E-03 0.  1.
         12    1    3    3    0    0 -0.96959957377E+01  0.61854270339E+01  0.21481529468E+01  0.11699846239E+02  0.00000000000E+00 0. -1.
</event>
<event>
 7    1  0.4489290E-013  0.5930195E+02  0.7816164E-02  0.1266605E+00
        -11   -1    0    0    0    0  0.00000000000E+00  0.00000000000E+00  0.45593999997E+02  0.45594000000E+02  0.51100000000E-03 0. -1.
         11   -1    0    0    0    0 -0.00000000000E+00 -0.00000000000E+00 -0.45593999997E+02  0.45594000000E+02  0.51100000000E-03 0.  1.
    9900012    2    1    2    0    0 -0.53801054806E+01 -0.28883273808E+02 -0.12390770285E+02  0.59301949302E+02  0.50000009619E+02 0.  0.
         12    1    1    2    0    0  0.53801054806E+01  0.28883273808E+02  0.12390770285E+02  0.31886050698E+02  0.00000000000E+00 0. -1.
         11    1    3    3    0    0  0.79378066454E+01  0.18809540812E+01  0.68094901925E+01  0.10626190265E+02  0.51100000000E-03 0. -1.
        -11    1    3    3    0    0 -0.16451224545E+02 -0.28811044065E+02 -0.25178364444E+02  0.41649358764E+02  0.51100000000E-03 0.  1.
        -12    1    3    3    0    0  0.31333124194E+01 -0.19531838244E+01  0.59781039658E+01  0.70264002729E+01  0.00000000000E+00 0.  1.
</event>
<event>
 7    1  0.4489290E-013  0.5930190E+02  0.7816164E-02  0.1266605E+00
        -11   -1    0    0    0    0  0.00000000000E+00  0.00000000000E+00  0.45593999997E+02  0.45594000000E+02  0.51100000000E-03 0. -1.
         11   -1    0    0    0    0 -0.00000000000E+00 -0.00000000000E+00 -0.45593999997E+02  0.45594000000E+02  0.51100000000E-03 0.  1.
    9900012    2    1    2    0    0 -0.75918039681E+01 -0.17470268768E+02 -0.25571035799E+02  0.59301895658E+02  0.49999911784E+02 0.  0.
         12    1    1    2    0    0  0.75918039681E+01  0.17470268768E+02  0.25571035799E+02  0.31886104342E+02  0.00000000000E+00 0. -1.
         11    1    3    3    0    0 -0.63508822501E+01  0.92007236852E+01  0.56459560944E+01  0.12524529619E+02  0.51100000000E-03 0. -1.
        -11    1    3    3    0    0  0.42181518240E+01 -0.13142113897E+02 -0.28871689842E+02  0.32001288053E+02  0.51100000000E-03 0.  1.
         12    1    3    3    0    0 -0.54590735419E+01 -0.13528878556E+02 -0.23453020512E+01  0.14776077986E+02  0.00000000000E+00 0. -1.
</event>
<event>
 7    1  0.4489290E-013  0.5930194E+02  0.7816164E-02  0.1266605E+00
        -11   -1    0    0    0    0  0.00000000000E+00  0.00000000000E+00  0.45593999997E+02  0.45594000000E+02  0.51100000000E-03 0. -1.
         11   -1    0    0    0    0 -0.00000000000E+00 -0.00000000000E+00 -0.45593999997E+02  0.45594000000E+02  0.51100000000E-03 0.  1.
    9900012    2    1    2    0    0 -0.19176532714E+01 -0.22482534265E+02 -0.22529509800E+02  0.59301944225E+02  0.50000000361E+02 0.  0.
         12    1    1    2    0    0  0.19176532714E+01  0.22482534265E+02  0.22529509800E+02  0.31886055775E+02  0.00000000000E+00 0. -1.
         11    1    3    3    0    0  0.14209600866E+02 -0.19419319418E+02 -0.10271190368E+02  0.26163334559E+02  0.51100000000E-03 0. -1.
        -11    1    3    3    0    0 -0.10883541661E+02 -0.49553519498E+01  0.64711233418E+01  0.13597147848E+02  0.51100000000E-03 0.  1.
        -12    1    3    3    0    0 -0.52437124766E+01  0.18921371031E+01 -0.18729442774E+02  0.19541461818E+02  0.00000000000E+00 0.  1.
</event>
<event>
 7    1  0.4489290E-013  0.5930189E+02  0.7816164E-02  0.1266605E+00
        -11   -1    0    0    0    0  0.00000000000E+00  0.00000000000E+00  0.45593999997E+02  0.45594000000E+02  0.51100000000E-03 0.  1.
         11   -1    0    0    0    0 -0.00000000000E+00 -0.00000000000E+00 -0.45593999997E+02  0.45594000000E+02  0.51100000000E-03 0. -1.
    9900012    2    1    2    0    0  0.28007168721E+01  0.31686945101E+02  0.21948965354E+01  0.59301888985E+02  0.49999899616E+02 0.  0.
         12    1    1    2    0    0 -0.28007168721E+01 -0.31686945101E+02 -0.21948965354E+01  0.31886111015E+02  0.00000000000E+00 0. -1.
         11    1    3    3    0    0 -0.17886854910E+02  0.39805002600E+01 -0.74723267114E+01  0.19789381689E+02  0.51100000000E-03 0. -1.
        -11    1    3    3    0    0  0.18053582504E+02  0.28682608320E+02  0.11904565522E+02  0.35921338252E+02  0.51100000000E-03 0.  1.
         12    1    3    3    0    0  0.26339892780E+01 -0.97616347888E+00 -0.22373422749E+01  0.35911690449E+01  0.00000000000E+00 0. -1.
</event>
<event>
 7    1  0.4489290E-013  0.5930195E+02  0.7816164E-02  0.1266605E+00
        -11   -1    0    0    0    0  0.00000000000E+00  0.00000000000E+00  0.45593999997E+02  0.45594000000E+02  0.51100000000E-03 0. -1.
         11   -1    0    0    0    0 -0.00000000000E+00 -0.00000000000E+00 -0.45593999997E+02  0.45594000000E+02  0.51100000000E-03 0.  1.
    9900012    2    1    2    0    0 -0.18972832047E+01  0.26942409248E+02 -0.16947775794E+02  0.59301949696E+02  0.50000010338E+02 0.  0.
         12    1    1    2    0    0  0.18972832047E+01 -0.26942409248E+02  0.16947775794E+02  0.31886050304E+02  0.00000000000E+00 0. -1.
         11    1    3    3    0    0  0.82054275911E+01 -0.91948461675E+01 -0.59589337631E+01  0.13688795778E+02  0.51100000000E-03 0. -1.
        -11    1    3    3    0    0 -0.51026809579E+01  0.29472079228E+02 -0.17839275485E+02  0.34826434746E+02  0.51100000000E-03 0.  1.
        -12    1    3    3    0    0 -0.50000298380E+01  0.66651761872E+01  0.68504334548E+01  0.10786719172E+02  0.00000000000E+00 0.  1.
</event>
<event>
 7    1  0.4489290E-013  0.5930223E+02  0.7816164E-02  0.1266604E+00
        -11   -1    0    0    0    0  0.00000000000E+00  0.00000000000E+00  0.45593999997E+02  0.45594000000E+02  0.51100000000E-03 0. -1.
         11   -1    0    0    0    0 -0.00000000000E+00 -0.00000000000E+00 -0.45593999997E+02  0.45594000000E+02  0.51100000000E-03 0.  1.
    9900012    2    1    2    0    0  0.21133059378E+02  0.11198040125E+02 -0.21087909517E+02  0.59302231559E+02  0.50000524385E+02 0.  0.
         12    1    1    2    0    0 -0.21133059378E+02 -0.11198040125E+02  0.21087909517E+02  0.31885768441E+02  0.00000000000E+00 0. -1.
         11    1    3    3    0    0 -0.14239862590E+02  0.57972220980E+01 -0.36683718730E+01  0.15806277964E+02  0.51100000000E-03 0. -1.
        -11    1    3    3    0    0  0.33300735514E+02  0.39286632450E+01 -0.20653969236E+02  0.39382227288E+02  0.51100000000E-03 0.  1.
        -12    1    3    3    0    0  0.20721864530E+01  0.14721547821E+01  0.32344315929E+01  0.41137263068E+01  0.00000000000E+00 0.  1.
</event>
<event>
 7    1  0.4489290E-013  0.5930192E+02  0.7816164E-02  0.1266605E+00
        -11   -1    0    0    0    0  0.00000000000E+00  0.00000000000E+00  0.45593999997E+02  0.45594000000E+02  0.51100000000E-03 0.  1.
         11   -1    0    0    0    0 -0.00000000000E+00 -0.00000000000E+00 -0.45593999997E+02  0.45594000000E+02  0.51100000000E-03 0. -1.
    9900012    2    1    2    0    0 -0.45569347364E+01 -0.13984714158E+02  0.28291060875E+02  0.59301921381E+02  0.49999958698E+02 0.  0.
         12    1    1    2    0    0  0.45569347364E+01  0.13984714158E+02 -0.28291060875E+02  0.31886078619E+02  0.00000000000E+00 0. -1.
         11    1    3    3    0    0  0.92050969002E+01  0.98834243427E+01  0.11934000257E+01  0.13558764308E+02  0.51100000000E-03 0. -1.
        -11    1    3    3    0    0 -0.18272189458E+02 -0.10025265718E+02  0.22031946561E+02  0.30327966133E+02  0.51100000000E-03 0.  1.
        -12    1    3    3    0    0  0.45101578210E+01 -0.13842872783E+02  0.50657142885E+01  0.15415190940E+02  0.00000000000E+00 0.  1.
</event>
<event>
 7    1  0.4489290E-013  0.5930201E+02  0.7816164E-02  0.1266605E+00
        -11   -1    0    0    0    0  0.00000000000E+00  0.00000000000E+00  0.45593999997E+02  0.45594000000E+02  0.51100000000E-03 0. -1.
         11   -1    0    0    0    0 -0.00000000000E+00 -0.00000000000E+00 -0.45593999997E+02  0.45594000000E+02  0.51100000000E-03 0.  1.
    9900012    2    1    2    0    0  0.20149621934E+02 -0.11709729766E+02 -0.21762151849E+02  0.59302011096E+02  0.50000122316E+02 0.  0.
         12    1    1    2    0    0 -0.20149621934E+02  0.11709729766E+02  0.21762151849E+02  0.31885988904E+02  0.00000000000E+00 0. -1.
         11    1    3    3    0    0  0.60712578919E+01  0.52190342110E+01 -0.58738015068E+01  0.99297550265E+01  0.51100000000E-03 0. -1.
        -11    1    3    3    0    0 -0.12388577267E+02 -0.69194317527E+00  0.33407733361E+01  0.12849762597E+02  0.51100000000E-03 0.  1.
        -12    1    3    3    0    0  0.26466941309E+02 -0.16236820802E+02 -0.19229123678E+02  0.36522493473E+02  0.00000000000E+00 0.  1.
</event>
<event>
 7    1  0.4489290E-013  0.5930191E+02  0.7816164E-02  0.1266605E+00
        -11   -1    0    0    0    0  0.00000000000E+00  0.00000000000E+00  0.45593999997E+02  0.45594000000E+02  0.51100000000E-03 0.  1.
         11   -1    0    0    0    0 -0.00000000000E+00 -0.00000000000E+00 -0.45593999997E+02  0.45594000000E+02  0.51100000000E-03 0. -1.
    9900012    2    1    2    0    0 -0.16222978778E+01 -0.26936188007E+02  0.16986241143E+02  0.59301914274E+02  0.49999945736E+02 0.  0.
         12    1    1    2    0    0  0.16222978778E+01  0.26936188007E+02 -0.16986241143E+02  0.31886085726E+02  0.00000000000E+00 0. -1.
         11    1    3    3    0    0 -0.12716183248E+02  0.27172205661E+01 -0.55564399412E+01  0.14140672866E+02  0.51100000000E-03 0. -1.
        -11    1    3    3    0    0  0.14670373657E+02 -0.31499929502E+02  0.21929519322E+02  0.41089770501E+02  0.51100000000E-03 0.  1.
        -12    1    3    3    0    0 -0.35764882866E+01  0.18465209286E+01  0.61316176223E+00  0.40714709075E+01  0.00000000000E+00 0.  1.
</event>
<event>
 7    1  0.4489290E-013  0.5930195E+02  0.7816164E-02  0.1266605E+00
        -11   -1    0    0    0    0  0.00000000000E+00  0.00000000000E+00  0.45593999997E+02  0.45594000000E+02  0.51100000000E-03 0. -1.
         11   -1    0    0    0    0 -0.00000000000E+00 -0.00000000000E+00 -0.45593999997E+02  0.45594000000E+02  0.51100000000E-03 0.  1.
    9900012    2    1    2    0    0  0.19593141264E+02  0.62851976073E+01 -0.24358269273E+02  0.59301950142E+02  0.50000011151E+02 0.  0.
         12    1    1    2    0    0 -0.19593141264E+02 -0.62851976073E+01  0.24358269273E+02  0.31886049858E+02  0.00000000000E+00 0. -1.
         11    1    3    3    0    0  0.24262643570E+02  0.17558135540E+02 -0.66094211583E+01  0.30669992582E+02  0.51100000000E-03 0. -1.
        -11    1    3    3    0    0  0.13218930500E+01 -0.57094907772E+01 -0.19421543890E+02  0.20286499292E+02  0.51100000000E-03 0.  1.
         12    1    3    3    0    0 -0.59913953559E+01 -0.55634471553E+01  0.16726957753E+01  0.83454582689E+01  0.00000000000E+00 0. -1.
</event>
<event>
 7    1  0.4489290E-013  0.5930199E+02  0.7816164E-02  0.1266605E+00
        -11   -1    0    0    0    0  0.00000000000E+00  0.00000000000E+00  0.45593999997E+02  0.45594000000E+02  0.51100000000E-03 0.  1.
         11   -1    0    0    0    0 -0.00000000000E+00 -0.00000000000E+00 -0.45593999997E+02  0.45594000000E+02  0.51100000000E-03 0. -1.
    9900012    2    1    2    0    0  0.14724367435E+02  0.26231067368E+02  0.10575534410E+02  0.59301987084E+02  0.50000078523E+02 0.  0.
         12    1    1    2    0    0 -0.14724367435E+02 -0.26231067368E+02 -0.10575534410E+02  0.31886012916E+02  0.00000000000E+00 0. -1.
         11    1    3    3    0    0  0.13051127486E+01  0.19251684749E+02 -0.56881731641E+01  0.20116808871E+02  0.51100000000E-03 0. -1.
        -11    1    3    3    0    0  0.64735966201E+01 -0.10834539214E+02  0.15582901713E+02  0.20052967841E+02  0.51100000000E-03 0.  1.
        -12    1    3    3    0    0  0.69456580666E+01  0.17813921834E+02  0.68080586099E+00  0.19132210371E+02  0.00000000000E+00 0.  1.
</event>
<event>
 7    1  0.4489290E-013  0.5930197E+02  0.7816164E-02  0.1266605E+00
        -11   -1    0    0    0    0  0.00000000000E+00  0.00000000000E+00  0.45593999997E+02  0.45594000000E+02  0.51100000000E-03 0. -1.
         11   -1    0    0    0    0 -0.00000000000E+00 -0.00000000000E+00 -0.45593999997E+02  0.45594000000E+02  0.51100000000E-03 0.  1.
    9900012    2    1    2    0    0 -0.28637018824E+02 -0.42772679357E+01  0.13354579020E+02  0.59301974081E+02  0.50000054810E+02 0.  0.
         12    1    1    2    0    0  0.28637018824E+02  0.42772679357E+01 -0.13354579020E+02  0.31886025919E+02  0.00000000000E+00 0. -1.
         11    1    3    3    0    0  0.41215091168E+01 -0.84340521584E+01  0.29267132410E+01  0.98328899041E+01  0.51100000000E-03 0. -1.
        -11    1    3    3    0    0 -0.30423538382E+02 -0.10923588190E+02  0.29049317132E+01  0.32455432444E+02  0.51100000000E-03 0.  1.
        -12    1    3    3    0    0 -0.23349895588E+01  0.15080372413E+02  0.75229340657E+01  0.17013651733E+02  0.00000000000E+00 0.  1.
</event>
<event>
 7    1  0.4489290E-013  0.5930192E+02  0.7816164E-02  0.1266605E+00
        -11   -1    0    0    0    0  0.00000000000E+00  0.00000000000E+00  0.45593999997E+02  0.45594000000E+02  0.51100000000E-03 0.  1.
         11   -1    0    0    0    0 -0.00000000000E+00 -0.00000000000E+00 -0.45593999997E+02  0.45594000000E+02  0.51100000000E-03 0. -1.
    9900012    2    1    2    0    0 -0.27229708178E+02 -0.40959256619E+01  0.16077571394E+02  0.59301922844E+02  0.49999961366E+02 0.  0.
         12    1    1    2    0    0  0.27229708178E+02  0.40959256619E+01 -0.16077571394E+02  0.31886077156E+02  0.00000000000E+00 0. -1.
         11    1    3    3    0    0 -0.34541945750E+00 -0.17730960704E+02 -0.21624932568E+01  0.17865683850E+02  0.51100000000E-03 0. -1.
        -11    1    3    3    0    0 -0.26867718146E+02  0.35542149619E+01  0.13938133329E+02  0.30475863947E+02  0.51100000000E-03 0.  1.
        -12    1    3    3    0    0 -0.16570573898E-01  0.10080820080E+02  0.43019313221E+01  0.10960375047E+02  0.00000000000E+00 0.  1.
</event>
<event>
 7    1  0.4489290E-013  0.5930195E+02  0.7816164E-02  0.1266605E+00
        -11   -1    0    0    0    0  0.00000000000E+00  0.00000000000E+00  0.45593999997E+02  0.45594000000E+02  0.51100000000E-03 0.  1.
         11   -1    0    0    0    0 -0.00000000000E+00 -0.00000000000E+00 -0.45593999997E+02  0.45594000000E+02  0.51100000000E-03 0. -1.
    9900012    2    1    2    0    0  0.10236999449E+02  0.46143574591E+01 -0.29843455399E+02  0.59301948463E+02  0.50000008088E+02 0.  0.
         12    1    1    2    0    0 -0.10236999449E+02 -0.46143574591E+01  0.29843455399E+02  0.31886051537E+02  0.00000000000E+00 0. -1.
         11    1    3    3    0    0 -0.15897966450E+02  0.10353188606E+02 -0.21805391560E+02  0.28903441887E+02  0.51100000000E-03 0. -1.
        -11    1    3    3    0    0  0.17912341248E+02 -0.17509099039E+01 -0.10626017912E+02  0.20900476344E+02  0.51100000000E-03 0.  1.
         12    1    3    3    0    0  0.82226246515E+01 -0.39879212433E+01  0.25879540729E+01  0.94980302319E+01  0.00000000000E+00 0. -1.
</event>
<event>
 7    1  0.4489290E-013  0.5930210E+02  0.7816164E-02  0.1266604E+00
        -11   -1    0    0    0    0  0.00000000000E+00  0.00000000000E+00  0.45593999997E+02  0.45594000000E+02  0.51100000000E-03 0. -1.
         11   -1    0    0    0    0 -0.00000000000E+00 -0.00000000000E+00 -0.45593999997E+02  0.45594000000E+02  0.51100000000E-03 0.  1.
    9900012    2    1    2    0    0  0.28338280280E+02 -0.14608012027E+02 -0.50816129666E+00  0.59302103862E+02  0.50000291498E+02 0.  0.
         12    1    1    2    0    0 -0.28338280280E+02  0.14608012027E+02  0.50816129666E+00  0.31885896138E+02  0.00000000000E+00 0. -1.
         11    1    3    3    0    0 -0.12713507246E+02 -0.20777712917E+01  0.83506372792E+01  0.15351988251E+02  0.51100000000E-03 0. -1.
        -11    1    3    3    0    0  0.62413188391E+01 -0.12810548929E+01 -0.29552375527E+00  0.63782832362E+01  0.51100000000E-03 0.  1.
         12    1    3    3    0    0  0.34810468687E+02 -0.11249185842E+02 -0.85632748206E+01  0.37571832375E+02  0.00000000000E+00 0. -1.
</event>
<event>
 7    1  0.4489290E-013  0.5930196E+02  0.7816164E-02  0.1266605E+00
        -11   -1    0    0    0    0  0.00000000000E+00  0.00000000000E+00  0.45593999997E+02  0.45594000000E+02  0.51100000000E-03 0.  1.
         11   -1    0    0    0    0 -0.00000000000E+00 -0.00000000000E+00 -0.45593999997E+02  0.45594000000E+02  0.51100000000E-03 0. -1.
    9900012    2    1    2    0    0  0.18590130850E+02  0.25322519465E+02  0.54677781614E+01  0.59301959872E+02  0.50000028895E+02 0.  0.
         12    1    1    2    0    0 -0.18590130850E+02 -0.25322519465E+02 -0.54677781614E+01  0.31886040128E+02  0.00000000000E+00 0. -1.
         11    1    3    3    0    0 -0.11155339920E+02 -0.74450958390E+01  0.37482544858E+01  0.13925533122E+02  0.51100000000E-03 0. -1.
        -11    1    3    3    0    0  0.24811444210E+01  0.27406663749E+01 -0.27004388765E+01  0.45781765150E+01  0.51100000000E-03 0.  1.
         12    1    3    3    0    0  0.27264326349E+02  0.30026948929E+02  0.44199625521E+01  0.40798250234E+02  0.00000000000E+00 0. -1.
</event>
<event>
 7    1  0.4489290E-013  0.5930196E+02  0.7816164E-02  0.1266605E+00
        -11   -1    0    0    0    0  0.00000000000E+00  0.00000000000E+00  0.45593999997E+02  0.45594000000E+02  0.51100000000E-03 0. -1.
         11   -1    0    0    0    0 -0.00000000000E+00 -0.00000000000E+00 -0.45593999997E+02  0.45594000000E+02  0.51100000000E-03 0.  1.
    9900012    2    1    2    0    0 -0.19619854971E+02  0.21722490168E+02 -0.12645725860E+02  0.59301958058E+02  0.50000025587E+02 0.  0.
         12    1    1    2    0    0  0.19619854971E+02 -0.21722490168E+02  0.12645725860E+02  0.31886041942E+02  0.00000000000E+00 0. -1.
         11    1    3    3    0    0 -0.18258655481E+02  0.28856788129E+02 -0.30341011661E+01  0.34282626668E+02  0.51100000000E-03 0. -1.
        -11    1    3    3    0    0 -0.11015187599E+02 -0.51710377733E+01 -0.90254080060E+01  0.15150312849E+02  0.51100000000E-03 0.  1.
         12    1    3    3    0    0  0.96539881079E+01 -0.19632601874E+01 -0.58621668831E+00  0.98690185407E+01  0.00000000000E+00 0. -1.
</event>
<event>
 7    1  0.4489290E-013  0.5930192E+02  0.7816164E-02  0.1266605E+00
        -11   -1    0    0    0    0  0.00000000000E+00  0.00000000000E+00  0.45593999997E+02  0.45594000000E+02  0.51100000000E-03 0.  1.
         11   -1    0    0    0    0 -0.00000000000E+00 -0.00000000000E+00 -0.45593999997E+02  0.45594000000E+02  0.51100000000E-03 0. -1.
    9900012    2    1    2    0    0 -0.22748738029E+02  0.89154217967E+01  0.20487373672E+02  0.59301916708E+02  0.49999950175E+02 0.  0.
         12    1    1    2    0    0  0.22748738029E+02 -0.89154217967E+01 -0.20487373672E+02  0.31886083292E+02  0.00000000000E+00 0. -1.
         11    1    3    3    0    0 -0.69222866029E+00  0.22884970924E+02 -0.50385811264E+00  0.22900981376E+02  0.51100000000E-03 0. -1.
        -11    1    3    3    0    0 -0.18626830867E+02 -0.40828106317E+01  0.11469027112E+02  0.22252342662E+02  0.51100000000E-03 0.  1.
         12    1    3    3    0    0 -0.34296785023E+01 -0.98867384958E+01  0.95222046725E+01  0.14148592670E+02  0.00000000000E+00 0. -1.
</event>
<event>
 7    1  0.4489290E-013  0.5930195E+02  0.7816164E-02  0.1266605E+00
        -11   -1    0    0    0    0  0.00000000000E+00  0.00000000000E+00  0.45593999997E+02  0.45594000000E+02  0.51100000000E-03 0.  1.
         11   -1    0    0    0    0 -0.00000000000E+00 -0.00000000000E+00 -0.45593999997E+02  0.45594000000E+02  0.51100000000E-03 0. -1.
    9900012    2    1    2    0    0 -0.16900585683E+02 -0.23204730770E+02  0.13879161769E+02  0.59301945714E+02  0.50000003074E+02 0.  0.
         12    1    1    2    0    0  0.16900585683E+02  0.23204730770E+02 -0.13879161769E+02  0.31886054286E+02  0.00000000000E+00 0. -1.
         11    1    3    3    0    0 -0.27118261175E+01 -0.19622095813E+02 -0.11053238361E+02  0.22683798701E+02  0.51100000000E-03 0. -1.
        -11    1    3    3    0    0 -0.87101057180E+01  0.91676639842E+01  0.91903260655E+01  0.15632469351E+02  0.51100000000E-03 0.  1.
        -12    1    3    3    0    0 -0.54786538476E+01 -0.12750298941E+02  0.15742074064E+02  0.20985677662E+02  0.00000000000E+00 0.  1.
</event>
<event>
 7    1  0.4489290E-013  0.5930189E+02  0.7816164E-02  0.1266605E+00
        -11   -1    0    0    0    0  0.00000000000E+00  0.00000000000E+00  0.45593999997E+02  0.45594000000E+02  0.51100000000E-03 0.  1.
         11   -1    0    0    0    0 -0.00000000000E+00 -0.00000000000E+00 -0.45593999997E+02  0.45594000000E+02  0.51100000000E-03 0. -1.
    9900012    2    1    2    0    0 -0.21118834089E+02 -0.53158628678E+01  0.23290784562E+02  0.59301887085E+02  0.49999896150E+02 0.  0.
         12    1    1    2    0    0  0.21118834089E+02  0.53158628678E+01 -0.23290784562E+02  0.31886112915E+02  0.00000000000E+00 0. -1.
         11    1    3    3    0    0  0.91018070361E+01  0.10726565176E+02  0.48517800869E+01  0.14880922756E+02  0.51100000000E-03 0. -1.
        -11    1    3    3    0    0 -0.23605947398E+02 -0.58641589072E+01  0.20859795027E+02  0.32043098494E+02  0.51100000000E-03 0.  1.
         12    1    3    3    0    0 -0.66146937267E+01 -0.10178269137E+02 -0.24207905516E+01  0.12377865835E+02  0.00000000000E+00 0. -1.
</event>
<event>
 7    1  0.4489290E-013  0.5930190E+02  0.7816164E-02  0.1266605E+00
        -11   -1    0    0    0    0  0.00000000000E+00  0.00000000000E+00  0.45593999997E+02  0.45594000000E+02  0.51100000000E-03 0. -1.
         11   -1    0    0    0    0 -0.00000000000E+00 -0.00000000000E+00 -0.45593999997E+02  0.45594000000E+02  0.51100000000E-03 0.  1.
    9900012    2    1    2    0    0 -0.27026747550E+02  0.61762656447E+01 -0.15752209288E+02  0.59301898986E+02  0.49999917854E+02 0.  0.
         12    1    1    2    0    0  0.27026747550E+02 -0.61762656447E+01  0.15752209288E+02  0.31886101014E+02  0.00000000000E+00 0. -1.
         11    1    3    3    0    0  0.56972817989E+01 -0.33313710743E+01  0.95032102294E+01  0.11570136475E+02  0.51100000000E-03 0. -1.
        -11    1    3    3    0    0 -0.86458406915E+01 -0.60059806120E+01 -0.12595613744E+02  0.16415597772E+02  0.51100000000E-03 0.  1.
         12    1    3    3    0    0 -0.24078188657E+02  0.15513617331E+02 -0.12659805774E+02  0.31316164739E+02  0.00000000000E+00 0. -1.
</event>
<event>
 7    1  0.4489290E-013  0.5930194E+02  0.7816164E-02  0.1266605E+00
        -11   -1    0    0    0    0  0.00000000000E+00  0.00000000000E+00  0.45593999997E+02  0.45594000000E+02  0.51100000000E-03 0.  1.
         11   -1    0    0    0    0 -0.00000000000E+00 -0.00000000000E+00 -0.45593999997E+02  0.45594000000E+02  0.51100000000E-03 0. -1.
    9900012    2    1    2    0    0  0.23624352622E+02  0.10390924701E+02  0.18725368214E+02  0.59301940857E+02  0.49999994217E+02 0.  0.
         12    1    1    2    0    0 -0.23624352622E+02 -0.10390924701E+02 -0.18725368214E+02  0.31886059143E+02  0.00000000000E+00 0. -1.
         11    1    3    3    0    0 -0.50035464245E+01 -0.17993969817E+01  0.12251346930E+02  0.13355478583E+02  0.51100000000E-03 0. -1.
        -11    1    3    3    0    0  0.35708222081E+02  0.12530160032E+02  0.27585631546E+01  0.37943269568E+02  0.51100000000E-03 0.  1.
        -12    1    3    3    0    0 -0.70803230340E+01 -0.33983834887E+00  0.37154581290E+01  0.80031927053E+01  0.00000000000E+00 0.  1.
</event>
<event>
 7    1  0.4489290E-013  0.5930194E+02  0.7816164E-02  0.1266605E+00
        -11   -1    0    0    0    0  0.00000000000E+00  0.00000000000E+00  0.45593999997E+02  0.45594000000E+02  0.51100000000E-03 0.  1.
         11   -1    0    0    0    0 -0.00000000000E+00 -0.00000000000E+00 -0.45593999997E+02  0.45594000000E+02  0.51100000000E-03 0. -1.
    9900012    2    1    2    0    0 -0.19205653684E+02  0.19699478311E+02  0.16118135195E+02  0.59301939388E+02  0.49999991539E+02 0.  0.
         12    1    1    2    0    0  0.19205653684E+02 -0.19699478311E+02 -0.16118135195E+02  0.31886060612E+02  0.00000000000E+00 0. -1.
         11    1    3    3    0    0  0.56183183248E+01  0.55399172251E+01 -0.10718528951E+01  0.79627289637E+01  0.51100000000E-03 0. -1.
        -11    1    3    3    0    0 -0.15239318242E+02 -0.12440725968E+02  0.10436478988E+02  0.22269453900E+02  0.51100000000E-03 0.  1.
        -12    1    3    3    0    0 -0.95846537672E+01  0.26600287054E+02  0.67535091022E+01  0.29069756525E+02  0.00000000000E+00 0.  1.
</event>
<event>
 7    1  0.4489290E-013  0.5930183E+02  0.7816164E-02  0.1266605E+00
        -11   -1    0    0    0    0  0.00000000000E+00  0.00000000000E+00  0.45593999997E+02  0.45594000000E+02  0.51100000000E-03 0.  1.
         11   -1    0    0    0    0 -0.00000000000E+00 -0.00000000000E+00 -0.45593999997E+02  0.45594000000E+02  0.51100000000E-03 0. -1.
    9900012    2    1    2    0    0  0.17546900031E+02  0.64550601949E+00  0.26616115957E+02  0.59301827333E+02  0.49999787177E+02 0.  0.
         12    1    1    2    0    0 -0.17546900031E+02 -0.64550601949E+00 -0.26616115957E+02  0.31886172667E+02  0.00000000000E+00 0. -1.
         11    1    3    3    0    0 -0.98859008487E+00  0.35701255413E+01 -0.88983991971E+01  0.96387040243E+01  0.51100000000E-03 0. -1.
        -11    1    3    3    0    0  0.16286227759E+02 -0.14908720488E+02  0.18962677861E+02  0.29104884696E+02  0.51100000000E-03 0.  1.
        -12    1    3    3    0    0  0.22492623568E+01  0.11984100967E+02  0.16551837293E+02  0.20558238614E+02  0.00000000000E+00 0.  1.
</event>
<event>
 7    1  0.4489290E-013  0.5930176E+02  0.7816164E-02  0.1266605E+00
        -11   -1    0    0    0    0  0.00000000000E+00  0.00000000000E+00  0.45593999997E+02  0.45594000000E+02  0.51100000000E-03 0. -1.
         11   -1    0    0    0    0 -0.00000000000E+00 -0.00000000000E+00 -0.45593999997E+02  0.45594000000E+02  0.51100000000E-03 0.  1.
    9900012    2    1    2    0    0  0.16205126120E+02 -0.18495599041E+02 -0.20298736812E+02  0.59301764528E+02  0.49999672634E+02 0.  0.
         12    1    1    2    0    0 -0.16205126120E+02  0.18495599041E+02  0.20298736812E+02  0.31886235472E+02  0.00000000000E+00 0. -1.
         11    1    3    3    0    0 -0.12894169459E+01 -0.22257178924E+02 -0.24365181204E+02  0.33025848438E+02  0.51100000000E-03 0. -1.
        -11    1    3    3    0    0  0.22908430634E+01  0.50348844985E+01 -0.58722978950E+01  0.80673357859E+01  0.51100000000E-03 0.  1.
         12    1    3    3    0    0  0.15203700003E+02 -0.12733046155E+01  0.99387422872E+01  0.18208580303E+02  0.00000000000E+00 0. -1.
</event>
<event>
 7    1  0.4489290E-013  0.5930195E+02  0.7816164E-02  0.1266605E+00
        -11   -1    0    0    0    0  0.00000000000E+00  0.00000000000E+00  0.45593999997E+02  0.45594000000E+02  0.51100000000E-03 0. -1.
         11   -1    0    0    0    0 -0.00000000000E+00 -0.00000000000E+00 -0.45593999997E+02  0.45594000000E+02  0.51100000000E-03 0.  1.
    9900012    2    1    2    0    0 -0.21806186065E+02 -0.52670139545E+01 -0.22659857867E+02  0.59301947481E+02  0.50000006298E+02 0.  0.
         12    1    1    2    0    0  0.21806186065E+02  0.52670139545E+01  0.22659857867E+02  0.31886052519E+02  0.00000000000E+00 0. -1.
         11    1    3    3    0    0  0.96765334509E+01 -0.93299041075E+01 -0.15170120822E+02  0.20268571146E+02  0.51100000000E-03 0. -1.
        -11    1    3    3    0    0 -0.25694510367E+02  0.12048926785E+02 -0.65520925777E+01  0.29125837620E+02  0.51100000000E-03 0.  1.
        -12    1    3    3    0    0 -0.57882091489E+01 -0.79860366323E+01 -0.93764446707E+00  0.99075387151E+01  0.00000000000E+00 0.  1.
</event>
<event>
 7    1  0.4489290E-013  0.5930187E+02  0.7816164E-02  0.1266605E+00
        -11   -1    0    0    0    0  0.00000000000E+00  0.00000000000E+00  0.45593999997E+02  0.45594000000E+02  0.51100000000E-03 0. -1.
         11   -1    0    0    0    0 -0.00000000000E+00 -0.00000000000E+00 -0.45593999997E+02  0.45594000000E+02  0.51100000000E-03 0.  1.
    9900012    2    1    2    0    0 -0.24858201269E+01 -0.17098088910E+02 -0.26799274929E+02  0.59301873192E+02  0.49999870812E+02 0.  0.
         12    1    1    2    0    0  0.24858201269E+01  0.17098088910E+02  0.26799274929E+02  0.31886126808E+02  0.00000000000E+00 0. -1.
         11    1    3    3    0    0  0.10105763166E+02 -0.15565280562E+01  0.37533078308E+00  0.10231818129E+02  0.51100000000E-03 0.  1.
        -11    1    3    3    0    0 -0.17342926607E+02  0.26667480777E+01 -0.20303625804E+01  0.17663833703E+02  0.51100000000E-03 0. -1.
        -12    1    3    3    0    0  0.47513433141E+01 -0.18208308932E+02 -0.25144243132E+02  0.31406221360E+02  0.00000000000E+00 0.  1.
</event>
<event>
 7    1  0.4489290E-013  0.5930187E+02  0.7816164E-02  0.1266605E+00
        -11   -1    0    0    0    0  0.00000000000E+00  0.00000000000E+00  0.45593999997E+02  0.45594000000E+02  0.51100000000E-03 0.  1.
         11   -1    0    0    0    0 -0.00000000000E+00 -0.00000000000E+00 -0.45593999997E+02  0.45594000000E+02  0.51100000000E-03 0. -1.
    9900012    2    1    2    0    0 -0.12269696797E+02  0.29277802579E+02  0.29983105523E+01  0.59301873714E+02  0.49999871765E+02 0.  0.
         12    1    1    2    0    0  0.12269696797E+02 -0.29277802579E+02 -0.29983105523E+01  0.31886126286E+02  0.00000000000E+00 0. -1.
         11    1    3    3    0    0  0.71592364505E+01 -0.66801214300E+01  0.10965555371E+01  0.98529753466E+01  0.51100000000E-03 0. -1.
        -11    1    3    3    0    0 -0.23750807267E+02  0.15972495954E+02 -0.17604567961E+01  0.28676134350E+02  0.51100000000E-03 0.  1.
         12    1    3    3    0    0  0.43218740199E+01  0.19985428055E+02  0.36622118113E+01  0.20772764018E+02  0.00000000000E+00 0. -1.
</event>
<event>
 7    1  0.4489290E-013  0.5930187E+02  0.7816164E-02  0.1266605E+00
        -11   -1    0    0    0    0  0.00000000000E+00  0.00000000000E+00  0.45593999997E+02  0.45594000000E+02  0.51100000000E-03 0. -1.
         11   -1    0    0    0    0 -0.00000000000E+00 -0.00000000000E+00 -0.45593999997E+02  0.45594000000E+02  0.51100000000E-03 0.  1.
    9900012    2    1    2    0    0  0.33249965868E+01 -0.29342120746E+02 -0.12029536942E+02  0.59301868042E+02  0.49999861420E+02 0.  0.
         12    1    1    2    0    0 -0.33249965868E+01  0.29342120746E+02  0.12029536942E+02  0.31886131958E+02  0.00000000000E+00 0. -1.
         11    1    3    3    0    0 -0.30215833792E+01 -0.27794109496E+01  0.11737363268E+02  0.12434660755E+02  0.51100000000E-03 0. -1.
        -11    1    3    3    0    0  0.39606624131E+01 -0.29647791141E+02 -0.84790766740E+01  0.31089758889E+02  0.51100000000E-03 0.  1.
        -12    1    3    3    0    0  0.23859175528E+01  0.30850813440E+01 -0.15287823536E+02  0.15777448398E+02  0.00000000000E+00 0.  1.
</event>
<event>
 7    1  0.4489290E-013  0.5930194E+02  0.7816164E-02  0.1266605E+00
        -11   -1    0    0    0    0  0.00000000000E+00  0.00000000000E+00  0.45593999997E+02  0.45594000000E+02  0.51100000000E-03 0. -1.
         11   -1    0    0    0    0 -0.00000000000E+00 -0.00000000000E+00 -0.45593999997E+02  0.45594000000E+02  0.51100000000E-03 0.  1.
    9900012    2    1    2    0    0  0.25023901134E+02 -0.19171942137E+01 -0.19668494193E+02  0.59301938383E+02  0.49999989705E+02 0.  0.
         12    1    1    2    0    0 -0.25023901134E+02  0.19171942137E+01  0.19668494193E+02  0.31886061617E+02  0.00000000000E+00 0. -1.
         11    1    3    3    0    0  0.24717165730E+02 -0.62803881044E+00 -0.27625715669E+02  0.37074423542E+02  0.51100000000E-03 0. -1.
        -11    1    3    3    0    0 -0.83106542119E+01 -0.76969046969E+00 -0.24569539679E+01  0.87003459649E+01  0.51100000000E-03 0.  1.
         12    1    3    3    0    0  0.86173896162E+01 -0.51946493358E+00  0.10414175444E+02  0.13527168876E+02  0.00000000000E+00 0. -1.
</event>
<event>
 7    1  0.4489290E-013  0.5930197E+02  0.7816164E-02  0.1266605E+00
        -11   -1    0    0    0    0  0.00000000000E+00  0.00000000000E+00  0.45593999997E+02  0.45594000000E+02  0.51100000000E-03 0. -1.
         11   -1    0    0    0    0 -0.00000000000E+00 -0.00000000000E+00 -0.45593999997E+02  0.45594000000E+02  0.51100000000E-03 0.  1.
    9900012    2    1    2    0    0  0.27985742266E+02 -0.47936554410E+01  0.14509918115E+02  0.59301974434E+02  0.50000055454E+02 0.  0.
         12    1    1    2    0    0 -0.27985742266E+02  0.47936554410E+01 -0.14509918115E+02  0.31886025566E+02  0.00000000000E+00 0. -1.
         11    1    3    3    0    0  0.24849766156E+02  0.50080289731E+01  0.21276144004E+02  0.33094796210E+02  0.51100000000E-03 0. -1.
        -11    1    3    3    0    0 -0.10014082209E+02 -0.30302987183E+01 -0.18812744393E+01  0.10630322036E+02  0.51100000000E-03 0.  1.
        -12    1    3    3    0    0  0.13150058319E+02 -0.67713856958E+01 -0.48849514504E+01  0.15576856188E+02  0.00000000000E+00 0.  1.
</event>
<event>
 7    1  0.4489290E-013  0.5930198E+02  0.7816164E-02  0.1266605E+00
        -11   -1    0    0    0    0  0.00000000000E+00  0.00000000000E+00  0.45593999997E+02  0.45594000000E+02  0.51100000000E-03 0.  1.
         11   -1    0    0    0    0 -0.00000000000E+00 -0.00000000000E+00 -0.45593999997E+02  0.45594000000E+02  0.51100000000E-03 0. -1.
    9900012    2    1    2    0    0  0.10641515591E+02  0.21250994048E+02  0.21257278403E+02  0.59301976617E+02  0.50000059434E+02 0.  0.
         12    1    1    2    0    0 -0.10641515591E+02 -0.21250994048E+02 -0.21257278403E+02  0.31886023383E+02  0.00000000000E+00 0. -1.
         11    1    3    3    0    0  0.19397369413E+02  0.10122079742E+02  0.96532177262E+01  0.23914410952E+02  0.51100000000E-03 0. -1.
        -11    1    3    3    0    0  0.20304548487E+00  0.69386541660E+01  0.20772251701E+02  0.21901428951E+02  0.51100000000E-03 0.  1.
         12    1    3    3    0    0 -0.89588993066E+01  0.41902601396E+01 -0.91681910237E+01  0.13486136714E+02  0.00000000000E+00 0. -1.
</event>
<event>
 7    1  0.4489290E-013  0.5930196E+02  0.7816164E-02  0.1266605E+00
        -11   -1    0    0    0    0  0.00000000000E+00  0.00000000000E+00  0.45593999997E+02  0.45594000000E+02  0.51100000000E-03 0.  1.
         11   -1    0    0    0    0 -0.00000000000E+00 -0.00000000000E+00 -0.45593999997E+02  0.45594000000E+02  0.51100000000E-03 0. -1.
    9900012    2    1    2    0    0 -0.23412301024E+02 -0.16925872845E+02  0.13494399694E+02  0.59301955499E+02  0.50000020921E+02 0.  0.
         12    1    1    2    0    0  0.23412301024E+02  0.16925872845E+02 -0.13494399694E+02  0.31886044501E+02  0.00000000000E+00 0. -1.
         11    1    3    3    0    0 -0.89696427462E+01  0.16242478199E+02  0.11560742128E+02  0.21861458045E+02  0.51100000000E-03 0.  1.
        -11    1    3    3    0    0 -0.34977413342E+01 -0.13439431872E+02 -0.33132642213E+01  0.14276912956E+02  0.51100000000E-03 0. -1.
        -12    1    3    3    0    0 -0.10944916944E+02 -0.19728919171E+02  0.52469217876E+01  0.23163584498E+02  0.00000000000E+00 0.  1.
</event>
<event>
 7    1  0.4489290E-013  0.5930193E+02  0.7816164E-02  0.1266605E+00
        -11   -1    0    0    0    0  0.00000000000E+00  0.00000000000E+00  0.45593999997E+02  0.45594000000E+02  0.51100000000E-03 0.  1.
         11   -1    0    0    0    0 -0.00000000000E+00 -0.00000000000E+00 -0.45593999997E+02  0.45594000000E+02  0.51100000000E-03 0. -1.
    9900012    2    1    2    0    0 -0.23034070520E+02 -0.18630470660E+02  0.11792300879E+02  0.59301934050E+02  0.49999981804E+02 0.  0.
         12    1    1    2    0    0  0.23034070520E+02  0.18630470660E+02 -0.11792300879E+02  0.31886065950E+02  0.00000000000E+00 0. -1.
         11    1    3    3    0    0 -0.29127950063E+02 -0.16343568627E+02  0.18742589368E+01  0.33452392398E+02  0.51100000000E-03 0. -1.
        -11    1    3    3    0    0  0.36979394012E+01  0.42782992271E+01  0.15758019757E+02  0.16741976795E+02  0.51100000000E-03 0.  1.
         12    1    3    3    0    0  0.23959401422E+01 -0.65652012602E+01 -0.58399778145E+01  0.91075648570E+01  0.00000000000E+00 0. -1.
</event>
<event>
 7    1  0.4489290E-013  0.5930191E+02  0.7816164E-02  0.1266605E+00
        -11   -1    0    0    0    0  0.00000000000E+00  0.00000000000E+00  0.45593999997E+02  0.45594000000E+02  0.51100000000E-03 0. -1.
         11   -1    0    0    0    0 -0.00000000000E+00 -0.00000000000E+00 -0.45593999997E+02  0.45594000000E+02  0.51100000000E-03 0.  1.
    9900012    2    1    2    0    0 -0.17618975140E+02 -0.17779741813E+02 -0.19752858202E+02  0.59301907247E+02  0.49999932920E+02 0.  0.
         12    1    1    2    0    0  0.17618975140E+02  0.17779741813E+02  0.19752858202E+02  0.31886092753E+02  0.00000000000E+00 0. -1.
         11    1    3    3    0    0 -0.15422366864E+02 -0.25058604324E+01  0.12955627799E+02  0.20297217251E+02  0.51100000000E-03 0. -1.
        -11    1    3    3    0    0 -0.74955318091E+01 -0.69957660531E+01 -0.23036185835E+02  0.25214868587E+02  0.51100000000E-03 0.  1.
         12    1    3    3    0    0  0.52989235329E+01 -0.82781153272E+01 -0.96723001667E+01  0.13789821409E+02  0.00000000000E+00 0. -1.
</event>
<event>
 7    1  0.4489290E-013  0.5930195E+02  0.7816164E-02  0.1266605E+00
        -11   -1    0    0    0    0  0.00000000000E+00  0.00000000000E+00  0.45593999997E+02  0.45594000000E+02  0.51100000000E-03 0.  1.
         11   -1    0    0    0    0 -0.00000000000E+00 -0.00000000000E+00 -0.45593999997E+02  0.45594000000E+02  0.51100000000E-03 0. -1.
    9900012    2    1    2    0    0  0.20836949521E+02 -0.13532241975E+02  0.19985505030E+02  0.59301945846E+02  0.50000003315E+02 0.  0.
         12    1    1    2    0    0 -0.20836949521E+02  0.13532241975E+02 -0.19985505030E+02  0.31886054154E+02  0.00000000000E+00 0. -1.
         11    1    3    3    0    0  0.15389888557E+02  0.25122195053E+01 -0.11695851053E+02  0.19492379248E+02  0.51100000000E-03 0. -1.
        -11    1    3    3    0    0  0.65672087712E+01 -0.83806444648E+00  0.18518417914E+02  0.19666275330E+02  0.51100000000E-03 0.  1.
         12    1    3    3    0    0 -0.11201478068E+01 -0.15206397034E+02  0.13162938169E+02  0.20143291268E+02  0.00000000000E+00 0. -1.
</event>
<event>
 7    1  0.4489290E-013  0.5930195E+02  0.7816164E-02  0.1266605E+00
        -11   -1    0    0    0    0  0.00000000000E+00  0.00000000000E+00  0.45593999997E+02  0.45594000000E+02  0.51100000000E-03 0.  1.
         11   -1    0    0    0    0 -0.00000000000E+00 -0.00000000000E+00 -0.45593999997E+02  0.45594000000E+02  0.51100000000E-03 0. -1.
    9900012    2    1    2    0    0  0.15692822888E+02  0.12177162358E+02  0.24943384506E+02  0.59301946562E+02  0.50000004621E+02 0.  0.
         12    1    1    2    0    0 -0.15692822888E+02 -0.12177162358E+02 -0.24943384506E+02  0.31886053438E+02  0.00000000000E+00 0. -1.
         11    1    3    3    0    0  0.30815208728E+02  0.11683643102E+02  0.25307023107E+02  0.41551534555E+02  0.51100000000E-03 0.  1.
        -11    1    3    3    0    0 -0.14571255569E+02  0.26759643671E+01  0.14138742015E+01  0.14882248307E+02  0.51100000000E-03 0. -1.
        -12    1    3    3    0    0 -0.55113027154E+00 -0.21824451119E+01 -0.17775128028E+01  0.28681636994E+01  0.00000000000E+00 0.  1.
</event>
<event>
 7    1  0.4489290E-013  0.5930197E+02  0.7816164E-02  0.1266605E+00
        -11   -1    0    0    0    0  0.00000000000E+00  0.00000000000E+00  0.45593999997E+02  0.45594000000E+02  0.51100000000E-03 0.  1.
         11   -1    0    0    0    0 -0.00000000000E+00 -0.00000000000E+00 -0.45593999997E+02  0.45594000000E+02  0.51100000000E-03 0. -1.
    9900012    2    1    2    0    0 -0.25087144663E+02  0.69202419187E+01  0.18424566224E+02  0.59301965187E+02  0.50000038590E+02 0.  0.
         12    1    1    2    0    0  0.25087144663E+02 -0.69202419187E+01 -0.18424566224E+02  0.31886034813E+02  0.00000000000E+00 0. -1.
         11    1    3    3    0    0  0.13816809416E+01 -0.57780513539E+01 -0.46632011638E+01  0.75525072015E+01  0.51100000000E-03 0. -1.
        -11    1    3    3    0    0 -0.26676761508E+02  0.12097529951E+02  0.64607051032E+00  0.29298758383E+02  0.51100000000E-03 0.  1.
        -12    1    3    3    0    0  0.20793590316E+00  0.60076332204E+00  0.22441696877E+02  0.22450699602E+02  0.00000000000E+00 0.  1.
</event>
<event>
 7    1  0.4489290E-013  0.5930175E+02  0.7816164E-02  0.1266605E+00
        -11   -1    0    0    0    0  0.00000000000E+00  0.00000000000E+00  0.45593999997E+02  0.45594000000E+02  0.51100000000E-03 0.  1.
         11   -1    0    0    0    0 -0.00000000000E+00 -0.00000000000E+00 -0.45593999997E+02  0.45594000000E+02  0.51100000000E-03 0. -1.
    9900012    2    1    2    0    0 -0.20714421869E+02 -0.20124198382E+02 -0.13515257995E+02  0.59301751670E+02  0.49999649184E+02 0.  0.
         12    1    1    2    0    0  0.20714421869E+02  0.20124198382E+02  0.13515257995E+02  0.31886248330E+02  0.00000000000E+00 0. -1.
         11    1    3    3    0    0 -0.23741967742E+02  0.58648023414E+01 -0.87985832231E+01  0.25990229044E+02  0.51100000000E-03 0. -1.
        -11    1    3    3    0    0  0.22533076114E+01 -0.15851251943E+02  0.72782530051E+01  0.17587283770E+02  0.51100000000E-03 0.  1.
         12    1    3    3    0    0  0.77423826128E+00 -0.10137748781E+02 -0.11994927777E+02  0.15724238856E+02  0.00000000000E+00 0. -1.
</event>
<event>
 7    1  0.4489290E-013  0.5930194E+02  0.7816164E-02  0.1266605E+00
        -11   -1    0    0    0    0  0.00000000000E+00  0.00000000000E+00  0.45593999997E+02  0.45594000000E+02  0.51100000000E-03 0. -1.
         11   -1    0    0    0    0 -0.00000000000E+00 -0.00000000000E+00 -0.45593999997E+02  0.45594000000E+02  0.51100000000E-03 0.  1.
    9900012    2    1    2    0    0  0.22719661302E+02  0.19955584075E+02 -0.10114955131E+02  0.59301942502E+02  0.49999997217E+02 0.  0.
         12    1    1    2    0    0 -0.22719661302E+02 -0.19955584075E+02  0.10114955131E+02  0.31886057498E+02  0.00000000000E+00 0. -1.
         11    1    3    3    0    0  0.20526186348E+01  0.13418459027E+01 -0.12777410379E+02  0.13010611436E+02  0.51100000000E-03 0. -1.
        -11    1    3    3    0    0  0.20862246678E+02  0.35624351261E+01  0.15720655293E+02  0.26364052867E+02  0.51100000000E-03 0.  1.
        -12    1    3    3    0    0 -0.19520401020E+00  0.15051303047E+02 -0.13058200045E+02  0.19927278199E+02  0.00000000000E+00 0.  1.
</event>
<event>
 7    1  0.4489290E-013  0.5930195E+02  0.7816164E-02  0.1266605E+00
        -11   -1    0    0    0    0  0.00000000000E+00  0.00000000000E+00  0.45593999997E+02  0.45594000000E+02  0.51100000000E-03 0.  1.
         11   -1    0    0    0    0 -0.00000000000E+00 -0.00000000000E+00 -0.45593999997E+02  0.45594000000E+02  0.51100000000E-03 0. -1.
    9900012    2    1    2    0    0  0.29646594593E+02 -0.11719590409E+02  0.67154444585E+00  0.59301947528E+02  0.50000006384E+02 0.  0.
         12    1    1    2    0    0 -0.29646594593E+02  0.11719590409E+02 -0.67154444585E+00  0.31886052472E+02  0.00000000000E+00 0. -1.
         11    1    3    3    0    0  0.22927187755E+02  0.10003051250E+02 -0.12461910848E+01  0.25045358155E+02  0.51100000000E-03 0. -1.
        -11    1    3    3    0    0  0.14573342523E+02 -0.16608186515E+02 -0.49426580532E+01  0.22641643945E+02  0.51100000000E-03 0.  1.
         12    1    3    3    0    0 -0.78539356852E+01 -0.51144551438E+01  0.68603935839E+01  0.11614945428E+02  0.00000000000E+00 0. -1.
</event>
<event>
 7    1  0.4489290E-013  0.5930189E+02  0.7816164E-02  0.1266605E+00
        -11   -1    0    0    0    0  0.00000000000E+00  0.00000000000E+00  0.45593999997E+02  0.45594000000E+02  0.51100000000E-03 0.  1.
         11   -1    0    0    0    0 -0.00000000000E+00 -0.00000000000E+00 -0.45593999997E+02  0.45594000000E+02  0.51100000000E-03 0. -1.
    9900012    2    1    2    0    0 -0.13175590401E+02  0.13700366203E+02  0.25601321790E+02  0.59301891835E+02  0.49999904813E+02 0.  0.
         12    1    1    2    0    0  0.13175590401E+02 -0.13700366203E+02 -0.25601321790E+02  0.31886108165E+02  0.00000000000E+00 0. -1.
         11    1    3    3    0    0 -0.16100651198E+02 -0.48051374558E+01 -0.80396170976E+00  0.16821613171E+02  0.51100000000E-03 0. -1.
        -11    1    3    3    0    0 -0.68753117865E+01  0.15517449267E+02  0.27352968285E+02  0.32190775359E+02  0.51100000000E-03 0.  1.
        -12    1    3    3    0    0  0.98003725834E+01  0.29880543915E+01 -0.94768478540E+00  0.10289503305E+02  0.00000000000E+00 0.  1.
</event>
<event>
 7    1  0.4489290E-013  0.5930195E+02  0.7816164E-02  0.1266605E+00
        -11   -1    0    0    0    0  0.00000000000E+00  0.00000000000E+00  0.45593999997E+02  0.45594000000E+02  0.51100000000E-03 0. -1.
         11   -1    0    0    0    0 -0.00000000000E+00 -0.00000000000E+00 -0.45593999997E+02  0.45594000000E+02  0.51100000000E-03 0.  1.
    9900012    2    1    2    0    0 -0.27728914100E+02 -0.95796120089E+01 -0.12492347878E+02  0.59301946640E+02  0.50000004764E+02 0.  0.
         12    1    1    2    0    0  0.27728914100E+02  0.95796120089E+01  0.12492347878E+02  0.31886053360E+02  0.00000000000E+00 0. -1.
         11    1    3    3    0    0 -0.25927068633E+02 -0.54499148950E+01  0.33346068725E+01  0.26702697682E+02  0.51100000000E-03 0. -1.
        -11    1    3    3    0    0 -0.82447175510E+01  0.51783103530E+01 -0.18555592243E+02  0.20954719501E+02  0.51100000000E-03 0.  1.
         12    1    3    3    0    0  0.64428720843E+01 -0.93080074668E+01  0.27286374930E+01  0.11644529457E+02  0.00000000000E+00 0. -1.
</event>
<event>
 7    1  0.4489290E-013  0.5930193E+02  0.7816164E-02  0.1266605E+00
        -11   -1    0    0    0    0  0.00000000000E+00  0.00000000000E+00  0.45593999997E+02  0.45594000000E+02  0.51100000000E-03 0.  1.
         11   -1    0    0    0    0 -0.00000000000E+00 -0.00000000000E+00 -0.45593999997E+02  0.45594000000E+02  0.51100000000E-03 0. -1.
    9900012    2    1    2    0    0  0.28483358236E+01  0.54031920588E+01  0.31295585878E+02  0.59301934127E+02  0.49999981944E+02 0.  0.
         12    1    1    2    0    0 -0.28483358236E+01 -0.54031920588E+01 -0.31295585878E+02  0.31886065873E+02  0.00000000000E+00 0. -1.
         11    1    3    3    0    0 -0.24790664358E+01  0.26970987063E+01 -0.67124491670E+01  0.76470311824E+01  0.51100000000E-03 0. -1.
        -11    1    3    3    0    0  0.79515737892E+01 -0.13134711537E+02  0.30025164629E+02  0.33723266214E+02  0.51100000000E-03 0.  1.
        -12    1    3    3    0    0 -0.26241715299E+01  0.15840804890E+02  0.79828704163E+01  0.17931636731E+02  0.00000000000E+00 0.  1.
</event>
<event>
 7    1  0.4489290E-013  0.5930196E+02  0.7816164E-02  0.1266605E+00
        -11   -1    0    0    0    0  0.00000000000E+00  0.00000000000E+00  0.45593999997E+02  0.45594000000E+02  0.51100000000E-03 0.  1.
         11   -1    0    0    0    0 -0.00000000000E+00 -0.00000000000E+00 -0.45593999997E+02  0.45594000000E+02  0.51100000000E-03 0. -1.
    9900012    2    1    2    0    0 -0.15445372993E+02 -0.26932330674E+02  0.72670293205E+01  0.59301957636E+02  0.50000024819E+02 0.  0.
         12    1    1    2    0    0  0.15445372993E+02  0.26932330674E+02 -0.72670293205E+01  0.31886042364E+02  0.00000000000E+00 0. -1.
         11    1    3    3    0    0  0.57925762068E+01 -0.10209641449E+02 -0.58930000209E+01  0.13134617129E+02  0.51100000000E-03 0. -1.
        -11    1    3    3    0    0 -0.10620406318E+02  0.10496077455E+02  0.29655549412E+01  0.15223507765E+02  0.51100000000E-03 0.  1.
        -12    1    3    3    0    0 -0.10617542882E+02 -0.27218766680E+02  0.10194474400E+02  0.30943832742E+02  0.00000000000E+00 0.  1.
</event>
<event>
 7    1  0.4567947E-013  0.5930192E+02  0.7816164E-02  0.1266605E+00
        -11   -1    0    0    0    0  0.00000000000E+00  0.00000000000E+00  0.45593999997E+02  0.45594000000E+02  0.51100000000E-03 0. -1.
         11   -1    0    0    0    0 -0.00000000000E+00 -0.00000000000E+00 -0.45593999997E+02  0.45594000000E+02  0.51100000000E-03 0.  1.
    9900012    2    1    2    0    0  0.19053258504E+02 -0.70221842063E+01 -0.24584228016E+02  0.59301921568E+02  0.49999959039E+02 0.  0.
         12    1    1    2    0    0 -0.19053258504E+02  0.70221842063E+01  0.24584228016E+02  0.31886078432E+02  0.00000000000E+00 0. -1.
         11    1    3    3    0    0  0.24473052089E+02  0.75987865181E+01 -0.60119053429E+01  0.26321376127E+02  0.51100000000E-03 0. -1.
        -11    1    3    3    0    0  0.42979278190E+01 -0.16628152890E+02 -0.10041152824E+02  0.19894531971E+02  0.51100000000E-03 0.  1.
         12    1    3    3    0    0 -0.97177214043E+01  0.20071821652E+01 -0.85311698491E+01  0.13086013470E+02  0.00000000000E+00 0. -1.
</event>
<event>
 7    1  0.4489290E-013  0.5930182E+02  0.7816164E-02  0.1266605E+00
        -11   -1    0    0    0    0  0.00000000000E+00  0.00000000000E+00  0.45593999997E+02  0.45594000000E+02  0.51100000000E-03 0.  1.
         11   -1    0    0    0    0 -0.00000000000E+00 -0.00000000000E+00 -0.45593999997E+02  0.45594000000E+02  0.51100000000E-03 0. -1.
    9900012    2    1    2    0    0 -0.30759186520E+01 -0.45775620689E+01  0.31405618539E+02  0.59301823906E+02  0.49999780927E+02 0.  0.
         12    1    1    2    0    0  0.30759186520E+01  0.45775620689E+01 -0.31405618539E+02  0.31886176094E+02  0.00000000000E+00 0. -1.
         11    1    3    3    0    0  0.33051884198E+01 -0.25279659329E+02  0.23856117489E+02  0.34915609521E+02  0.51100000000E-03 0.  1.
        -11    1    3    3    0    0 -0.57583091496E+01  0.69244274486E+01  0.51893253489E+01  0.10393984683E+02  0.51100000000E-03 0. -1.
         12    1    3    3    0    0 -0.62279792218E+00  0.13777669812E+02  0.23601757011E+01  0.13992229702E+02  0.00000000000E+00 0. -1.
</event>
<event>
 7    1  0.4489290E-013  0.5930195E+02  0.7816164E-02  0.1266605E+00
        -11   -1    0    0    0    0  0.00000000000E+00  0.00000000000E+00  0.45593999997E+02  0.45594000000E+02  0.51100000000E-03 0. -1.
         11   -1    0    0    0    0 -0.00000000000E+00 -0.00000000000E+00 -0.45593999997E+02  0.45594000000E+02  0.51100000000E-03 0.  1.
    9900012    2    1    2    0    0  0.24570354349E+02 -0.10313638375E+02 -0.17511334409E+02  0.59301948470E+02  0.50000008102E+02 0.  0.
         12    1    1    2    0    0 -0.24570354349E+02  0.10313638375E+02  0.17511334409E+02  0.31886051530E+02  0.00000000000E+00 0. -1.
         11    1    3    3    0    0  0.24292542773E+01  0.99902573634E+01 -0.24247628768E+02  0.26337312309E+02  0.51100000000E-03 0. -1.
        -11    1    3    3    0    0  0.10481603151E+02 -0.14419477961E+02 -0.87564382013E+00  0.17848027948E+02  0.51100000000E-03 0.  1.
         12    1    3    3    0    0  0.11659496921E+02 -0.58844177781E+01  0.76119381792E+01  0.15116608214E+02  0.00000000000E+00 0. -1.
</event>
<event>
 7    1  0.4489290E-013  0.5930195E+02  0.7816164E-02  0.1266605E+00
        -11   -1    0    0    0    0  0.00000000000E+00  0.00000000000E+00  0.45593999997E+02  0.45594000000E+02  0.51100000000E-03 0.  1.
         11   -1    0    0    0    0 -0.00000000000E+00 -0.00000000000E+00 -0.45593999997E+02  0.45594000000E+02  0.51100000000E-03 0. -1.
    9900012    2    1    2    0    0 -0.56854834437E+01 -0.30053055098E+02 -0.90116287395E+01  0.59301948265E+02  0.50000007727E+02 0.  0.
         12    1    1    2    0    0  0.56854834437E+01  0.30053055098E+02  0.90116287395E+01  0.31886051735E+02  0.00000000000E+00 0. -1.
         11    1    3    3    0    0 -0.56308405025E+01  0.42344065813E+01  0.71679883749E+00  0.70816922197E+01  0.51100000000E-03 0. -1.
        -11    1    3    3    0    0 -0.60806260132E+01 -0.32816211693E+02 -0.20945051066E+02  0.39402702027E+02  0.51100000000E-03 0.  1.
        -12    1    3    3    0    0  0.60259830720E+01 -0.14712499863E+01  0.11216623489E+02  0.12817554018E+02  0.00000000000E+00 0.  1.
</event>
<event>
 7    1  0.4489290E-013  0.5930195E+02  0.7816164E-02  0.1266605E+00
        -11   -1    0    0    0    0  0.00000000000E+00  0.00000000000E+00  0.45593999997E+02  0.45594000000E+02  0.51100000000E-03 0.  1.
         11   -1    0    0    0    0 -0.00000000000E+00 -0.00000000000E+00 -0.45593999997E+02  0.45594000000E+02  0.51100000000E-03 0. -1.
    9900012    2    1    2    0    0  0.20133102000E+02  0.64587694697E-01  0.24725980274E+02  0.59301951825E+02  0.50000014220E+02 0.  0.
         12    1    1    2    0    0 -0.20133102000E+02 -0.64587694697E-01 -0.24725980274E+02  0.31886048175E+02  0.00000000000E+00 0. -1.
         11    1    3    3    0    0 -0.68193433951E+01 -0.16273622850E+02  0.10674759086E+02  0.20622432612E+02  0.51100000000E-03 0. -1.
        -11    1    3    3    0    0  0.17517575434E+02  0.18649145468E+02  0.13550331473E+02  0.28952850620E+02  0.51100000000E-03 0.  1.
        -12    1    3    3    0    0  0.94348699613E+01 -0.23109349226E+01  0.50088971563E+00  0.97266685926E+01  0.00000000000E+00 0.  1.
</event>
<event>
 7    1  0.4489290E-013  0.5930195E+02  0.7816164E-02  0.1266605E+00
        -11   -1    0    0    0    0  0.00000000000E+00  0.00000000000E+00  0.45593999997E+02  0.45594000000E+02  0.51100000000E-03 0. -1.
         11   -1    0    0    0    0 -0.00000000000E+00 -0.00000000000E+00 -0.45593999997E+02  0.45594000000E+02  0.51100000000E-03 0.  1.
    9900012    2    1    2    0    0 -0.14447524274E+02  0.25756212060E+02 -0.12025244220E+02  0.59301954214E+02  0.50000018578E+02 0.  0.
         12    1    1    2    0    0  0.14447524274E+02 -0.25756212060E+02  0.12025244220E+02  0.31886045786E+02  0.00000000000E+00 0. -1.
         11    1    3    3    0    0 -0.40225733471E+00  0.25692336860E+02 -0.26737476612E+01  0.25834219769E+02  0.51100000000E-03 0. -1.
        -11    1    3    3    0    0 -0.19482463080E+02 -0.59210115435E+00 -0.15739889879E+02  0.25053165171E+02  0.51100000000E-03 0.  1.
        -12    1    3    3    0    0  0.54371961410E+01  0.65597635452E+00  0.63883933198E+01  0.84145692737E+01  0.00000000000E+00 0.  1.
</event>
<event>
 7    1  0.4489290E-013  0.5930193E+02  0.7816164E-02  0.1266605E+00
        -11   -1    0    0    0    0  0.00000000000E+00  0.00000000000E+00  0.45593999997E+02  0.45594000000E+02  0.51100000000E-03 0.  1.
         11   -1    0    0    0    0 -0.00000000000E+00 -0.00000000000E+00 -0.45593999997E+02  0.45594000000E+02  0.51100000000E-03 0. -1.
    9900012    2    1    2    0    0  0.21119660787E+02 -0.88391549954E+01  0.22193488046E+02  0.59301927109E+02  0.49999969144E+02 0.  0.
         12    1    1    2    0    0 -0.21119660787E+02  0.88391549954E+01 -0.22193488046E+02  0.31886072891E+02  0.00000000000E+00 0. -1.
         11    1    3    3    0    0  0.16714046606E+02 -0.19429141987E+02 -0.54166689923E+01  0.26195251775E+02  0.51100000000E-03 0. -1.
        -11    1    3    3    0    0  0.68047685470E+01  0.12702194947E+02  0.18486684925E+02  0.23439457145E+02  0.51100000000E-03 0.  1.
         12    1    3    3    0    0 -0.23991543663E+01 -0.21122079550E+01  0.91234721132E+01  0.96672181893E+01  0.00000000000E+00 0. -1.
</event>
<event>
 7    1  0.4489290E-013  0.5930193E+02  0.7816164E-02  0.1266605E+00
        -11   -1    0    0    0    0  0.00000000000E+00  0.00000000000E+00  0.45593999997E+02  0.45594000000E+02  0.51100000000E-03 0.  1.
         11   -1    0    0    0    0 -0.00000000000E+00 -0.00000000000E+00 -0.45593999997E+02  0.45594000000E+02  0.51100000000E-03 0. -1.
    9900012    2    1    2    0    0  0.30341963514E+02 -0.74336376583E+01 -0.63896410532E+01  0.59301933583E+02  0.49999980952E+02 0.  0.
         12    1    1    2    0    0 -0.30341963514E+02  0.74336376583E+01  0.63896410532E+01  0.31886066417E+02  0.00000000000E+00 0. -1.
         11    1    3    3    0    0 -0.60033597270E+01  0.43154517633E+01  0.94905744375E+01  0.12030563384E+02  0.51100000000E-03 0. -1.
        -11    1    3    3    0    0  0.33944404502E+02 -0.48888325886E+01 -0.57035635575E+01  0.34765700318E+02  0.51100000000E-03 0.  1.
         12    1    3    3    0    0  0.24009187395E+01 -0.68602568330E+01 -0.10176651933E+02  0.12505669881E+02  0.00000000000E+00 0. -1.
</event>
<event>
 7    1  0.4489290E-013  0.5930197E+02  0.7816164E-02  0.1266605E+00
        -11   -1    0    0    0    0  0.00000000000E+00  0.00000000000E+00  0.45593999997E+02  0.45594000000E+02  0.51100000000E-03 0.  1.
         11   -1    0    0    0    0 -0.00000000000E+00 -0.00000000000E+00 -0.45593999997E+02  0.45594000000E+02  0.51100000000E-03 0. -1.
    9900012    2    1    2    0    0 -0.28018102945E+02  0.11315186578E+02  0.10181919045E+02  0.59301968335E+02  0.50000044330E+02 0.  0.
         12    1    1    2    0    0  0.28018102945E+02 -0.11315186578E+02 -0.10181919045E+02  0.31886031665E+02  0.00000000000E+00 0. -1.
         11    1    3    3    0    0  0.18239063197E+01 -0.70048452853E+01 -0.27659599426E+01  0.77488725889E+01  0.51100000000E-03 0. -1.
        -11    1    3    3    0    0 -0.37940631755E+02  0.14689271242E+02  0.12888566654E+02  0.42677644947E+02  0.51100000000E-03 0.  1.
        -12    1    3    3    0    0  0.80986224900E+01  0.36307606216E+01  0.59312333357E-01  0.88754507987E+01  0.00000000000E+00 0.  1.
</event>
<event>
 7    1  0.4489290E-013  0.5930195E+02  0.7816164E-02  0.1266605E+00
        -11   -1    0    0    0    0  0.00000000000E+00  0.00000000000E+00  0.45593999997E+02  0.45594000000E+02  0.51100000000E-03 0. -1.
         11   -1    0    0    0    0 -0.00000000000E+00 -0.00000000000E+00 -0.45593999997E+02  0.45594000000E+02  0.51100000000E-03 0.  1.
    9900012    2    1    2    0    0 -0.50870930396E+01  0.30403390143E+02  0.81532390658E+01  0.59301953599E+02  0.50000017456E+02 0.  0.
         12    1    1    2    0    0  0.50870930396E+01 -0.30403390143E+02 -0.81532390658E+01  0.31886046401E+02  0.00000000000E+00 0. -1.
         11    1    3    3    0    0 -0.50814509993E+00 -0.82654086716E+01  0.16261266094E+02  0.18248396291E+02  0.51100000000E-03 0. -1.
        -11    1    3    3    0    0  0.25111789616E+01  0.18809844557E+02 -0.18977011373E+01  0.19071380178E+02  0.51100000000E-03 0.  1.
         12    1    3    3    0    0 -0.70901269013E+01  0.19858954258E+02 -0.62103258911E+01  0.21982177130E+02  0.00000000000E+00 0. -1.
</event>
<event>
 7    1  0.4489290E-013  0.5930194E+02  0.7816164E-02  0.1266605E+00
        -11   -1    0    0    0    0  0.00000000000E+00  0.00000000000E+00  0.45593999997E+02  0.45594000000E+02  0.51100000000E-03 0.  1.
         11   -1    0    0    0    0 -0.00000000000E+00 -0.00000000000E+00 -0.45593999997E+02  0.45594000000E+02  0.51100000000E-03 0. -1.
    9900012    2    1    2    0    0 -0.21725653534E+02 -0.23069681452E+02  0.35364354045E+01  0.59301943500E+02  0.49999999038E+02 0.  0.
         12    1    1    2    0    0  0.21725653534E+02  0.23069681452E+02 -0.35364354045E+01  0.31886056500E+02  0.00000000000E+00 0. -1.
         11    1    3    3    0    0  0.86148467554E+01  0.65021217727E+00 -0.13519915876E+02  0.16044515763E+02  0.51100000000E-03 0. -1.
        -11    1    3    3    0    0 -0.51548125748E+01 -0.75229591728E+01  0.72296866137E+00  0.91482070015E+01  0.51100000000E-03 0.  1.
         12    1    3    3    0    0 -0.25185687714E+02 -0.16196934456E+02  0.16333382619E+02  0.34109220736E+02  0.00000000000E+00 0. -1.
</event>
<event>
 7    1  0.4489290E-013  0.5930202E+02  0.7816164E-02  0.1266605E+00
        -11   -1    0    0    0    0  0.00000000000E+00  0.00000000000E+00  0.45593999997E+02  0.45594000000E+02  0.51100000000E-03 0.  1.
         11   -1    0    0    0    0 -0.00000000000E+00 -0.00000000000E+00 -0.45593999997E+02  0.45594000000E+02  0.51100000000E-03 0. -1.
    9900012    2    1    2    0    0 -0.64465962652E+01 -0.84248811957E+01  0.30069564121E+02  0.59302016983E+02  0.50000133052E+02 0.  0.
         12    1    1    2    0    0  0.64465962652E+01  0.84248811957E+01 -0.30069564121E+02  0.31885983017E+02  0.00000000000E+00 0. -1.
         11    1    3    3    0    0 -0.12292210729E+02 -0.48826597988E+01  0.59557049464E+00  0.13239845761E+02  0.51100000000E-03 0. -1.
        -11    1    3    3    0    0  0.12173679170E+02  0.50988556787E+01 -0.15050698535E+01  0.13283901132E+02  0.51100000000E-03 0.  1.
        -12    1    3    3    0    0 -0.63280647066E+01 -0.86410770756E+01  0.30979063480E+02  0.32778270089E+02  0.00000000000E+00 0.  1.
</event>
<event>
 7    1  0.4489290E-013  0.5930194E+02  0.7816164E-02  0.1266605E+00
        -11   -1    0    0    0    0  0.00000000000E+00  0.00000000000E+00  0.45593999997E+02  0.45594000000E+02  0.51100000000E-03 0.  1.
         11   -1    0    0    0    0 -0.00000000000E+00 -0.00000000000E+00 -0.45593999997E+02  0.45594000000E+02  0.51100000000E-03 0. -1.
    9900012    2    1    2    0    0 -0.43664173936E+00  0.24864871008E+02  0.19956655866E+02  0.59301943806E+02  0.49999999596E+02 0.  0.
         12    1    1    2    0    0  0.43664173936E+00 -0.24864871008E+02 -0.19956655866E+02  0.31886056194E+02  0.00000000000E+00 0. -1.
         11    1    3    3    0    0  0.18579688979E+02  0.76567790555E+01  0.71677724758E+00  0.20108328572E+02  0.51100000000E-03 0. -1.
        -11    1    3    3    0    0 -0.61950455480E+01  0.20074157005E+02  0.11901245432E+02  0.24145186102E+02  0.51100000000E-03 0.  1.
         12    1    3    3    0    0 -0.12821285170E+02 -0.28660650525E+01  0.73386331872E+01  0.15048429133E+02  0.00000000000E+00 0. -1.
</event>
<event>
 7    1  0.4489290E-013  0.5930193E+02  0.7816164E-02  0.1266605E+00
        -11   -1    0    0    0    0  0.00000000000E+00  0.00000000000E+00  0.45593999997E+02  0.45594000000E+02  0.51100000000E-03 0.  1.
         11   -1    0    0    0    0 -0.00000000000E+00 -0.00000000000E+00 -0.45593999997E+02  0.45594000000E+02  0.51100000000E-03 0. -1.
    9900012    2    1    2    0    0  0.83147427810E+00  0.31532065281E+02  0.46646453859E+01  0.59301930833E+02  0.49999975935E+02 0.  0.
         12    1    1    2    0    0 -0.83147427810E+00 -0.31532065281E+02 -0.46646453859E+01  0.31886069167E+02  0.00000000000E+00 0. -1.
         11    1    3    3    0    0 -0.14605575528E+01 -0.18827469806E+01  0.58076176310E+01  0.62774507060E+01  0.51100000000E-03 0. -1.
        -11    1    3    3    0    0 -0.59040956815E+01  0.22878227192E+02 -0.19286119240E+02  0.30499606897E+02  0.51100000000E-03 0.  1.
        -12    1    3    3    0    0  0.81961275124E+01  0.10536585070E+02  0.18143146995E+02  0.22524873230E+02  0.00000000000E+00 0.  1.
</event>
<event>
 7    1  0.4489290E-013  0.5930194E+02  0.7816164E-02  0.1266605E+00
        -11   -1    0    0    0    0  0.00000000000E+00  0.00000000000E+00  0.45593999997E+02  0.45594000000E+02  0.51100000000E-03 0.  1.
         11   -1    0    0    0    0 -0.00000000000E+00 -0.00000000000E+00 -0.45593999997E+02  0.45594000000E+02  0.51100000000E-03 0. -1.
    9900012    2    1    2    0    0 -0.63542932284E+01  0.28740765812E+02  0.12260174481E+02  0.59301944424E+02  0.50000000723E+02 0.  0.
         12    1    1    2    0    0  0.63542932284E+01 -0.28740765812E+02 -0.12260174481E+02  0.31886055576E+02  0.00000000000E+00 0. -1.
         11    1    3    3    0    0 -0.15608261329E+02  0.35124423862E+02  0.28013270193E+01  0.38538168180E+02  0.51100000000E-03 0. -1.
        -11    1    3    3    0    0  0.78670456644E+01  0.12853045369E+01  0.10188528721E+02  0.12936326101E+02  0.51100000000E-03 0.  1.
         12    1    3    3    0    0  0.13869224365E+01 -0.76689625867E+01 -0.72968125968E+00  0.78274501430E+01  0.00000000000E+00 0. -1.
</event>
<event>
 7    1  0.4489290E-013  0.5930196E+02  0.7816164E-02  0.1266605E+00
        -11   -1    0    0    0    0  0.00000000000E+00  0.00000000000E+00  0.45593999997E+02  0.45594000000E+02  0.51100000000E-03 0. -1.
         11   -1    0    0    0    0 -0.00000000000E+00 -0.00000000000E+00 -0.45593999997E+02  0.45594000000E+02  0.51100000000E-03 0.  1.
    9900012    2    1    2    0    0 -0.16309907241E+02 -0.20667355893E+01 -0.27320960393E+02  0.59301963134E+02  0.50000034845E+02 0.  0.
         12    1    1    2    0    0  0.16309907241E+02  0.20667355893E+01  0.27320960393E+02  0.31886036866E+02  0.00000000000E+00 0. -1.
         11    1    3    3    0    0 -0.17048823114E+02  0.80385378203E+00  0.58207440055E+01  0.18033014488E+02  0.51100000000E-03 0. -1.
        -11    1    3    3    0    0 -0.37827640831E+00 -0.45803454661E+01 -0.36796384581E+02  0.37082294645E+02  0.51100000000E-03 0.  1.
        -12    1    3    3    0    0  0.11171922809E+01  0.17097560948E+01  0.36546801820E+01  0.41866540016E+01  0.00000000000E+00 0.  1.
</event>
<event>
 7    1  0.4489290E-013  0.5930193E+02  0.7816164E-02  0.1266605E+00
        -11   -1    0    0    0    0  0.00000000000E+00  0.00000000000E+00  0.45593999997E+02  0.45594000000E+02  0.51100000000E-03 0.  1.
         11   -1    0    0    0    0 -0.00000000000E+00 -0.00000000000E+00 -0.45593999997E+02  0.45594000000E+02  0.51100000000E-03 0. -1.
    9900012    2    1    2    0    0  0.23001865906E-01  0.14190086289E+02  0.28554552423E+02  0.59301928714E+02  0.49999972072E+02 0.  0.
         12    1    1    2    0    0 -0.23001865906E-01 -0.14190086289E+02 -0.28554552423E+02  0.31886071286E+02  0.00000000000E+00 0. -1.
         11    1    3    3    0    0  0.21812195496E+02 -0.12389290917E+01  0.10023558912E+02  0.24037024590E+02  0.51100000000E-03 0. -1.
        -11    1    3    3    0    0 -0.14960231947E+02  0.81135349805E+01  0.18661542087E+02  0.25256506946E+02  0.51100000000E-03 0.  1.
         12    1    3    3    0    0 -0.68289616825E+01  0.73154803997E+01 -0.13054857666E+00  0.10008397178E+02  0.00000000000E+00 0. -1.
</event>
<event>
 7    1  0.4489290E-013  0.5930195E+02  0.7816164E-02  0.1266605E+00
        -11   -1    0    0    0    0  0.00000000000E+00  0.00000000000E+00  0.45593999997E+02  0.45594000000E+02  0.51100000000E-03 0. -1.
         11   -1    0    0    0    0 -0.00000000000E+00 -0.00000000000E+00 -0.45593999997E+02  0.45594000000E+02  0.51100000000E-03 0.  1.
    9900012    2    1    2    0    0  0.43098298562E+01 -0.25121630679E+02 -0.19158529689E+02  0.59301949426E+02  0.50000009845E+02 0.  0.
         12    1    1    2    0    0 -0.43098298562E+01  0.25121630679E+02  0.19158529689E+02  0.31886050574E+02  0.00000000000E+00 0. -1.
         11    1    3    3    0    0 -0.95878500265E+01 -0.16892109004E+01 -0.17579492219E+02  0.20095244426E+02  0.51100000000E-03 0.  1.
        -11    1    3    3    0    0  0.19737548119E+02 -0.25844733680E+02  0.59402715812E+00  0.32524973993E+02  0.51100000000E-03 0. -1.
         12    1    3    3    0    0 -0.58398682360E+01  0.24123139013E+01 -0.21730646286E+01  0.66817310072E+01  0.00000000000E+00 0. -1.
</event>
<event>
 7    1  0.4489290E-013  0.5930194E+02  0.7816164E-02  0.1266605E+00
        -11   -1    0    0    0    0  0.00000000000E+00  0.00000000000E+00  0.45593999997E+02  0.45594000000E+02  0.51100000000E-03 0.  1.
         11   -1    0    0    0    0 -0.00000000000E+00 -0.00000000000E+00 -0.45593999997E+02  0.45594000000E+02  0.51100000000E-03 0. -1.
    9900012    2    1    2    0    0 -0.25810365942E+02  0.11170456951E+02  0.15025540020E+02  0.59301937975E+02  0.49999988961E+02 0.  0.
         12    1    1    2    0    0  0.25810365942E+02 -0.11170456951E+02 -0.15025540020E+02  0.31886062025E+02  0.00000000000E+00 0. -1.
         11    1    3    3    0    0  0.10452276757E+02  0.11068498135E+02  0.73820023480E+01  0.16919092744E+02  0.51100000000E-03 0. -1.
        -11    1    3    3    0    0 -0.26905208266E+02  0.80466317407E+01  0.10138344752E+02  0.29856733726E+02  0.51100000000E-03 0.  1.
         12    1    3    3    0    0 -0.93574344340E+01 -0.79446729239E+01 -0.24948070804E+01  0.12526111505E+02  0.00000000000E+00 0. -1.
</event>
<event>
 7    1  0.4489290E-013  0.5930196E+02  0.7816164E-02  0.1266605E+00
        -11   -1    0    0    0    0  0.00000000000E+00  0.00000000000E+00  0.45593999997E+02  0.45594000000E+02  0.51100000000E-03 0.  1.
         11   -1    0    0    0    0 -0.00000000000E+00 -0.00000000000E+00 -0.45593999997E+02  0.45594000000E+02  0.51100000000E-03 0. -1.
    9900012    2    1    2    0    0 -0.20211161420E+02  0.12361625463E+02  0.21340547791E+02  0.59301955874E+02  0.50000021605E+02 0.  0.
         12    1    1    2    0    0  0.20211161420E+02 -0.12361625463E+02 -0.21340547791E+02  0.31886044126E+02  0.00000000000E+00 0. -1.
         11    1    3    3    0    0 -0.99503757518E+01  0.12538006289E+02  0.55308302961E+01  0.16935219613E+02  0.51100000000E-03 0. -1.
        -11    1    3    3    0    0 -0.49235610636E+01 -0.18736101909E+02  0.11671257933E+02  0.22616392955E+02  0.51100000000E-03 0.  1.
        -12    1    3    3    0    0 -0.53372246043E+01  0.18559721083E+02  0.41384595617E+01  0.19750343306E+02  0.00000000000E+00 0.  1.
</event>
<event>
 7    1  0.4489290E-013  0.5930189E+02  0.7816164E-02  0.1266605E+00
        -11   -1    0    0    0    0  0.00000000000E+00  0.00000000000E+00  0.45593999997E+02  0.45594000000E+02  0.51100000000E-03 0. -1.
         11   -1    0    0    0    0 -0.00000000000E+00 -0.00000000000E+00 -0.45593999997E+02  0.45594000000E+02  0.51100000000E-03 0.  1.
    9900012    2    1    2    0    0 -0.16730026531E+02 -0.26266158674E+02 -0.68497684831E+01  0.59301886918E+02  0.49999895846E+02 0.  0.
         12    1    1    2    0    0  0.16730026531E+02  0.26266158674E+02  0.68497684831E+01  0.31886113082E+02  0.00000000000E+00 0. -1.
         11    1    3    3    0    0  0.89721353789E+01  0.59721067929E+01  0.55958567838E+01  0.12144088529E+02  0.51100000000E-03 0. -1.
        -11    1    3    3    0    0 -0.21986479261E+02 -0.33702537965E+02 -0.14364295187E+02  0.42727032567E+02  0.51100000000E-03 0.  1.
        -12    1    3    3    0    0 -0.37156826494E+01  0.14642724983E+01  0.19186699200E+01  0.44307658212E+01  0.00000000000E+00 0.  1.
</event>
<event>
 7    1  0.4489290E-013  0.5930175E+02  0.7816164E-02  0.1266605E+00
        -11   -1    0    0    0    0  0.00000000000E+00  0.00000000000E+00  0.45593999997E+02  0.45594000000E+02  0.51100000000E-03 0. -1.
         11   -1    0    0    0    0 -0.00000000000E+00 -0.00000000000E+00 -0.45593999997E+02  0.45594000000E+02  0.51100000000E-03 0.  1.
    9900012    2    1    2    0    0  0.30287475557E+02  0.90675502681E+01  0.41450573413E+01  0.59301746789E+02  0.49999640282E+02 0.  0.
         12    1    1    2    0    0 -0.30287475557E+02 -0.90675502681E+01 -0.41450573413E+01  0.31886253211E+02  0.00000000000E+00 0. -1.
         11    1    3    3    0    0  0.11276580298E+02 -0.19685451123E+02  0.62022574233E+01  0.23519061344E+02  0.51100000000E-03 0. -1.
        -11    1    3    3    0    0  0.80028557264E+01  0.20367787486E+02 -0.14420555287E+01  0.21931073646E+02  0.51100000000E-03 0.  1.
         12    1    3    3    0    0  0.11008039533E+02  0.83852139045E+01 -0.61514455326E+00  0.13851611798E+02  0.00000000000E+00 0. -1.
</event>
<event>
 7    1  0.4489290E-013  0.5930195E+02  0.7816164E-02  0.1266605E+00
        -11   -1    0    0    0    0  0.00000000000E+00  0.00000000000E+00  0.45593999997E+02  0.45594000000E+02  0.51100000000E-03 0. -1.
         11   -1    0    0    0    0 -0.00000000000E+00 -0.00000000000E+00 -0.45593999997E+02  0.45594000000E+02  0.51100000000E-03 0.  1.
    9900012    2    1    2    0    0 -0.16104803572E+02 -0.12890918072E+02 -0.24314193126E+02  0.59301945773E+02  0.50000003182E+02 0.  0.
         12    1    1    2    0    0  0.16104803572E+02  0.12890918072E+02  0.24314193126E+02  0.31886054227E+02  0.00000000000E+00 0. -1.
         11    1    3    3    0    0 -0.13322684309E+02  0.30645240816E+01  0.32399629890E+01  0.14049291280E+02  0.51100000000E-03 0. -1.
        -11    1    3    3    0    0  0.48845015119E+01 -0.21966360675E+02 -0.27469898596E+02  0.35510205370E+02  0.51100000000E-03 0.  1.
        -12    1    3    3    0    0 -0.76666207751E+01  0.60109185211E+01 -0.84257519419E-01  0.97424491226E+01  0.00000000000E+00 0.  1.
</event>
<event>
 7    1  0.4489290E-013  0.5930197E+02  0.7816164E-02  0.1266605E+00
        -11   -1    0    0    0    0  0.00000000000E+00  0.00000000000E+00  0.45593999997E+02  0.45594000000E+02  0.51100000000E-03 0.  1.
         11   -1    0    0    0    0 -0.00000000000E+00 -0.00000000000E+00 -0.45593999997E+02  0.45594000000E+02  0.51100000000E-03 0. -1.
    9900012    2    1    2    0    0  0.31712946027E+02  0.65272453808E+00 -0.32529953074E+01  0.59301968991E+02  0.50000045526E+02 0.  0.
         12    1    1    2    0    0 -0.31712946027E+02 -0.65272453808E+00  0.32529953074E+01  0.31886031009E+02  0.00000000000E+00 0. -1.
         11    1    3    3    0    0 -0.14249416665E+01  0.50164184058E+00 -0.12013115844E+02  0.12107727113E+02  0.51100000000E-03 0. -1.
        -11    1    3    3    0    0  0.35478977383E+02 -0.85898093835E+00  0.16432634082E+02  0.39109169610E+02  0.51100000000E-03 0.  1.
        -12    1    3    3    0    0 -0.23410896893E+01  0.10100636359E+01 -0.76725135454E+01  0.80850722685E+01  0.00000000000E+00 0.  1.
</event>
<event>
 7    1  0.4489290E-013  0.5930194E+02  0.7816164E-02  0.1266605E+00
        -11   -1    0    0    0    0  0.00000000000E+00  0.00000000000E+00  0.45593999997E+02  0.45594000000E+02  0.51100000000E-03 0. -1.
         11   -1    0    0    0    0 -0.00000000000E+00 -0.00000000000E+00 -0.45593999997E+02  0.45594000000E+02  0.51100000000E-03 0.  1.
    9900012    2    1    2    0    0  0.17829496416E+02 -0.22052880073E+02 -0.14577394793E+02  0.59301938768E+02  0.49999990407E+02 0.  0.
         12    1    1    2    0    0 -0.17829496416E+02  0.22052880073E+02  0.14577394793E+02  0.31886061232E+02  0.00000000000E+00 0. -1.
         11    1    3    3    0    0  0.24996488132E+01 -0.78094288804E+01 -0.26647320359E+02  0.27880371343E+02  0.51100000000E-03 0.  1.
        -11    1    3    3    0    0  0.19848679663E+02 -0.11170430483E+02  0.66550164825E+01  0.23728418535E+02  0.51100000000E-03 0. -1.
         12    1    3    3    0    0 -0.45188320599E+01 -0.30730207091E+01  0.54149090831E+01  0.76931488899E+01  0.00000000000E+00 0. -1.
</event>
<event>
 7    1  0.4489290E-013  0.5930194E+02  0.7816164E-02  0.1266605E+00
        -11   -1    0    0    0    0  0.00000000000E+00  0.00000000000E+00  0.45593999997E+02  0.45594000000E+02  0.51100000000E-03 0.  1.
         11   -1    0    0    0    0 -0.00000000000E+00 -0.00000000000E+00 -0.45593999997E+02  0.45594000000E+02  0.51100000000E-03 0. -1.
    9900012    2    1    2    0    0  0.30524150481E+02  0.35117905875E+01  0.85243452573E+01  0.59301938817E+02  0.49999990497E+02 0.  0.
         12    1    1    2    0    0 -0.30524150481E+02 -0.35117905875E+01 -0.85243452573E+01  0.31886061183E+02  0.00000000000E+00 0. -1.
         11    1    3    3    0    0 -0.18527101871E+01  0.16009341479E+02 -0.12695380192E+01  0.16166115076E+02  0.51100000000E-03 0. -1.
        -11    1    3    3    0    0  0.11507088248E+02 -0.16845709353E+02  0.22589340128E+01  0.20525442424E+02  0.51100000000E-03 0.  1.
        -12    1    3    3    0    0  0.20869772420E+02  0.43481584619E+01  0.75349492637E+01  0.22610381317E+02  0.00000000000E+00 0.  1.
</event>
<event>
 7    1  0.4489290E-013  0.5930192E+02  0.7816164E-02  0.1266605E+00
        -11   -1    0    0    0    0  0.00000000000E+00  0.00000000000E+00  0.45593999997E+02  0.45594000000E+02  0.51100000000E-03 0.  1.
         11   -1    0    0    0    0 -0.00000000000E+00 -0.00000000000E+00 -0.45593999997E+02  0.45594000000E+02  0.51100000000E-03 0. -1.
    9900012    2    1    2    0    0  0.10331979624E+02 -0.18119328018E+02  0.24117680689E+02  0.59301915690E+02  0.49999948319E+02 0.  0.
         12    1    1    2    0    0 -0.10331979624E+02  0.18119328018E+02 -0.24117680689E+02  0.31886084310E+02  0.00000000000E+00 0. -1.
         11    1    3    3    0    0  0.21743610092E+02 -0.39775427288E+01 -0.35977235276E+01  0.22395290595E+02  0.51100000000E-03 0. -1.
        -11    1    3    3    0    0 -0.10644664626E+01 -0.12918195356E+02  0.10067196080E+02  0.16412230113E+02  0.51100000000E-03 0.  1.
         12    1    3    3    0    0 -0.10347164005E+02 -0.12235899331E+01  0.17648208137E+02  0.20494394983E+02  0.00000000000E+00 0. -1.
</event>
<event>
 7    1  0.4489290E-013  0.5930172E+02  0.7816164E-02  0.1266606E+00
        -11   -1    0    0    0    0  0.00000000000E+00  0.00000000000E+00  0.45593999997E+02  0.45594000000E+02  0.51100000000E-03 0.  1.
         11   -1    0    0    0    0 -0.00000000000E+00 -0.00000000000E+00 -0.45593999997E+02  0.45594000000E+02  0.51100000000E-03 0. -1.
    9900012    2    1    2    0    0 -0.78115476502E+01  0.68995667562E+01  0.30134874571E+02  0.59301718255E+02  0.49999588243E+02 0.  0.
         12    1    1    2    0    0  0.78115476502E+01 -0.68995667562E+01 -0.30134874571E+02  0.31886281745E+02  0.00000000000E+00 0. -1.
         11    1    3    3    0    0  0.11796672525E+02 -0.10064602656E+02  0.15681040222E+02  0.22053406358E+02  0.51100000000E-03 0.  1.
        -11    1    3    3    0    0 -0.10772629191E+02  0.17755267454E+01 -0.41295500120E+01  0.11672841063E+02  0.51100000000E-03 0. -1.
         12    1    3    3    0    0 -0.88355909833E+01  0.15188642667E+02  0.18583384361E+02  0.25575470834E+02  0.00000000000E+00 0. -1.
</event>
<event>
 7    1  0.4489290E-013  0.5930196E+02  0.7816164E-02  0.1266605E+00
        -11   -1    0    0    0    0  0.00000000000E+00  0.00000000000E+00  0.45593999997E+02  0.45594000000E+02  0.51100000000E-03 0. -1.
         11   -1    0    0    0    0 -0.00000000000E+00 -0.00000000000E+00 -0.45593999997E+02  0.45594000000E+02  0.51100000000E-03 0.  1.
    9900012    2    1    2    0    0 -0.71253947996E+01  0.76540482374E+01 -0.30122477914E+02  0.59301962599E+02  0.50000033870E+02 0.  0.
         12    1    1    2    0    0  0.71253947996E+01 -0.76540482374E+01  0.30122477914E+02  0.31886037401E+02  0.00000000000E+00 0. -1.
         11    1    3    3    0    0 -0.81311381987E+01 -0.16079032493E+02 -0.72269192592E+01  0.19413373137E+02  0.51100000000E-03 0. -1.
        -11    1    3    3    0    0  0.91082474044E+01  0.18054042946E+01 -0.66568759305E+01  0.11425132510E+02  0.51100000000E-03 0.  1.
         12    1    3    3    0    0 -0.81025040054E+01  0.21927676436E+02 -0.16238682724E+02  0.28463456952E+02  0.00000000000E+00 0. -1.
</event>
<event>
 7    1  0.4489290E-013  0.5930193E+02  0.7816164E-02  0.1266605E+00
        -11   -1    0    0    0    0  0.00000000000E+00  0.00000000000E+00  0.45593999997E+02  0.45594000000E+02  0.51100000000E-03 0.  1.
         11   -1    0    0    0    0 -0.00000000000E+00 -0.00000000000E+00 -0.45593999997E+02  0.45594000000E+02  0.51100000000E-03 0. -1.
    9900012    2    1    2    0    0  0.31868786726E+02  0.10473937805E+01 -0.67717715429E-01  0.59301934285E+02  0.49999982232E+02 0.  0.
         12    1    1    2    0    0 -0.31868786726E+02 -0.10473937805E+01  0.67717715429E-01  0.31886065715E+02  0.00000000000E+00 0. -1.
         11    1    3    3    0    0  0.99582628624E+01 -0.24072899509E+01 -0.12607064684E+02  0.16245003058E+02  0.51100000000E-03 0. -1.
        -11    1    3    3    0    0 -0.88722172995E+01  0.34599742958E+01  0.69046476915E+01  0.11762730208E+02  0.51100000000E-03 0.  1.
        -12    1    3    3    0    0  0.30782741163E+02 -0.52905644571E-02  0.56346992775E+01  0.31294201019E+02  0.00000000000E+00 0.  1.
</event>
<event>
 7    1  0.4489290E-013  0.5930195E+02  0.7816164E-02  0.1266605E+00
        -11   -1    0    0    0    0  0.00000000000E+00  0.00000000000E+00  0.45593999997E+02  0.45594000000E+02  0.51100000000E-03 0. -1.
         11   -1    0    0    0    0 -0.00000000000E+00 -0.00000000000E+00 -0.45593999997E+02  0.45594000000E+02  0.51100000000E-03 0.  1.
    9900012    2    1    2    0    0  0.35295722997E+01 -0.14734051586E+02 -0.28056550304E+02  0.59301950202E+02  0.50000011261E+02 0.  0.
         12    1    1    2    0    0 -0.35295722997E+01  0.14734051586E+02  0.28056550304E+02  0.31886049798E+02  0.00000000000E+00 0. -1.
         11    1    3    3    0    0  0.14880859759E+02  0.10707258325E+02 -0.19362305478E+02  0.26664287758E+02  0.51100000000E-03 0. -1.
        -11    1    3    3    0    0 -0.41109963474E+01 -0.20722557192E+02 -0.10822631545E+02  0.23737186467E+02  0.51100000000E-03 0.  1.
         12    1    3    3    0    0 -0.72402911115E+01 -0.47187527185E+01  0.21283867193E+01  0.89004759774E+01  0.00000000000E+00 0. -1.
</event>
<event>
 7    1  0.4489290E-013  0.5930194E+02  0.7816164E-02  0.1266605E+00
        -11   -1    0    0    0    0  0.00000000000E+00  0.00000000000E+00  0.45593999997E+02  0.45594000000E+02  0.51100000000E-03 0. -1.
         11   -1    0    0    0    0 -0.00000000000E+00 -0.00000000000E+00 -0.45593999997E+02  0.45594000000E+02  0.51100000000E-03 0.  1.
    9900012    2    1    2    0    0  0.18607148034E+02  0.18592816195E-01 -0.25893911660E+02  0.59301937767E+02  0.49999988582E+02 0.  0.
         12    1    1    2    0    0 -0.18607148034E+02 -0.18592816195E-01  0.25893911660E+02  0.31886062233E+02  0.00000000000E+00 0. -1.
         11    1    3    3    0    0  0.75824992553E+01  0.10975267205E+02 -0.29220697675E+02  0.32121643140E+02  0.51100000000E-03 0.  1.
        -11    1    3    3    0    0  0.16769598780E+02 -0.12343240074E+02  0.40929960076E+01  0.21220924470E+02  0.51100000000E-03 0. -1.
         12    1    3    3    0    0 -0.57449500010E+01  0.13865656852E+01 -0.76620999282E+00  0.59593701569E+01  0.00000000000E+00 0. -1.
</event>
<event>
 7    1  0.4489290E-013  0.5930192E+02  0.7816164E-02  0.1266605E+00
        -11   -1    0    0    0    0  0.00000000000E+00  0.00000000000E+00  0.45593999997E+02  0.45594000000E+02  0.51100000000E-03 0.  1.
         11   -1    0    0    0    0 -0.00000000000E+00 -0.00000000000E+00 -0.45593999997E+02  0.45594000000E+02  0.51100000000E-03 0. -1.
    9900012    2    1    2    0    0  0.14716795739E+02  0.22860259401E+02  0.16659724824E+02  0.59301922036E+02  0.49999959892E+02 0.  0.
         12    1    1    2    0    0 -0.14716795739E+02 -0.22860259401E+02 -0.16659724824E+02  0.31886077964E+02  0.00000000000E+00 0. -1.
         11    1    3    3    0    0  0.26223647461E+02  0.22946138433E+02  0.20911636705E+01  0.34908135454E+02  0.51100000000E-03 0. -1.
        -11    1    3    3    0    0 -0.50330026576E+01  0.70049497354E+01  0.11373920910E+02  0.14274680860E+02  0.51100000000E-03 0.  1.
         12    1    3    3    0    0 -0.64738490636E+01 -0.70908287673E+01  0.31946402443E+01  0.10119105721E+02  0.00000000000E+00 0. -1.
</event>
<event>
 7    1  0.4489290E-013  0.5930184E+02  0.7816164E-02  0.1266605E+00
        -11   -1    0    0    0    0  0.00000000000E+00  0.00000000000E+00  0.45593999997E+02  0.45594000000E+02  0.51100000000E-03 0. -1.
         11   -1    0    0    0    0 -0.00000000000E+00 -0.00000000000E+00 -0.45593999997E+02  0.45594000000E+02  0.51100000000E-03 0.  1.
    9900012    2    1    2    0    0  0.12106663653E+02  0.62856909396E+01 -0.28820928454E+02  0.59301841054E+02  0.49999812199E+02 0.  0.
         12    1    1    2    0    0 -0.12106663653E+02 -0.62856909396E+01  0.28820928454E+02  0.31886158946E+02  0.00000000000E+00 0. -1.
         11    1    3    3    0    0 -0.20411520939E+01  0.41421555970E+01  0.12756243915E+02  0.13566337529E+02  0.51100000000E-03 0. -1.
        -11    1    3    3    0    0  0.63841976287E+01  0.59668388795E+01 -0.30213343932E+02  0.31451666051E+02  0.51100000000E-03 0.  1.
         12    1    3    3    0    0  0.77636181182E+01 -0.38233035368E+01 -0.11363828438E+02  0.14283837474E+02  0.00000000000E+00 0. -1.
</event>
<event>
 7    1  0.4489290E-013  0.5930179E+02  0.7816164E-02  0.1266605E+00
        -11   -1    0    0    0    0  0.00000000000E+00  0.00000000000E+00  0.45593999997E+02  0.45594000000E+02  0.51100000000E-03 0. -1.
         11   -1    0    0    0    0 -0.00000000000E+00 -0.00000000000E+00 -0.45593999997E+02  0.45594000000E+02  0.51100000000E-03 0.  1.
    9900012    2    1    2    0    0  0.13801145212E+02  0.28488570446E+02 -0.38288489341E+01  0.59301790765E+02  0.49999720485E+02 0.  0.
         12    1    1    2    0    0 -0.13801145212E+02 -0.28488570446E+02  0.38288489341E+01  0.31886209235E+02  0.00000000000E+00 0. -1.
         11    1    3    3    0    0  0.13652450434E+02  0.29544056624E+02  0.11294404338E+02  0.34450025461E+02  0.51100000000E-03 0. -1.
        -11    1    3    3    0    0 -0.54599407498E+01 -0.52707179809E+01 -0.16070328515E+02  0.17772081473E+02  0.51100000000E-03 0.  1.
        -12    1    3    3    0    0  0.56086355272E+01  0.42152318033E+01  0.94707524291E+00  0.70796838311E+01  0.00000000000E+00 0.  1.
</event>
<event>
 7    1  0.4489290E-013  0.5930191E+02  0.7816164E-02  0.1266605E+00
        -11   -1    0    0    0    0  0.00000000000E+00  0.00000000000E+00  0.45593999997E+02  0.45594000000E+02  0.51100000000E-03 0. -1.
         11   -1    0    0    0    0 -0.00000000000E+00 -0.00000000000E+00 -0.45593999997E+02  0.45594000000E+02  0.51100000000E-03 0.  1.
    9900012    2    1    2    0    0  0.99795784222E+01  0.29672482323E+02 -0.60559515915E+01  0.59301909892E+02  0.49999937745E+02 0.  0.
         12    1    1    2    0    0 -0.99795784222E+01 -0.29672482323E+02  0.60559515915E+01  0.31886090108E+02  0.00000000000E+00 0. -1.
         11    1    3    3    0    0  0.28721090524E+01 -0.96346358665E+01 -0.78522203620E+01  0.12756668200E+02  0.51100000000E-03 0. -1.
        -11    1    3    3    0    0 -0.81893185448E+00  0.29636809971E+02 -0.79457356792E+01  0.30694394771E+02  0.51100000000E-03 0.  1.
         12    1    3    3    0    0  0.79264012243E+01  0.96703082185E+01  0.97420044497E+01  0.15850846921E+02  0.00000000000E+00 0. -1.
</event>
<event>
 7    1  0.4489290E-013  0.5930196E+02  0.7816164E-02  0.1266605E+00
        -11   -1    0    0    0    0  0.00000000000E+00  0.00000000000E+00  0.45593999997E+02  0.45594000000E+02  0.51100000000E-03 0.  1.
         11   -1    0    0    0    0 -0.00000000000E+00 -0.00000000000E+00 -0.45593999997E+02  0.45594000000E+02  0.51100000000E-03 0. -1.
    9900012    2    1    2    0    0 -0.19425458808E+01 -0.18080363856E+02  0.26192487940E+02  0.59301961266E+02  0.50000031439E+02 0.  0.
         12    1    1    2    0    0  0.19425458808E+01  0.18080363856E+02 -0.26192487940E+02  0.31886038734E+02  0.00000000000E+00 0. -1.
         11    1    3    3    0    0 -0.27031988015E+01  0.19449589581E+01 -0.65637330419E+01  0.73602133675E+01  0.51100000000E-03 0. -1.
        -11    1    3    3    0    0 -0.31161696318E+01 -0.23984445808E+02  0.37516329735E+02  0.44636746644E+02  0.51100000000E-03 0.  1.
        -12    1    3    3    0    0  0.38768225525E+01  0.39591229947E+01 -0.47601087533E+01  0.73050012550E+01  0.00000000000E+00 0.  1.
</event>
<event>
 7    1  0.4489290E-013  0.5930194E+02  0.7816164E-02  0.1266605E+00
        -11   -1    0    0    0    0  0.00000000000E+00  0.00000000000E+00  0.45593999997E+02  0.45594000000E+02  0.51100000000E-03 0. -1.
         11   -1    0    0    0    0 -0.00000000000E+00 -0.00000000000E+00 -0.45593999997E+02  0.45594000000E+02  0.51100000000E-03 0.  1.
    9900012    2    1    2    0    0 -0.18149891587E+02 -0.25877753116E+02  0.42004681411E+01  0.59301943430E+02  0.49999998910E+02 0.  0.
         12    1    1    2    0    0  0.18149891587E+02  0.25877753116E+02 -0.42004681411E+01  0.31886056570E+02  0.00000000000E+00 0. -1.
         11    1    3    3    0    0  0.46546234932E+01 -0.22355622336E+02  0.76322426923E+01  0.24076762629E+02  0.51100000000E-03 0. -1.
        -11    1    3    3    0    0 -0.60222583223E+01  0.90941721635E+01  0.57262880559E+01  0.12319169526E+02  0.51100000000E-03 0.  1.
        -12    1    3    3    0    0 -0.16782256758E+02 -0.12616302943E+02 -0.91580626072E+01  0.22906011276E+02  0.00000000000E+00 0.  1.
</event>
<event>
 7    1  0.4489290E-013  0.5930198E+02  0.7816164E-02  0.1266605E+00
        -11   -1    0    0    0    0  0.00000000000E+00  0.00000000000E+00  0.45593999997E+02  0.45594000000E+02  0.51100000000E-03 0. -1.
         11   -1    0    0    0    0 -0.00000000000E+00 -0.00000000000E+00 -0.45593999997E+02  0.45594000000E+02  0.51100000000E-03 0.  1.
    9900012    2    1    2    0    0 -0.15612029401E+02 -0.22273608744E+02 -0.16639379880E+02  0.59301983139E+02  0.50000071329E+02 0.  0.
         12    1    1    2    0    0  0.15612029401E+02  0.22273608744E+02  0.16639379880E+02  0.31886016861E+02  0.00000000000E+00 0. -1.
         11    1    3    3    0    0 -0.18810103621E+02 -0.12597551306E+02  0.15081340444E+01  0.22689045059E+02  0.51100000000E-03 0. -1.
        -11    1    3    3    0    0  0.66121534010E+01  0.79033536499E+01  0.10520790033E+01  0.10358109963E+02  0.51100000000E-03 0.  1.
        -12    1    3    3    0    0 -0.34140791811E+01 -0.17579411088E+02 -0.19199592928E+02  0.26254828117E+02  0.00000000000E+00 0.  1.
</event>
<event>
 7    1  0.4489290E-013  0.5930195E+02  0.7816164E-02  0.1266605E+00
        -11   -1    0    0    0    0  0.00000000000E+00  0.00000000000E+00  0.45593999997E+02  0.45594000000E+02  0.51100000000E-03 0. -1.
         11   -1    0    0    0    0 -0.00000000000E+00 -0.00000000000E+00 -0.45593999997E+02  0.45594000000E+02  0.51100000000E-03 0.  1.
    9900012    2    1    2    0    0  0.11751655285E+02 -0.11576652459E+02 -0.27287361226E+02  0.59301947144E+02  0.50000005683E+02 0.  0.
         12    1    1    2    0    0 -0.11751655285E+02  0.11576652459E+02  0.27287361226E+02  0.31886052856E+02  0.00000000000E+00 0. -1.
         11    1    3    3    0    0  0.22089862227E+01  0.40765022990E+01  0.81519752748E+01  0.93782830128E+01  0.51100000000E-03 0. -1.
        -11    1    3    3    0    0 -0.20379587662E+01 -0.14538144024E+02 -0.35363179286E+02  0.38289232913E+02  0.51100000000E-03 0.  1.
        -12    1    3    3    0    0  0.11580627829E+02 -0.11150107333E+01 -0.76157214945E-01  0.11634431218E+02  0.00000000000E+00 0.  1.
</event>
<event>
 7    1  0.4489290E-013  0.5930199E+02  0.7816164E-02  0.1266605E+00
        -11   -1    0    0    0    0  0.00000000000E+00  0.00000000000E+00  0.45593999997E+02  0.45594000000E+02  0.51100000000E-03 0. -1.
         11   -1    0    0    0    0 -0.00000000000E+00 -0.00000000000E+00 -0.45593999997E+02  0.45594000000E+02  0.51100000000E-03 0.  1.
    9900012    2    1    2    0    0 -0.14246575738E+02 -0.63618292449E+01 -0.27807911120E+02  0.59301988765E+02  0.50000081591E+02 0.  0.
         12    1    1    2    0    0  0.14246575738E+02  0.63618292449E+01  0.27807911120E+02  0.31886011235E+02  0.00000000000E+00 0. -1.
         11    1    3    3    0    0 -0.28767850356E+01 -0.82240076453E+01 -0.31587596451E+02  0.32767154953E+02  0.51100000000E-03 0. -1.
        -11    1    3    3    0    0 -0.15371766414E+02 -0.57607489817E+01 -0.14197573743E+01  0.16477048971E+02  0.51100000000E-03 0.  1.
         12    1    3    3    0    0  0.40019757124E+01  0.76229273821E+01  0.51994427050E+01  0.10057784842E+02  0.00000000000E+00 0. -1.
</event>
<event>
 7    1  0.4489290E-013  0.5930196E+02  0.7816164E-02  0.1266605E+00
        -11   -1    0    0    0    0  0.00000000000E+00  0.00000000000E+00  0.45593999997E+02  0.45594000000E+02  0.51100000000E-03 0. -1.
         11   -1    0    0    0    0 -0.00000000000E+00 -0.00000000000E+00 -0.45593999997E+02  0.45594000000E+02  0.51100000000E-03 0.  1.
    9900012    2    1    2    0    0 -0.32084541732E+01 -0.14715274901E+02 -0.28104906487E+02  0.59301964464E+02  0.50000037270E+02 0.  0.
         12    1    1    2    0    0  0.32084541732E+01  0.14715274901E+02  0.28104906487E+02  0.31886035536E+02  0.00000000000E+00 0. -1.
         11    1    3    3    0    0 -0.54638385386E+01  0.10843602169E+02  0.20859973549E+00  0.12144165418E+02  0.51100000000E-03 0. -1.
        -11    1    3    3    0    0  0.88690976526E+00 -0.26952348782E+02 -0.32682753583E+02  0.42371902198E+02  0.51100000000E-03 0.  1.
        -12    1    3    3    0    0  0.13684746001E+01  0.13934717124E+01  0.43692473606E+01  0.47858968483E+01  0.00000000000E+00 0.  1.
</event>
<event>
 7    1  0.4489290E-013  0.5930190E+02  0.7816164E-02  0.1266605E+00
        -11   -1    0    0    0    0  0.00000000000E+00  0.00000000000E+00  0.45593999997E+02  0.45594000000E+02  0.51100000000E-03 0. -1.
         11   -1    0    0    0    0 -0.00000000000E+00 -0.00000000000E+00 -0.45593999997E+02  0.45594000000E+02  0.51100000000E-03 0.  1.
    9900012    2    1    2    0    0 -0.29634883490E+02 -0.69106147157E+01 -0.95257898932E+01  0.59301896627E+02  0.49999913553E+02 0.  0.
         12    1    1    2    0    0  0.29634883490E+02  0.69106147157E+01  0.95257898932E+01  0.31886103373E+02  0.00000000000E+00 0. -1.
         11    1    3    3    0    0 -0.97243155433E+00  0.47773725712E+01  0.17171239043E+02  0.17849940121E+02  0.51100000000E-03 0. -1.
        -11    1    3    3    0    0 -0.27129792311E+02 -0.90341347876E+01 -0.23380538954E+02  0.36936307670E+02  0.51100000000E-03 0.  1.
         12    1    3    3    0    0 -0.15326596242E+01 -0.26538524993E+01 -0.33164899815E+01  0.45156488359E+01  0.00000000000E+00 0. -1.
</event>
<event>
 7    1  0.4489290E-013  0.5930194E+02  0.7816164E-02  0.1266605E+00
        -11   -1    0    0    0    0  0.00000000000E+00  0.00000000000E+00  0.45593999997E+02  0.45594000000E+02  0.51100000000E-03 0.  1.
         11   -1    0    0    0    0 -0.00000000000E+00 -0.00000000000E+00 -0.45593999997E+02  0.45594000000E+02  0.51100000000E-03 0. -1.
    9900012    2    1    2    0    0 -0.27725494752E+02 -0.11044215648E+02 -0.11226899766E+02  0.59301936636E+02  0.49999986519E+02 0.  0.
         12    1    1    2    0    0  0.27725494752E+02  0.11044215648E+02  0.11226899766E+02  0.31886063364E+02  0.00000000000E+00 0. -1.
         11    1    3    3    0    0  0.11042127180E+02  0.41087043497E+01  0.26823718272E+01  0.12083258789E+02  0.51100000000E-03 0. -1.
        -11    1    3    3    0    0 -0.20570655602E+02 -0.77309951964E+00 -0.85184637654E+00  0.20602795861E+02  0.51100000000E-03 0.  1.
         12    1    3    3    0    0 -0.18196966329E+02 -0.14379820478E+02 -0.13057425217E+02  0.26615881985E+02  0.00000000000E+00 0. -1.
</event>
<event>
 7    1  0.4489290E-013  0.5930194E+02  0.7816164E-02  0.1266605E+00
        -11   -1    0    0    0    0  0.00000000000E+00  0.00000000000E+00  0.45593999997E+02  0.45594000000E+02  0.51100000000E-03 0.  1.
         11   -1    0    0    0    0 -0.00000000000E+00 -0.00000000000E+00 -0.45593999997E+02  0.45594000000E+02  0.51100000000E-03 0. -1.
    9900012    2    1    2    0    0 -0.92572378190E+01  0.52263354445E-01  0.30512643732E+02  0.59301943314E+02  0.49999998698E+02 0.  0.
         12    1    1    2    0    0  0.92572378190E+01 -0.52263354445E-01 -0.30512643732E+02  0.31886056686E+02  0.00000000000E+00 0. -1.
         11    1    3    3    0    0  0.58440685192E+01  0.18672413280E+01 -0.15457443953E+01  0.63268517472E+01  0.51100000000E-03 0. -1.
        -11    1    3    3    0    0 -0.27326778824E+02 -0.25705945520E+01  0.29810147765E+02  0.40521669601E+02  0.51100000000E-03 0.  1.
        -12    1    3    3    0    0  0.12225472486E+02  0.75561657841E+00  0.22482403622E+01  0.12453421965E+02  0.00000000000E+00 0.  1.
</event>
<event>
 7    1  0.4489290E-013  0.5930198E+02  0.7816164E-02  0.1266605E+00
        -11   -1    0    0    0    0  0.00000000000E+00  0.00000000000E+00  0.45593999997E+02  0.45594000000E+02  0.51100000000E-03 0. -1.
         11   -1    0    0    0    0 -0.00000000000E+00 -0.00000000000E+00 -0.45593999997E+02  0.45594000000E+02  0.51100000000E-03 0.  1.
    9900012    2    1    2    0    0 -0.31553793566E+02 -0.20011292115E+01  0.41318447359E+01  0.59301975672E+02  0.50000057712E+02 0.  0.
         12    1    1    2    0    0  0.31553793566E+02  0.20011292115E+01 -0.41318447359E+01  0.31886024328E+02  0.00000000000E+00 0. -1.
         11    1    3    3    0    0  0.26923394781E+01  0.66720799030E+01 -0.37704006517E+01  0.81228851668E+01  0.51100000000E-03 0. -1.
        -11    1    3    3    0    0 -0.21606643407E+02 -0.17783724782E+02  0.17380186814E+02  0.32942052158E+02  0.51100000000E-03 0.  1.
        -12    1    3    3    0    0 -0.12639489637E+02  0.91105156674E+01 -0.94779414262E+01  0.18237038347E+02  0.00000000000E+00 0.  1.
</event>
<event>
 7    1  0.4489290E-013  0.5930194E+02  0.7816164E-02  0.1266605E+00
        -11   -1    0    0    0    0  0.00000000000E+00  0.00000000000E+00  0.45593999997E+02  0.45594000000E+02  0.51100000000E-03 0.  1.
         11   -1    0    0    0    0 -0.00000000000E+00 -0.00000000000E+00 -0.45593999997E+02  0.45594000000E+02  0.51100000000E-03 0. -1.
    9900012    2    1    2    0    0 -0.39472294746E+01  0.15811947565E+02  0.27406610114E+02  0.59301943733E+02  0.49999999463E+02 0.  0.
         12    1    1    2    0    0  0.39472294746E+01 -0.15811947565E+02 -0.27406610114E+02  0.31886056267E+02  0.00000000000E+00 0. -1.
         11    1    3    3    0    0  0.13564580698E+01  0.27987984109E+02  0.23156356727E+02  0.36350847172E+02  0.51100000000E-03 0. -1.
        -11    1    3    3    0    0 -0.11360021961E+02 -0.11957760020E+02  0.31581275580E+01  0.16793209746E+02  0.51100000000E-03 0.  1.
        -12    1    3    3    0    0  0.60563344165E+01 -0.21827652346E+00  0.10921258285E+01  0.61578868153E+01  0.00000000000E+00 0.  1.
</event>
<event>
 7    1  0.4489290E-013  0.5930196E+02  0.7816164E-02  0.1266605E+00
        -11   -1    0    0    0    0  0.00000000000E+00  0.00000000000E+00  0.45593999997E+02  0.45594000000E+02  0.51100000000E-03 0. -1.
         11   -1    0    0    0    0 -0.00000000000E+00 -0.00000000000E+00 -0.45593999997E+02  0.45594000000E+02  0.51100000000E-03 0.  1.
    9900012    2    1    2    0    0  0.15547419124E+02 -0.27778414797E+02  0.18322911974E+01  0.59301955073E+02  0.50000020144E+02 0.  0.
         12    1    1    2    0    0 -0.15547419124E+02  0.27778414797E+02 -0.18322911974E+01  0.31886044927E+02  0.00000000000E+00 0. -1.
         11    1    3    3    0    0 -0.10733209773E+01 -0.29878193779E+02  0.84935263425E+01  0.31080515945E+02  0.51100000000E-03 0. -1.
        -11    1    3    3    0    0  0.71253640445E+01 -0.75522228808E+01 -0.98494051799E+01  0.14311452263E+02  0.51100000000E-03 0.  1.
         12    1    3    3    0    0  0.94953760568E+01  0.96520018629E+01  0.31881700348E+01  0.13909986865E+02  0.00000000000E+00 0. -1.
</event>
<event>
 7    1  0.4489290E-013  0.5930194E+02  0.7816164E-02  0.1266605E+00
        -11   -1    0    0    0    0  0.00000000000E+00  0.00000000000E+00  0.45593999997E+02  0.45594000000E+02  0.51100000000E-03 0.  1.
         11   -1    0    0    0    0 -0.00000000000E+00 -0.00000000000E+00 -0.45593999997E+02  0.45594000000E+02  0.51100000000E-03 0. -1.
    9900012    2    1    2    0    0  0.80884614457E+01  0.20164369609E+02  0.23338714800E+02  0.59301943191E+02  0.49999998475E+02 0.  0.
         12    1    1    2    0    0 -0.80884614457E+01 -0.20164369609E+02 -0.23338714800E+02  0.31886056809E+02  0.00000000000E+00 0. -1.
         11    1    3    3    0    0  0.16391794766E+00  0.30146779317E+01 -0.71928888381E+01  0.78008206122E+01  0.51100000000E-03 0. -1.
        -11    1    3    3    0    0  0.20778310521E+02  0.16370290733E+02  0.27728402024E+02  0.38322172249E+02  0.51100000000E-03 0.  1.
        -12    1    3    3    0    0 -0.12853767023E+02  0.77940094474E+00  0.28032016133E+01  0.13178950330E+02  0.00000000000E+00 0.  1.
</event>
<event>
 7    1  0.4489290E-013  0.5930196E+02  0.7816164E-02  0.1266605E+00
        -11   -1    0    0    0    0  0.00000000000E+00  0.00000000000E+00  0.45593999997E+02  0.45594000000E+02  0.51100000000E-03 0.  1.
         11   -1    0    0    0    0 -0.00000000000E+00 -0.00000000000E+00 -0.45593999997E+02  0.45594000000E+02  0.51100000000E-03 0. -1.
    9900012    2    1    2    0    0  0.10772633238E+02  0.26232392042E+02  0.14578467322E+02  0.59301957150E+02  0.50000023933E+02 0.  0.
         12    1    1    2    0    0 -0.10772633238E+02 -0.26232392042E+02 -0.14578467322E+02  0.31886042850E+02  0.00000000000E+00 0. -1.
         11    1    3    3    0    0 -0.20249710554E+01 -0.55862818569E+01 -0.62048815844E+00  0.59742831014E+01  0.51100000000E-03 0. -1.
        -11    1    3    3    0    0  0.11558107080E+02  0.34184992809E+02 -0.17895773239E+01  0.36130404923E+02  0.51100000000E-03 0.  1.
        -12    1    3    3    0    0  0.12394972131E+01 -0.23663189104E+01  0.16988532805E+02  0.17197269126E+02  0.00000000000E+00 0.  1.
</event>
<event>
 7    1  0.4489290E-013  0.5930193E+02  0.7816164E-02  0.1266605E+00
        -11   -1    0    0    0    0  0.00000000000E+00  0.00000000000E+00  0.45593999997E+02  0.45594000000E+02  0.51100000000E-03 0.  1.
         11   -1    0    0    0    0 -0.00000000000E+00 -0.00000000000E+00 -0.45593999997E+02  0.45594000000E+02  0.51100000000E-03 0. -1.
    9900012    2    1    2    0    0  0.49222457419E+00  0.17153918439E+02  0.26874196490E+02  0.59301927181E+02  0.49999969275E+02 0.  0.
         12    1    1    2    0    0 -0.49222457419E+00 -0.17153918439E+02 -0.26874196490E+02  0.31886072819E+02  0.00000000000E+00 0. -1.
         11    1    3    3    0    0  0.43970398020E+01  0.38873903007E+01  0.18552863495E+01  0.61553107208E+01  0.51100000000E-03 0. -1.
        -11    1    3    3    0    0 -0.14752827709E+02 -0.11907702382E+02  0.14155377766E+02  0.23660389291E+02  0.51100000000E-03 0.  1.
        -12    1    3    3    0    0  0.10848012481E+02  0.25174230520E+02  0.10863532374E+02  0.29486227169E+02  0.00000000000E+00 0.  1.
</event>
<event>
 7    1  0.4489290E-013  0.5930193E+02  0.7816164E-02  0.1266605E+00
        -11   -1    0    0    0    0  0.00000000000E+00  0.00000000000E+00  0.45593999997E+02  0.45594000000E+02  0.51100000000E-03 0.  1.
         11   -1    0    0    0    0 -0.00000000000E+00 -0.00000000000E+00 -0.45593999997E+02  0.45594000000E+02  0.51100000000E-03 0. -1.
    9900012    2    1    2    0    0  0.93987394166E+01  0.17944335287E+02  0.24624904245E+02  0.59301931246E+02  0.49999976689E+02 0.  0.
         12    1    1    2    0    0 -0.93987394166E+01 -0.17944335287E+02 -0.24624904245E+02  0.31886068754E+02  0.00000000000E+00 0. -1.
         11    1    3    3    0    0  0.98304494265E+01 -0.68008566442E+01 -0.71023847084E+01  0.13904432956E+02  0.51100000000E-03 0. -1.
        -11    1    3    3    0    0 -0.35342902602E+01  0.25248542051E+02  0.17735102069E+02  0.31056624559E+02  0.51100000000E-03 0.  1.
        -12    1    3    3    0    0  0.31025802503E+01 -0.50335012042E+00  0.13992186884E+02  0.14340873731E+02  0.00000000000E+00 0.  1.
</event>
<event>
 7    1  0.4489290E-013  0.5930196E+02  0.7816164E-02  0.1266605E+00
        -11   -1    0    0    0    0  0.00000000000E+00  0.00000000000E+00  0.45593999997E+02  0.45594000000E+02  0.51100000000E-03 0. -1.
         11   -1    0    0    0    0 -0.00000000000E+00 -0.00000000000E+00 -0.45593999997E+02  0.45594000000E+02  0.51100000000E-03 0.  1.
    9900012    2    1    2    0    0 -0.37234128682E+00  0.28558122812E+02  0.14177968597E+02  0.59301955872E+02  0.50000021601E+02 0.  0.
         12    1    1    2    0    0  0.37234128682E+00 -0.28558122812E+02 -0.14177968597E+02  0.31886044128E+02  0.00000000000E+00 0. -1.
         11    1    3    3    0    0 -0.14795141567E+02  0.30596380236E+02  0.36178954153E+01  0.34177827096E+02  0.51100000000E-03 0.  1.
        -11    1    3    3    0    0  0.11476042310E+02 -0.52556692915E+01  0.14514919923E+02  0.19235501227E+02  0.51100000000E-03 0. -1.
        -12    1    3    3    0    0  0.29467579695E+01  0.32174118676E+01 -0.39548467419E+01  0.58886275488E+01  0.00000000000E+00 0.  1.
</event>
<event>
 7    1  0.4489290E-013  0.5930192E+02  0.7816164E-02  0.1266605E+00
        -11   -1    0    0    0    0  0.00000000000E+00  0.00000000000E+00  0.45593999997E+02  0.45594000000E+02  0.51100000000E-03 0.  1.
         11   -1    0    0    0    0 -0.00000000000E+00 -0.00000000000E+00 -0.45593999997E+02  0.45594000000E+02  0.51100000000E-03 0. -1.
    9900012    2    1    2    0    0 -0.76081296963E+01  0.77421046527E+01  0.29981627140E+02  0.59301924859E+02  0.49999965041E+02 0.  0.
         12    1    1    2    0    0  0.76081296963E+01 -0.77421046527E+01 -0.29981627140E+02  0.31886075141E+02  0.00000000000E+00 0. -1.
         11    1    3    3    0    0 -0.36070290347E+01 -0.93608911781E+01 -0.15320094154E+01  0.10148103035E+02  0.51100000000E-03 0. -1.
        -11    1    3    3    0    0 -0.20881076324E+01  0.22904063832E+02  0.35179126918E+02  0.42030076189E+02  0.51100000000E-03 0.  1.
        -12    1    3    3    0    0 -0.19129930292E+01 -0.58010680008E+01 -0.36654903624E+01  0.71237456353E+01  0.00000000000E+00 0.  1.
</event>
<event>
 7    1  0.4489290E-013  0.5930193E+02  0.7816164E-02  0.1266605E+00
        -11   -1    0    0    0    0  0.00000000000E+00  0.00000000000E+00  0.45593999997E+02  0.45594000000E+02  0.51100000000E-03 0.  1.
         11   -1    0    0    0    0 -0.00000000000E+00 -0.00000000000E+00 -0.45593999997E+02  0.45594000000E+02  0.51100000000E-03 0. -1.
    9900012    2    1    2    0    0  0.43818319393E+01 -0.13810683228E+02  0.28403975201E+02  0.59301933614E+02  0.49999981007E+02 0.  0.
         12    1    1    2    0    0 -0.43818319393E+01  0.13810683228E+02 -0.28403975201E+02  0.31886066386E+02  0.00000000000E+00 0. -1.
         11    1    3    3    0    0  0.61364226935E+01 -0.75085594159E+01 -0.11218276040E+01  0.97617951940E+01  0.51100000000E-03 0. -1.
        -11    1    3    3    0    0 -0.83974630438E+01  0.13222170909E+02  0.30129222574E+01  0.15950576476E+02  0.51100000000E-03 0.  1.
        -12    1    3    3    0    0  0.66428722896E+01 -0.19524294721E+02  0.26512880548E+02  0.33589561944E+02  0.00000000000E+00 0.  1.
</event>
<event>
 7    1  0.4489290E-013  0.5930194E+02  0.7816164E-02  0.1266605E+00
        -11   -1    0    0    0    0  0.00000000000E+00  0.00000000000E+00  0.45593999997E+02  0.45594000000E+02  0.51100000000E-03 0.  1.
         11   -1    0    0    0    0 -0.00000000000E+00 -0.00000000000E+00 -0.45593999997E+02  0.45594000000E+02  0.51100000000E-03 0. -1.
    9900012    2    1    2    0    0  0.16729035632E+02 -0.28976861662E+01  0.26990060882E+02  0.59301943412E+02  0.49999998877E+02 0.  0.
         12    1    1    2    0    0 -0.16729035632E+02  0.28976861662E+01 -0.26990060882E+02  0.31886056588E+02  0.00000000000E+00 0. -1.
         11    1    3    3    0    0 -0.79983335216E+01  0.39202114901E+01  0.20427510862E+02  0.22285075668E+02  0.51100000000E-03 0. -1.
        -11    1    3    3    0    0  0.23882888765E+02  0.48443599221E+01  0.19498593054E+01  0.24447129697E+02  0.51100000000E-03 0.  1.
        -12    1    3    3    0    0  0.84448038871E+00 -0.11662257578E+02  0.46126907146E+01  0.12569738047E+02  0.00000000000E+00 0.  1.
</event>
<event>
 7    1  0.4489290E-013  0.5930197E+02  0.7816164E-02  0.1266605E+00
        -11   -1    0    0    0    0  0.00000000000E+00  0.00000000000E+00  0.45593999997E+02  0.45594000000E+02  0.51100000000E-03 0.  1.
         11   -1    0    0    0    0 -0.00000000000E+00 -0.00000000000E+00 -0.45593999997E+02  0.45594000000E+02  0.51100000000E-03 0. -1.
    9900012    2    1    2    0    0  0.18782805088E+02 -0.13605758371E+02 -0.21881695195E+02  0.59301968380E+02  0.50000044413E+02 0.  0.
         12    1    1    2    0    0 -0.18782805088E+02  0.13605758371E+02  0.21881695195E+02  0.31886031620E+02  0.00000000000E+00 0. -1.
         11    1    3    3    0    0  0.89443897985E+00  0.81040965899E+01  0.95907959894E+01  0.12588080497E+02  0.51100000000E-03 0. -1.
        -11    1    3    3    0    0  0.36170938973E+01 -0.14887972105E+02 -0.54510010130E+01  0.16261872400E+02  0.51100000000E-03 0.  1.
         12    1    3    3    0    0  0.14271272211E+02 -0.68218828559E+01 -0.26021490172E+02  0.30452015483E+02  0.00000000000E+00 0. -1.
</event>
<event>
 7    1  0.4489290E-013  0.5930195E+02  0.7816164E-02  0.1266605E+00
        -11   -1    0    0    0    0  0.00000000000E+00  0.00000000000E+00  0.45593999997E+02  0.45594000000E+02  0.51100000000E-03 0. -1.
         11   -1    0    0    0    0 -0.00000000000E+00 -0.00000000000E+00 -0.45593999997E+02  0.45594000000E+02  0.51100000000E-03 0.  1.
    9900012    2    1    2    0    0  0.19447106711E+02 -0.10654388957E+02 -0.22913184290E+02  0.59301953243E+02  0.50000016806E+02 0.  0.
         12    1    1    2    0    0 -0.19447106711E+02  0.10654388957E+02  0.22913184290E+02  0.31886046757E+02  0.00000000000E+00 0. -1.
         11    1    3    3    0    0 -0.11898492055E+02 -0.98393897553E+01 -0.70986096538E+01  0.16993468251E+02  0.51100000000E-03 0. -1.
        -11    1    3    3    0    0  0.12214016468E+02 -0.82599025656E+01  0.23084753819E+01  0.14924384326E+02  0.51100000000E-03 0.  1.
         12    1    3    3    0    0  0.19131582298E+02  0.74449033633E+01 -0.18123050018E+02  0.27384100666E+02  0.00000000000E+00 0. -1.
</event>
<event>
 7    1  0.4489290E-013  0.5930200E+02  0.7816164E-02  0.1266605E+00
        -11   -1    0    0    0    0  0.00000000000E+00  0.00000000000E+00  0.45593999997E+02  0.45594000000E+02  0.51100000000E-03 0. -1.
         11   -1    0    0    0    0 -0.00000000000E+00 -0.00000000000E+00 -0.45593999997E+02  0.45594000000E+02  0.51100000000E-03 0.  1.
    9900012    2    1    2    0    0 -0.12207400777E+02 -0.29383391853E+02 -0.20766762251E+01  0.59302000962E+02  0.50000103835E+02 0.  0.
         12    1    1    2    0    0  0.12207400777E+02  0.29383391853E+02  0.20766762251E+01  0.31885999038E+02  0.00000000000E+00 0. -1.
         11    1    3    3    0    0  0.56925210111E+01  0.10459268962E+00 -0.49372177530E+01  0.75360370550E+01  0.51100000000E-03 0. -1.
        -11    1    3    3    0    0 -0.27231497933E+02 -0.29533666348E+02 -0.37252114173E+01  0.40344381616E+02  0.51100000000E-03 0.  1.
        -12    1    3    3    0    0  0.93315761451E+01  0.45681805523E-01  0.65857529452E+01  0.11421582291E+02  0.00000000000E+00 0.  1.
</event>
<event>
 7    1  0.4489290E-013  0.5930194E+02  0.7816164E-02  0.1266605E+00
        -11   -1    0    0    0    0  0.00000000000E+00  0.00000000000E+00  0.45593999997E+02  0.45594000000E+02  0.51100000000E-03 0.  1.
         11   -1    0    0    0    0 -0.00000000000E+00 -0.00000000000E+00 -0.45593999997E+02  0.45594000000E+02  0.51100000000E-03 0. -1.
    9900012    2    1    2    0    0  0.10978807936E+01 -0.51740460566E+01  0.31444315984E+02  0.59301935606E+02  0.49999984641E+02 0.  0.
         12    1    1    2    0    0 -0.10978807936E+01  0.51740460566E+01 -0.31444315984E+02  0.31886064394E+02  0.00000000000E+00 0. -1.
         11    1    3    3    0    0  0.55069897770E+01  0.79125309187E+01  0.14366861131E+02  0.17301496495E+02  0.51100000000E-03 0. -1.
        -11    1    3    3    0    0 -0.19325004429E+02 -0.13582313422E+01  0.78771628012E+01  0.20912921427E+02  0.51100000000E-03 0.  1.
        -12    1    3    3    0    0  0.14915895446E+02 -0.11728345633E+02  0.92002920511E+01  0.21087517684E+02  0.00000000000E+00 0.  1.
</event>
<event>
 7    1  0.4489290E-013  0.5930195E+02  0.7816164E-02  0.1266605E+00
        -11   -1    0    0    0    0  0.00000000000E+00  0.00000000000E+00  0.45593999997E+02  0.45594000000E+02  0.51100000000E-03 0.  1.
         11   -1    0    0    0    0 -0.00000000000E+00 -0.00000000000E+00 -0.45593999997E+02  0.45594000000E+02  0.51100000000E-03 0. -1.
    9900012    2    1    2    0    0  0.36507583741E+01  0.30592180040E+02 -0.82164963762E+01  0.59301947735E+02  0.50000006762E+02 0.  0.
         12    1    1    2    0    0 -0.36507583741E+01 -0.30592180040E+02  0.82164963762E+01  0.31886052265E+02  0.00000000000E+00 0. -1.
         11    1    3    3    0    0  0.71865122498E+01 -0.99038510076E+00 -0.15664993908E+02  0.17263222624E+02  0.51100000000E-03 0. -1.
        -11    1    3    3    0    0 -0.87108078532E+00  0.25956604685E+02 -0.64929841826E+01  0.26770561301E+02  0.51100000000E-03 0.  1.
         12    1    3    3    0    0 -0.26646730904E+01  0.56259604559E+01  0.13941481715E+02  0.15268163810E+02  0.00000000000E+00 0. -1.
</event>
<event>
 7    1  0.4489290E-013  0.5930177E+02  0.7816164E-02  0.1266605E+00
        -11   -1    0    0    0    0  0.00000000000E+00  0.00000000000E+00  0.45593999997E+02  0.45594000000E+02  0.51100000000E-03 0. -1.
         11   -1    0    0    0    0 -0.00000000000E+00 -0.00000000000E+00 -0.45593999997E+02  0.45594000000E+02  0.51100000000E-03 0.  1.
    9900012    2    1    2    0    0  0.65321099540E+00  0.31156641461E+02 -0.67504664808E+01  0.59301768027E+02  0.49999679016E+02 0.  0.
         12    1    1    2    0    0 -0.65321099540E+00 -0.31156641461E+02  0.67504664808E+01  0.31886231973E+02  0.00000000000E+00 0. -1.
         11    1    3    3    0    0 -0.45644100633E+01 -0.39117428935E+01  0.27448377289E+01  0.66083058427E+01  0.51100000000E-03 0. -1.
        -11    1    3    3    0    0  0.21444050586E+02  0.15832985845E+02 -0.53934592294E+01  0.27195958321E+02  0.51100000000E-03 0.  1.
        -12    1    3    3    0    0 -0.16226429527E+02  0.19235398509E+02 -0.41018449804E+01  0.25497503863E+02  0.00000000000E+00 0.  1.
</event>
<event>
 7    1  0.4489290E-013  0.5930197E+02  0.7816164E-02  0.1266605E+00
        -11   -1    0    0    0    0  0.00000000000E+00  0.00000000000E+00  0.45593999997E+02  0.45594000000E+02  0.51100000000E-03 0. -1.
         11   -1    0    0    0    0 -0.00000000000E+00 -0.00000000000E+00 -0.45593999997E+02  0.45594000000E+02  0.51100000000E-03 0.  1.
    9900012    2    1    2    0    0  0.59151419200E+01  0.20241486822E+02 -0.23916779483E+02  0.59301968050E+02  0.50000043810E+02 0.  0.
         12    1    1    2    0    0 -0.59151419200E+01 -0.20241486822E+02  0.23916779483E+02  0.31886031950E+02  0.00000000000E+00 0. -1.
         11    1    3    3    0    0 -0.20470550878E+02  0.69350907480E+00 -0.95052454913E+01  0.22580391941E+02  0.51100000000E-03 0. -1.
        -11    1    3    3    0    0  0.21141904109E+01 -0.20245702053E+00  0.29817394898E+00  0.21446906312E+01  0.51100000000E-03 0.  1.
         12    1    3    3    0    0  0.24271502387E+02  0.19750434767E+02 -0.14709707941E+02  0.34576885478E+02  0.00000000000E+00 0. -1.
</event>
<event>
 7    1  0.4489290E-013  0.5930196E+02  0.7816164E-02  0.1266605E+00
        -11   -1    0    0    0    0  0.00000000000E+00  0.00000000000E+00  0.45593999997E+02  0.45594000000E+02  0.51100000000E-03 0.  1.
         11   -1    0    0    0    0 -0.00000000000E+00 -0.00000000000E+00 -0.45593999997E+02  0.45594000000E+02  0.51100000000E-03 0. -1.
    9900012    2    1    2    0    0  0.15085121605E+02  0.86606145294E+01  0.26723634057E+02  0.59301956735E+02  0.50000023175E+02 0.  0.
         12    1    1    2    0    0 -0.15085121605E+02 -0.86606145294E+01 -0.26723634057E+02  0.31886043265E+02  0.00000000000E+00 0. -1.
         11    1    3    3    0    0 -0.34387201981E+01 -0.13055145205E+02  0.88932351274E+01  0.16166361502E+02  0.51100000000E-03 0. -1.
        -11    1    3    3    0    0  0.66164058022E+01  0.25828443777E+02  0.12712985650E+02  0.29538201335E+02  0.51100000000E-03 0.  1.
        -12    1    3    3    0    0  0.11907436001E+02 -0.41126840430E+01  0.51174132799E+01  0.13597393899E+02  0.00000000000E+00 0.  1.
</event>
<event>
 7    1  0.4489290E-013  0.5930193E+02  0.7816164E-02  0.1266605E+00
        -11   -1    0    0    0    0  0.00000000000E+00  0.00000000000E+00  0.45593999997E+02  0.45594000000E+02  0.51100000000E-03 0. -1.
         11   -1    0    0    0    0 -0.00000000000E+00 -0.00000000000E+00 -0.45593999997E+02  0.45594000000E+02  0.51100000000E-03 0.  1.
    9900012    2    1    2    0    0 -0.67378406426E+00  0.31870074759E+02 -0.75217753484E+00  0.59301930610E+02  0.49999975530E+02 0.  0.
         12    1    1    2    0    0  0.67378406426E+00 -0.31870074759E+02  0.75217753484E+00  0.31886069390E+02  0.00000000000E+00 0. -1.
         11    1    3    3    0    0 -0.45028723869E+01  0.27568375949E+02  0.19712882891E+02  0.34189018183E+02  0.51100000000E-03 0. -1.
        -11    1    3    3    0    0 -0.50258307183E+01  0.13460181124E+01 -0.79051530291E+01  0.94637299117E+01  0.51100000000E-03 0.  1.
         12    1    3    3    0    0  0.88549190409E+01  0.29556806976E+01 -0.12559907396E+02  0.15649182516E+02  0.00000000000E+00 0. -1.
</event>
<event>
 7    1  0.4489290E-013  0.5930193E+02  0.7816164E-02  0.1266605E+00
        -11   -1    0    0    0    0  0.00000000000E+00  0.00000000000E+00  0.45593999997E+02  0.45594000000E+02  0.51100000000E-03 0. -1.
         11   -1    0    0    0    0 -0.00000000000E+00 -0.00000000000E+00 -0.45593999997E+02  0.45594000000E+02  0.51100000000E-03 0.  1.
    9900012    2    1    2    0    0 -0.15563975390E+02  0.15886615121E+02 -0.22849497479E+02  0.59301930863E+02  0.49999975991E+02 0.  0.
         12    1    1    2    0    0  0.15563975390E+02 -0.15886615121E+02  0.22849497479E+02  0.31886069137E+02  0.00000000000E+00 0. -1.
         11    1    3    3    0    0  0.99007241224E+01  0.39586698948E+01 -0.17654821540E+02  0.20624939499E+02  0.51100000000E-03 0. -1.
        -11    1    3    3    0    0 -0.29034988049E+02  0.84664372488E+01  0.15656322555E+01  0.30284687473E+02  0.51100000000E-03 0.  1.
        -12    1    3    3    0    0  0.35702885367E+01  0.34615079773E+01 -0.67603081948E+01  0.83923038911E+01  0.00000000000E+00 0.  1.
</event>
<event>
 7    1  0.4489290E-013  0.5930194E+02  0.7816164E-02  0.1266605E+00
        -11   -1    0    0    0    0  0.00000000000E+00  0.00000000000E+00  0.45593999997E+02  0.45594000000E+02  0.51100000000E-03 0.  1.
         11   -1    0    0    0    0 -0.00000000000E+00 -0.00000000000E+00 -0.45593999997E+02  0.45594000000E+02  0.51100000000E-03 0. -1.
    9900012    2    1    2    0    0 -0.12199311130E+02  0.29451667893E+02  0.70493039627E+00  0.59301939400E+02  0.49999991560E+02 0.  0.
         12    1    1    2    0    0  0.12199311130E+02 -0.29451667893E+02 -0.70493039627E+00  0.31886060600E+02  0.00000000000E+00 0. -1.
         11    1    3    3    0    0 -0.43241867666E+01  0.23231798303E+02 -0.79200890208E+01  0.24922737689E+02  0.51100000000E-03 0. -1.
        -11    1    3    3    0    0 -0.19240322518E+02  0.25193746974E+01 -0.38948141796E+00  0.19408476383E+02  0.51100000000E-03 0.  1.
        -12    1    3    3    0    0  0.11365198155E+02  0.37004948925E+01  0.90145008350E+01  0.14970725328E+02  0.00000000000E+00 0.  1.
</event>
<event>
 7    1  0.4489290E-013  0.5930177E+02  0.7816164E-02  0.1266605E+00
        -11   -1    0    0    0    0  0.00000000000E+00  0.00000000000E+00  0.45593999997E+02  0.45594000000E+02  0.51100000000E-03 0. -1.
         11   -1    0    0    0    0 -0.00000000000E+00 -0.00000000000E+00 -0.45593999997E+02  0.45594000000E+02  0.51100000000E-03 0.  1.
    9900012    2    1    2    0    0  0.29724892811E+02 -0.15489909517E+00 -0.11538575888E+02  0.59301765040E+02  0.49999673569E+02 0.  0.
         12    1    1    2    0    0 -0.29724892811E+02  0.15489909517E+00  0.11538575888E+02  0.31886234960E+02  0.00000000000E+00 0. -1.
         11    1    3    3    0    0  0.21579874343E+01  0.63755871970E+01  0.10161192802E+02  0.12188308385E+02  0.51100000000E-03 0. -1.
        -11    1    3    3    0    0  0.17313102644E+02 -0.56102670031E+01 -0.29178309626E+02  0.34388840805E+02  0.51100000000E-03 0.  1.
        -12    1    3    3    0    0  0.10253802733E+02 -0.92021928905E+00  0.74785409356E+01  0.12724615851E+02  0.00000000000E+00 0.  1.
</event>
<event>
 7    1  0.4489290E-013  0.5930198E+02  0.7816164E-02  0.1266605E+00
        -11   -1    0    0    0    0  0.00000000000E+00  0.00000000000E+00  0.45593999997E+02  0.45594000000E+02  0.51100000000E-03 0.  1.
         11   -1    0    0    0    0 -0.00000000000E+00 -0.00000000000E+00 -0.45593999997E+02  0.45594000000E+02  0.51100000000E-03 0. -1.
    9900012    2    1    2    0    0 -0.31527724919E+02  0.47236021012E+01 -0.63919581346E+00  0.59301977566E+02  0.50000061165E+02 0.  0.
         12    1    1    2    0    0  0.31527724919E+02 -0.47236021012E+01  0.63919581346E+00  0.31886022434E+02  0.00000000000E+00 0. -1.
         11    1    3    3    0    0 -0.16830310611E+01  0.16280575655E+02 -0.15503097074E+02  0.22544084731E+02  0.51100000000E-03 0. -1.
        -11    1    3    3    0    0 -0.52616090738E+01  0.17649927050E+00  0.62862649527E+01  0.81995615343E+01  0.51100000000E-03 0.  1.
         12    1    3    3    0    0 -0.24583084785E+02 -0.11733472824E+02  0.85776363079E+01  0.28558331300E+02  0.00000000000E+00 0. -1.
</event>
<event>
 7    1  0.4489290E-013  0.5930198E+02  0.7816164E-02  0.1266605E+00
        -11   -1    0    0    0    0  0.00000000000E+00  0.00000000000E+00  0.45593999997E+02  0.45594000000E+02  0.51100000000E-03 0.  1.
         11   -1    0    0    0    0 -0.00000000000E+00 -0.00000000000E+00 -0.45593999997E+02  0.45594000000E+02  0.51100000000E-03 0. -1.
    9900012    2    1    2    0    0 -0.12959522317E+02 -0.28151677950E+02  0.75001251317E+01  0.59301983205E+02  0.50000071449E+02 0.  0.
         12    1    1    2    0    0  0.12959522317E+02  0.28151677950E+02 -0.75001251317E+01  0.31886016795E+02  0.00000000000E+00 0. -1.
         11    1    3    3    0    0  0.77314967562E+01  0.40518045832E+01 -0.75223007864E+01  0.11522941111E+02  0.51100000000E-03 0. -1.
        -11    1    3    3    0    0 -0.19769079129E+02 -0.13687833579E+02  0.16530393096E+02  0.29179225039E+02  0.51100000000E-03 0.  1.
         12    1    3    3    0    0 -0.92193994410E+00 -0.18515648954E+02 -0.15079671781E+01  0.18599817055E+02  0.00000000000E+00 0. -1.
</event>
<event>
 7    1  0.4489290E-013  0.5930193E+02  0.7816164E-02  0.1266605E+00
        -11   -1    0    0    0    0  0.00000000000E+00  0.00000000000E+00  0.45593999997E+02  0.45594000000E+02  0.51100000000E-03 0.  1.
         11   -1    0    0    0    0 -0.00000000000E+00 -0.00000000000E+00 -0.45593999997E+02  0.45594000000E+02  0.51100000000E-03 0. -1.
    9900012    2    1    2    0    0 -0.13812301677E+02  0.22334930585E+02  0.18085694478E+02  0.59301934915E+02  0.49999983380E+02 0.  0.
         12    1    1    2    0    0  0.13812301677E+02 -0.22334930585E+02 -0.18085694478E+02  0.31886065085E+02  0.00000000000E+00 0. -1.
         11    1    3    3    0    0  0.95971744298E+01  0.23037851692E+02  0.20477065748E+02  0.32282481155E+02  0.51100000000E-03 0. -1.
        -11    1    3    3    0    0 -0.12321592614E+02  0.14584961846E+01 -0.76314714438E+01  0.14566681582E+02  0.51100000000E-03 0.  1.
         12    1    3    3    0    0 -0.11087883494E+02 -0.21614172913E+01  0.52401001738E+01  0.12452772178E+02  0.00000000000E+00 0. -1.
</event>
<event>
 7    1  0.4489290E-013  0.5930190E+02  0.7816164E-02  0.1266605E+00
        -11   -1    0    0    0    0  0.00000000000E+00  0.00000000000E+00  0.45593999997E+02  0.45594000000E+02  0.51100000000E-03 0. -1.
         11   -1    0    0    0    0 -0.00000000000E+00 -0.00000000000E+00 -0.45593999997E+02  0.45594000000E+02  0.51100000000E-03 0.  1.
    9900012    2    1    2    0    0 -0.12080028991E+02 -0.29177567660E+02  0.44120013224E+01  0.59301900981E+02  0.49999921493E+02 0.  0.
         12    1    1    2    0    0  0.12080028991E+02  0.29177567660E+02 -0.44120013224E+01  0.31886099019E+02  0.00000000000E+00 0. -1.
         11    1    3    3    0    0  0.26399182460E+01  0.45571570670E+01  0.38247635933E+01  0.65088912792E+01  0.51100000000E-03 0. -1.
        -11    1    3    3    0    0 -0.76694648558E+01 -0.34765858995E+02  0.13475056103E+02  0.38066557240E+02  0.51100000000E-03 0.  1.
        -12    1    3    3    0    0 -0.70504823807E+01  0.10311342681E+01 -0.12887818374E+02  0.14726452462E+02  0.00000000000E+00 0.  1.
</event>
<event>
 7    1  0.4489290E-013  0.5930196E+02  0.7816164E-02  0.1266605E+00
        -11   -1    0    0    0    0  0.00000000000E+00  0.00000000000E+00  0.45593999997E+02  0.45594000000E+02  0.51100000000E-03 0. -1.
         11   -1    0    0    0    0 -0.00000000000E+00 -0.00000000000E+00 -0.45593999997E+02  0.45594000000E+02  0.51100000000E-03 0.  1.
    9900012    2    1    2    0    0  0.82544232358E+01 -0.28080243861E+02 -0.12652419087E+02  0.59301963761E+02  0.50000035989E+02 0.  0.
         12    1    1    2    0    0 -0.82544232358E+01  0.28080243861E+02  0.12652419087E+02  0.31886036239E+02  0.00000000000E+00 0. -1.
         11    1    3    3    0    0  0.15878395334E+01  0.27913007977E+01 -0.21953685644E+02  0.22187314127E+02  0.51100000000E-03 0. -1.
        -11    1    3    3    0    0  0.37652903036E+01 -0.31288174839E+02  0.49976901583E+01  0.31907745188E+02  0.51100000000E-03 0.  1.
        -12    1    3    3    0    0  0.29012933988E+01  0.41663017965E+00  0.43035763986E+01  0.52069044462E+01  0.00000000000E+00 0.  1.
</event>
<event>
 7    1  0.4489290E-013  0.5930194E+02  0.7816164E-02  0.1266605E+00
        -11   -1    0    0    0    0  0.00000000000E+00  0.00000000000E+00  0.45593999997E+02  0.45594000000E+02  0.51100000000E-03 0.  1.
         11   -1    0    0    0    0 -0.00000000000E+00 -0.00000000000E+00 -0.45593999997E+02  0.45594000000E+02  0.51100000000E-03 0. -1.
    9900012    2    1    2    0    0  0.11812224621E+02  0.21296595582E+02  0.20582684955E+02  0.59301944210E+02  0.50000000333E+02 0.  0.
         12    1    1    2    0    0 -0.11812224621E+02 -0.21296595582E+02 -0.20582684955E+02  0.31886055790E+02  0.00000000000E+00 0. -1.
         11    1    3    3    0    0  0.12008054094E+02  0.16328069129E+01  0.24325033001E+02  0.27176582793E+02  0.51100000000E-03 0. -1.
        -11    1    3    3    0    0  0.86951959019E+01  0.18340406657E+02 -0.84409978358E+01  0.21982433733E+02  0.51100000000E-03 0.  1.
         12    1    3    3    0    0 -0.88910253743E+01  0.13233820122E+01  0.46986497896E+01  0.10142927684E+02  0.00000000000E+00 0. -1.
</event>
<event>
 7    1  0.4489290E-013  0.5930195E+02  0.7816164E-02  0.1266605E+00
        -11   -1    0    0    0    0  0.00000000000E+00  0.00000000000E+00  0.45593999997E+02  0.45594000000E+02  0.51100000000E-03 0.  1.
         11   -1    0    0    0    0 -0.00000000000E+00 -0.00000000000E+00 -0.45593999997E+02  0.45594000000E+02  0.51100000000E-03 0. -1.
    9900012    2    1    2    0    0  0.25861526272E+02 -0.17844451271E+02  0.54292995995E+01  0.59301948560E+02  0.50000008266E+02 0.  0.
         12    1    1    2    0    0 -0.25861526272E+02  0.17844451271E+02 -0.54292995995E+01  0.31886051440E+02  0.00000000000E+00 0. -1.
         11    1    3    3    0    0  0.19631064321E+02 -0.61855939314E+01 -0.98183747571E+01  0.22804401807E+02  0.51100000000E-03 0. -1.
        -11    1    3    3    0    0  0.97426797322E+01 -0.19963096727E+02  0.16109329407E+02  0.27440035231E+02  0.51100000000E-03 0.  1.
         12    1    3    3    0    0 -0.35122177808E+01  0.83042393877E+01 -0.86165504983E+00  0.90575115221E+01  0.00000000000E+00 0. -1.
</event>
<event>
 7    1  0.4489290E-013  0.5930192E+02  0.7816164E-02  0.1266605E+00
        -11   -1    0    0    0    0  0.00000000000E+00  0.00000000000E+00  0.45593999997E+02  0.45594000000E+02  0.51100000000E-03 0. -1.
         11   -1    0    0    0    0 -0.00000000000E+00 -0.00000000000E+00 -0.45593999997E+02  0.45594000000E+02  0.51100000000E-03 0.  1.
    9900012    2    1    2    0    0  0.29013651179E+02  0.36804202566E+01  0.12703717670E+02  0.59301923248E+02  0.49999962102E+02 0.  0.
         12    1    1    2    0    0 -0.29013651179E+02 -0.36804202566E+01 -0.12703717670E+02  0.31886076752E+02  0.00000000000E+00 0. -1.
         11    1    3    3    0    0 -0.10552089418E+02 -0.44670718920E+01  0.57084010562E+01  0.12801842260E+02  0.51100000000E-03 0.  1.
        -11    1    3    3    0    0  0.33898733183E+02 -0.23804212803E+01  0.44058421903E+01  0.34266630453E+02  0.51100000000E-03 0. -1.
        -12    1    3    3    0    0  0.56670074138E+01  0.10527913429E+02  0.25894744237E+01  0.12233450535E+02  0.00000000000E+00 0.  1.
</event>
<event>
 7    1  0.4489290E-013  0.5930195E+02  0.7816164E-02  0.1266605E+00
        -11   -1    0    0    0    0  0.00000000000E+00  0.00000000000E+00  0.45593999997E+02  0.45594000000E+02  0.51100000000E-03 0. -1.
         11   -1    0    0    0    0 -0.00000000000E+00 -0.00000000000E+00 -0.45593999997E+02  0.45594000000E+02  0.51100000000E-03 0.  1.
    9900012    2    1    2    0    0 -0.47446855260E+01  0.30204941033E+02  0.90481825688E+01  0.59301951149E+02  0.50000012987E+02 0.  0.
         12    1    1    2    0    0  0.47446855260E+01 -0.30204941033E+02 -0.90481825688E+01  0.31886048851E+02  0.00000000000E+00 0. -1.
         11    1    3    3    0    0 -0.48960960127E+01 -0.30504181599E+01  0.76255843340E+01  0.95617123891E+01  0.51100000000E-03 0. -1.
        -11    1    3    3    0    0  0.55551312065E+01  0.37787380266E+02 -0.69207127336E+01  0.38815484733E+02  0.51100000000E-03 0.  1.
        -12    1    3    3    0    0 -0.54037207198E+01 -0.45320210729E+01  0.83433109684E+01  0.10924754026E+02  0.00000000000E+00 0.  1.
</event>
<event>
 7    1  0.4489290E-013  0.5930194E+02  0.7816164E-02  0.1266605E+00
        -11   -1    0    0    0    0  0.00000000000E+00  0.00000000000E+00  0.45593999997E+02  0.45594000000E+02  0.51100000000E-03 0.  1.
         11   -1    0    0    0    0 -0.00000000000E+00 -0.00000000000E+00 -0.45593999997E+02  0.45594000000E+02  0.51100000000E-03 0. -1.
    9900012    2    1    2    0    0  0.95621046247E+01  0.30318344820E+02 -0.24667522752E+01  0.59301941224E+02  0.49999994886E+02 0.  0.
         12    1    1    2    0    0 -0.95621046247E+01 -0.30318344820E+02  0.24667522752E+01  0.31886058776E+02  0.00000000000E+00 0. -1.
         11    1    3    3    0    0 -0.67432052578E+01  0.51576613248E+01 -0.18145553432E+02  0.20033307193E+02  0.51100000000E-03 0. -1.
        -11    1    3    3    0    0  0.20491991348E+02  0.23638006429E+02  0.12055707373E+02  0.33526364817E+02  0.51100000000E-03 0.  1.
        -12    1    3    3    0    0 -0.41866814658E+01  0.15226770666E+01  0.36230937844E+01  0.57422692131E+01  0.00000000000E+00 0.  1.
</event>
<event>
 7    1  0.4489290E-013  0.5930195E+02  0.7816164E-02  0.1266605E+00
        -11   -1    0    0    0    0  0.00000000000E+00  0.00000000000E+00  0.45593999997E+02  0.45594000000E+02  0.51100000000E-03 0.  1.
         11   -1    0    0    0    0 -0.00000000000E+00 -0.00000000000E+00 -0.45593999997E+02  0.45594000000E+02  0.51100000000E-03 0. -1.
    9900012    2    1    2    0    0  0.37050134420E+01  0.27378295434E+02  0.15919229151E+02  0.59301952232E+02  0.50000014963E+02 0.  0.
         12    1    1    2    0    0 -0.37050134420E+01 -0.27378295434E+02 -0.15919229151E+02  0.31886047768E+02  0.00000000000E+00 0. -1.
         11    1    3    3    0    0 -0.36281918598E+01 -0.50053797208E+01 -0.60570842389E+01  0.86548178525E+01  0.51100000000E-03 0. -1.
        -11    1    3    3    0    0  0.14624686872E+02  0.26315012160E+02  0.26527217043E+02  0.40125485360E+02  0.51100000000E-03 0.  1.
         12    1    3    3    0    0 -0.72914815704E+01  0.60686629949E+01 -0.45509036532E+01  0.10521649020E+02  0.00000000000E+00 0. -1.
</event>
<event>
 7    1  0.4489290E-013  0.5930193E+02  0.7816164E-02  0.1266605E+00
        -11   -1    0    0    0    0  0.00000000000E+00  0.00000000000E+00  0.45593999997E+02  0.45594000000E+02  0.51100000000E-03 0. -1.
         11   -1    0    0    0    0 -0.00000000000E+00 -0.00000000000E+00 -0.45593999997E+02  0.45594000000E+02  0.51100000000E-03 0.  1.
    9900012    2    1    2    0    0  0.57352747479E+01 -0.32712757295E-01 -0.31366019148E+02  0.59301927747E+02  0.49999970307E+02 0.  0.
         12    1    1    2    0    0 -0.57352747479E+01  0.32712757295E-01  0.31366019148E+02  0.31886072253E+02  0.00000000000E+00 0. -1.
         11    1    3    3    0    0 -0.48895789696E+01  0.26854301444E+01 -0.31992853999E+02  0.32475563502E+02  0.51100000000E-03 0. -1.
        -11    1    3    3    0    0  0.16063322861E+02 -0.61518828280E+01  0.62317421403E+01  0.18295098088E+02  0.51100000000E-03 0.  1.
        -12    1    3    3    0    0 -0.54384691439E+01  0.34337399263E+01 -0.56049072894E+01  0.85312661565E+01  0.00000000000E+00 0.  1.
</event>
<event>
 7    1  0.4489290E-013  0.5930195E+02  0.7816164E-02  0.1266605E+00
        -11   -1    0    0    0    0  0.00000000000E+00  0.00000000000E+00  0.45593999997E+02  0.45594000000E+02  0.51100000000E-03 0. -1.
         11   -1    0    0    0    0 -0.00000000000E+00 -0.00000000000E+00 -0.45593999997E+02  0.45594000000E+02  0.51100000000E-03 0.  1.
    9900012    2    1    2    0    0 -0.18626921488E+02 -0.12948354611E+02 -0.22407550338E+02  0.59301946569E+02  0.50000004635E+02 0.  0.
         12    1    1    2    0    0  0.18626921488E+02  0.12948354611E+02  0.22407550338E+02  0.31886053431E+02  0.00000000000E+00 0. -1.
         11    1    3    3    0    0 -0.63108688920E+01 -0.20972441983E+02 -0.49273425155E+01  0.22448810512E+02  0.51100000000E-03 0. -1.
        -11    1    3    3    0    0  0.57714063287E+01  0.11887533229E+02 -0.35047915444E+01  0.13671362087E+02  0.51100000000E-03 0.  1.
        -12    1    3    3    0    0 -0.18087458924E+02 -0.38634458579E+01 -0.13975416278E+02  0.23181773970E+02  0.00000000000E+00 0.  1.
</event>
<event>
 7    1  0.4489290E-013  0.5930196E+02  0.7816164E-02  0.1266605E+00
        -11   -1    0    0    0    0  0.00000000000E+00  0.00000000000E+00  0.45593999997E+02  0.45594000000E+02  0.51100000000E-03 0.  1.
         11   -1    0    0    0    0 -0.00000000000E+00 -0.00000000000E+00 -0.45593999997E+02  0.45594000000E+02  0.51100000000E-03 0. -1.
    9900012    2    1    2    0    0 -0.39181438162E+01  0.15645336147E+02  0.27506206902E+02  0.59301955839E+02  0.50000021541E+02 0.  0.
         12    1    1    2    0    0  0.39181438162E+01 -0.15645336147E+02 -0.27506206902E+02  0.31886044161E+02  0.00000000000E+00 0. -1.
         11    1    3    3    0    0  0.10142997562E+02 -0.97415032244E+01 -0.14810327967E+01  0.14141101195E+02  0.51100000000E-03 0. -1.
        -11    1    3    3    0    0 -0.11546193430E+02  0.23345877517E+02  0.13494861688E+02  0.29333528121E+02  0.51100000000E-03 0.  1.
        -12    1    3    3    0    0 -0.25149479479E+01  0.20409618539E+01  0.15492378010E+02  0.15827326523E+02  0.00000000000E+00 0.  1.
</event>
<event>
 7    1  0.4489290E-013  0.5930196E+02  0.7816164E-02  0.1266605E+00
        -11   -1    0    0    0    0  0.00000000000E+00  0.00000000000E+00  0.45593999997E+02  0.45594000000E+02  0.51100000000E-03 0.  1.
         11   -1    0    0    0    0 -0.00000000000E+00 -0.00000000000E+00 -0.45593999997E+02  0.45594000000E+02  0.51100000000E-03 0. -1.
    9900012    2    1    2    0    0  0.18207330217E+01 -0.31636236853E+02 -0.35430262324E+01  0.59301959389E+02  0.50000028015E+02 0.  0.
         12    1    1    2    0    0 -0.18207330217E+01  0.31636236853E+02  0.35430262324E+01  0.31886040611E+02  0.00000000000E+00 0. -1.
         11    1    3    3    0    0 -0.19622044094E+02 -0.63987513129E+01  0.36675037409E+01  0.20962328514E+02  0.51100000000E-03 0. -1.
        -11    1    3    3    0    0  0.19405924773E+02 -0.95724353423E+01 -0.21165009488E+01  0.21741688325E+02  0.51100000000E-03 0.  1.
        -12    1    3    3    0    0  0.20368523421E+01 -0.15665050198E+02 -0.50940290245E+01  0.16597942550E+02  0.00000000000E+00 0.  1.
</event>
<event>
 7    1  0.4489290E-013  0.5930195E+02  0.7816164E-02  0.1266605E+00
        -11   -1    0    0    0    0  0.00000000000E+00  0.00000000000E+00  0.45593999997E+02  0.45594000000E+02  0.51100000000E-03 0.  1.
         11   -1    0    0    0    0 -0.00000000000E+00 -0.00000000000E+00 -0.45593999997E+02  0.45594000000E+02  0.51100000000E-03 0. -1.
    9900012    2    1    2    0    0  0.47246351527E+01 -0.29560109495E+02  0.10981717649E+02  0.59301947042E+02  0.50000005498E+02 0.  0.
         12    1    1    2    0    0 -0.47246351527E+01  0.29560109495E+02 -0.10981717649E+02  0.31886052958E+02  0.00000000000E+00 0. -1.
         11    1    3    3    0    0 -0.51184891818E+01 -0.23501410415E+02 -0.13092697118E+02  0.27384921783E+02  0.51100000000E-03 0. -1.
        -11    1    3    3    0    0  0.30746932339E+01 -0.11684207028E+02  0.15222278104E+02  0.19434304291E+02  0.51100000000E-03 0.  1.
         12    1    3    3    0    0  0.67684311006E+01  0.56255079481E+01  0.88521366638E+01  0.12482720968E+02  0.00000000000E+00 0. -1.
</event>
<event>
 7    1  0.4489290E-013  0.5930198E+02  0.7816164E-02  0.1266605E+00
        -11   -1    0    0    0    0  0.00000000000E+00  0.00000000000E+00  0.45593999997E+02  0.45594000000E+02  0.51100000000E-03 0. -1.
         11   -1    0    0    0    0 -0.00000000000E+00 -0.00000000000E+00 -0.45593999997E+02  0.45594000000E+02  0.51100000000E-03 0.  1.
    9900012    2    1    2    0    0 -0.81171982705E+01  0.63111743906E+01 -0.30182751232E+02  0.59301979523E+02  0.50000064734E+02 0.  0.
         12    1    1    2    0    0  0.81171982705E+01 -0.63111743906E+01  0.30182751232E+02  0.31886020477E+02  0.00000000000E+00 0. -1.
         11    1    3    3    0    0 -0.47509739023E+01 -0.11952875905E+00  0.12861808065E+02  0.13711752153E+02  0.51100000000E-03 0. -1.
        -11    1    3    3    0    0  0.44949818902E+01  0.45992482242E+01 -0.25153957937E+02  0.25963041936E+02  0.51100000000E-03 0.  1.
         12    1    3    3    0    0 -0.78612062584E+01  0.18314549255E+01 -0.17890601361E+02  0.19627185433E+02  0.00000000000E+00 0. -1.
</event>
<event>
 7    1  0.4489290E-013  0.5930194E+02  0.7816164E-02  0.1266605E+00
        -11   -1    0    0    0    0  0.00000000000E+00  0.00000000000E+00  0.45593999997E+02  0.45594000000E+02  0.51100000000E-03 0.  1.
         11   -1    0    0    0    0 -0.00000000000E+00 -0.00000000000E+00 -0.45593999997E+02  0.45594000000E+02  0.51100000000E-03 0. -1.
    9900012    2    1    2    0    0  0.24210846225E+02  0.19926431087E+02  0.57872964510E+01  0.59301944568E+02  0.50000000985E+02 0.  0.
         12    1    1    2    0    0 -0.24210846225E+02 -0.19926431087E+02 -0.57872964510E+01  0.31886055432E+02  0.00000000000E+00 0. -1.
         11    1    3    3    0    0 -0.87770624214E+01  0.54517441980E+00 -0.64125569903E+01  0.10883700074E+02  0.51100000000E-03 0. -1.
        -11    1    3    3    0    0  0.21845764245E+02  0.17299217941E+00 -0.21923691072E+01  0.21956179638E+02  0.51100000000E-03 0.  1.
         12    1    3    3    0    0  0.11142144402E+02  0.19208264488E+02  0.14392222548E+02  0.26462064855E+02  0.00000000000E+00 0. -1.
</event>
<event>
 7    1  0.4489290E-013  0.5930196E+02  0.7816164E-02  0.1266605E+00
        -11   -1    0    0    0    0  0.00000000000E+00  0.00000000000E+00  0.45593999997E+02  0.45594000000E+02  0.51100000000E-03 0. -1.
         11   -1    0    0    0    0 -0.00000000000E+00 -0.00000000000E+00 -0.45593999997E+02  0.45594000000E+02  0.51100000000E-03 0.  1.
    9900012    2    1    2    0    0  0.21316350000E+02  0.23049128879E+02  0.55741072791E+01  0.59301956166E+02  0.50000022138E+02 0.  0.
         12    1    1    2    0    0 -0.21316350000E+02 -0.23049128879E+02 -0.55741072791E+01  0.31886043834E+02  0.00000000000E+00 0. -1.
         11    1    3    3    0    0  0.19812961566E+02  0.80950232962E+01  0.12082257928E+02  0.24577709517E+02  0.51100000000E-03 0. -1.
        -11    1    3    3    0    0  0.78600338514E+00 -0.79333044282E+01 -0.86043213381E+01  0.11729853640E+02  0.51100000000E-03 0.  1.
        -12    1    3    3    0    0  0.71738504924E+00  0.22887410011E+02  0.20961706889E+01  0.22994393009E+02  0.00000000000E+00 0.  1.
</event>
<event>
 7    1  0.4489290E-013  0.5930197E+02  0.7816164E-02  0.1266605E+00
        -11   -1    0    0    0    0  0.00000000000E+00  0.00000000000E+00  0.45593999997E+02  0.45594000000E+02  0.51100000000E-03 0.  1.
         11   -1    0    0    0    0 -0.00000000000E+00 -0.00000000000E+00 -0.45593999997E+02  0.45594000000E+02  0.51100000000E-03 0. -1.
    9900012    2    1    2    0    0  0.31063287059E+01 -0.27961093421E+02  0.15008227717E+02  0.59301969790E+02  0.50000046985E+02 0.  0.
         12    1    1    2    0    0 -0.31063287059E+01  0.27961093421E+02 -0.15008227717E+02  0.31886030210E+02  0.00000000000E+00 0. -1.
         11    1    3    3    0    0  0.20733986433E+02 -0.43731718828E+01  0.14460511786E+01  0.21239441847E+02  0.51100000000E-03 0. -1.
        -11    1    3    3    0    0 -0.58058791176E+01 -0.15175142120E+02  0.16610888736E+02  0.23236066698E+02  0.51100000000E-03 0.  1.
         12    1    3    3    0    0 -0.11821778609E+02 -0.84127794175E+01 -0.30487121975E+01  0.14826461246E+02  0.00000000000E+00 0. -1.
</event>
<event>
 7    1  0.4489290E-013  0.5930195E+02  0.7816164E-02  0.1266605E+00
        -11   -1    0    0    0    0  0.00000000000E+00  0.00000000000E+00  0.45593999997E+02  0.45594000000E+02  0.51100000000E-03 0. -1.
         11   -1    0    0    0    0 -0.00000000000E+00 -0.00000000000E+00 -0.45593999997E+02  0.45594000000E+02  0.51100000000E-03 0.  1.
    9900012    2    1    2    0    0  0.23662284400E+02  0.38973908561E+01  0.21014924266E+02  0.59301946616E+02  0.50000004720E+02 0.  0.
         12    1    1    2    0    0 -0.23662284400E+02 -0.38973908561E+01 -0.21014924266E+02  0.31886053384E+02  0.00000000000E+00 0. -1.
         11    1    3    3    0    0 -0.96401882247E+01 -0.19863491967E+01  0.14330823562E+02  0.17385376509E+02  0.51100000000E-03 0. -1.
        -11    1    3    3    0    0  0.29313146773E+02  0.13596737021E+02  0.75699677883E+01  0.33187893032E+02  0.51100000000E-03 0.  1.
         12    1    3    3    0    0  0.39893258513E+01 -0.77129969680E+01 -0.88586708399E+00  0.87286770743E+01  0.00000000000E+00 0. -1.
</event>
<event>
 7    1  0.4489290E-013  0.5930193E+02  0.7816164E-02  0.1266605E+00
        -11   -1    0    0    0    0  0.00000000000E+00  0.00000000000E+00  0.45593999997E+02  0.45594000000E+02  0.51100000000E-03 0. -1.
         11   -1    0    0    0    0 -0.00000000000E+00 -0.00000000000E+00 -0.45593999997E+02  0.45594000000E+02  0.51100000000E-03 0.  1.
    9900012    2    1    2    0    0  0.99297807512E+01  0.27394673806E+02 -0.12948067156E+02  0.59301934991E+02  0.49999983518E+02 0.  0.
         12    1    1    2    0    0 -0.99297807512E+01 -0.27394673806E+02  0.12948067156E+02  0.31886065009E+02  0.00000000000E+00 0. -1.
         11    1    3    3    0    0  0.87948757871E+01 -0.86062047994E+01 -0.30559292852E+01  0.12678931549E+02  0.51100000000E-03 0. -1.
        -11    1    3    3    0    0  0.35877805770E+01  0.39169521969E+02 -0.40538174083E+01  0.39541839317E+02  0.51100000000E-03 0.  1.
        -12    1    3    3    0    0 -0.24528756128E+01 -0.31686433635E+01 -0.58383204623E+01  0.70811641244E+01  0.00000000000E+00 0.  1.
</event>
<event>
 7    1  0.4489290E-013  0.5930193E+02  0.7816164E-02  0.1266605E+00
        -11   -1    0    0    0    0  0.00000000000E+00  0.00000000000E+00  0.45593999997E+02  0.45594000000E+02  0.51100000000E-03 0.  1.
         11   -1    0    0    0    0 -0.00000000000E+00 -0.00000000000E+00 -0.45593999997E+02  0.45594000000E+02  0.51100000000E-03 0. -1.
    9900012    2    1    2    0    0 -0.14379955827E+02 -0.43058033008E-01  0.28459387525E+02  0.59301925895E+02  0.49999966929E+02 0.  0.
         12    1    1    2    0    0  0.14379955827E+02  0.43058033008E-01 -0.28459387525E+02  0.31886074105E+02  0.00000000000E+00 0. -1.
         11    1    3    3    0    0  0.22009099810E+00 -0.19558655889E+02  0.23052230964E+02  0.30232347129E+02  0.51100000000E-03 0. -1.
        -11    1    3    3    0    0 -0.92497955847E+01  0.58392320041E+01 -0.39798087202E+01  0.11640198730E+02  0.51100000000E-03 0.  1.
         12    1    3    3    0    0 -0.53502512400E+01  0.13676365852E+02  0.93869652814E+01  0.17429380036E+02  0.00000000000E+00 0. -1.
</event>
<event>
 7    1  0.4489290E-013  0.5930196E+02  0.7816164E-02  0.1266605E+00
        -11   -1    0    0    0    0  0.00000000000E+00  0.00000000000E+00  0.45593999997E+02  0.45594000000E+02  0.51100000000E-03 0.  1.
         11   -1    0    0    0    0 -0.00000000000E+00 -0.00000000000E+00 -0.45593999997E+02  0.45594000000E+02  0.51100000000E-03 0. -1.
    9900012    2    1    2    0    0 -0.30315440682E+02  0.45755821254E+01  0.87611327845E+01  0.59301963194E+02  0.50000034955E+02 0.  0.
         12    1    1    2    0    0  0.30315440682E+02 -0.45755821254E+01 -0.87611327845E+01  0.31886036806E+02  0.00000000000E+00 0. -1.
         11    1    3    3    0    0  0.56392763420E+01 -0.69360691112E+01 -0.61875056575E+01  0.10871785451E+02  0.51100000000E-03 0. -1.
        -11    1    3    3    0    0 -0.30838972089E+02  0.66706901428E+01 -0.38696828235E+00  0.31554556742E+02  0.51100000000E-03 0.  1.
        -12    1    3    3    0    0 -0.51157449347E+01  0.48409610938E+01  0.15335606724E+02  0.16875621001E+02  0.00000000000E+00 0.  1.
</event>
<event>
 7    1  0.4489290E-013  0.5930197E+02  0.7816164E-02  0.1266605E+00
        -11   -1    0    0    0    0  0.00000000000E+00  0.00000000000E+00  0.45593999997E+02  0.45594000000E+02  0.51100000000E-03 0. -1.
         11   -1    0    0    0    0 -0.00000000000E+00 -0.00000000000E+00 -0.45593999997E+02  0.45594000000E+02  0.51100000000E-03 0.  1.
    9900012    2    1    2    0    0 -0.31720852040E+02  0.27889625095E+01 -0.16516525237E+01  0.59301972933E+02  0.50000052717E+02 0.  0.
         12    1    1    2    0    0  0.31720852040E+02 -0.27889625095E+01  0.16516525237E+01  0.31886027067E+02  0.00000000000E+00 0. -1.
         11    1    3    3    0    0 -0.37637282538E+01 -0.17489073344E+02  0.11131838556E+02  0.21070148711E+02  0.51100000000E-03 0. -1.
        -11    1    3    3    0    0 -0.14071075948E+02  0.15955206332E+02 -0.55329216413E+01  0.21981287714E+02  0.51100000000E-03 0.  1.
        -12    1    3    3    0    0 -0.13886047839E+02  0.43228295217E+01 -0.72505694379E+01  0.16250536509E+02  0.00000000000E+00 0.  1.
</event>
<event>
 7    1  0.4489290E-013  0.5930194E+02  0.7816164E-02  0.1266605E+00
        -11   -1    0    0    0    0  0.00000000000E+00  0.00000000000E+00  0.45593999997E+02  0.45594000000E+02  0.51100000000E-03 0. -1.
         11   -1    0    0    0    0 -0.00000000000E+00 -0.00000000000E+00 -0.45593999997E+02  0.45594000000E+02  0.51100000000E-03 0.  1.
    9900012    2    1    2    0    0 -0.81590047779E+01 -0.67788696437E+00 -0.30817069451E+02  0.59301942557E+02  0.49999997317E+02 0.  0.
         12    1    1    2    0    0  0.81590047779E+01  0.67788696437E+00  0.30817069451E+02  0.31886057443E+02  0.00000000000E+00 0. -1.
         11    1    3    3    0    0 -0.27023395173E+02  0.48329317581E+00 -0.14750235584E+02  0.30790695169E+02  0.51100000000E-03 0. -1.
        -11    1    3    3    0    0  0.11785462473E+02  0.62135070004E+01 -0.94498398873E+01  0.16334144272E+02  0.51100000000E-03 0.  1.
        -12    1    3    3    0    0  0.70789279217E+01 -0.73746871405E+01 -0.66169939804E+01  0.12177103115E+02  0.00000000000E+00 0.  1.
</event>
<event>
 7    1  0.4489290E-013  0.5930215E+02  0.7816164E-02  0.1266604E+00
        -11   -1    0    0    0    0  0.00000000000E+00  0.00000000000E+00  0.45593999997E+02  0.45594000000E+02  0.51100000000E-03 0.  1.
         11   -1    0    0    0    0 -0.00000000000E+00 -0.00000000000E+00 -0.45593999997E+02  0.45594000000E+02  0.51100000000E-03 0. -1.
    9900012    2    1    2    0    0 -0.77395147014E+01 -0.30676448586E+02 -0.39702391683E+01  0.59302150714E+02  0.50000376944E+02 0.  0.
         12    1    1    2    0    0  0.77395147014E+01  0.30676448586E+02  0.39702391683E+01  0.31885849286E+02  0.00000000000E+00 0. -1.
         11    1    3    3    0    0  0.10374213701E+02 -0.49654568171E+01 -0.39656003700E+01  0.12165774035E+02  0.51100000000E-03 0. -1.
        -11    1    3    3    0    0 -0.25559145031E+02 -0.19929187927E+02 -0.94820289516E+01  0.33769087927E+02  0.51100000000E-03 0.  1.
        -12    1    3    3    0    0  0.74454166280E+01 -0.57818038417E+01  0.94773901534E+01  0.13367288751E+02  0.00000000000E+00 0.  1.
</event>
<event>
 7    1  0.4489290E-013  0.5930193E+02  0.7816164E-02  0.1266605E+00
        -11   -1    0    0    0    0  0.00000000000E+00  0.00000000000E+00  0.45593999997E+02  0.45594000000E+02  0.51100000000E-03 0. -1.
         11   -1    0    0    0    0 -0.00000000000E+00 -0.00000000000E+00 -0.45593999997E+02  0.45594000000E+02  0.51100000000E-03 0.  1.
    9900012    2    1    2    0    0 -0.28214009708E+02 -0.99084032337E+01 -0.11068622571E+02  0.59301934014E+02  0.49999981737E+02 0.  0.
         12    1    1    2    0    0  0.28214009708E+02  0.99084032337E+01  0.11068622571E+02  0.31886065986E+02  0.00000000000E+00 0. -1.
         11    1    3    3    0    0 -0.19342620056E+02  0.14096201895E+02 -0.10548038643E+02  0.26155324084E+02  0.51100000000E-03 0. -1.
        -11    1    3    3    0    0 -0.14348555690E+02 -0.22732947807E+02 -0.29051839147E+01  0.27039009972E+02  0.51100000000E-03 0.  1.
         12    1    3    3    0    0  0.54771660375E+01 -0.12716573218E+01  0.23845999864E+01  0.61075999576E+01  0.00000000000E+00 0. -1.
</event>
<event>
 7    1  0.4489290E-013  0.5930199E+02  0.7816164E-02  0.1266605E+00
        -11   -1    0    0    0    0  0.00000000000E+00  0.00000000000E+00  0.45593999997E+02  0.45594000000E+02  0.51100000000E-03 0. -1.
         11   -1    0    0    0    0 -0.00000000000E+00 -0.00000000000E+00 -0.45593999997E+02  0.45594000000E+02  0.51100000000E-03 0.  1.
    9900012    2    1    2    0    0  0.44008868314E+01 -0.11700166255E+01 -0.31559161395E+02  0.59301993480E+02  0.50000090189E+02 0.  0.
         12    1    1    2    0    0 -0.44008868314E+01  0.11700166255E+01  0.31559161395E+02  0.31886006520E+02  0.00000000000E+00 0. -1.
         11    1    3    3    0    0  0.12178240329E+02 -0.33691440609E+01 -0.35065242750E+02  0.37272401567E+02  0.51100000000E-03 0.  1.
        -11    1    3    3    0    0 -0.12868241838E+02 -0.23284594760E+01  0.64814341047E+01  0.14595285535E+02  0.51100000000E-03 0. -1.
        -12    1    3    3    0    0  0.50908883405E+01  0.45275869114E+01 -0.29753527506E+01  0.74343063782E+01  0.00000000000E+00 0.  1.
</event>
<event>
 7    1  0.4489290E-013  0.5930195E+02  0.7816164E-02  0.1266605E+00
        -11   -1    0    0    0    0  0.00000000000E+00  0.00000000000E+00  0.45593999997E+02  0.45594000000E+02  0.51100000000E-03 0.  1.
         11   -1    0    0    0    0 -0.00000000000E+00 -0.00000000000E+00 -0.45593999997E+02  0.45594000000E+02  0.51100000000E-03 0. -1.
    9900012    2    1    2    0    0 -0.12261652121E+02 -0.23725526271E+02  0.17420440300E+02  0.59301945842E+02  0.50000003308E+02 0.  0.
         12    1    1    2    0    0  0.12261652121E+02  0.23725526271E+02 -0.17420440300E+02  0.31886054158E+02  0.00000000000E+00 0. -1.
         11    1    3    3    0    0 -0.65158226483E+01 -0.15068976299E+01 -0.64010715373E+01  0.92574511793E+01  0.51100000000E-03 0. -1.
        -11    1    3    3    0    0  0.28248089593E+01 -0.15748157007E+02  0.32508202121E+02  0.36232129391E+02  0.51100000000E-03 0.  1.
        -12    1    3    3    0    0 -0.85706384322E+01 -0.64704716338E+01 -0.86866902843E+01  0.13812365272E+02  0.00000000000E+00 0.  1.
</event>
<event>
 7    1  0.4489290E-013  0.5930195E+02  0.7816164E-02  0.1266605E+00
        -11   -1    0    0    0    0  0.00000000000E+00  0.00000000000E+00  0.45593999997E+02  0.45594000000E+02  0.51100000000E-03 0.  1.
         11   -1    0    0    0    0 -0.00000000000E+00 -0.00000000000E+00 -0.45593999997E+02  0.45594000000E+02  0.51100000000E-03 0. -1.
    9900012    2    1    2    0    0  0.18390125563E+02  0.26020287997E+02 -0.12117511581E+01  0.59301945893E+02  0.50000003402E+02 0.  0.
         12    1    1    2    0    0 -0.18390125563E+02 -0.26020287997E+02  0.12117511581E+01  0.31886054107E+02  0.00000000000E+00 0. -1.
         11    1    3    3    0    0  0.11680988980E+02 -0.54024401031E+01 -0.12605737655E+02  0.18014896189E+02  0.51100000000E-03 0. -1.
        -11    1    3    3    0    0 -0.43799379450E+01  0.51942352402E+01  0.10854477313E+02  0.12805608698E+02  0.51100000000E-03 0.  1.
        -12    1    3    3    0    0  0.11089074528E+02  0.26228492859E+02  0.53950918387E+00  0.28481441005E+02  0.00000000000E+00 0.  1.
</event>
<event>
 7    1  0.4489290E-013  0.5930190E+02  0.7816164E-02  0.1266605E+00
        -11   -1    0    0    0    0  0.00000000000E+00  0.00000000000E+00  0.45593999997E+02  0.45594000000E+02  0.51100000000E-03 0. -1.
         11   -1    0    0    0    0 -0.00000000000E+00 -0.00000000000E+00 -0.45593999997E+02  0.45594000000E+02  0.51100000000E-03 0.  1.
    9900012    2    1    2    0    0  0.13483587247E+01 -0.16873318475E+02 -0.27022141141E+02  0.59301904920E+02  0.49999928676E+02 0.  0.
         12    1    1    2    0    0 -0.13483587247E+01  0.16873318475E+02  0.27022141141E+02  0.31886095080E+02  0.00000000000E+00 0. -1.
         11    1    3    3    0    0 -0.39543161960E+01 -0.52880893230E+01  0.23768055564E+01  0.70178137749E+01  0.51100000000E-03 0. -1.
        -11    1    3    3    0    0  0.22658298217E+02 -0.12453067659E+02 -0.17907243869E+02  0.31450703576E+02  0.51100000000E-03 0.  1.
        -12    1    3    3    0    0 -0.17355623296E+02  0.86783850625E+00 -0.11491702829E+02  0.20833387569E+02  0.00000000000E+00 0.  1.
</event>
<event>
 7    1  0.4489290E-013  0.5930196E+02  0.7816164E-02  0.1266605E+00
        -11   -1    0    0    0    0  0.00000000000E+00  0.00000000000E+00  0.45593999997E+02  0.45594000000E+02  0.51100000000E-03 0. -1.
         11   -1    0    0    0    0 -0.00000000000E+00 -0.00000000000E+00 -0.45593999997E+02  0.45594000000E+02  0.51100000000E-03 0.  1.
    9900012    2    1    2    0    0 -0.27714881941E+02 -0.82625918718E+01 -0.13428871572E+02  0.59301957643E+02  0.50000024831E+02 0.  0.
         12    1    1    2    0    0  0.27714881941E+02  0.82625918718E+01  0.13428871572E+02  0.31886042357E+02  0.00000000000E+00 0. -1.
         11    1    3    3    0    0 -0.22296002651E+02 -0.23904724629E+02 -0.19521559734E+02  0.38074123608E+02  0.51100000000E-03 0.  1.
        -11    1    3    3    0    0 -0.23261020829E+01  0.65443912468E+01  0.88320946306E+01  0.11235911334E+02  0.51100000000E-03 0. -1.
         12    1    3    3    0    0 -0.30927772078E+01  0.90977415108E+01 -0.27394064689E+01  0.99919227007E+01  0.00000000000E+00 0. -1.
</event>
<event>
 7    1  0.4489290E-013  0.5930195E+02  0.7816164E-02  0.1266605E+00
        -11   -1    0    0    0    0  0.00000000000E+00  0.00000000000E+00  0.45593999997E+02  0.45594000000E+02  0.51100000000E-03 0. -1.
         11   -1    0    0    0    0 -0.00000000000E+00 -0.00000000000E+00 -0.45593999997E+02  0.45594000000E+02  0.51100000000E-03 0.  1.
    9900012    2    1    2    0    0 -0.17701823917E+02 -0.13339075196E+02 -0.22922364152E+02  0.59301948576E+02  0.50000008296E+02 0.  0.
         12    1    1    2    0    0  0.17701823917E+02  0.13339075196E+02  0.22922364152E+02  0.31886051424E+02  0.00000000000E+00 0. -1.
         11    1    3    3    0    0 -0.73748707846E+01 -0.15955190243E+02 -0.86645762719E+01  0.19596726692E+02  0.51100000000E-03 0. -1.
        -11    1    3    3    0    0 -0.13025808724E+02  0.76643881590E+01 -0.24025445087E+02  0.28383737432E+02  0.51100000000E-03 0.  1.
        -12    1    3    3    0    0  0.26988555908E+01 -0.50482731112E+01  0.97676572067E+01  0.11321484453E+02  0.00000000000E+00 0.  1.
</event>
<event>
 7    1  0.4489290E-013  0.5930194E+02  0.7816164E-02  0.1266605E+00
        -11   -1    0    0    0    0  0.00000000000E+00  0.00000000000E+00  0.45593999997E+02  0.45594000000E+02  0.51100000000E-03 0. -1.
         11   -1    0    0    0    0 -0.00000000000E+00 -0.00000000000E+00 -0.45593999997E+02  0.45594000000E+02  0.51100000000E-03 0.  1.
    9900012    2    1    2    0    0 -0.26404110879E+01 -0.36525743615E+01 -0.31565923137E+02  0.59301943900E+02  0.49999999766E+02 0.  0.
         12    1    1    2    0    0  0.26404110879E+01  0.36525743615E+01  0.31565923137E+02  0.31886056100E+02  0.00000000000E+00 0. -1.
         11    1    3    3    0    0  0.17339733971E+02  0.91893421750E+01 -0.78941296110E+01  0.21152486057E+02  0.51100000000E-03 0. -1.
        -11    1    3    3    0    0 -0.10875731667E+02  0.29706802430E+01 -0.12124187947E+02  0.16556038597E+02  0.51100000000E-03 0.  1.
         12    1    3    3    0    0 -0.91044133921E+01 -0.15812596779E+02 -0.11547605578E+02  0.21593419246E+02  0.00000000000E+00 0. -1.
</event>
<event>
 7    1  0.4489290E-013  0.5930196E+02  0.7816164E-02  0.1266605E+00
        -11   -1    0    0    0    0  0.00000000000E+00  0.00000000000E+00  0.45593999997E+02  0.45594000000E+02  0.51100000000E-03 0. -1.
         11   -1    0    0    0    0 -0.00000000000E+00 -0.00000000000E+00 -0.45593999997E+02  0.45594000000E+02  0.51100000000E-03 0.  1.
    9900012    2    1    2    0    0  0.27445116923E+02  0.16160066969E+02 -0.15287521783E+01  0.59301964019E+02  0.50000036460E+02 0.  0.
         12    1    1    2    0    0 -0.27445116923E+02 -0.16160066969E+02  0.15287521783E+01  0.31886035981E+02  0.00000000000E+00 0. -1.
         11    1    3    3    0    0  0.18867193058E+02 -0.18171619133E+01  0.10076983267E+02  0.21466686827E+02  0.51100000000E-03 0. -1.
        -11    1    3    3    0    0 -0.85561267912E+01  0.57932976653E+00 -0.10270845183E+02  0.13380328459E+02  0.51100000000E-03 0.  1.
        -12    1    3    3    0    0  0.17134050656E+02  0.17397899116E+02 -0.13348902618E+01  0.24454948733E+02  0.00000000000E+00 0.  1.
</event>
<event>
 7    1  0.4489290E-013  0.5930192E+02  0.7816164E-02  0.1266605E+00
        -11   -1    0    0    0    0  0.00000000000E+00  0.00000000000E+00  0.45593999997E+02  0.45594000000E+02  0.51100000000E-03 0. -1.
         11   -1    0    0    0    0 -0.00000000000E+00 -0.00000000000E+00 -0.45593999997E+02  0.45594000000E+02  0.51100000000E-03 0.  1.
    9900012    2    1    2    0    0  0.12196577381E+02  0.20857298603E+02  0.20807179590E+02  0.59301919537E+02  0.49999955334E+02 0.  0.
         12    1    1    2    0    0 -0.12196577381E+02 -0.20857298603E+02 -0.20807179590E+02  0.31886080463E+02  0.00000000000E+00 0. -1.
         11    1    3    3    0    0  0.19787205276E+02  0.21582665451E+02  0.23746566670E+02  0.37699394815E+02  0.51100000000E-03 0. -1.
        -11    1    3    3    0    0 -0.39406934502E+01 -0.40309182227E+01  0.78953629065E+01  0.97012433364E+01  0.51100000000E-03 0.  1.
         12    1    3    3    0    0 -0.36499344444E+01  0.33055513750E+01 -0.10834749986E+02  0.11901281385E+02  0.00000000000E+00 0. -1.
</event>
<event>
 7    1  0.4489290E-013  0.5930187E+02  0.7816164E-02  0.1266605E+00
        -11   -1    0    0    0    0  0.00000000000E+00  0.00000000000E+00  0.45593999997E+02  0.45594000000E+02  0.51100000000E-03 0.  1.
         11   -1    0    0    0    0 -0.00000000000E+00 -0.00000000000E+00 -0.45593999997E+02  0.45594000000E+02  0.51100000000E-03 0. -1.
    9900012    2    1    2    0    0 -0.93053996113E+01 -0.16625851253E+02  0.25567862372E+02  0.59301874835E+02  0.49999873808E+02 0.  0.
         12    1    1    2    0    0  0.93053996113E+01  0.16625851253E+02 -0.25567862372E+02  0.31886125165E+02  0.00000000000E+00 0. -1.
         11    1    3    3    0    0 -0.14686240776E+02 -0.96898085820E+01 -0.76591366284E+01  0.19189591779E+02  0.51100000000E-03 0. -1.
        -11    1    3    3    0    0  0.11738501928E+02 -0.11983444575E+01  0.10388699250E+02  0.15721117305E+02  0.51100000000E-03 0.  1.
        -12    1    3    3    0    0 -0.63576607632E+01 -0.57376982133E+01  0.22838299750E+02  0.24391165750E+02  0.00000000000E+00 0.  1.
</event>
<event>
 7    1  0.4489290E-013  0.5930194E+02  0.7816164E-02  0.1266605E+00
        -11   -1    0    0    0    0  0.00000000000E+00  0.00000000000E+00  0.45593999997E+02  0.45594000000E+02  0.51100000000E-03 0.  1.
         11   -1    0    0    0    0 -0.00000000000E+00 -0.00000000000E+00 -0.45593999997E+02  0.45594000000E+02  0.51100000000E-03 0. -1.
    9900012    2    1    2    0    0 -0.93214044381E+01 -0.60902592856E+01  0.29878769557E+02  0.59301941775E+02  0.49999995892E+02 0.  0.
         12    1    1    2    0    0  0.93214044381E+01  0.60902592856E+01 -0.29878769557E+02  0.31886058225E+02  0.00000000000E+00 0. -1.
         11    1    3    3    0    0  0.21963585670E+01  0.17158926512E+02  0.54212445818E+01  0.18128503609E+02  0.51100000000E-03 0. -1.
        -11    1    3    3    0    0 -0.14544175974E+02 -0.11851152570E+02  0.22372091098E+02  0.29197488460E+02  0.51100000000E-03 0.  1.
         12    1    3    3    0    0  0.30264129684E+01 -0.11398033228E+02  0.20854338771E+01  0.11975949706E+02  0.00000000000E+00 0. -1.
</event>
<event>
 7    1  0.4489290E-013  0.5930193E+02  0.7816164E-02  0.1266605E+00
        -11   -1    0    0    0    0  0.00000000000E+00  0.00000000000E+00  0.45593999997E+02  0.45594000000E+02  0.51100000000E-03 0.  1.
         11   -1    0    0    0    0 -0.00000000000E+00 -0.00000000000E+00 -0.45593999997E+02  0.45594000000E+02  0.51100000000E-03 0. -1.
    9900012    2    1    2    0    0  0.25821596800E+02 -0.17850767565E+02  0.55961222652E+01  0.59301931751E+02  0.49999977610E+02 0.  0.
         12    1    1    2    0    0 -0.25821596800E+02  0.17850767565E+02 -0.55961222652E+01  0.31886068249E+02  0.00000000000E+00 0. -1.
         11    1    3    3    0    0  0.48734272094E+01  0.26455868085E+01  0.10442701304E+02  0.11823681030E+02  0.51100000000E-03 0. -1.
        -11    1    3    3    0    0  0.12682543591E+02 -0.30089605973E+02 -0.94682678353E+01  0.33998226360E+02  0.51100000000E-03 0.  1.
        -12    1    3    3    0    0  0.82656259994E+01  0.95932516002E+01  0.46216887968E+01  0.13480024361E+02  0.00000000000E+00 0.  1.
</event>
<event>
 7    1  0.4489290E-013  0.5930192E+02  0.7816164E-02  0.1266605E+00
        -11   -1    0    0    0    0  0.00000000000E+00  0.00000000000E+00  0.45593999997E+02  0.45594000000E+02  0.51100000000E-03 0. -1.
         11   -1    0    0    0    0 -0.00000000000E+00 -0.00000000000E+00 -0.45593999997E+02  0.45594000000E+02  0.51100000000E-03 0.  1.
    9900012    2    1    2    0    0  0.24132714225E+02  0.17089769399E+02 -0.11927869789E+02  0.59301918527E+02  0.49999953492E+02 0.  0.
         12    1    1    2    0    0 -0.24132714225E+02 -0.17089769399E+02  0.11927869789E+02  0.31886081473E+02  0.00000000000E+00 0. -1.
         11    1    3    3    0    0  0.88806525886E+01  0.19671253093E+02  0.15600047712E+02  0.26630540316E+02  0.51100000000E-03 0. -1.
        -11    1    3    3    0    0  0.26237688414E+01 -0.40047858726E+01 -0.91598530418E+01  0.10335636450E+02  0.51100000000E-03 0.  1.
         12    1    3    3    0    0  0.12628292795E+02  0.14233021784E+01 -0.18368064459E+02  0.22335741761E+02  0.00000000000E+00 0. -1.
</event>
<event>
 7    1  0.4489290E-013  0.5930195E+02  0.7816164E-02  0.1266605E+00
        -11   -1    0    0    0    0  0.00000000000E+00  0.00000000000E+00  0.45593999997E+02  0.45594000000E+02  0.51100000000E-03 0. -1.
         11   -1    0    0    0    0 -0.00000000000E+00 -0.00000000000E+00 -0.45593999997E+02  0.45594000000E+02  0.51100000000E-03 0.  1.
    9900012    2    1    2    0    0 -0.22727052196E+02 -0.12545475170E+02 -0.18515194350E+02  0.59301948652E+02  0.50000008434E+02 0.  0.
         12    1    1    2    0    0  0.22727052196E+02  0.12545475170E+02  0.18515194350E+02  0.31886051348E+02  0.00000000000E+00 0. -1.
         11    1    3    3    0    0  0.14389128065E+02  0.38783126175E+01 -0.87032303885E+01  0.17257883262E+02  0.51100000000E-03 0. -1.
        -11    1    3    3    0    0 -0.13178262314E+02 -0.82025937315E+01 -0.27211109348E+01  0.15759238132E+02  0.51100000000E-03 0.  1.
         12    1    3    3    0    0 -0.23937917947E+02 -0.82211940556E+01 -0.70908530266E+01  0.26284827258E+02  0.00000000000E+00 0. -1.
</event>
<event>
 7    1  0.4489290E-013  0.5930194E+02  0.7816164E-02  0.1266605E+00
        -11   -1    0    0    0    0  0.00000000000E+00  0.00000000000E+00  0.45593999997E+02  0.45594000000E+02  0.51100000000E-03 0.  1.
         11   -1    0    0    0    0 -0.00000000000E+00 -0.00000000000E+00 -0.45593999997E+02  0.45594000000E+02  0.51100000000E-03 0. -1.
    9900012    2    1    2    0    0  0.43671423952E+01 -0.15654874857E+01  0.31546762111E+02  0.59301939041E+02  0.49999990906E+02 0.  0.
         12    1    1    2    0    0 -0.43671423952E+01  0.15654874857E+01 -0.31546762111E+02  0.31886060959E+02  0.00000000000E+00 0. -1.
         11    1    3    3    0    0  0.91524076519E+01  0.19982645626E+02  0.52390333999E+01  0.22594693255E+02  0.51100000000E-03 0. -1.
        -11    1    3    3    0    0  0.33170267383E+01 -0.12687948052E+02  0.10183145203E+02  0.16603708581E+02  0.51100000000E-03 0.  1.
         12    1    3    3    0    0 -0.81022919950E+01 -0.88601850599E+01  0.16124583508E+02  0.20103537206E+02  0.00000000000E+00 0. -1.
</event>
<event>
 7    1  0.4489290E-013  0.5930191E+02  0.7816164E-02  0.1266605E+00
        -11   -1    0    0    0    0  0.00000000000E+00  0.00000000000E+00  0.45593999997E+02  0.45594000000E+02  0.51100000000E-03 0.  1.
         11   -1    0    0    0    0 -0.00000000000E+00 -0.00000000000E+00 -0.45593999997E+02  0.45594000000E+02  0.51100000000E-03 0. -1.
    9900012    2    1    2    0    0  0.75843033446E+01  0.29995774313E+02 -0.77106656139E+01  0.59301913723E+02  0.49999944731E+02 0.  0.
         12    1    1    2    0    0 -0.75843033446E+01 -0.29995774313E+02  0.77106656139E+01  0.31886086277E+02  0.00000000000E+00 0. -1.
         11    1    3    3    0    0 -0.26878167445E+01  0.10506446902E+02 -0.18792820975E+02  0.21697463120E+02  0.51100000000E-03 0. -1.
        -11    1    3    3    0    0  0.12726841035E+02  0.26004255113E+02  0.94355611537E+01  0.30450346160E+02  0.51100000000E-03 0.  1.
        -12    1    3    3    0    0 -0.24547209459E+01 -0.65149277023E+01  0.16465942079E+01  0.71541044425E+01  0.00000000000E+00 0.  1.
</event>
<event>
 7    1  0.4489290E-013  0.5930188E+02  0.7816164E-02  0.1266605E+00
        -11   -1    0    0    0    0  0.00000000000E+00  0.00000000000E+00  0.45593999997E+02  0.45594000000E+02  0.51100000000E-03 0. -1.
         11   -1    0    0    0    0 -0.00000000000E+00 -0.00000000000E+00 -0.45593999997E+02  0.45594000000E+02  0.51100000000E-03 0.  1.
    9900012    2    1    2    0    0  0.86374023387E+01 -0.29272941309E+02 -0.92311839639E+01  0.59301881242E+02  0.49999885494E+02 0.  0.
         12    1    1    2    0    0 -0.86374023387E+01  0.29272941309E+02  0.92311839639E+01  0.31886118758E+02  0.00000000000E+00 0. -1.
         11    1    3    3    0    0 -0.11622791182E+02 -0.13117344466E+02  0.72683195269E+01  0.18973203991E+02  0.51100000000E-03 0. -1.
        -11    1    3    3    0    0  0.16425006577E+02 -0.21293823884E+01 -0.19392460472E+02  0.25502600531E+02  0.51100000000E-03 0.  1.
        -12    1    3    3    0    0  0.38351869430E+01 -0.14026214455E+02  0.28929569808E+01  0.14826076721E+02  0.00000000000E+00 0.  1.
</event>
<event>
 7    1  0.4489290E-013  0.5930194E+02  0.7816164E-02  0.1266605E+00
        -11   -1    0    0    0    0  0.00000000000E+00  0.00000000000E+00  0.45593999997E+02  0.45594000000E+02  0.51100000000E-03 0. -1.
         11   -1    0    0    0    0 -0.00000000000E+00 -0.00000000000E+00 -0.45593999997E+02  0.45594000000E+02  0.51100000000E-03 0.  1.
    9900012    2    1    2    0    0  0.25941932738E+01 -0.32779517122E+01 -0.31610853530E+02  0.59301939299E+02  0.49999991375E+02 0.  0.
         12    1    1    2    0    0 -0.25941932738E+01  0.32779517122E+01  0.31610853530E+02  0.31886060701E+02  0.00000000000E+00 0. -1.
         11    1    3    3    0    0 -0.20084272291E+02  0.39867487192E+01 -0.25540763996E+02  0.32735344576E+02  0.51100000000E-03 0.  1.
        -11    1    3    3    0    0  0.15801717526E+02 -0.41837683323E+01  0.80522408656E+00  0.16366019074E+02  0.51100000000E-03 0. -1.
         12    1    3    3    0    0  0.68767480382E+01 -0.30809320991E+01 -0.68753136207E+01  0.10200575649E+02  0.00000000000E+00 0. -1.
</event>
<event>
 7    1  0.4489290E-013  0.5930179E+02  0.7816164E-02  0.1266605E+00
        -11   -1    0    0    0    0  0.00000000000E+00  0.00000000000E+00  0.45593999997E+02  0.45594000000E+02  0.51100000000E-03 0.  1.
         11   -1    0    0    0    0 -0.00000000000E+00 -0.00000000000E+00 -0.45593999997E+02  0.45594000000E+02  0.51100000000E-03 0. -1.
    9900012    2    1    2    0    0  0.18572374037E+02  0.21070484952E+02  0.15094114302E+02  0.59301785109E+02  0.49999710170E+02 0.  0.
         12    1    1    2    0    0 -0.18572374037E+02 -0.21070484952E+02 -0.15094114302E+02  0.31886214891E+02  0.00000000000E+00 0. -1.
         11    1    3    3    0    0 -0.10947741472E+02  0.20717376143E+01  0.68271515489E+01  0.13067330968E+02  0.51100000000E-03 0. -1.
        -11    1    3    3    0    0  0.29247444495E+02  0.33230831513E+01  0.25471482412E+01  0.29545623289E+02  0.51100000000E-03 0.  1.
        -12    1    3    3    0    0  0.27267101515E+00  0.15675664187E+02  0.57198145118E+01  0.16688830853E+02  0.00000000000E+00 0.  1.
</event>
<event>
 7    1  0.4489290E-013  0.5930197E+02  0.7816164E-02  0.1266605E+00
        -11   -1    0    0    0    0  0.00000000000E+00  0.00000000000E+00  0.45593999997E+02  0.45594000000E+02  0.51100000000E-03 0.  1.
         11   -1    0    0    0    0 -0.00000000000E+00 -0.00000000000E+00 -0.45593999997E+02  0.45594000000E+02  0.51100000000E-03 0. -1.
    9900012    2    1    2    0    0 -0.17590076279E+02 -0.13593272833E+02  0.22858933607E+02  0.59301973351E+02  0.50000053478E+02 0.  0.
         12    1    1    2    0    0  0.17590076279E+02  0.13593272833E+02 -0.22858933607E+02  0.31886026649E+02  0.00000000000E+00 0. -1.
         11    1    3    3    0    0  0.11357388430E+01 -0.11114651586E+02 -0.54317473716E+01  0.12422932921E+02  0.51100000000E-03 0. -1.
        -11    1    3    3    0    0 -0.11819988603E+02 -0.57792385654E+01  0.34563419871E+02  0.36982992340E+02  0.51100000000E-03 0.  1.
         12    1    3    3    0    0 -0.69058265189E+01  0.33006173181E+01 -0.62727388920E+01  0.98960480899E+01  0.00000000000E+00 0. -1.
</event>
<event>
 7    1  0.4489290E-013  0.5930187E+02  0.7816164E-02  0.1266605E+00
        -11   -1    0    0    0    0  0.00000000000E+00  0.00000000000E+00  0.45593999997E+02  0.45594000000E+02  0.51100000000E-03 0.  1.
         11   -1    0    0    0    0 -0.00000000000E+00 -0.00000000000E+00 -0.45593999997E+02  0.45594000000E+02  0.51100000000E-03 0. -1.
    9900012    2    1    2    0    0  0.14510231349E+01 -0.42750294054E+01  0.31564919058E+02  0.59301867282E+02  0.49999860035E+02 0.  0.
         12    1    1    2    0    0 -0.14510231349E+01  0.42750294054E+01 -0.31564919058E+02  0.31886132718E+02  0.00000000000E+00 0. -1.
         11    1    3    3    0    0 -0.33977671281E+01  0.85431747570E+01  0.25415584788E+01  0.95388770905E+01  0.51100000000E-03 0.  1.
        -11    1    3    3    0    0 -0.65001697340E+01 -0.23735222695E+02  0.16299375230E+02  0.29517497118E+02  0.51100000000E-03 0. -1.
        -12    1    3    3    0    0  0.11348959997E+02  0.10917018532E+02  0.12723985349E+02  0.20245493074E+02  0.00000000000E+00 0.  1.
</event>
<event>
 7    1  0.4489290E-013  0.5930194E+02  0.7816164E-02  0.1266605E+00
        -11   -1    0    0    0    0  0.00000000000E+00  0.00000000000E+00  0.45593999997E+02  0.45594000000E+02  0.51100000000E-03 0.  1.
         11   -1    0    0    0    0 -0.00000000000E+00 -0.00000000000E+00 -0.45593999997E+02  0.45594000000E+02  0.51100000000E-03 0. -1.
    9900012    2    1    2    0    0  0.21249412779E+02 -0.23467567978E+02 -0.38021842074E+01  0.59301938861E+02  0.49999990576E+02 0.  0.
         12    1    1    2    0    0 -0.21249412779E+02  0.23467567978E+02  0.38021842074E+01  0.31886061139E+02  0.00000000000E+00 0. -1.
         11    1    3    3    0    0  0.19821203374E+02 -0.19708869026E+02 -0.24738537913E+02  0.37327133292E+02  0.51100000000E-03 0. -1.
        -11    1    3    3    0    0  0.25187076070E+01 -0.26505243644E+01  0.65233297473E+01  0.74781681360E+01  0.51100000000E-03 0.  1.
         12    1    3    3    0    0 -0.10904982021E+01 -0.11081745871E+01  0.14413023958E+02  0.14496637433E+02  0.00000000000E+00 0. -1.
</event>
<event>
 7    1  0.4489290E-013  0.5930191E+02  0.7816164E-02  0.1266605E+00
        -11   -1    0    0    0    0  0.00000000000E+00  0.00000000000E+00  0.45593999997E+02  0.45594000000E+02  0.51100000000E-03 0.  1.
         11   -1    0    0    0    0 -0.00000000000E+00 -0.00000000000E+00 -0.45593999997E+02  0.45594000000E+02  0.51100000000E-03 0. -1.
    9900012    2    1    2    0    0  0.13300056553E+02  0.18632295037E+02  0.22196139458E+02  0.59301913230E+02  0.49999943833E+02 0.  0.
         12    1    1    2    0    0 -0.13300056553E+02 -0.18632295037E+02 -0.22196139458E+02  0.31886086770E+02  0.00000000000E+00 0. -1.
         11    1    3    3    0    0  0.13845976729E+02  0.27886135377E+01 -0.14946067510E+01  0.14202861917E+02  0.51100000000E-03 0. -1.
        -11    1    3    3    0    0  0.68823804562E+01  0.63721551620E+01  0.30054030779E+02  0.31483587605E+02  0.51100000000E-03 0.  1.
        -12    1    3    3    0    0 -0.74283006325E+01  0.94715263377E+01 -0.63632845704E+01  0.13615463708E+02  0.00000000000E+00 0.  1.
</event>
<event>
 7    1  0.4489290E-013  0.5930196E+02  0.7816164E-02  0.1266605E+00
        -11   -1    0    0    0    0  0.00000000000E+00  0.00000000000E+00  0.45593999997E+02  0.45594000000E+02  0.51100000000E-03 0.  1.
         11   -1    0    0    0    0 -0.00000000000E+00 -0.00000000000E+00 -0.45593999997E+02  0.45594000000E+02  0.51100000000E-03 0. -1.
    9900012    2    1    2    0    0  0.96054334057E+01 -0.11375246338E+02  0.28196793334E+02  0.59301957058E+02  0.50000023765E+02 0.  0.
         12    1    1    2    0    0 -0.96054334057E+01  0.11375246338E+02 -0.28196793334E+02  0.31886042942E+02  0.00000000000E+00 0. -1.
         11    1    3    3    0    0  0.96103101879E+01 -0.11572935187E+02  0.21262346425E+01  0.15192490407E+02  0.51100000000E-03 0. -1.
        -11    1    3    3    0    0 -0.23269102284E+01  0.38855046243E+01  0.34406394250E+02  0.34703193267E+02  0.51100000000E-03 0.  1.
        -12    1    3    3    0    0  0.23220334462E+01 -0.36878157747E+01 -0.83358355585E+01  0.94062733839E+01  0.00000000000E+00 0.  1.
</event>
<event>
 7    1  0.4489290E-013  0.5930194E+02  0.7816164E-02  0.1266605E+00
        -11   -1    0    0    0    0  0.00000000000E+00  0.00000000000E+00  0.45593999997E+02  0.45594000000E+02  0.51100000000E-03 0. -1.
         11   -1    0    0    0    0 -0.00000000000E+00 -0.00000000000E+00 -0.45593999997E+02  0.45594000000E+02  0.51100000000E-03 0.  1.
    9900012    2    1    2    0    0  0.26507222326E+02  0.82037492607E+01 -0.15709444488E+02  0.59301937472E+02  0.49999988045E+02 0.  0.
         12    1    1    2    0    0 -0.26507222326E+02 -0.82037492607E+01  0.15709444488E+02  0.31886062528E+02  0.00000000000E+00 0. -1.
         11    1    3    3    0    0 -0.79422760801E+01 -0.76475807528E+01  0.57638816966E+01  0.12441365406E+02  0.51100000000E-03 0. -1.
        -11    1    3    3    0    0  0.32206335702E+02  0.19040617290E+02 -0.17536896881E+02  0.41319921571E+02  0.51100000000E-03 0.  1.
        -12    1    3    3    0    0  0.22431627041E+01 -0.31892872764E+01 -0.39364293032E+01  0.55406504950E+01  0.00000000000E+00 0.  1.
</event>
<event>
 7    1  0.4489290E-013  0.5930193E+02  0.7816164E-02  0.1266605E+00
        -11   -1    0    0    0    0  0.00000000000E+00  0.00000000000E+00  0.45593999997E+02  0.45594000000E+02  0.51100000000E-03 0. -1.
         11   -1    0    0    0    0 -0.00000000000E+00 -0.00000000000E+00 -0.45593999997E+02  0.45594000000E+02  0.51100000000E-03 0.  1.
    9900012    2    1    2    0    0  0.18255664906E+02 -0.72910674164E+01 -0.25105621257E+02  0.59301934330E+02  0.49999982314E+02 0.  0.
         12    1    1    2    0    0 -0.18255664906E+02  0.72910674164E+01  0.25105621257E+02  0.31886065670E+02  0.00000000000E+00 0. -1.
         11    1    3    3    0    0  0.22387622523E+01 -0.25139748977E+02 -0.11957628622E+02  0.27928550223E+02  0.51100000000E-03 0. -1.
        -11    1    3    3    0    0  0.11045824365E+02  0.19747232257E+02 -0.80832675052E+01  0.24027122831E+02  0.51100000000E-03 0.  1.
        -12    1    3    3    0    0  0.49710782881E+01 -0.18985506963E+01 -0.50647251298E+01  0.73462612758E+01  0.00000000000E+00 0.  1.
</event>
<event>
 7    1  0.4489290E-013  0.5930198E+02  0.7816164E-02  0.1266605E+00
        -11   -1    0    0    0    0  0.00000000000E+00  0.00000000000E+00  0.45593999997E+02  0.45594000000E+02  0.51100000000E-03 0.  1.
         11   -1    0    0    0    0 -0.00000000000E+00 -0.00000000000E+00 -0.45593999997E+02  0.45594000000E+02  0.51100000000E-03 0. -1.
    9900012    2    1    2    0    0 -0.23671825055E+02 -0.20343867114E+02  0.65184373888E+01  0.59301980233E+02  0.50000066029E+02 0.  0.
         12    1    1    2    0    0  0.23671825055E+02  0.20343867114E+02 -0.65184373888E+01  0.31886019767E+02  0.00000000000E+00 0. -1.
         11    1    3    3    0    0  0.17880282512E+01  0.66711035570E+01 -0.13583985885E+02  0.15238941580E+02  0.51100000000E-03 0. -1.
        -11    1    3    3    0    0 -0.23296330256E+02 -0.28294418810E+02  0.18268352053E+02  0.40951505787E+02  0.51100000000E-03 0.  1.
         12    1    3    3    0    0 -0.21635230500E+01  0.12794481392E+01  0.18340712210E+01  0.31115328654E+01  0.00000000000E+00 0. -1.
</event>
<event>
 7    1  0.4489290E-013  0.5930195E+02  0.7816164E-02  0.1266605E+00
        -11   -1    0    0    0    0  0.00000000000E+00  0.00000000000E+00  0.45593999997E+02  0.45594000000E+02  0.51100000000E-03 0.  1.
         11   -1    0    0    0    0 -0.00000000000E+00 -0.00000000000E+00 -0.45593999997E+02  0.45594000000E+02  0.51100000000E-03 0. -1.
    9900012    2    1    2    0    0 -0.38904622964E+01  0.13060148283E+02  0.28827364040E+02  0.59301951522E+02  0.50000013667E+02 0.  0.
         12    1    1    2    0    0  0.38904622964E+01 -0.13060148283E+02 -0.28827364040E+02  0.31886048478E+02  0.00000000000E+00 0. -1.
         11    1    3    3    0    0 -0.15637685640E+02  0.12166879865E+02  0.49876493215E+01  0.20431515457E+02  0.51100000000E-03 0. -1.
        -11    1    3    3    0    0  0.18358964901E+02  0.59200628126E+01  0.23707449496E+02  0.30563735011E+02  0.51100000000E-03 0.  1.
        -12    1    3    3    0    0 -0.66117415571E+01 -0.50267943952E+01  0.13226522286E+00  0.83067010539E+01  0.00000000000E+00 0.  1.
</event>
<event>
 7    1  0.4489290E-013  0.5930194E+02  0.7816164E-02  0.1266605E+00
        -11   -1    0    0    0    0  0.00000000000E+00  0.00000000000E+00  0.45593999997E+02  0.45594000000E+02  0.51100000000E-03 0. -1.
         11   -1    0    0    0    0 -0.00000000000E+00 -0.00000000000E+00 -0.45593999997E+02  0.45594000000E+02  0.51100000000E-03 0.  1.
    9900012    2    1    2    0    0 -0.19932232842E+02  0.64893326571E+01 -0.24027391515E+02  0.59301938979E+02  0.49999990793E+02 0.  0.
         12    1    1    2    0    0  0.19932232842E+02 -0.64893326571E+01  0.24027391515E+02  0.31886061021E+02  0.00000000000E+00 0. -1.
         11    1    3    3    0    0 -0.41576563167E+01  0.11193025567E+02 -0.19296647229E+02  0.22692080600E+02  0.51100000000E-03 0. -1.
        -11    1    3    3    0    0 -0.94422279693E+01 -0.72450473059E+01  0.12991841000E+02  0.17619146186E+02  0.51100000000E-03 0.  1.
        -12    1    3    3    0    0 -0.63323485561E+01  0.25413543961E+01 -0.17722585286E+02  0.18990712193E+02  0.00000000000E+00 0.  1.
</event>
<event>
 7    1  0.4489290E-013  0.5930193E+02  0.7816164E-02  0.1266605E+00
        -11   -1    0    0    0    0  0.00000000000E+00  0.00000000000E+00  0.45593999997E+02  0.45594000000E+02  0.51100000000E-03 0. -1.
         11   -1    0    0    0    0 -0.00000000000E+00 -0.00000000000E+00 -0.45593999997E+02  0.45594000000E+02  0.51100000000E-03 0.  1.
    9900012    2    1    2    0    0  0.49119650749E+01 -0.30052438546E+02 -0.94575219330E+01  0.59301934320E+02  0.49999982295E+02 0.  0.
         12    1    1    2    0    0 -0.49119650749E+01  0.30052438546E+02  0.94575219330E+01  0.31886065680E+02  0.00000000000E+00 0. -1.
         11    1    3    3    0    0 -0.10149047629E+02 -0.30660205170E+02  0.38205227760E+00  0.32298565186E+02  0.51100000000E-03 0. -1.
        -11    1    3    3    0    0  0.12392205669E+01  0.62924216541E+00 -0.12794052753E+02  0.12869320084E+02  0.51100000000E-03 0.  1.
         12    1    3    3    0    0  0.13821792137E+02 -0.21475541114E-01  0.29544785426E+01  0.14134049050E+02  0.00000000000E+00 0. -1.
</event>
<event>
 7    1  0.4489290E-013  0.5930202E+02  0.7816164E-02  0.1266604E+00
        -11   -1    0    0    0    0  0.00000000000E+00  0.00000000000E+00  0.45593999997E+02  0.45594000000E+02  0.51100000000E-03 0. -1.
         11   -1    0    0    0    0 -0.00000000000E+00 -0.00000000000E+00 -0.45593999997E+02  0.45594000000E+02  0.51100000000E-03 0.  1.
    9900012    2    1    2    0    0 -0.12257294530E+02 -0.78535224113E+01 -0.28368938186E+02  0.59302019738E+02  0.50000138078E+02 0.  0.
         12    1    1    2    0    0  0.12257294530E+02  0.78535224113E+01  0.28368938186E+02  0.31885980262E+02  0.00000000000E+00 0. -1.
         11    1    3    3    0    0  0.13464309255E+02 -0.51072634629E+00 -0.13645808719E+02  0.19176979975E+02  0.51100000000E-03 0. -1.
        -11    1    3    3    0    0 -0.28980262227E+02  0.32368127849E+00 -0.10977304135E+02  0.30991314503E+02  0.51100000000E-03 0.  1.
        -12    1    3    3    0    0  0.32586584425E+01 -0.76664773435E+01 -0.37458253325E+01  0.91337252600E+01  0.00000000000E+00 0.  1.
</event>
<event>
 7    1  0.4489290E-013  0.5930190E+02  0.7816164E-02  0.1266605E+00
        -11   -1    0    0    0    0  0.00000000000E+00  0.00000000000E+00  0.45593999997E+02  0.45594000000E+02  0.51100000000E-03 0. -1.
         11   -1    0    0    0    0 -0.00000000000E+00 -0.00000000000E+00 -0.45593999997E+02  0.45594000000E+02  0.51100000000E-03 0.  1.
    9900012    2    1    2    0    0 -0.42538038706E+00  0.15376533785E+02 -0.27930349628E+02  0.59301903185E+02  0.49999925513E+02 0.  0.
         12    1    1    2    0    0  0.42538038706E+00 -0.15376533785E+02  0.27930349628E+02  0.31886096815E+02  0.00000000000E+00 0. -1.
         11    1    3    3    0    0  0.10753591713E+02  0.95044542727E+01 -0.51832694791E+01  0.15259117553E+02  0.51100000000E-03 0. -1.
        -11    1    3    3    0    0  0.22951307813E+01 -0.11169400758E+02 -0.18762405347E+02  0.21955659709E+02  0.51100000000E-03 0.  1.
        -12    1    3    3    0    0 -0.13474102881E+02  0.17041480270E+02 -0.39846748021E+01  0.22087125923E+02  0.00000000000E+00 0.  1.
</event>
<event>
 7    1  0.4489290E-013  0.5930196E+02  0.7816164E-02  0.1266605E+00
        -11   -1    0    0    0    0  0.00000000000E+00  0.00000000000E+00  0.45593999997E+02  0.45594000000E+02  0.51100000000E-03 0.  1.
         11   -1    0    0    0    0 -0.00000000000E+00 -0.00000000000E+00 -0.45593999997E+02  0.45594000000E+02  0.51100000000E-03 0. -1.
    9900012    2    1    2    0    0 -0.89869419627E+01 -0.79823121858E+01  0.29533663182E+02  0.59301957684E+02  0.50000024905E+02 0.  0.
         12    1    1    2    0    0  0.89869419627E+01  0.79823121858E+01 -0.29533663182E+02  0.31886042316E+02  0.00000000000E+00 0. -1.
         11    1    3    3    0    0  0.17330300222E+01  0.10979125865E+02 -0.83608023955E+01  0.13908544668E+02  0.51100000000E-03 0. -1.
        -11    1    3    3    0    0 -0.11300147457E+02 -0.11955485864E+02  0.18459513475E+02  0.24726111963E+02  0.51100000000E-03 0.  1.
        -12    1    3    3    0    0  0.58017547189E+00 -0.70059521864E+01  0.19434952102E+02  0.20667301053E+02  0.00000000000E+00 0.  1.
</event>
<event>
 7    1  0.4489290E-013  0.5930197E+02  0.7816164E-02  0.1266605E+00
        -11   -1    0    0    0    0  0.00000000000E+00  0.00000000000E+00  0.45593999997E+02  0.45594000000E+02  0.51100000000E-03 0. -1.
         11   -1    0    0    0    0 -0.00000000000E+00 -0.00000000000E+00 -0.45593999997E+02  0.45594000000E+02  0.51100000000E-03 0.  1.
    9900012    2    1    2    0    0  0.12535671386E+02 -0.25549670188E+02  0.14380199417E+02  0.59301971099E+02  0.50000049371E+02 0.  0.
         12    1    1    2    0    0 -0.12535671386E+02  0.25549670188E+02 -0.14380199417E+02  0.31886028901E+02  0.00000000000E+00 0. -1.
         11    1    3    3    0    0  0.12640052369E+02  0.12012927587E+01  0.17214592041E+02  0.21390563517E+02  0.51100000000E-03 0. -1.
        -11    1    3    3    0    0 -0.11939964388E+02 -0.12452613566E+02 -0.74389475668E+01  0.18787449943E+02  0.51100000000E-03 0.  1.
        -12    1    3    3    0    0  0.11835583405E+02 -0.14298349380E+02  0.46045549434E+01  0.19123957639E+02  0.00000000000E+00 0.  1.
</event>
<event>
 7    1  0.4489290E-013  0.5930194E+02  0.7816164E-02  0.1266605E+00
        -11   -1    0    0    0    0  0.00000000000E+00  0.00000000000E+00  0.45593999997E+02  0.45594000000E+02  0.51100000000E-03 0.  1.
         11   -1    0    0    0    0 -0.00000000000E+00 -0.00000000000E+00 -0.45593999997E+02  0.45594000000E+02  0.51100000000E-03 0. -1.
    9900012    2    1    2    0    0 -0.69804469452E+01  0.28180647553E+02  0.13185042420E+02  0.59301939101E+02  0.49999991014E+02 0.  0.
         12    1    1    2    0    0  0.69804469452E+01 -0.28180647553E+02 -0.13185042420E+02  0.31886060899E+02  0.00000000000E+00 0. -1.
         11    1    3    3    0    0 -0.15182944950E+02  0.65421363574E+01 -0.11866150900E+02  0.20350108179E+02  0.51100000000E-03 0. -1.
        -11    1    3    3    0    0  0.13592340482E+02  0.20016593053E+02  0.20084771383E+02  0.31445409188E+02  0.51100000000E-03 0.  1.
         12    1    3    3    0    0 -0.53898424766E+01  0.16219181425E+01  0.49664219371E+01  0.75064217335E+01  0.00000000000E+00 0. -1.
</event>
<event>
 7    1  0.4489290E-013  0.5930195E+02  0.7816164E-02  0.1266605E+00
        -11   -1    0    0    0    0  0.00000000000E+00  0.00000000000E+00  0.45593999997E+02  0.45594000000E+02  0.51100000000E-03 0.  1.
         11   -1    0    0    0    0 -0.00000000000E+00 -0.00000000000E+00 -0.45593999997E+02  0.45594000000E+02  0.51100000000E-03 0. -1.
    9900012    2    1    2    0    0  0.87836828745E+01  0.84148481003E+01  0.29474691787E+02  0.59301949612E+02  0.50000010184E+02 0.  0.
         12    1    1    2    0    0 -0.87836828745E+01 -0.84148481003E+01 -0.29474691787E+02  0.31886050388E+02  0.00000000000E+00 0. -1.
         11    1    3    3    0    0  0.37016631599E+01 -0.79013791212E+01  0.15063137796E+02  0.17407820733E+02  0.51100000000E-03 0. -1.
        -11    1    3    3    0    0 -0.87957012268E+01  0.19058435182E+02 -0.94964344051E+00  0.21011666630E+02  0.51100000000E-03 0.  1.
        -12    1    3    3    0    0  0.13877720941E+02 -0.27422079602E+01  0.15361197432E+02  0.20882462249E+02  0.00000000000E+00 0.  1.
</event>
<event>
 7    1  0.4489290E-013  0.5930193E+02  0.7816164E-02  0.1266605E+00
        -11   -1    0    0    0    0  0.00000000000E+00  0.00000000000E+00  0.45593999997E+02  0.45594000000E+02  0.51100000000E-03 0.  1.
         11   -1    0    0    0    0 -0.00000000000E+00 -0.00000000000E+00 -0.45593999997E+02  0.45594000000E+02  0.51100000000E-03 0. -1.
    9900012    2    1    2    0    0  0.55541919459E+01 -0.27541196823E+02  0.15078284250E+02  0.59301933661E+02  0.49999981094E+02 0.  0.
         12    1    1    2    0    0 -0.55541919459E+01  0.27541196823E+02 -0.15078284250E+02  0.31886066339E+02  0.00000000000E+00 0. -1.
         11    1    3    3    0    0 -0.13862293439E+02 -0.28659384048E+02  0.87017351852E+01  0.33003691747E+02  0.51100000000E-03 0. -1.
        -11    1    3    3    0    0  0.12099751659E+02  0.57049203476E+01 -0.28323691952E+01  0.13673785939E+02  0.51100000000E-03 0.  1.
        -12    1    3    3    0    0  0.73167337255E+01 -0.45867331224E+01  0.92089182604E+01  0.12624455975E+02  0.00000000000E+00 0.  1.
</event>
<event>
 7    1  0.4489290E-013  0.5930195E+02  0.7816164E-02  0.1266605E+00
        -11   -1    0    0    0    0  0.00000000000E+00  0.00000000000E+00  0.45593999997E+02  0.45594000000E+02  0.51100000000E-03 0. -1.
         11   -1    0    0    0    0 -0.00000000000E+00 -0.00000000000E+00 -0.45593999997E+02  0.45594000000E+02  0.51100000000E-03 0.  1.
    9900012    2    1    2    0    0  0.25602056801E+01 -0.28451661831E+02 -0.14165751742E+02  0.59301949186E+02  0.50000009408E+02 0.  0.
         12    1    1    2    0    0 -0.25602056801E+01  0.28451661831E+02  0.14165751742E+02  0.31886050814E+02  0.00000000000E+00 0. -1.
         11    1    3    3    0    0 -0.89460184750E+01 -0.28584571128E+02  0.23390135940E+01  0.30042968195E+02  0.51100000000E-03 0. -1.
        -11    1    3    3    0    0 -0.11443746730E+01 -0.36287433755E+01 -0.15569700443E+02  0.16027880210E+02  0.51100000000E-03 0.  1.
         12    1    3    3    0    0  0.12650598828E+02  0.37616526723E+01 -0.93506489366E+00  0.13231100782E+02  0.00000000000E+00 0. -1.
</event>
<event>
 7    1  0.4489290E-013  0.5930190E+02  0.7816164E-02  0.1266605E+00
        -11   -1    0    0    0    0  0.00000000000E+00  0.00000000000E+00  0.45593999997E+02  0.45594000000E+02  0.51100000000E-03 0. -1.
         11   -1    0    0    0    0 -0.00000000000E+00 -0.00000000000E+00 -0.45593999997E+02  0.45594000000E+02  0.51100000000E-03 0.  1.
    9900012    2    1    2    0    0 -0.31081121431E+02 -0.10175766258E+01  0.70463817513E+01  0.59301904796E+02  0.49999928451E+02 0.  0.
         12    1    1    2    0    0  0.31081121431E+02  0.10175766258E+01 -0.70463817513E+01  0.31886095204E+02  0.00000000000E+00 0. -1.
         11    1    3    3    0    0 -0.13268546819E+02 -0.40617538649E+01 -0.17604293049E+02  0.22415693457E+02  0.51100000000E-03 0. -1.
        -11    1    3    3    0    0  0.45876967733E+01 -0.60808364261E+00  0.55176478213E+01  0.72014696515E+01  0.51100000000E-03 0.  1.
         12    1    3    3    0    0 -0.22400271385E+02  0.36522608816E+01  0.19133026979E+02  0.29684741687E+02  0.00000000000E+00 0. -1.
</event>
<event>
 7    1  0.4489290E-013  0.5930189E+02  0.7816164E-02  0.1266605E+00
        -11   -1    0    0    0    0  0.00000000000E+00  0.00000000000E+00  0.45593999997E+02  0.45594000000E+02  0.51100000000E-03 0. -1.
         11   -1    0    0    0    0 -0.00000000000E+00 -0.00000000000E+00 -0.45593999997E+02  0.45594000000E+02  0.51100000000E-03 0.  1.
    9900012    2    1    2    0    0 -0.16624495714E+02 -0.25996345519E+02 -0.80336747035E+01  0.59301893820E+02  0.49999908433E+02 0.  0.
         12    1    1    2    0    0  0.16624495714E+02  0.25996345519E+02  0.80336747035E+01  0.31886106180E+02  0.00000000000E+00 0. -1.
         11    1    3    3    0    0 -0.35550806296E+00 -0.13871522279E+02 -0.21180663295E+02  0.25321256173E+02  0.51100000000E-03 0. -1.
        -11    1    3    3    0    0 -0.10981617793E+02 -0.18486213425E+02  0.44109666314E+01  0.21949775466E+02  0.51100000000E-03 0.  1.
         12    1    3    3    0    0 -0.52873698584E+01  0.63613901849E+01  0.87360219605E+01  0.12030862180E+02  0.00000000000E+00 0. -1.
</event>
<event>
 7    1  0.4489290E-013  0.5930197E+02  0.7816164E-02  0.1266605E+00
        -11   -1    0    0    0    0  0.00000000000E+00  0.00000000000E+00  0.45593999997E+02  0.45594000000E+02  0.51100000000E-03 0. -1.
         11   -1    0    0    0    0 -0.00000000000E+00 -0.00000000000E+00 -0.45593999997E+02  0.45594000000E+02  0.51100000000E-03 0.  1.
    9900012    2    1    2    0    0 -0.14390295433E+02 -0.99566880089E+01 -0.26655257522E+02  0.59301968696E+02  0.50000044990E+02 0.  0.
         12    1    1    2    0    0  0.14390295433E+02  0.99566880089E+01  0.26655257522E+02  0.31886031304E+02  0.00000000000E+00 0. -1.
         11    1    3    3    0    0  0.59381430580E+01 -0.31967380756E+01 -0.24450750382E+02  0.25363751139E+02  0.51100000000E-03 0. -1.
        -11    1    3    3    0    0 -0.12931563639E+02 -0.13967239610E+02  0.68239260396E+01  0.20220659913E+02  0.51100000000E-03 0.  1.
        -12    1    3    3    0    0 -0.73968748519E+01  0.72072896770E+01 -0.90284331790E+01  0.13717557645E+02  0.00000000000E+00 0.  1.
</event>
<event>
 7    1  0.4489290E-013  0.5930196E+02  0.7816164E-02  0.1266605E+00
        -11   -1    0    0    0    0  0.00000000000E+00  0.00000000000E+00  0.45593999997E+02  0.45594000000E+02  0.51100000000E-03 0.  1.
         11   -1    0    0    0    0 -0.00000000000E+00 -0.00000000000E+00 -0.45593999997E+02  0.45594000000E+02  0.51100000000E-03 0. -1.
    9900012    2    1    2    0    0 -0.55392725759E+01  0.28854667466E+02 -0.12387254493E+02  0.59301961533E+02  0.50000031926E+02 0.  0.
         12    1    1    2    0    0  0.55392725759E+01 -0.28854667466E+02  0.12387254493E+02  0.31886038467E+02  0.00000000000E+00 0. -1.
         11    1    3    3    0    0 -0.36721060950E+01  0.25259670550E+02 -0.77633558345E+01  0.26679674165E+02  0.51100000000E-03 0. -1.
        -11    1    3    3    0    0  0.13282566183E+02 -0.49610906395E+01  0.13103519367E+01  0.14239241806E+02  0.51100000000E-03 0.  1.
         12    1    3    3    0    0 -0.15149732664E+02  0.85560875551E+01 -0.59342505953E+01  0.18383045563E+02  0.00000000000E+00 0. -1.
</event>
<event>
 7    1  0.4489290E-013  0.5930203E+02  0.7816164E-02  0.1266604E+00
        -11   -1    0    0    0    0  0.00000000000E+00  0.00000000000E+00  0.45593999997E+02  0.45594000000E+02  0.51100000000E-03 0.  1.
         11   -1    0    0    0    0 -0.00000000000E+00 -0.00000000000E+00 -0.45593999997E+02  0.45594000000E+02  0.51100000000E-03 0. -1.
    9900012    2    1    2    0    0  0.19510455693E+02 -0.10734607327E-02  0.25220175200E+02  0.59302029423E+02  0.50000155740E+02 0.  0.
         12    1    1    2    0    0 -0.19510455693E+02  0.10734607327E-02 -0.25220175200E+02  0.31885970577E+02  0.00000000000E+00 0. -1.
         11    1    3    3    0    0  0.25074686637E+02  0.79694222511E+00  0.10087091300E+02  0.27039312824E+02  0.51100000000E-03 0. -1.
        -11    1    3    3    0    0 -0.76001229293E+01 -0.13420160180E+02  0.59926252420E+01  0.16546121157E+02  0.51100000000E-03 0.  1.
         12    1    3    3    0    0  0.20358919854E+01  0.12622144494E+02  0.91404586581E+01  0.15716595442E+02  0.00000000000E+00 0. -1.
</event>
<event>
 7    1  0.4489290E-013  0.5930193E+02  0.7816164E-02  0.1266605E+00
        -11   -1    0    0    0    0  0.00000000000E+00  0.00000000000E+00  0.45593999997E+02  0.45594000000E+02  0.51100000000E-03 0.  1.
         11   -1    0    0    0    0 -0.00000000000E+00 -0.00000000000E+00 -0.45593999997E+02  0.45594000000E+02  0.51100000000E-03 0. -1.
    9900012    2    1    2    0    0  0.17964682118E+02 -0.19715166877E+02  0.17472951349E+02  0.59301927218E+02  0.49999969344E+02 0.  0.
         12    1    1    2    0    0 -0.17964682118E+02  0.19715166877E+02 -0.17472951349E+02  0.31886072782E+02  0.00000000000E+00 0. -1.
         11    1    3    3    0    0 -0.96801295127E+01  0.33278735518E+01  0.15092608168E+02  0.18236405110E+02  0.51100000000E-03 0. -1.
        -11    1    3    3    0    0  0.25349653347E+02 -0.20843886548E+02  0.87340026733E+01  0.33961085587E+02  0.51100000000E-03 0.  1.
         12    1    3    3    0    0  0.22951582831E+01 -0.21991538812E+01 -0.63536594928E+01  0.71044365215E+01  0.00000000000E+00 0. -1.
</event>
<event>
 7    1  0.4489290E-013  0.5930196E+02  0.7816164E-02  0.1266605E+00
        -11   -1    0    0    0    0  0.00000000000E+00  0.00000000000E+00  0.45593999997E+02  0.45594000000E+02  0.51100000000E-03 0. -1.
         11   -1    0    0    0    0 -0.00000000000E+00 -0.00000000000E+00 -0.45593999997E+02  0.45594000000E+02  0.51100000000E-03 0.  1.
    9900012    2    1    2    0    0 -0.27884604724E+02  0.80523066164E+01 -0.13203357743E+02  0.59301961078E+02  0.50000031095E+02 0.  0.
         12    1    1    2    0    0  0.27884604724E+02 -0.80523066164E+01  0.13203357743E+02  0.31886038922E+02  0.00000000000E+00 0. -1.
         11    1    3    3    0    0 -0.21999594940E+02 -0.18076277866E+02 -0.13739139047E+02  0.31614837355E+02  0.51100000000E-03 0. -1.
        -11    1    3    3    0    0 -0.11872229299E+01  0.15548211464E+02 -0.23162411064E+01  0.15764559972E+02  0.51100000000E-03 0.  1.
         12    1    3    3    0    0 -0.46977868546E+01  0.10580373019E+02  0.28520224105E+01  0.11922563750E+02  0.00000000000E+00 0. -1.
</event>
<event>
 7    1  0.4489290E-013  0.5930195E+02  0.7816164E-02  0.1266605E+00
        -11   -1    0    0    0    0  0.00000000000E+00  0.00000000000E+00  0.45593999997E+02  0.45594000000E+02  0.51100000000E-03 0.  1.
         11   -1    0    0    0    0 -0.00000000000E+00 -0.00000000000E+00 -0.45593999997E+02  0.45594000000E+02  0.51100000000E-03 0. -1.
    9900012    2    1    2    0    0  0.29422012665E+02 -0.45456155233E+01 -0.11419404092E+02  0.59301949139E+02  0.50000009321E+02 0.  0.
         12    1    1    2    0    0 -0.29422012665E+02  0.45456155233E+01  0.11419404092E+02  0.31886050861E+02  0.00000000000E+00 0. -1.
         11    1    3    3    0    0  0.40095025728E+01  0.11922483440E+02 -0.40161765606E+01  0.13204218898E+02  0.51100000000E-03 0. -1.
        -11    1    3    3    0    0  0.26626234450E+02 -0.25155636031E+02 -0.47714875761E+01  0.36939538154E+02  0.51100000000E-03 0.  1.
        -12    1    3    3    0    0 -0.12137243579E+01  0.86875370672E+01 -0.26317399550E+01  0.91581920870E+01  0.00000000000E+00 0.  1.
</event>
<event>
 7    1  0.4489290E-013  0.5930194E+02  0.7816164E-02  0.1266605E+00
        -11   -1    0    0    0    0  0.00000000000E+00  0.00000000000E+00  0.45593999997E+02  0.45594000000E+02  0.51100000000E-03 0.  1.
         11   -1    0    0    0    0 -0.00000000000E+00 -0.00000000000E+00 -0.45593999997E+02  0.45594000000E+02  0.51100000000E-03 0. -1.
    9900012    2    1    2    0    0  0.24878281259E+01 -0.93121671172E+01  0.30394323433E+02  0.59301942825E+02  0.49999997807E+02 0.  0.
         12    1    1    2    0    0 -0.24878281259E+01  0.93121671172E+01 -0.30394323433E+02  0.31886057175E+02  0.00000000000E+00 0. -1.
         11    1    3    3    0    0 -0.15550037433E+02  0.45478525746E+01  0.21818464627E+02  0.27175945727E+02  0.51100000000E-03 0. -1.
        -11    1    3    3    0    0  0.93426918220E+01 -0.17323845366E+02  0.10876381756E+02  0.22487711958E+02  0.51100000000E-03 0.  1.
         12    1    3    3    0    0  0.86951737366E+01  0.34638256745E+01 -0.23005229495E+01  0.96382851407E+01  0.00000000000E+00 0. -1.
</event>
<event>
 7    1  0.4489290E-013  0.5930194E+02  0.7816164E-02  0.1266605E+00
        -11   -1    0    0    0    0  0.00000000000E+00  0.00000000000E+00  0.45593999997E+02  0.45594000000E+02  0.51100000000E-03 0.  1.
         11   -1    0    0    0    0 -0.00000000000E+00 -0.00000000000E+00 -0.45593999997E+02  0.45594000000E+02  0.51100000000E-03 0. -1.
    9900012    2    1    2    0    0 -0.11584134154E+02  0.23535975035E+02  0.18126955716E+02  0.59301940217E+02  0.49999993051E+02 0.  0.
         12    1    1    2    0    0  0.11584134154E+02 -0.23535975035E+02 -0.18126955716E+02  0.31886059783E+02  0.00000000000E+00 0. -1.
         11    1    3    3    0    0  0.13863653226E+02  0.68809060324E+01 -0.53973064751E+01  0.16391420501E+02  0.51100000000E-03 0. -1.
        -11    1    3    3    0    0 -0.28590414494E+01  0.11116314600E+02  0.13118163113E+02  0.17430799523E+02  0.51100000000E-03 0.  1.
         12    1    3    3    0    0 -0.22588745931E+02  0.55387544025E+01  0.10406099078E+02  0.25479720193E+02  0.00000000000E+00 0. -1.
</event>
<event>
 7    1  0.4489290E-013  0.5930194E+02  0.7816164E-02  0.1266605E+00
        -11   -1    0    0    0    0  0.00000000000E+00  0.00000000000E+00  0.45593999997E+02  0.45594000000E+02  0.51100000000E-03 0.  1.
         11   -1    0    0    0    0 -0.00000000000E+00 -0.00000000000E+00 -0.45593999997E+02  0.45594000000E+02  0.51100000000E-03 0. -1.
    9900012    2    1    2    0    0  0.19012627982E+02  0.63370368940E+01  0.24800865972E+02  0.59301937020E+02  0.49999987220E+02 0.  0.
         12    1    1    2    0    0 -0.19012627982E+02 -0.63370368940E+01 -0.24800865972E+02  0.31886062980E+02  0.00000000000E+00 0. -1.
         11    1    3    3    0    0  0.26004502927E+02 -0.14874802500E+02  0.85907397254E+01  0.31165601730E+02  0.51100000000E-03 0. -1.
        -11    1    3    3    0    0 -0.43188431042E+00  0.22221500235E+01  0.40846640733E+01  0.46700059569E+01  0.51100000000E-03 0.  1.
         12    1    3    3    0    0 -0.65599906341E+01  0.18989689370E+02  0.12125462173E+02  0.23466329334E+02  0.00000000000E+00 0. -1.
</event>
<event>
 7    1  0.4489290E-013  0.5930194E+02  0.7816164E-02  0.1266605E+00
        -11   -1    0    0    0    0  0.00000000000E+00  0.00000000000E+00  0.45593999997E+02  0.45594000000E+02  0.51100000000E-03 0.  1.
         11   -1    0    0    0    0 -0.00000000000E+00 -0.00000000000E+00 -0.45593999997E+02  0.45594000000E+02  0.51100000000E-03 0. -1.
    9900012    2    1    2    0    0  0.37480708326E+01  0.28202054940E+01  0.31539173383E+02  0.59301936403E+02  0.49999986095E+02 0.  0.
         12    1    1    2    0    0 -0.37480708326E+01 -0.28202054940E+01 -0.31539173383E+02  0.31886063597E+02  0.00000000000E+00 0. -1.
         11    1    3    3    0    0  0.25030438758E+01 -0.20623740196E+02  0.57083661354E+01  0.21545053551E+02  0.51100000000E-03 0. -1.
        -11    1    3    3    0    0  0.31415405182E+01  0.34809631739E+01  0.13320355043E+02  0.14121552329E+02  0.51100000000E-03 0.  1.
         12    1    3    3    0    0 -0.18965135614E+01  0.19962982516E+02  0.12510452205E+02  0.23635330524E+02  0.00000000000E+00 0. -1.
</event>
<event>
 7    1  0.4489290E-013  0.5930199E+02  0.7816164E-02  0.1266605E+00
        -11   -1    0    0    0    0  0.00000000000E+00  0.00000000000E+00  0.45593999997E+02  0.45594000000E+02  0.51100000000E-03 0. -1.
         11   -1    0    0    0    0 -0.00000000000E+00 -0.00000000000E+00 -0.45593999997E+02  0.45594000000E+02  0.51100000000E-03 0.  1.
    9900012    2    1    2    0    0 -0.34223081900E+01 -0.53219500878E+01 -0.31251916858E+02  0.59301989692E+02  0.50000083281E+02 0.  0.
         12    1    1    2    0    0  0.34223081900E+01  0.53219500878E+01  0.31251916858E+02  0.31886010308E+02  0.00000000000E+00 0. -1.
         11    1    3    3    0    0 -0.18378564796E+02 -0.12016454239E+01 -0.22371486785E+02  0.28977560575E+02  0.51100000000E-03 0.  1.
        -11    1    3    3    0    0  0.30881486854E+01  0.89908281055E+01  0.17848502001E+01  0.96725044753E+01  0.51100000000E-03 0. -1.
         12    1    3    3    0    0  0.11868107920E+02 -0.13111132769E+02 -0.10665280273E+02  0.20651924642E+02  0.00000000000E+00 0. -1.
</event>
<event>
 7    1  0.4489290E-013  0.5930222E+02  0.7816164E-02  0.1266604E+00
        -11   -1    0    0    0    0  0.00000000000E+00  0.00000000000E+00  0.45593999997E+02  0.45594000000E+02  0.51100000000E-03 0. -1.
         11   -1    0    0    0    0 -0.00000000000E+00 -0.00000000000E+00 -0.45593999997E+02  0.45594000000E+02  0.51100000000E-03 0.  1.
    9900012    2    1    2    0    0 -0.30006582838E+02 -0.10066406650E+02 -0.38697712649E+01  0.59302224392E+02  0.50000511315E+02 0.  0.
         12    1    1    2    0    0  0.30006582838E+02  0.10066406650E+02  0.38697712649E+01  0.31885775608E+02  0.00000000000E+00 0. -1.
         11    1    3    3    0    0 -0.48852967456E+01  0.52190658763E+01  0.16308086456E+02  0.17806135376E+02  0.51100000000E-03 0. -1.
        -11    1    3    3    0    0 -0.16948502000E+02 -0.11785840596E+02 -0.24139551498E+02  0.31762803802E+02  0.51100000000E-03 0.  1.
         12    1    3    3    0    0 -0.81727840926E+01 -0.34996319304E+01  0.39616937778E+01  0.97332852142E+01  0.00000000000E+00 0. -1.
</event>
<event>
 7    1  0.4489290E-013  0.5930198E+02  0.7816164E-02  0.1266605E+00
        -11   -1    0    0    0    0  0.00000000000E+00  0.00000000000E+00  0.45593999997E+02  0.45594000000E+02  0.51100000000E-03 0.  1.
         11   -1    0    0    0    0 -0.00000000000E+00 -0.00000000000E+00 -0.45593999997E+02  0.45594000000E+02  0.51100000000E-03 0. -1.
    9900012    2    1    2    0    0 -0.90220617142E+01 -0.28307156176E+02  0.11576950171E+02  0.59301976987E+02  0.50000060110E+02 0.  0.
         12    1    1    2    0    0  0.90220617142E+01  0.28307156176E+02 -0.11576950171E+02  0.31886023013E+02  0.00000000000E+00 0. -1.
         11    1    3    3    0    0 -0.94771151071E+01 -0.11742888726E+02  0.91687891557E+01  0.17657231981E+02  0.51100000000E-03 0. -1.
        -11    1    3    3    0    0  0.11167262370E+02  0.83037135143E+01  0.41211091484E+01  0.14513543601E+02  0.51100000000E-03 0.  1.
        -12    1    3    3    0    0 -0.10712208977E+02 -0.24867980964E+02 -0.17129481333E+01  0.27131201405E+02  0.00000000000E+00 0.  1.
</event>
<event>
 7    1  0.4489290E-013  0.5930194E+02  0.7816164E-02  0.1266605E+00
        -11   -1    0    0    0    0  0.00000000000E+00  0.00000000000E+00  0.45593999997E+02  0.45594000000E+02  0.51100000000E-03 0. -1.
         11   -1    0    0    0    0 -0.00000000000E+00 -0.00000000000E+00 -0.45593999997E+02  0.45594000000E+02  0.51100000000E-03 0.  1.
    9900012    2    1    2    0    0 -0.10834886841E+02 -0.29983604072E+02 -0.55650550742E+00  0.59301937458E+02  0.49999988019E+02 0.  0.
         12    1    1    2    0    0  0.10834886841E+02  0.29983604072E+02  0.55650550742E+00  0.31886062542E+02  0.00000000000E+00 0. -1.
         11    1    3    3    0    0  0.10985638399E+01 -0.24692799504E+02  0.93015723784E+01  0.26409476307E+02  0.51100000000E-03 0.  1.
        -11    1    3    3    0    0 -0.41966906740E+01  0.11259653539E+02  0.23842134331E+00  0.12018687758E+02  0.51100000000E-03 0. -1.
        -12    1    3    3    0    0 -0.77367600071E+01 -0.16550458108E+02 -0.10096499229E+02  0.20873773393E+02  0.00000000000E+00 0.  1.
</event>
<event>
 7    1  0.4489290E-013  0.5930193E+02  0.7816164E-02  0.1266605E+00
        -11   -1    0    0    0    0  0.00000000000E+00  0.00000000000E+00  0.45593999997E+02  0.45594000000E+02  0.51100000000E-03 0.  1.
         11   -1    0    0    0    0 -0.00000000000E+00 -0.00000000000E+00 -0.45593999997E+02  0.45594000000E+02  0.51100000000E-03 0. -1.
    9900012    2    1    2    0    0  0.93133155781E+01 -0.25700439436E+02  0.16415574118E+02  0.59301929250E+02  0.49999973048E+02 0.  0.
         12    1    1    2    0    0 -0.93133155781E+01  0.25700439436E+02 -0.16415574118E+02  0.31886070750E+02  0.00000000000E+00 0. -1.
         11    1    3    3    0    0 -0.13339594107E+02  0.27297201415E+01 -0.42206588275E+00  0.13622565208E+02  0.51100000000E-03 0. -1.
        -11    1    3    3    0    0  0.32221642628E+01 -0.19438079793E+02  0.13797762079E+02  0.24054095852E+02  0.51100000000E-03 0.  1.
         12    1    3    3    0    0  0.19430745422E+02 -0.89920797844E+01  0.30398779219E+01  0.21625268190E+02  0.00000000000E+00 0. -1.
</event>
<event>
 7    1  0.4489290E-013  0.5930197E+02  0.7816164E-02  0.1266605E+00
        -11   -1    0    0    0    0  0.00000000000E+00  0.00000000000E+00  0.45593999997E+02  0.45594000000E+02  0.51100000000E-03 0.  1.
         11   -1    0    0    0    0 -0.00000000000E+00 -0.00000000000E+00 -0.45593999997E+02  0.45594000000E+02  0.51100000000E-03 0. -1.
    9900012    2    1    2    0    0 -0.12035160305E+02  0.25523204277E+02  0.14847215514E+02  0.59301970949E+02  0.50000049099E+02 0.  0.
         12    1    1    2    0    0  0.12035160305E+02 -0.25523204277E+02 -0.14847215514E+02  0.31886029051E+02  0.00000000000E+00 0. -1.
         11    1    3    3    0    0 -0.54657872820E+01 -0.77490406280E+01  0.99576865439E+01  0.13750563001E+02  0.51100000000E-03 0. -1.
        -11    1    3    3    0    0 -0.14553520591E+02  0.24974281163E+02  0.12767142772E+02  0.31599361007E+02  0.51100000000E-03 0.  1.
         12    1    3    3    0    0  0.79841475683E+01  0.82979637417E+01 -0.78776138025E+01  0.13952046942E+02  0.00000000000E+00 0. -1.
</event>
<event>
 7    1  0.4489290E-013  0.5930189E+02  0.7816164E-02  0.1266605E+00
        -11   -1    0    0    0    0  0.00000000000E+00  0.00000000000E+00  0.45593999997E+02  0.45594000000E+02  0.51100000000E-03 0. -1.
         11   -1    0    0    0    0 -0.00000000000E+00 -0.00000000000E+00 -0.45593999997E+02  0.45594000000E+02  0.51100000000E-03 0.  1.
    9900012    2    1    2    0    0 -0.11827853478E+02  0.27675029332E+02 -0.10531788899E+02  0.59301891052E+02  0.49999903386E+02 0.  0.
         12    1    1    2    0    0  0.11827853478E+02 -0.27675029332E+02  0.10531788899E+02  0.31886108948E+02  0.00000000000E+00 0. -1.
         11    1    3    3    0    0  0.84510736885E+01 -0.60105207154E+01  0.50380653234E+01  0.11529488637E+02  0.51100000000E-03 0. -1.
        -11    1    3    3    0    0 -0.58391475782E+01  0.72548923498E+01 -0.14991903903E+02  0.17648974201E+02  0.51100000000E-03 0.  1.
         12    1    3    3    0    0 -0.14439779588E+02  0.26430657697E+02 -0.57795031944E+00  0.30123428215E+02  0.00000000000E+00 0. -1.
</event>
<event>
 7    1  0.4489290E-013  0.5930213E+02  0.7816164E-02  0.1266604E+00
        -11   -1    0    0    0    0  0.00000000000E+00  0.00000000000E+00  0.45593999997E+02  0.45594000000E+02  0.51100000000E-03 0.  1.
         11   -1    0    0    0    0 -0.00000000000E+00 -0.00000000000E+00 -0.45593999997E+02  0.45594000000E+02  0.51100000000E-03 0. -1.
    9900012    2    1    2    0    0  0.28221437298E+02 -0.36602391228E+01  0.14382700161E+02  0.59302126364E+02  0.50000332537E+02 0.  0.
         12    1    1    2    0    0 -0.28221437298E+02  0.36602391228E+01 -0.14382700161E+02  0.31885873636E+02  0.00000000000E+00 0. -1.
         11    1    3    3    0    0  0.14282746788E+02 -0.87879314680E+01 -0.17066220348E+01  0.16856368361E+02  0.51100000000E-03 0. -1.
        -11    1    3    3    0    0 -0.84346052966E+01  0.73519374170E+00  0.17666865275E+02  0.19590844934E+02  0.51100000000E-03 0.  1.
        -12    1    3    3    0    0  0.22373295806E+02  0.43924986035E+01 -0.15775430784E+01  0.22854913069E+02  0.00000000000E+00 0.  1.
</event>
<event>
 7    1  0.4489290E-013  0.5930198E+02  0.7816164E-02  0.1266605E+00
        -11   -1    0    0    0    0  0.00000000000E+00  0.00000000000E+00  0.45593999997E+02  0.45594000000E+02  0.51100000000E-03 0.  1.
         11   -1    0    0    0    0 -0.00000000000E+00 -0.00000000000E+00 -0.45593999997E+02  0.45594000000E+02  0.51100000000E-03 0. -1.
    9900012    2    1    2    0    0 -0.36609172606E+01  0.26080940497E+02  0.17975000826E+02  0.59301977559E+02  0.50000061153E+02 0.  0.
         12    1    1    2    0    0  0.36609172606E+01 -0.26080940497E+02 -0.17975000826E+02  0.31886022441E+02  0.00000000000E+00 0. -1.
         11    1    3    3    0    0 -0.15428621513E+02 -0.48451937766E+01 -0.22953971593E+01  0.16333619100E+02  0.51100000000E-03 0. -1.
        -11    1    3    3    0    0  0.11331767727E+02  0.26399353414E+02  0.79097167147E+01  0.29797624725E+02  0.51100000000E-03 0.  1.
        -12    1    3    3    0    0  0.43593652569E+00  0.45267808599E+01  0.12360681271E+02  0.13170733734E+02  0.00000000000E+00 0.  1.
</event>
<event>
 7    1  0.4489290E-013  0.5930192E+02  0.7816164E-02  0.1266605E+00
        -11   -1    0    0    0    0  0.00000000000E+00  0.00000000000E+00  0.45593999997E+02  0.45594000000E+02  0.51100000000E-03 0. -1.
         11   -1    0    0    0    0 -0.00000000000E+00 -0.00000000000E+00 -0.45593999997E+02  0.45594000000E+02  0.51100000000E-03 0.  1.
    9900012    2    1    2    0    0  0.28965556144E+02 -0.64837579018E+00 -0.13315330815E+02  0.59301923593E+02  0.49999962733E+02 0.  0.
         12    1    1    2    0    0 -0.28965556144E+02  0.64837579018E+00  0.13315330815E+02  0.31886076407E+02  0.00000000000E+00 0. -1.
         11    1    3    3    0    0  0.91082184280E+01 -0.18680003924E+02 -0.14898018508E+02  0.25570552307E+02  0.51100000000E-03 0.  1.
        -11    1    3    3    0    0  0.10267210898E+02  0.18889262890E+02 -0.49934064135E+01  0.22071564966E+02  0.51100000000E-03 0. -1.
         12    1    3    3    0    0  0.95901268180E+01 -0.85763475589E+00  0.65760941058E+01  0.11659806321E+02  0.00000000000E+00 0. -1.
</event>
<event>
 7    1  0.4489290E-013  0.5930195E+02  0.7816164E-02  0.1266605E+00
        -11   -1    0    0    0    0  0.00000000000E+00  0.00000000000E+00  0.45593999997E+02  0.45594000000E+02  0.51100000000E-03 0. -1.
         11   -1    0    0    0    0 -0.00000000000E+00 -0.00000000000E+00 -0.45593999997E+02  0.45594000000E+02  0.51100000000E-03 0.  1.
    9900012    2    1    2    0    0  0.54112839680E+01 -0.27066071011E+01 -0.31306752257E+02  0.59301945790E+02  0.50000003215E+02 0.  0.
         12    1    1    2    0    0 -0.54112839680E+01  0.27066071011E+01  0.31306752257E+02  0.31886054210E+02  0.00000000000E+00 0. -1.
         11    1    3    3    0    0 -0.12403807242E+02  0.13364749837E+02 -0.27298894639E+01  0.18437008137E+02  0.51100000000E-03 0. -1.
        -11    1    3    3    0    0  0.90347704581E+01 -0.16280803427E+02 -0.25467121965E+02  0.31547835725E+02  0.51100000000E-03 0.  1.
         12    1    3    3    0    0  0.87803207517E+01  0.20944648960E+00 -0.31097408277E+01  0.93171019287E+01  0.00000000000E+00 0. -1.
</event>
<event>
 7    1  0.4489290E-013  0.5930195E+02  0.7816164E-02  0.1266605E+00
        -11   -1    0    0    0    0  0.00000000000E+00  0.00000000000E+00  0.45593999997E+02  0.45594000000E+02  0.51100000000E-03 0. -1.
         11   -1    0    0    0    0 -0.00000000000E+00 -0.00000000000E+00 -0.45593999997E+02  0.45594000000E+02  0.51100000000E-03 0.  1.
    9900012    2    1    2    0    0 -0.24148629125E+02 -0.10178860143E+02 -0.18164657684E+02  0.59301948641E+02  0.50000008414E+02 0.  0.
         12    1    1    2    0    0  0.24148629125E+02  0.10178860143E+02  0.18164657684E+02  0.31886051359E+02  0.00000000000E+00 0. -1.
         11    1    3    3    0    0 -0.36201617118E+02  0.15578981204E+01 -0.17049690795E+02  0.40045924699E+02  0.51100000000E-03 0. -1.
        -11    1    3    3    0    0  0.19995446992E+01  0.13032794208E+01 -0.14395121049E+01  0.27872767380E+01  0.51100000000E-03 0.  1.
         12    1    3    3    0    0  0.10053443294E+02 -0.13040037685E+02  0.32454521550E+00  0.16468747204E+02  0.00000000000E+00 0. -1.
</event>
<event>
 7    1  0.4489290E-013  0.5930187E+02  0.7816164E-02  0.1266605E+00
        -11   -1    0    0    0    0  0.00000000000E+00  0.00000000000E+00  0.45593999997E+02  0.45594000000E+02  0.51100000000E-03 0.  1.
         11   -1    0    0    0    0 -0.00000000000E+00 -0.00000000000E+00 -0.45593999997E+02  0.45594000000E+02  0.51100000000E-03 0. -1.
    9900012    2    1    2    0    0  0.96256677184E+01  0.29042110039E+02 -0.89792858260E+01  0.59301871221E+02  0.49999867218E+02 0.  0.
         12    1    1    2    0    0 -0.96256677184E+01 -0.29042110039E+02  0.89792858260E+01  0.31886128779E+02  0.00000000000E+00 0. -1.
         11    1    3    3    0    0  0.12769309116E+02 -0.23326650552E+01  0.10037785306E+02  0.16408952303E+02  0.51100000000E-03 0. -1.
        -11    1    3    3    0    0 -0.10366530505E+02  0.26859192145E+02 -0.18774986983E+02  0.34371227704E+02  0.51100000000E-03 0.  1.
        -12    1    3    3    0    0  0.72228891067E+01  0.45155829494E+01 -0.24208414937E+00  0.85216912145E+01  0.00000000000E+00 0.  1.
</event>
<event>
 7    1  0.4489290E-013  0.5930195E+02  0.7816164E-02  0.1266605E+00
        -11   -1    0    0    0    0  0.00000000000E+00  0.00000000000E+00  0.45593999997E+02  0.45594000000E+02  0.51100000000E-03 0.  1.
         11   -1    0    0    0    0 -0.00000000000E+00 -0.00000000000E+00 -0.45593999997E+02  0.45594000000E+02  0.51100000000E-03 0. -1.
    9900012    2    1    2    0    0  0.18942397267E+02 -0.23920188349E+02  0.92590798670E+01  0.59301946860E+02  0.50000005165E+02 0.  0.
         12    1    1    2    0    0 -0.18942397267E+02  0.23920188349E+02 -0.92590798670E+01  0.31886053140E+02  0.00000000000E+00 0. -1.
         11    1    3    3    0    0  0.52735913530E+00 -0.58760248496E+01 -0.34400104108E+01  0.68293079868E+01  0.51100000000E-03 0. -1.
        -11    1    3    3    0    0  0.26810701269E+02 -0.12903403195E+02  0.23458222865E+02  0.37889309004E+02  0.51100000000E-03 0.  1.
        -12    1    3    3    0    0 -0.83956631374E+01 -0.51407603047E+01 -0.10759132587E+02  0.14583329869E+02  0.00000000000E+00 0.  1.
</event>
<event>
 7    1  0.4489290E-013  0.5930192E+02  0.7816164E-02  0.1266605E+00
        -11   -1    0    0    0    0  0.00000000000E+00  0.00000000000E+00  0.45593999997E+02  0.45594000000E+02  0.51100000000E-03 0.  1.
         11   -1    0    0    0    0 -0.00000000000E+00 -0.00000000000E+00 -0.45593999997E+02  0.45594000000E+02  0.51100000000E-03 0. -1.
    9900012    2    1    2    0    0  0.80084552515E+01 -0.58449580572E+01  0.30305495902E+02  0.59301921971E+02  0.49999959773E+02 0.  0.
         12    1    1    2    0    0 -0.80084552515E+01  0.58449580572E+01 -0.30305495902E+02  0.31886078029E+02  0.00000000000E+00 0. -1.
         11    1    3    3    0    0  0.14606459753E+00  0.10705952417E+02 -0.63568912393E+01  0.12451860042E+02  0.51100000000E-03 0. -1.
        -11    1    3    3    0    0  0.36784561461E+01 -0.21995967934E+02  0.27970620026E+02  0.35773023773E+02  0.51100000000E-03 0.  1.
        -12    1    3    3    0    0  0.41839345079E+01  0.54450574601E+01  0.86917671159E+01  0.11077038156E+02  0.00000000000E+00 0.  1.
</event>
<event>
 7    1  0.4489290E-013  0.5930193E+02  0.7816164E-02  0.1266605E+00
        -11   -1    0    0    0    0  0.00000000000E+00  0.00000000000E+00  0.45593999997E+02  0.45594000000E+02  0.51100000000E-03 0.  1.
         11   -1    0    0    0    0 -0.00000000000E+00 -0.00000000000E+00 -0.45593999997E+02  0.45594000000E+02  0.51100000000E-03 0. -1.
    9900012    2    1    2    0    0 -0.16496398867E+02 -0.45770295957E+01  0.26900575113E+02  0.59301932245E+02  0.49999978511E+02 0.  0.
         12    1    1    2    0    0  0.16496398867E+02  0.45770295957E+01 -0.26900575113E+02  0.31886067755E+02  0.00000000000E+00 0. -1.
         11    1    3    3    0    0 -0.14064709457E+02 -0.46126989799E+01 -0.35158880315E+01  0.15213629183E+02  0.51100000000E-03 0. -1.
        -11    1    3    3    0    0 -0.96194439989E+01 -0.59716720503E+01  0.32565271980E+02  0.34477405780E+02  0.51100000000E-03 0.  1.
        -12    1    3    3    0    0  0.71877545895E+01  0.60073414345E+01 -0.21488088359E+01  0.96108972819E+01  0.00000000000E+00 0.  1.
</event>
<event>
 7    1  0.4489290E-013  0.5930196E+02  0.7816164E-02  0.1266605E+00
        -11   -1    0    0    0    0  0.00000000000E+00  0.00000000000E+00  0.45593999997E+02  0.45594000000E+02  0.51100000000E-03 0.  1.
         11   -1    0    0    0    0 -0.00000000000E+00 -0.00000000000E+00 -0.45593999997E+02  0.45594000000E+02  0.51100000000E-03 0. -1.
    9900012    2    1    2    0    0 -0.23481824217E+02  0.10203622923E+02  0.19005521287E+02  0.59301955580E+02  0.50000021069E+02 0.  0.
         12    1    1    2    0    0  0.23481824217E+02 -0.10203622923E+02 -0.19005521287E+02  0.31886044420E+02  0.00000000000E+00 0. -1.
         11    1    3    3    0    0  0.48017060321E+01 -0.58219434389E+00 -0.74422729639E+01  0.88759651984E+01  0.51100000000E-03 0. -1.
        -11    1    3    3    0    0 -0.11124817220E+02 -0.18265147037E+01  0.26856424598E+02  0.29126710364E+02  0.51100000000E-03 0.  1.
         12    1    3    3    0    0 -0.17158713029E+02  0.12612331971E+02 -0.40863034694E+00  0.21299280018E+02  0.00000000000E+00 0. -1.
</event>
<event>
 7    1  0.4489290E-013  0.5930194E+02  0.7816164E-02  0.1266605E+00
        -11   -1    0    0    0    0  0.00000000000E+00  0.00000000000E+00  0.45593999997E+02  0.45594000000E+02  0.51100000000E-03 0.  1.
         11   -1    0    0    0    0 -0.00000000000E+00 -0.00000000000E+00 -0.45593999997E+02  0.45594000000E+02  0.51100000000E-03 0. -1.
    9900012    2    1    2    0    0  0.28145012104E+02 -0.13467821478E+02 -0.65724177782E+01  0.59301943531E+02  0.49999999094E+02 0.  0.
         12    1    1    2    0    0 -0.28145012104E+02  0.13467821478E+02  0.65724177782E+01  0.31886056469E+02  0.00000000000E+00 0. -1.
         11    1    3    3    0    0 -0.46356287630E+01 -0.96208998059E+01 -0.91722499229E+01  0.14077675093E+02  0.51100000000E-03 0. -1.
        -11    1    3    3    0    0  0.22383524189E+02  0.67580876103E+01  0.13318630606E+02  0.26908731385E+02  0.51100000000E-03 0.  1.
        -12    1    3    3    0    0  0.10397116678E+02 -0.10605009283E+02 -0.10718798461E+02  0.18315537053E+02  0.00000000000E+00 0.  1.
</event>
<event>
 7    1  0.4489290E-013  0.5930196E+02  0.7816164E-02  0.1266605E+00
        -11   -1    0    0    0    0  0.00000000000E+00  0.00000000000E+00  0.45593999997E+02  0.45594000000E+02  0.51100000000E-03 0.  1.
         11   -1    0    0    0    0 -0.00000000000E+00 -0.00000000000E+00 -0.45593999997E+02  0.45594000000E+02  0.51100000000E-03 0. -1.
    9900012    2    1    2    0    0  0.91153625818E+01  0.19831642653E+02  0.23245117783E+02  0.59301962522E+02  0.50000033728E+02 0.  0.
         12    1    1    2    0    0 -0.91153625818E+01 -0.19831642653E+02 -0.23245117783E+02  0.31886037478E+02  0.00000000000E+00 0. -1.
         11    1    3    3    0    0 -0.10099016494E+02  0.21121940414E+02  0.15384339948E+02  0.28014360904E+02  0.51100000000E-03 0. -1.
        -11    1    3    3    0    0  0.13841676989E+02  0.22217099650E+00 -0.69282399182E+01  0.15480371134E+02  0.51100000000E-03 0.  1.
        -12    1    3    3    0    0  0.53727020864E+01 -0.15124687569E+01  0.14789017753E+02  0.15807230483E+02  0.00000000000E+00 0.  1.
</event>
<event>
 7    1  0.4489290E-013  0.5930193E+02  0.7816164E-02  0.1266605E+00
        -11   -1    0    0    0    0  0.00000000000E+00  0.00000000000E+00  0.45593999997E+02  0.45594000000E+02  0.51100000000E-03 0.  1.
         11   -1    0    0    0    0 -0.00000000000E+00 -0.00000000000E+00 -0.45593999997E+02  0.45594000000E+02  0.51100000000E-03 0. -1.
    9900012    2    1    2    0    0  0.31442194259E+02 -0.38092014221E+01  0.36877614202E+01  0.59301934398E+02  0.49999982437E+02 0.  0.
         12    1    1    2    0    0 -0.31442194259E+02  0.38092014221E+01 -0.36877614202E+01  0.31886065602E+02  0.00000000000E+00 0. -1.
         11    1    3    3    0    0  0.80709258091E+01  0.12576016930E+02 -0.16280818336E+02  0.22098893438E+02  0.51100000000E-03 0.  1.
        -11    1    3    3    0    0  0.13780248321E+02 -0.89573890433E+01  0.18867448017E+02  0.25022203284E+02  0.51100000000E-03 0. -1.
        -12    1    3    3    0    0  0.95910201289E+01 -0.74278293092E+01  0.11011317390E+01  0.12180837675E+02  0.00000000000E+00 0.  1.
</event>
<event>
 7    1  0.4489290E-013  0.5930201E+02  0.7816164E-02  0.1266605E+00
        -11   -1    0    0    0    0  0.00000000000E+00  0.00000000000E+00  0.45593999997E+02  0.45594000000E+02  0.51100000000E-03 0.  1.
         11   -1    0    0    0    0 -0.00000000000E+00 -0.00000000000E+00 -0.45593999997E+02  0.45594000000E+02  0.51100000000E-03 0. -1.
    9900012    2    1    2    0    0 -0.29129873618E+02  0.78372422457E+01  0.10331732939E+02  0.59302006076E+02  0.50000113161E+02 0.  0.
         12    1    1    2    0    0  0.29129873618E+02 -0.78372422457E+01 -0.10331732939E+02  0.31885993924E+02  0.00000000000E+00 0. -1.
         11    1    3    3    0    0 -0.11799866206E+02  0.16129976028E+02 -0.12748234335E+02  0.23705072201E+02  0.51100000000E-03 0. -1.
        -11    1    3    3    0    0 -0.16427925758E+02 -0.30514032860E+01  0.60739023902E+01  0.17778641603E+02  0.51100000000E-03 0.  1.
         12    1    3    3    0    0 -0.90208165440E+00 -0.52413304964E+01  0.17006064883E+02  0.17818292272E+02  0.00000000000E+00 0. -1.
</event>
<event>
 7    1  0.4489290E-013  0.5930199E+02  0.7816164E-02  0.1266605E+00
        -11   -1    0    0    0    0  0.00000000000E+00  0.00000000000E+00  0.45593999997E+02  0.45594000000E+02  0.51100000000E-03 0.  1.
         11   -1    0    0    0    0 -0.00000000000E+00 -0.00000000000E+00 -0.45593999997E+02  0.45594000000E+02  0.51100000000E-03 0. -1.
    9900012    2    1    2    0    0  0.23656908012E+02 -0.19201121935E+02  0.94013273129E+01  0.59301994677E+02  0.50000092372E+02 0.  0.
         12    1    1    2    0    0 -0.23656908012E+02  0.19201121935E+02 -0.94013273129E+01  0.31886005323E+02  0.00000000000E+00 0. -1.
         11    1    3    3    0    0  0.95724326661E+00 -0.83540111554E+00 -0.68266340757E+01  0.69438564761E+01  0.51100000000E-03 0. -1.
        -11    1    3    3    0    0  0.20878996400E+02  0.72531619442E+01  0.14868743411E+02  0.26638700789E+02  0.51100000000E-03 0.  1.
        -12    1    3    3    0    0  0.18206683450E+01 -0.25618882763E+02  0.13592179776E+01  0.25719437412E+02  0.00000000000E+00 0.  1.
</event>
<event>
 7    1  0.4489290E-013  0.5930194E+02  0.7816164E-02  0.1266605E+00
        -11   -1    0    0    0    0  0.00000000000E+00  0.00000000000E+00  0.45593999997E+02  0.45594000000E+02  0.51100000000E-03 0.  1.
         11   -1    0    0    0    0 -0.00000000000E+00 -0.00000000000E+00 -0.45593999997E+02  0.45594000000E+02  0.51100000000E-03 0. -1.
    9900012    2    1    2    0    0 -0.22306245040E+02 -0.22403346777E+02  0.41524161069E+01  0.59301936051E+02  0.49999985453E+02 0.  0.
         12    1    1    2    0    0  0.22306245040E+02  0.22403346777E+02 -0.41524161069E+01  0.31886063949E+02  0.00000000000E+00 0. -1.
         11    1    3    3    0    0 -0.22378391199E+02 -0.35804155001E+02 -0.59518384012E+00  0.42226581108E+02  0.51100000000E-03 0. -1.
        -11    1    3    3    0    0  0.29242259713E+00  0.43792949438E+01  0.65386525058E+01  0.78751325089E+01  0.51100000000E-03 0.  1.
         12    1    3    3    0    0 -0.22027643818E+00  0.90215132803E+01 -0.17910525588E+01  0.92002224345E+01  0.00000000000E+00 0. -1.
</event>
<event>
 7    1  0.4489290E-013  0.5930204E+02  0.7816164E-02  0.1266604E+00
        -11   -1    0    0    0    0  0.00000000000E+00  0.00000000000E+00  0.45593999997E+02  0.45594000000E+02  0.51100000000E-03 0.  1.
         11   -1    0    0    0    0 -0.00000000000E+00 -0.00000000000E+00 -0.45593999997E+02  0.45594000000E+02  0.51100000000E-03 0. -1.
    9900012    2    1    2    0    0 -0.27883961942E+02 -0.11560687739E+02  0.10273722439E+02  0.59302043729E+02  0.50000181831E+02 0.  0.
         12    1    1    2    0    0  0.27883961942E+02  0.11560687739E+02 -0.10273722439E+02  0.31885956271E+02  0.00000000000E+00 0. -1.
         11    1    3    3    0    0 -0.64881725021E+01  0.47712955381E+01 -0.14547619370E+02  0.16628134987E+02  0.51100000000E-03 0. -1.
        -11    1    3    3    0    0 -0.19321139292E+02 -0.16096838622E+02  0.89914954154E+01  0.26706958405E+02  0.51100000000E-03 0.  1.
         12    1    3    3    0    0 -0.20746501472E+01 -0.23514465475E+00  0.15829846394E+02  0.15966950338E+02  0.00000000000E+00 0. -1.
</event>
<event>
 7    1  0.4489290E-013  0.5930197E+02  0.7816164E-02  0.1266605E+00
        -11   -1    0    0    0    0  0.00000000000E+00  0.00000000000E+00  0.45593999997E+02  0.45594000000E+02  0.51100000000E-03 0.  1.
         11   -1    0    0    0    0 -0.00000000000E+00 -0.00000000000E+00 -0.45593999997E+02  0.45594000000E+02  0.51100000000E-03 0. -1.
    9900012    2    1    2    0    0 -0.28331259005E+02  0.14583857410E+02  0.11703282104E+01  0.59301971682E+02  0.50000050434E+02 0.  0.
         12    1    1    2    0    0  0.28331259005E+02 -0.14583857410E+02 -0.11703282104E+01  0.31886028318E+02  0.00000000000E+00 0. -1.
         11    1    3    3    0    0 -0.39218268106E+01 -0.38644345684E+01  0.60517702387E+00  0.55390269504E+01  0.51100000000E-03 0. -1.
        -11    1    3    3    0    0 -0.87695788357E+01  0.92762501608E+01  0.22155200624E+02  0.25569654768E+02  0.51100000000E-03 0.  1.
        -12    1    3    3    0    0 -0.15639853359E+02  0.91720418181E+01 -0.21590049438E+02  0.28193289963E+02  0.00000000000E+00 0.  1.
</event>
<event>
 7    1  0.4489290E-013  0.5930204E+02  0.7816164E-02  0.1266604E+00
        -11   -1    0    0    0    0  0.00000000000E+00  0.00000000000E+00  0.45593999997E+02  0.45594000000E+02  0.51100000000E-03 0. -1.
         11   -1    0    0    0    0 -0.00000000000E+00 -0.00000000000E+00 -0.45593999997E+02  0.45594000000E+02  0.51100000000E-03 0.  1.
    9900012    2    1    2    0    0  0.32098715956E+00 -0.10934128811E+02 -0.29950896163E+02  0.59302040918E+02  0.50000176704E+02 0.  0.
         12    1    1    2    0    0 -0.32098715956E+00  0.10934128811E+02  0.29950896163E+02  0.31885959082E+02  0.00000000000E+00 0. -1.
         11    1    3    3    0    0 -0.19925557402E+02 -0.67943055675E+01 -0.63846657970E+01  0.21998963238E+02  0.51100000000E-03 0. -1.
        -11    1    3    3    0    0  0.97714060133E+01 -0.86254961289E+01 -0.23836161825E+01  0.13249950389E+02  0.51100000000E-03 0.  1.
         12    1    3    3    0    0  0.10475138548E+02  0.44856728854E+01 -0.21182614184E+02  0.24053127291E+02  0.00000000000E+00 0. -1.
</event>
<event>
 7    1  0.4489290E-013  0.5930190E+02  0.7816164E-02  0.1266605E+00
        -11   -1    0    0    0    0  0.00000000000E+00  0.00000000000E+00  0.45593999997E+02  0.45594000000E+02  0.51100000000E-03 0.  1.
         11   -1    0    0    0    0 -0.00000000000E+00 -0.00000000000E+00 -0.45593999997E+02  0.45594000000E+02  0.51100000000E-03 0. -1.
    9900012    2    1    2    0    0 -0.30360768772E+02 -0.24588134801E+00  0.97409783646E+01  0.59301899618E+02  0.49999919007E+02 0.  0.
         12    1    1    2    0    0  0.30360768772E+02  0.24588134801E+00 -0.97409783646E+01  0.31886100382E+02  0.00000000000E+00 0. -1.
         11    1    3    3    0    0  0.79781888157E+01  0.11491856731E+02  0.77330181982E+01  0.15984800237E+02  0.51100000000E-03 0. -1.
        -11    1    3    3    0    0 -0.20880115949E+02 -0.14716601056E+02  0.17309587487E+01  0.25603785016E+02  0.51100000000E-03 0.  1.
         12    1    3    3    0    0 -0.17458841639E+02  0.29788629769E+01  0.27700141775E+00  0.17713314365E+02  0.00000000000E+00 0. -1.
</event>
<event>
 7    1  0.4489290E-013  0.5930193E+02  0.7816164E-02  0.1266605E+00
        -11   -1    0    0    0    0  0.00000000000E+00  0.00000000000E+00  0.45593999997E+02  0.45594000000E+02  0.51100000000E-03 0.  1.
         11   -1    0    0    0    0 -0.00000000000E+00 -0.00000000000E+00 -0.45593999997E+02  0.45594000000E+02  0.51100000000E-03 0. -1.
    9900012    2    1    2    0    0  0.21682873665E+02 -0.17429922136E+02  0.15581153098E+02  0.59301928936E+02  0.49999972477E+02 0.  0.
         12    1    1    2    0    0 -0.21682873665E+02  0.17429922136E+02 -0.15581153098E+02  0.31886071064E+02  0.00000000000E+00 0. -1.
         11    1    3    3    0    0  0.12438255439E+02  0.13285145524E+02  0.55563441893E+01  0.19028353869E+02  0.51100000000E-03 0. -1.
        -11    1    3    3    0    0  0.15004493423E+01 -0.23853556755E+02 -0.24963002695E+01  0.24030710214E+02  0.51100000000E-03 0.  1.
        -12    1    3    3    0    0  0.77441688840E+01 -0.68615109050E+01  0.12521109178E+02  0.16242864853E+02  0.00000000000E+00 0.  1.
</event>
<event>
 7    1  0.4489290E-013  0.5930192E+02  0.7816164E-02  0.1266605E+00
        -11   -1    0    0    0    0  0.00000000000E+00  0.00000000000E+00  0.45593999997E+02  0.45594000000E+02  0.51100000000E-03 0.  1.
         11   -1    0    0    0    0 -0.00000000000E+00 -0.00000000000E+00 -0.45593999997E+02  0.45594000000E+02  0.51100000000E-03 0. -1.
    9900012    2    1    2    0    0  0.12980216551E+02  0.17122350531E+02  0.23559738889E+02  0.59301918304E+02  0.49999953087E+02 0.  0.
         12    1    1    2    0    0 -0.12980216551E+02 -0.17122350531E+02 -0.23559738889E+02  0.31886081696E+02  0.00000000000E+00 0. -1.
         11    1    3    3    0    0  0.19092157097E+02  0.18459203573E+02  0.11969856686E+02  0.29129540479E+02  0.51100000000E-03 0. -1.
        -11    1    3    3    0    0 -0.92256603422E+01 -0.72486112973E+01 -0.46431627965E+01  0.12618008381E+02  0.51100000000E-03 0.  1.
        -12    1    3    3    0    0  0.31137197962E+01  0.59117582545E+01  0.16233045000E+02  0.17554369444E+02  0.00000000000E+00 0.  1.
</event>
<event>
 7    1  0.4489290E-013  0.5930193E+02  0.7816164E-02  0.1266605E+00
        -11   -1    0    0    0    0  0.00000000000E+00  0.00000000000E+00  0.45593999997E+02  0.45594000000E+02  0.51100000000E-03 0. -1.
         11   -1    0    0    0    0 -0.00000000000E+00 -0.00000000000E+00 -0.45593999997E+02  0.45594000000E+02  0.51100000000E-03 0.  1.
    9900012    2    1    2    0    0 -0.26180694043E+02  0.18076919859E+02 -0.21254683698E+01  0.59301931131E+02  0.49999976479E+02 0.  0.
         12    1    1    2    0    0  0.26180694043E+02 -0.18076919859E+02  0.21254683698E+01  0.31886068869E+02  0.00000000000E+00 0. -1.
         11    1    3    3    0    0  0.45953492371E+01  0.15614659823E+02  0.37929820142E+01  0.16712915629E+02  0.51100000000E-03 0. -1.
        -11    1    3    3    0    0 -0.18932854080E+02 -0.10979303806E+02  0.37915872411E+01  0.22212028492E+02  0.51100000000E-03 0.  1.
        -12    1    3    3    0    0 -0.11843189200E+02  0.13441563841E+02 -0.97100376251E+01  0.20376987010E+02  0.00000000000E+00 0.  1.
</event>
<event>
 7    1  0.4489290E-013  0.5930163E+02  0.7816164E-02  0.1266606E+00
        -11   -1    0    0    0    0  0.00000000000E+00  0.00000000000E+00  0.45593999997E+02  0.45594000000E+02  0.51100000000E-03 0. -1.
         11   -1    0    0    0    0 -0.00000000000E+00 -0.00000000000E+00 -0.45593999997E+02  0.45594000000E+02  0.51100000000E-03 0.  1.
    9900012    2    1    2    0    0 -0.24347788630E+02 -0.15838994393E+02  0.13154912737E+02  0.59301634831E+02  0.49999436096E+02 0.  0.
         12    1    1    2    0    0  0.24347788630E+02  0.15838994393E+02 -0.13154912737E+02  0.31886365169E+02  0.00000000000E+00 0. -1.
         11    1    3    3    0    0 -0.37997482014E+01 -0.36748416261E+01  0.47455712744E+01  0.71037310163E+01  0.51100000000E-03 0. -1.
        -11    1    3    3    0    0 -0.23668908233E+02  0.11232562835E+02 -0.22565956993E+01  0.26296005575E+02  0.51100000000E-03 0.  1.
        -12    1    3    3    0    0  0.31208678050E+01 -0.23396715603E+02  0.10665937162E+02  0.25901898239E+02  0.00000000000E+00 0.  1.
</event>
<event>
 7    1  0.4489290E-013  0.5930203E+02  0.7816164E-02  0.1266604E+00
        -11   -1    0    0    0    0  0.00000000000E+00  0.00000000000E+00  0.45593999997E+02  0.45594000000E+02  0.51100000000E-03 0.  1.
         11   -1    0    0    0    0 -0.00000000000E+00 -0.00000000000E+00 -0.45593999997E+02  0.45594000000E+02  0.51100000000E-03 0. -1.
    9900012    2    1    2    0    0 -0.29251519232E+02 -0.12297303273E+02  0.31368983393E+01  0.59302028534E+02  0.50000154119E+02 0.  0.
         12    1    1    2    0    0  0.29251519232E+02  0.12297303273E+02 -0.31368983393E+01  0.31885971466E+02  0.00000000000E+00 0. -1.
         11    1    3    3    0    0  0.80302660602E+01 -0.59881315278E+01  0.70377570212E+01  0.12242259446E+02  0.51100000000E-03 0. -1.
        -11    1    3    3    0    0 -0.29651264678E+02 -0.16573781497E+02 -0.44425024110E+01  0.34258189649E+02  0.51100000000E-03 0.  1.
        -12    1    3    3    0    0 -0.76305206135E+01  0.10264609752E+02  0.54164372920E+00  0.12801579438E+02  0.00000000000E+00 0.  1.
</event>
<event>
 7    1  0.4489290E-013  0.5930196E+02  0.7816164E-02  0.1266605E+00
        -11   -1    0    0    0    0  0.00000000000E+00  0.00000000000E+00  0.45593999997E+02  0.45594000000E+02  0.51100000000E-03 0.  1.
         11   -1    0    0    0    0 -0.00000000000E+00 -0.00000000000E+00 -0.45593999997E+02  0.45594000000E+02  0.51100000000E-03 0. -1.
    9900012    2    1    2    0    0 -0.87157731429E+01 -0.30365280040E+02 -0.43248992102E+01  0.59301957810E+02  0.50000025135E+02 0.  0.
         12    1    1    2    0    0  0.87157731429E+01  0.30365280040E+02  0.43248992102E+01  0.31886042190E+02  0.00000000000E+00 0. -1.
         11    1    3    3    0    0 -0.27942440670E+01 -0.14570404608E+01 -0.14603111125E+02  0.14939264427E+02  0.51100000000E-03 0. -1.
        -11    1    3    3    0    0 -0.79071554737E+01 -0.74719341179E+01  0.18381879772E+02  0.21359925359E+02  0.51100000000E-03 0.  1.
        -12    1    3    3    0    0  0.19856263977E+01 -0.21436305461E+02 -0.81036678567E+01  0.23002768024E+02  0.00000000000E+00 0.  1.
</event>
<event>
 7    1  0.4489290E-013  0.5930197E+02  0.7816164E-02  0.1266605E+00
        -11   -1    0    0    0    0  0.00000000000E+00  0.00000000000E+00  0.45593999997E+02  0.45594000000E+02  0.51100000000E-03 0.  1.
         11   -1    0    0    0    0 -0.00000000000E+00 -0.00000000000E+00 -0.45593999997E+02  0.45594000000E+02  0.51100000000E-03 0. -1.
    9900012    2    1    2    0    0 -0.21646873539E+02 -0.42035753191E+01 -0.23031750927E+02  0.59301972805E+02  0.50000052484E+02 0.  0.
         12    1    1    2    0    0  0.21646873539E+02  0.42035753191E+01  0.23031750927E+02  0.31886027195E+02  0.00000000000E+00 0. -1.
         11    1    3    3    0    0 -0.14842245684E+02 -0.51848732013E+01 -0.29206669643E+02  0.33169334014E+02  0.51100000000E-03 0. -1.
        -11    1    3    3    0    0 -0.71826104070E+01  0.93596650125E+01  0.11272950506E+02  0.16317862445E+02  0.51100000000E-03 0.  1.
        -12    1    3    3    0    0  0.37798255242E+00 -0.83783671302E+01 -0.50980317912E+01  0.98147763460E+01  0.00000000000E+00 0.  1.
</event>
<event>
 7    1  0.4489290E-013  0.5930201E+02  0.7816164E-02  0.1266605E+00
        -11   -1    0    0    0    0  0.00000000000E+00  0.00000000000E+00  0.45593999997E+02  0.45594000000E+02  0.51100000000E-03 0. -1.
         11   -1    0    0    0    0 -0.00000000000E+00 -0.00000000000E+00 -0.45593999997E+02  0.45594000000E+02  0.51100000000E-03 0.  1.
    9900012    2    1    2    0    0  0.15491568213E+02  0.23998028683E+02  0.14171168923E+02  0.59302014128E+02  0.50000127845E+02 0.  0.
         12    1    1    2    0    0 -0.15491568213E+02 -0.23998028683E+02 -0.14171168923E+02  0.31885985872E+02  0.00000000000E+00 0. -1.
         11    1    3    3    0    0  0.12575873781E+02 -0.64614232656E+01 -0.65015679384E+01  0.15561907913E+02  0.51100000000E-03 0.  1.
        -11    1    3    3    0    0  0.48604108767E+01  0.34023915244E+02  0.19490041365E+02  0.39510911342E+02  0.51100000000E-03 0. -1.
        -12    1    3    3    0    0 -0.19447164443E+01 -0.35644632952E+01  0.11826954971E+01  0.42291948726E+01  0.00000000000E+00 0.  1.
</event>
<event>
 7    1  0.4489290E-013  0.5930197E+02  0.7816164E-02  0.1266605E+00
        -11   -1    0    0    0    0  0.00000000000E+00  0.00000000000E+00  0.45593999997E+02  0.45594000000E+02  0.51100000000E-03 0. -1.
         11   -1    0    0    0    0 -0.00000000000E+00 -0.00000000000E+00 -0.45593999997E+02  0.45594000000E+02  0.51100000000E-03 0.  1.
    9900012    2    1    2    0    0 -0.67691405905E+01  0.30446991978E+02 -0.66240704306E+01  0.59301970239E+02  0.50000047804E+02 0.  0.
         12    1    1    2    0    0  0.67691405905E+01 -0.30446991978E+02  0.66240704306E+01  0.31886029761E+02  0.00000000000E+00 0. -1.
         11    1    3    3    0    0  0.14918673533E+02  0.15110113413E+02 -0.13331777619E+02  0.25072268388E+02  0.51100000000E-03 0.  1.
        -11    1    3    3    0    0 -0.67271651016E+01  0.10796588117E+02  0.12232242061E+02  0.17647912380E+02  0.51100000000E-03 0. -1.
         12    1    3    3    0    0 -0.14960649022E+02  0.45402904470E+01 -0.55245348726E+01  0.16581789471E+02  0.00000000000E+00 0. -1.
</event>
<event>
 7    1  0.4489290E-013  0.5930191E+02  0.7816164E-02  0.1266605E+00
        -11   -1    0    0    0    0  0.00000000000E+00  0.00000000000E+00  0.45593999997E+02  0.45594000000E+02  0.51100000000E-03 0.  1.
         11   -1    0    0    0    0 -0.00000000000E+00 -0.00000000000E+00 -0.45593999997E+02  0.45594000000E+02  0.51100000000E-03 0. -1.
    9900012    2    1    2    0    0  0.37182631821E+01  0.28983656061E+02  0.12761077334E+02  0.59301907507E+02  0.49999933395E+02 0.  0.
         12    1    1    2    0    0 -0.37182631821E+01 -0.28983656061E+02 -0.12761077334E+02  0.31886092493E+02  0.00000000000E+00 0. -1.
         11    1    3    3    0    0 -0.28313420878E+01 -0.49021578304E+01 -0.17126736412E+01  0.59144653752E+01  0.51100000000E-03 0. -1.
        -11    1    3    3    0    0 -0.24443549650E-01  0.16131334467E+02  0.26452860392E+02  0.30983453203E+02  0.51100000000E-03 0.  1.
        -12    1    3    3    0    0  0.65740488196E+01  0.17754479424E+02 -0.11979109417E+02  0.22403988929E+02  0.00000000000E+00 0.  1.
</event>
<event>
 7    1  0.4489290E-013  0.5930195E+02  0.7816164E-02  0.1266605E+00
        -11   -1    0    0    0    0  0.00000000000E+00  0.00000000000E+00  0.45593999997E+02  0.45594000000E+02  0.51100000000E-03 0. -1.
         11   -1    0    0    0    0 -0.00000000000E+00 -0.00000000000E+00 -0.45593999997E+02  0.45594000000E+02  0.51100000000E-03 0.  1.
    9900012    2    1    2    0    0 -0.11459052977E+02 -0.12435363817E+02 -0.27032795274E+02  0.59301949935E+02  0.50000010774E+02 0.  0.
         12    1    1    2    0    0  0.11459052977E+02  0.12435363817E+02  0.27032795274E+02  0.31886050065E+02  0.00000000000E+00 0. -1.
         11    1    3    3    0    0 -0.46226081496E+01 -0.13489780075E+02 -0.27791374267E+02  0.31236247478E+02  0.51100000000E-03 0.  1.
        -11    1    3    3    0    0 -0.99381593089E+01 -0.51407657972E+01  0.11006762465E+02  0.15695327447E+02  0.51100000000E-03 0. -1.
         12    1    3    3    0    0  0.31017144816E+01  0.61951820551E+01 -0.10248183473E+02  0.12370375011E+02  0.00000000000E+00 0. -1.
</event>
<event>
 7    1  0.4489290E-013  0.5930200E+02  0.7816164E-02  0.1266605E+00
        -11   -1    0    0    0    0  0.00000000000E+00  0.00000000000E+00  0.45593999997E+02  0.45594000000E+02  0.51100000000E-03 0. -1.
         11   -1    0    0    0    0 -0.00000000000E+00 -0.00000000000E+00 -0.45593999997E+02  0.45594000000E+02  0.51100000000E-03 0.  1.
    9900012    2    1    2    0    0  0.29458242934E+02 -0.98004719345E+01  0.72718591635E+01  0.59301995820E+02  0.50000094456E+02 0.  0.
         12    1    1    2    0    0 -0.29458242934E+02  0.98004719345E+01 -0.72718591635E+01  0.31886004180E+02  0.00000000000E+00 0. -1.
         11    1    3    3    0    0 -0.58325870925E+01  0.30959361762E+01 -0.13594699780E+02  0.15113561968E+02  0.51100000000E-03 0. -1.
        -11    1    3    3    0    0  0.16322640578E+02 -0.11412573912E+02  0.10211530032E+02  0.22381929867E+02  0.51100000000E-03 0.  1.
        -12    1    3    3    0    0  0.18968189449E+02 -0.14838341983E+01  0.10655028912E+02  0.21806503984E+02  0.00000000000E+00 0.  1.
</event>
<event>
 7    1  0.4489290E-013  0.5930194E+02  0.7816164E-02  0.1266605E+00
        -11   -1    0    0    0    0  0.00000000000E+00  0.00000000000E+00  0.45593999997E+02  0.45594000000E+02  0.51100000000E-03 0. -1.
         11   -1    0    0    0    0 -0.00000000000E+00 -0.00000000000E+00 -0.45593999997E+02  0.45594000000E+02  0.51100000000E-03 0.  1.
    9900012    2    1    2    0    0  0.26104058282E+02 -0.18109332194E+02 -0.27112822153E+01  0.59301939997E+02  0.49999992648E+02 0.  0.
         12    1    1    2    0    0 -0.26104058282E+02  0.18109332194E+02  0.27112822153E+01  0.31886060003E+02  0.00000000000E+00 0. -1.
         11    1    3    3    0    0 -0.10226051978E+01 -0.23838889282E+02 -0.14382930769E+01  0.23904122047E+02  0.51100000000E-03 0. -1.
        -11    1    3    3    0    0  0.24101027872E+02  0.17452741414E+01 -0.93391960706E+01  0.25906101787E+02  0.51100000000E-03 0.  1.
         12    1    3    3    0    0  0.30256356080E+01  0.39842829472E+01  0.80662069322E+01  0.94917161624E+01  0.00000000000E+00 0. -1.
</event>
<event>
 7    1  0.4489290E-013  0.5930196E+02  0.7816164E-02  0.1266605E+00
        -11   -1    0    0    0    0  0.00000000000E+00  0.00000000000E+00  0.45593999997E+02  0.45594000000E+02  0.51100000000E-03 0. -1.
         11   -1    0    0    0    0 -0.00000000000E+00 -0.00000000000E+00 -0.45593999997E+02  0.45594000000E+02  0.51100000000E-03 0.  1.
    9900012    2    1    2    0    0 -0.24936803947E+02  0.18591063795E+02 -0.70176749052E+01  0.59301959085E+02  0.50000027461E+02 0.  0.
         12    1    1    2    0    0  0.24936803947E+02 -0.18591063795E+02  0.70176749052E+01  0.31886040915E+02  0.00000000000E+00 0. -1.
         11    1    3    3    0    0 -0.15701557287E+02 -0.76218145867E+01  0.10957084254E+02  0.20607975506E+02  0.51100000000E-03 0. -1.
        -11    1    3    3    0    0 -0.95609687266E+01  0.12748433981E+02 -0.19450815179E+02  0.25144957812E+02  0.51100000000E-03 0.  1.
        -12    1    3    3    0    0  0.32572206631E+00  0.13464444401E+02  0.14760560201E+01  0.13549025768E+02  0.00000000000E+00 0.  1.
</event>
<event>
 7    1  0.4489290E-013  0.5930196E+02  0.7816164E-02  0.1266605E+00
        -11   -1    0    0    0    0  0.00000000000E+00  0.00000000000E+00  0.45593999997E+02  0.45594000000E+02  0.51100000000E-03 0. -1.
         11   -1    0    0    0    0 -0.00000000000E+00 -0.00000000000E+00 -0.45593999997E+02  0.45594000000E+02  0.51100000000E-03 0.  1.
    9900012    2    1    2    0    0  0.13905215318E+02  0.17306913157E+02 -0.22887445537E+02  0.59301962001E+02  0.50000032779E+02 0.  0.
         12    1    1    2    0    0 -0.13905215318E+02 -0.17306913157E+02  0.22887445537E+02  0.31886037999E+02  0.00000000000E+00 0. -1.
         11    1    3    3    0    0 -0.93122560449E+01 -0.10038874119E+02 -0.11998628132E+02  0.18206157846E+02  0.51100000000E-03 0. -1.
        -11    1    3    3    0    0  0.36507428086E+01  0.55499346072E+01 -0.97315694687E+01  0.11782747633E+02  0.51100000000E-03 0.  1.
         12    1    3    3    0    0  0.19566728554E+02  0.21795852668E+02 -0.11572479364E+01  0.29313056522E+02  0.00000000000E+00 0. -1.
</event>
<event>
 7    1  0.4489290E-013  0.5930192E+02  0.7816164E-02  0.1266605E+00
        -11   -1    0    0    0    0  0.00000000000E+00  0.00000000000E+00  0.45593999997E+02  0.45594000000E+02  0.51100000000E-03 0. -1.
         11   -1    0    0    0    0 -0.00000000000E+00 -0.00000000000E+00 -0.45593999997E+02  0.45594000000E+02  0.51100000000E-03 0.  1.
    9900012    2    1    2    0    0 -0.72675689887E+00  0.17164800857E+01 -0.31831553530E+02  0.59301917149E+02  0.49999950979E+02 0.  0.
         12    1    1    2    0    0  0.72675689887E+00 -0.17164800857E+01  0.31831553530E+02  0.31886082851E+02  0.00000000000E+00 0. -1.
         11    1    3    3    0    0 -0.19506606472E+02  0.13772997745E+02 -0.12884287203E+02  0.27133153520E+02  0.51100000000E-03 0. -1.
        -11    1    3    3    0    0  0.15395035982E+02 -0.14996329547E+02 -0.16163644387E+02  0.26891642436E+02  0.51100000000E-03 0.  1.
         12    1    3    3    0    0  0.33848135912E+01  0.29398118879E+01 -0.27836219399E+01  0.52771211931E+01  0.00000000000E+00 0. -1.
</event>
<event>
 7    1  0.4949891E-013  0.5930194E+02  0.7816164E-02  0.1266605E+00
        -11   -1    0    0    0    0  0.00000000000E+00  0.00000000000E+00  0.45593999997E+02  0.45594000000E+02  0.51100000000E-03 0. -1.
         11   -1    0    0    0    0 -0.00000000000E+00 -0.00000000000E+00 -0.45593999997E+02  0.45594000000E+02  0.51100000000E-03 0.  1.
    9900012    2    1    2    0    0  0.16177352552E+02  0.27103877659E+02 -0.45159576772E+01  0.59301940452E+02  0.49999993479E+02 0.  0.
         12    1    1    2    0    0 -0.16177352552E+02 -0.27103877659E+02  0.45159576772E+01  0.31886059548E+02  0.00000000000E+00 0. -1.
         11    1    3    3    0    0  0.81559359150E+01 -0.42777809498E+01  0.11819111814E+02  0.14983661263E+02  0.51100000000E-03 0. -1.
        -11    1    3    3    0    0  0.16443739318E+02  0.15314701281E+02 -0.12719098928E+02  0.25820769080E+02  0.51100000000E-03 0.  1.
         12    1    3    3    0    0 -0.84223226809E+01  0.16066957328E+02 -0.36159705629E+01  0.18497510109E+02  0.00000000000E+00 0. -1.
</event>
<event>
 7    1  0.4489290E-013  0.5930199E+02  0.7816164E-02  0.1266605E+00
        -11   -1    0    0    0    0  0.00000000000E+00  0.00000000000E+00  0.45593999997E+02  0.45594000000E+02  0.51100000000E-03 0.  1.
         11   -1    0    0    0    0 -0.00000000000E+00 -0.00000000000E+00 -0.45593999997E+02  0.45594000000E+02  0.51100000000E-03 0. -1.
    9900012    2    1    2    0    0 -0.69645125008E+01 -0.16505335228E+02  0.26377772297E+02  0.59301993717E+02  0.50000090620E+02 0.  0.
         12    1    1    2    0    0  0.69645125008E+01  0.16505335228E+02 -0.26377772297E+02  0.31886006283E+02  0.00000000000E+00 0. -1.
         11    1    3    3    0    0  0.12418687000E+01  0.61652651302E+01  0.25538134708E+01  0.67878343747E+01  0.51100000000E-03 0. -1.
        -11    1    3    3    0    0 -0.16478181482E+02 -0.27520326058E+02  0.65219093225E+01  0.32732768181E+02  0.51100000000E-03 0.  1.
        -12    1    3    3    0    0  0.82718002813E+01  0.48497256996E+01  0.17302049503E+02  0.19781391161E+02  0.00000000000E+00 0.  1.
</event>
<event>
 7    1  0.4489290E-013  0.5930192E+02  0.7816164E-02  0.1266605E+00
        -11   -1    0    0    0    0  0.00000000000E+00  0.00000000000E+00  0.45593999997E+02  0.45594000000E+02  0.51100000000E-03 0.  1.
         11   -1    0    0    0    0 -0.00000000000E+00 -0.00000000000E+00 -0.45593999997E+02  0.45594000000E+02  0.51100000000E-03 0. -1.
    9900012    2    1    2    0    0 -0.18421469974E+02  0.20675650275E+02  0.15807884270E+02  0.59301917215E+02  0.49999951099E+02 0.  0.
         12    1    1    2    0    0  0.18421469974E+02 -0.20675650275E+02 -0.15807884270E+02  0.31886082785E+02  0.00000000000E+00 0. -1.
         11    1    3    3    0    0 -0.62482042917E+01  0.23510097975E+01  0.47722005573E+01  0.82061685554E+01  0.51100000000E-03 0. -1.
        -11    1    3    3    0    0 -0.47071478291E+01 -0.60729548370E+01 -0.13605360892E+02  0.15625103724E+02  0.51100000000E-03 0.  1.
        -12    1    3    3    0    0 -0.74661178528E+01  0.24397595315E+02  0.24641044604E+02  0.35470644935E+02  0.00000000000E+00 0.  1.
</event>
<event>
 7    1  0.4489290E-013  0.5930175E+02  0.7816164E-02  0.1266605E+00
        -11   -1    0    0    0    0  0.00000000000E+00  0.00000000000E+00  0.45593999997E+02  0.45594000000E+02  0.51100000000E-03 0. -1.
         11   -1    0    0    0    0 -0.00000000000E+00 -0.00000000000E+00 -0.45593999997E+02  0.45594000000E+02  0.51100000000E-03 0.  1.
    9900012    2    1    2    0    0 -0.15340420499E+02  0.81470716715E+01 -0.26740042212E+02  0.59301746921E+02  0.49999640524E+02 0.  0.
         12    1    1    2    0    0  0.15340420499E+02 -0.81470716715E+01  0.26740042212E+02  0.31886253079E+02  0.00000000000E+00 0. -1.
         11    1    3    3    0    0  0.12922218068E+02  0.58930625141E+01  0.36759114240E+01  0.14670522507E+02  0.51100000000E-03 0. -1.
        -11    1    3    3    0    0 -0.12918745852E+02 -0.27276100477E+01 -0.23755085172E+02  0.27177894009E+02  0.51100000000E-03 0.  1.
         12    1    3    3    0    0 -0.15343892714E+02  0.49816192051E+01 -0.66608684638E+01  0.17453330405E+02  0.00000000000E+00 0. -1.
</event>
<event>
 7    1  0.4489290E-013  0.5930195E+02  0.7816164E-02  0.1266605E+00
        -11   -1    0    0    0    0  0.00000000000E+00  0.00000000000E+00  0.45593999997E+02  0.45594000000E+02  0.51100000000E-03 0.  1.
         11   -1    0    0    0    0 -0.00000000000E+00 -0.00000000000E+00 -0.45593999997E+02  0.45594000000E+02  0.51100000000E-03 0. -1.
    9900012    2    1    2    0    0  0.26242739672E+02 -0.82571601319E+01  0.16120115553E+02  0.59301949690E+02  0.50000010327E+02 0.  0.
         12    1    1    2    0    0 -0.26242739672E+02  0.82571601319E+01 -0.16120115553E+02  0.31886050310E+02  0.00000000000E+00 0. -1.
         11    1    3    3    0    0 -0.31998624085E+01 -0.14378881268E+02  0.22744501363E+02  0.27098038462E+02  0.51100000000E-03 0. -1.
        -11    1    3    3    0    0  0.94695207697E+01  0.60126120926E+01 -0.46162253594E+01  0.12129833660E+02  0.51100000000E-03 0.  1.
         12    1    3    3    0    0  0.19973081311E+02  0.10910904349E+00 -0.20081604510E+01  0.20074077568E+02  0.00000000000E+00 0. -1.
</event>
<event>
 7    1  0.4489290E-013  0.5930193E+02  0.7816164E-02  0.1266605E+00
        -11   -1    0    0    0    0  0.00000000000E+00  0.00000000000E+00  0.45593999997E+02  0.45594000000E+02  0.51100000000E-03 0. -1.
         11   -1    0    0    0    0 -0.00000000000E+00 -0.00000000000E+00 -0.45593999997E+02  0.45594000000E+02  0.51100000000E-03 0.  1.
    9900012    2    1    2    0    0 -0.99978316749E+01 -0.13848908447E+02 -0.26925310255E+02  0.59301933518E+02  0.49999980833E+02 0.  0.
         12    1    1    2    0    0  0.99978316749E+01  0.13848908447E+02  0.26925310255E+02  0.31886066482E+02  0.00000000000E+00 0. -1.
         11    1    3    3    0    0 -0.12076311890E+00  0.34844820963E+01 -0.13838490187E+02  0.14270949868E+02  0.51100000000E-03 0. -1.
        -11    1    3    3    0    0  0.13226142428E+02 -0.12038332662E+02  0.14601176792E+00  0.17885010945E+02  0.51100000000E-03 0.  1.
        -12    1    3    3    0    0 -0.23103210984E+02 -0.52950578814E+01 -0.13232831835E+02  0.27145972705E+02  0.00000000000E+00 0.  1.
</event>
<event>
 7    1  0.4489290E-013  0.5930194E+02  0.7816164E-02  0.1266605E+00
        -11   -1    0    0    0    0  0.00000000000E+00  0.00000000000E+00  0.45593999997E+02  0.45594000000E+02  0.51100000000E-03 0.  1.
         11   -1    0    0    0    0 -0.00000000000E+00 -0.00000000000E+00 -0.45593999997E+02  0.45594000000E+02  0.51100000000E-03 0. -1.
    9900012    2    1    2    0    0 -0.12626517012E+02 -0.31679533740E+01  0.29107659809E+02  0.59301941605E+02  0.49999995581E+02 0.  0.
         12    1    1    2    0    0  0.12626517012E+02  0.31679533740E+01 -0.29107659809E+02  0.31886058395E+02  0.00000000000E+00 0. -1.
         11    1    3    3    0    0 -0.27242396917E+01 -0.15942360170E+02 -0.72254039679E+01  0.17714028126E+02  0.51100000000E-03 0. -1.
        -11    1    3    3    0    0 -0.28051568063E+01  0.13434797325E+01  0.20827591072E+02  0.21058546784E+02  0.51100000000E-03 0.  1.
         12    1    3    3    0    0 -0.70971205138E+01  0.11430927064E+02  0.15505472704E+02  0.20529366695E+02  0.00000000000E+00 0. -1.
</event>
<event>
 7    1  0.4489290E-013  0.5930197E+02  0.7816164E-02  0.1266605E+00
        -11   -1    0    0    0    0  0.00000000000E+00  0.00000000000E+00  0.45593999997E+02  0.45594000000E+02  0.51100000000E-03 0.  1.
         11   -1    0    0    0    0 -0.00000000000E+00 -0.00000000000E+00 -0.45593999997E+02  0.45594000000E+02  0.51100000000E-03 0. -1.
    9900012    2    1    2    0    0 -0.24965809304E+02 -0.11110002567E+02 -0.16431519534E+02  0.59301974449E+02  0.50000055481E+02 0.  0.
         12    1    1    2    0    0  0.24965809304E+02  0.11110002567E+02  0.16431519534E+02  0.31886025551E+02  0.00000000000E+00 0. -1.
         11    1    3    3    0    0  0.78276746385E+00  0.17088643119E+02 -0.37758763995E+01  0.17518324446E+02  0.51100000000E-03 0. -1.
        -11    1    3    3    0    0 -0.18059057301E+02 -0.16807149674E+02 -0.27094842692E+01  0.24818362880E+02  0.51100000000E-03 0.  1.
         12    1    3    3    0    0 -0.76895194670E+01 -0.11391496012E+02 -0.99461588649E+01  0.16965287124E+02  0.00000000000E+00 0. -1.
</event>
<event>
 7    1  0.4609006E-013  0.5930195E+02  0.7816164E-02  0.1266605E+00
        -11   -1    0    0    0    0  0.00000000000E+00  0.00000000000E+00  0.45593999997E+02  0.45594000000E+02  0.51100000000E-03 0. -1.
         11   -1    0    0    0    0 -0.00000000000E+00 -0.00000000000E+00 -0.45593999997E+02  0.45594000000E+02  0.51100000000E-03 0.  1.
    9900012    2    1    2    0    0 -0.75042228111E+01 -0.18182978936E+02 -0.25095533592E+02  0.59301954631E+02  0.50000019338E+02 0.  0.
         12    1    1    2    0    0  0.75042228111E+01  0.18182978936E+02  0.25095533592E+02  0.31886045369E+02  0.00000000000E+00 0. -1.
         11    1    3    3    0    0  0.93999287307E+01 -0.15859875430E+02  0.48428069222E-01  0.18436286349E+02  0.51100000000E-03 0. -1.
        -11    1    3    3    0    0 -0.60123075068E+01 -0.44124598701E+01 -0.28355322187E+02  0.29319651094E+02  0.51100000000E-03 0.  1.
         12    1    3    3    0    0 -0.10891844035E+02  0.20893563643E+01  0.32113605256E+01  0.11546017189E+02  0.00000000000E+00 0. -1.
</event>
<event>
 7    1  0.4489290E-013  0.5930197E+02  0.7816164E-02  0.1266605E+00
        -11   -1    0    0    0    0  0.00000000000E+00  0.00000000000E+00  0.45593999997E+02  0.45594000000E+02  0.51100000000E-03 0.  1.
         11   -1    0    0    0    0 -0.00000000000E+00 -0.00000000000E+00 -0.45593999997E+02  0.45594000000E+02  0.51100000000E-03 0. -1.
    9900012    2    1    2    0    0  0.14226701727E+02  0.93075803038E+01  0.26975713680E+02  0.59301965099E+02  0.50000038429E+02 0.  0.
         12    1    1    2    0    0 -0.14226701727E+02 -0.93075803038E+01 -0.26975713680E+02  0.31886034901E+02  0.00000000000E+00 0. -1.
         11    1    3    3    0    0  0.11648661687E+02  0.42730559523E+01 -0.44621102585E+01  0.13185626814E+02  0.51100000000E-03 0. -1.
        -11    1    3    3    0    0 -0.14725057974E+02 -0.16486265027E+01  0.17401931150E+02  0.22855470017E+02  0.51100000000E-03 0.  1.
        -12    1    3    3    0    0  0.17303098014E+02  0.66831508542E+01  0.14035892789E+02  0.23260868268E+02  0.00000000000E+00 0.  1.
</event>
<event>
 7    1  0.4489290E-013  0.5930187E+02  0.7816164E-02  0.1266605E+00
        -11   -1    0    0    0    0  0.00000000000E+00  0.00000000000E+00  0.45593999997E+02  0.45594000000E+02  0.51100000000E-03 0.  1.
         11   -1    0    0    0    0 -0.00000000000E+00 -0.00000000000E+00 -0.45593999997E+02  0.45594000000E+02  0.51100000000E-03 0. -1.
    9900012    2    1    2    0    0 -0.23933082617E+02 -0.17402240152E+02  0.11878339593E+02  0.59301868887E+02  0.49999862961E+02 0.  0.
         12    1    1    2    0    0  0.23933082617E+02  0.17402240152E+02 -0.11878339593E+02  0.31886131113E+02  0.00000000000E+00 0. -1.
         11    1    3    3    0    0 -0.13726634179E+02 -0.10517264724E+02  0.23921785420E+02  0.29517539889E+02  0.51100000000E-03 0. -1.
        -11    1    3    3    0    0 -0.38792729975E+01 -0.94200984453E+01 -0.18032177210E+02  0.20711021919E+02  0.51100000000E-03 0.  1.
        -12    1    3    3    0    0 -0.63271754410E+01  0.25351230169E+01  0.59887313831E+01  0.90733070791E+01  0.00000000000E+00 0.  1.
</event>
<event>
 7    1  0.4489290E-013  0.5930195E+02  0.7816164E-02  0.1266605E+00
        -11   -1    0    0    0    0  0.00000000000E+00  0.00000000000E+00  0.45593999997E+02  0.45594000000E+02  0.51100000000E-03 0.  1.
         11   -1    0    0    0    0 -0.00000000000E+00 -0.00000000000E+00 -0.45593999997E+02  0.45594000000E+02  0.51100000000E-03 0. -1.
    9900012    2    1    2    0    0  0.13006762854E+02  0.11737092037E+02  0.26641792277E+02  0.59301948110E+02  0.50000007445E+02 0.  0.
         12    1    1    2    0    0 -0.13006762854E+02 -0.11737092037E+02 -0.26641792277E+02  0.31886051890E+02  0.00000000000E+00 0. -1.
         11    1    3    3    0    0 -0.94281382727E+01  0.19726106546E+01 -0.58000793296E+00  0.96497354134E+01  0.51100000000E-03 0. -1.
        -11    1    3    3    0    0  0.19614705730E+02  0.30157222180E+01  0.34201496534E+02  0.39542048844E+02  0.51100000000E-03 0.  1.
         12    1    3    3    0    0  0.28201953968E+01  0.67487591647E+01 -0.69796963247E+01  0.10110163852E+02  0.00000000000E+00 0. -1.
</event>
<event>
 7    1  0.4489290E-013  0.5930198E+02  0.7816164E-02  0.1266605E+00
        -11   -1    0    0    0    0  0.00000000000E+00  0.00000000000E+00  0.45593999997E+02  0.45594000000E+02  0.51100000000E-03 0.  1.
         11   -1    0    0    0    0 -0.00000000000E+00 -0.00000000000E+00 -0.45593999997E+02  0.45594000000E+02  0.51100000000E-03 0. -1.
    9900012    2    1    2    0    0 -0.15491109025E+00  0.29681106060E+02  0.11650153169E+02  0.59301982324E+02  0.50000069843E+02 0.  0.
         12    1    1    2    0    0  0.15491109025E+00 -0.29681106060E+02 -0.11650153169E+02  0.31886017676E+02  0.00000000000E+00 0. -1.
         11    1    3    3    0    0 -0.64030230601E+00 -0.80058586325E+01 -0.10716953949E+02  0.13392418067E+02  0.51100000000E-03 0. -1.
        -11    1    3    3    0    0 -0.47177793974E+01  0.16181024140E+02  0.44334677117E+01  0.17428098602E+02  0.51100000000E-03 0.  1.
         12    1    3    3    0    0  0.52031706131E+01  0.21505940552E+02  0.17933639406E+02  0.28481465654E+02  0.00000000000E+00 0. -1.
</event>
<event>
 7    1  0.4489290E-013  0.5930192E+02  0.7816164E-02  0.1266605E+00
        -11   -1    0    0    0    0  0.00000000000E+00  0.00000000000E+00  0.45593999997E+02  0.45594000000E+02  0.51100000000E-03 0. -1.
         11   -1    0    0    0    0 -0.00000000000E+00 -0.00000000000E+00 -0.45593999997E+02  0.45594000000E+02  0.51100000000E-03 0.  1.
    9900012    2    1    2    0    0 -0.28042633391E+02  0.15175223201E+02  0.21245764971E+00  0.59301924278E+02  0.49999963982E+02 0.  0.
         12    1    1    2    0    0  0.28042633391E+02 -0.15175223201E+02 -0.21245764971E+00  0.31886075722E+02  0.00000000000E+00 0. -1.
         11    1    3    3    0    0  0.15916908763E+01  0.11370076350E+02  0.65449005013E-01  0.11481132343E+02  0.51100000000E-03 0. -1.
        -11    1    3    3    0    0 -0.18001005026E+01 -0.11877034294E+02  0.85995976926E+01  0.14773536684E+02  0.51100000000E-03 0.  1.
        -12    1    3    3    0    0 -0.27834223764E+02  0.15682181144E+02 -0.84525890479E+01  0.33047255251E+02  0.00000000000E+00 0.  1.
</event>
<event>
 7    1  0.4489290E-013  0.5930180E+02  0.7816164E-02  0.1266605E+00
        -11   -1    0    0    0    0  0.00000000000E+00  0.00000000000E+00  0.45593999997E+02  0.45594000000E+02  0.51100000000E-03 0.  1.
         11   -1    0    0    0    0 -0.00000000000E+00 -0.00000000000E+00 -0.45593999997E+02  0.45594000000E+02  0.51100000000E-03 0. -1.
    9900012    2    1    2    0    0  0.39095462803E+01  0.31596766620E+02  0.17577063163E+01  0.59301800094E+02  0.49999737498E+02 0.  0.
         12    1    1    2    0    0 -0.39095462803E+01 -0.31596766620E+02 -0.17577063163E+01  0.31886199906E+02  0.00000000000E+00 0. -1.
         11    1    3    3    0    0 -0.24757674552E+01 -0.93280937080E+01  0.57426787715E+01  0.11230365820E+02  0.51100000000E-03 0. -1.
        -11    1    3    3    0    0  0.13935805374E+02  0.36668220378E+02 -0.36632499917E+01  0.39397772245E+02  0.51100000000E-03 0.  1.
         12    1    3    3    0    0 -0.75504916380E+01  0.42566399502E+01 -0.32172246346E+00  0.86736620285E+01  0.00000000000E+00 0. -1.
</event>
<event>
 7    1  0.4489290E-013  0.5930193E+02  0.7816164E-02  0.1266605E+00
        -11   -1    0    0    0    0  0.00000000000E+00  0.00000000000E+00  0.45593999997E+02  0.45594000000E+02  0.51100000000E-03 0.  1.
         11   -1    0    0    0    0 -0.00000000000E+00 -0.00000000000E+00 -0.45593999997E+02  0.45594000000E+02  0.51100000000E-03 0. -1.
    9900012    2    1    2    0    0  0.20518470544E+02  0.88673434400E+01  0.22739475922E+02  0.59301934417E+02  0.49999982473E+02 0.  0.
         12    1    1    2    0    0 -0.20518470544E+02 -0.88673434400E+01 -0.22739475922E+02  0.31886065583E+02  0.00000000000E+00 0. -1.
         11    1    3    3    0    0  0.39801227340E+01  0.61868637497E+01 -0.12570434733E+02  0.14564837440E+02  0.51100000000E-03 0. -1.
        -11    1    3    3    0    0  0.16525135787E+02  0.10546250013E+02  0.25359550277E+02  0.32053241531E+02  0.51100000000E-03 0.  1.
         12    1    3    3    0    0  0.13212022856E-01 -0.78657703227E+01  0.99503603777E+01  0.12683855446E+02  0.00000000000E+00 0. -1.
</event>
<event>
 7    1  0.4600337E-013  0.5930195E+02  0.7816164E-02  0.1266605E+00
        -11   -1    0    0    0    0  0.00000000000E+00  0.00000000000E+00  0.45593999997E+02  0.45594000000E+02  0.51100000000E-03 0. -1.
         11   -1    0    0    0    0 -0.00000000000E+00 -0.00000000000E+00 -0.45593999997E+02  0.45594000000E+02  0.51100000000E-03 0.  1.
    9900012    2    1    2    0    0 -0.19595897333E+01  0.21946300507E+02 -0.23048650609E+02  0.59301946736E+02  0.50000004939E+02 0.  0.
         12    1    1    2    0    0  0.19595897333E+01 -0.21946300507E+02  0.23048650609E+02  0.31886053264E+02  0.00000000000E+00 0. -1.
         11    1    3    3    0    0  0.14142678494E+02  0.34213893200E+01  0.47485719355E+00  0.14558391033E+02  0.51100000000E-03 0. -1.
        -11    1    3    3    0    0 -0.65934214322E+01  0.16385989939E+02 -0.28706153075E+02  0.33704852723E+02  0.51100000000E-03 0.  1.
         12    1    3    3    0    0 -0.95088467948E+01  0.21389212481E+01  0.51826452720E+01  0.11038702980E+02  0.00000000000E+00 0. -1.
</event>
<event>
 7    1  0.4489290E-013  0.5930195E+02  0.7816164E-02  0.1266605E+00
        -11   -1    0    0    0    0  0.00000000000E+00  0.00000000000E+00  0.45593999997E+02  0.45594000000E+02  0.51100000000E-03 0. -1.
         11   -1    0    0    0    0 -0.00000000000E+00 -0.00000000000E+00 -0.45593999997E+02  0.45594000000E+02  0.51100000000E-03 0.  1.
    9900012    2    1    2    0    0  0.16702877557E+02 -0.13342494759E+02 -0.23658237554E+02  0.59301945223E+02  0.50000002180E+02 0.  0.
         12    1    1    2    0    0 -0.16702877557E+02  0.13342494759E+02  0.23658237554E+02  0.31886054777E+02  0.00000000000E+00 0. -1.
         11    1    3    3    0    0 -0.55686452324E+01  0.23139504258E+01  0.84088313759E+01  0.10347590138E+02  0.51100000000E-03 0. -1.
        -11    1    3    3    0    0  0.15686717244E+02 -0.20572378796E+02 -0.31436154665E+02  0.40712746010E+02  0.51100000000E-03 0.  1.
        -12    1    3    3    0    0  0.65848055454E+01  0.49159336117E+01 -0.63091426450E+00  0.82416090756E+01  0.00000000000E+00 0.  1.
</event>
<event>
 7    1  0.4489290E-013  0.5930193E+02  0.7816164E-02  0.1266605E+00
        -11   -1    0    0    0    0  0.00000000000E+00  0.00000000000E+00  0.45593999997E+02  0.45594000000E+02  0.51100000000E-03 0. -1.
         11   -1    0    0    0    0 -0.00000000000E+00 -0.00000000000E+00 -0.45593999997E+02  0.45594000000E+02  0.51100000000E-03 0.  1.
    9900012    2    1    2    0    0  0.17015827864E+01  0.13417482978E+02 -0.28875545086E+02  0.59301931923E+02  0.49999977923E+02 0.  0.
         12    1    1    2    0    0 -0.17015827864E+01 -0.13417482978E+02  0.28875545086E+02  0.31886068077E+02  0.00000000000E+00 0. -1.
         11    1    3    3    0    0  0.17515328928E+01  0.88505849826E+01  0.25348455546E+01  0.93715614631E+01  0.51100000000E-03 0. -1.
        -11    1    3    3    0    0 -0.19091356624E+02  0.24065624084E+01 -0.12131979144E+02  0.22747667102E+02  0.51100000000E-03 0.  1.
        -12    1    3    3    0    0  0.19041406517E+02  0.21603355865E+01 -0.19278411497E+02  0.27182703358E+02  0.00000000000E+00 0.  1.
</event>
<event>
 7    1  0.4489290E-013  0.5930196E+02  0.7816164E-02  0.1266605E+00
        -11   -1    0    0    0    0  0.00000000000E+00  0.00000000000E+00  0.45593999997E+02  0.45594000000E+02  0.51100000000E-03 0. -1.
         11   -1    0    0    0    0 -0.00000000000E+00 -0.00000000000E+00 -0.45593999997E+02  0.45594000000E+02  0.51100000000E-03 0.  1.
    9900012    2    1    2    0    0 -0.26934712705E+02  0.76061091949E+01 -0.15277040199E+02  0.59301959123E+02  0.50000027529E+02 0.  0.
         12    1    1    2    0    0  0.26934712705E+02 -0.76061091949E+01  0.15277040199E+02  0.31886040877E+02  0.00000000000E+00 0. -1.
         11    1    3    3    0    0 -0.97145149973E+01 -0.13743142503E+02  0.61865884006E+01  0.17930968847E+02  0.51100000000E-03 0. -1.
        -11    1    3    3    0    0  0.27237136110E+01  0.11383638140E+02 -0.13077838396E+02  0.17550945573E+02  0.51100000000E-03 0.  1.
         12    1    3    3    0    0 -0.19943911319E+02  0.99656135581E+01 -0.83857902034E+01  0.23820044702E+02  0.00000000000E+00 0. -1.
</event>
<event>
 7    1  0.4489290E-013  0.5930192E+02  0.7816164E-02  0.1266605E+00
        -11   -1    0    0    0    0  0.00000000000E+00  0.00000000000E+00  0.45593999997E+02  0.45594000000E+02  0.51100000000E-03 0. -1.
         11   -1    0    0    0    0 -0.00000000000E+00 -0.00000000000E+00 -0.45593999997E+02  0.45594000000E+02  0.51100000000E-03 0.  1.
    9900012    2    1    2    0    0  0.15192278583E+02 -0.48431493553E+01 -0.27612696102E+02  0.59301915100E+02  0.49999947243E+02 0.  0.
         12    1    1    2    0    0 -0.15192278583E+02  0.48431493553E+01  0.27612696102E+02  0.31886084900E+02  0.00000000000E+00 0. -1.
         11    1    3    3    0    0  0.80378989758E+01  0.79874172508E+01  0.57811995514E+01  0.12721199739E+02  0.51100000000E-03 0. -1.
        -11    1    3    3    0    0  0.57512135918E+01 -0.69528302896E+01 -0.37953015217E+02  0.39010891699E+02  0.51100000000E-03 0.  1.
         12    1    3    3    0    0  0.14031660159E+01 -0.58777363165E+01  0.45591195641E+01  0.75698236620E+01  0.00000000000E+00 0. -1.
</event>
<event>
 7    1  0.4489290E-013  0.5930194E+02  0.7816164E-02  0.1266605E+00
        -11   -1    0    0    0    0  0.00000000000E+00  0.00000000000E+00  0.45593999997E+02  0.45594000000E+02  0.51100000000E-03 0.  1.
         11   -1    0    0    0    0 -0.00000000000E+00 -0.00000000000E+00 -0.45593999997E+02  0.45594000000E+02  0.51100000000E-03 0. -1.
    9900012    2    1    2    0    0 -0.21930233984E+01  0.12792742841E+02  0.29124852737E+02  0.59301942420E+02  0.49999997069E+02 0.  0.
         12    1    1    2    0    0  0.21930233984E+01 -0.12792742841E+02 -0.29124852737E+02  0.31886057580E+02  0.00000000000E+00 0. -1.
         11    1    3    3    0    0  0.17768788301E+02  0.10381597199E+02  0.33218178909E+01  0.20845667954E+02  0.51100000000E-03 0. -1.
        -11    1    3    3    0    0 -0.16610886453E+02  0.10417774389E+02  0.15566384538E+02  0.25035253141E+02  0.51100000000E-03 0.  1.
         12    1    3    3    0    0 -0.33509252467E+01 -0.80066287463E+01  0.10236650308E+02  0.13421021326E+02  0.00000000000E+00 0. -1.
</event>
<event>
 7    1  0.4489290E-013  0.5930196E+02  0.7816164E-02  0.1266605E+00
        -11   -1    0    0    0    0  0.00000000000E+00  0.00000000000E+00  0.45593999997E+02  0.45594000000E+02  0.51100000000E-03 0.  1.
         11   -1    0    0    0    0 -0.00000000000E+00 -0.00000000000E+00 -0.45593999997E+02  0.45594000000E+02  0.51100000000E-03 0. -1.
    9900012    2    1    2    0    0 -0.11563970837E+02 -0.27677109480E+02  0.10815343396E+02  0.59301961308E+02  0.50000031516E+02 0.  0.
         12    1    1    2    0    0  0.11563970837E+02  0.27677109480E+02 -0.10815343396E+02  0.31886038692E+02  0.00000000000E+00 0. -1.
         11    1    3    3    0    0  0.47056587041E+01 -0.31228604221E+02 -0.27168305268E+01  0.31697793516E+02  0.51100000000E-03 0. -1.
        -11    1    3    3    0    0 -0.54241291623E+01  0.98410405894E+01  0.85218680042E+01  0.14102818569E+02  0.51100000000E-03 0.  1.
        -12    1    3    3    0    0 -0.10845500378E+02 -0.62895458483E+01  0.50103059186E+01  0.13501349223E+02  0.00000000000E+00 0.  1.
</event>
<event>
 7    1  0.4489290E-013  0.5930189E+02  0.7816164E-02  0.1266605E+00
        -11   -1    0    0    0    0  0.00000000000E+00  0.00000000000E+00  0.45593999997E+02  0.45594000000E+02  0.51100000000E-03 0. -1.
         11   -1    0    0    0    0 -0.00000000000E+00 -0.00000000000E+00 -0.45593999997E+02  0.45594000000E+02  0.51100000000E-03 0.  1.
    9900012    2    1    2    0    0  0.27281706474E+02  0.16152941308E+02  0.33933367006E+01  0.59301894013E+02  0.49999908786E+02 0.  0.
         12    1    1    2    0    0 -0.27281706474E+02 -0.16152941308E+02 -0.33933367006E+01  0.31886105987E+02  0.00000000000E+00 0. -1.
         11    1    3    3    0    0  0.91941283854E+01  0.88589715880E+01  0.11149944186E+01  0.12816262606E+02  0.51100000000E-03 0. -1.
        -11    1    3    3    0    0 -0.42335875038E+01 -0.14195177777E+02  0.43320088764E+01  0.15433490740E+02  0.51100000000E-03 0.  1.
        -12    1    3    3    0    0  0.22321165593E+02  0.21489147496E+02 -0.20536665944E+01  0.31052140667E+02  0.00000000000E+00 0.  1.
</event>
<event>
 7    1  0.4489290E-013  0.5930198E+02  0.7816164E-02  0.1266605E+00
        -11   -1    0    0    0    0  0.00000000000E+00  0.00000000000E+00  0.45593999997E+02  0.45594000000E+02  0.51100000000E-03 0.  1.
         11   -1    0    0    0    0 -0.00000000000E+00 -0.00000000000E+00 -0.45593999997E+02  0.45594000000E+02  0.51100000000E-03 0. -1.
    9900012    2    1    2    0    0 -0.16648499641E+02  0.15206327304E+01  0.27152047238E+02  0.59301975892E+02  0.50000058112E+02 0.  0.
         12    1    1    2    0    0  0.16648499641E+02 -0.15206327304E+01 -0.27152047238E+02  0.31886024108E+02  0.00000000000E+00 0. -1.
         11    1    3    3    0    0 -0.38227103637E+01 -0.10285037234E+02 -0.84136500986E+00  0.11004680857E+02  0.51100000000E-03 0. -1.
        -11    1    3    3    0    0 -0.97817792808E+00  0.38929061041E+01  0.32964451004E+02  0.33207929478E+02  0.51100000000E-03 0.  1.
        -12    1    3    3    0    0 -0.11847611349E+02  0.79127638602E+01 -0.49710387553E+01  0.15089365556E+02  0.00000000000E+00 0.  1.
</event>
<event>
 7    1  0.4489290E-013  0.5930196E+02  0.7816164E-02  0.1266605E+00
        -11   -1    0    0    0    0  0.00000000000E+00  0.00000000000E+00  0.45593999997E+02  0.45594000000E+02  0.51100000000E-03 0. -1.
         11   -1    0    0    0    0 -0.00000000000E+00 -0.00000000000E+00 -0.45593999997E+02  0.45594000000E+02  0.51100000000E-03 0.  1.
    9900012    2    1    2    0    0  0.13156283248E+02 -0.26384283399E+02 -0.12145017399E+02  0.59301958430E+02  0.50000026267E+02 0.  0.
         12    1    1    2    0    0 -0.13156283248E+02  0.26384283399E+02  0.12145017399E+02  0.31886041570E+02  0.00000000000E+00 0. -1.
         11    1    3    3    0    0  0.21662168757E+02 -0.41662361885E+01 -0.16972014492E+02  0.27832649091E+02  0.51100000000E-03 0. -1.
        -11    1    3    3    0    0 -0.66690529703E+01 -0.22094491170E+02 -0.31406252180E+01  0.23291765382E+02  0.51100000000E-03 0.  1.
         12    1    3    3    0    0 -0.18368325392E+01 -0.12355604055E+00  0.79676223116E+01  0.81775439572E+01  0.00000000000E+00 0. -1.
</event>
<event>
 7    1  0.4489290E-013  0.5930192E+02  0.7816164E-02  0.1266605E+00
        -11   -1    0    0    0    0  0.00000000000E+00  0.00000000000E+00  0.45593999997E+02  0.45594000000E+02  0.51100000000E-03 0. -1.
         11   -1    0    0    0    0 -0.00000000000E+00 -0.00000000000E+00 -0.45593999997E+02  0.45594000000E+02  0.51100000000E-03 0.  1.
    9900012    2    1    2    0    0 -0.31366223676E+02  0.24231287369E+01 -0.51971883818E+01  0.59301916709E+02  0.49999950177E+02 0.  0.
         12    1    1    2    0    0  0.31366223676E+02 -0.24231287369E+01  0.51971883818E+01  0.31886083291E+02  0.00000000000E+00 0. -1.
         11    1    3    3    0    0 -0.10689489393E+02  0.13681739141E+02  0.70065704627E+01  0.18722905739E+02  0.51100000000E-03 0. -1.
        -11    1    3    3    0    0 -0.55825141304E+01 -0.13575822831E+02  0.68186489229E+01  0.16185221746E+02  0.51100000000E-03 0.  1.
        -12    1    3    3    0    0 -0.15094220153E+02  0.23172124272E+01 -0.19022407767E+02  0.24393789224E+02  0.00000000000E+00 0.  1.
</event>
<event>
 7    1  0.4489290E-013  0.5930193E+02  0.7816164E-02  0.1266605E+00
        -11   -1    0    0    0    0  0.00000000000E+00  0.00000000000E+00  0.45593999997E+02  0.45594000000E+02  0.51100000000E-03 0.  1.
         11   -1    0    0    0    0 -0.00000000000E+00 -0.00000000000E+00 -0.45593999997E+02  0.45594000000E+02  0.51100000000E-03 0. -1.
    9900012    2    1    2    0    0 -0.15461613813E+02  0.24524441806E+02  0.13274483020E+02  0.59301927068E+02  0.49999969069E+02 0.  0.
         12    1    1    2    0    0  0.15461613813E+02 -0.24524441806E+02 -0.13274483020E+02  0.31886072932E+02  0.00000000000E+00 0. -1.
         11    1    3    3    0    0 -0.25402460054E+02  0.76268376613E+01  0.22145000886E+00  0.26523624750E+02  0.51100000000E-03 0.  1.
        -11    1    3    3    0    0  0.75200289473E+01  0.21894592684E+02  0.62148729410E+01  0.23969744890E+02  0.51100000000E-03 0. -1.
        -12    1    3    3    0    0  0.24208172933E+01 -0.49969885387E+01  0.68381600698E+01  0.88085574281E+01  0.00000000000E+00 0.  1.
</event>
<event>
 7    1  0.4489290E-013  0.5930171E+02  0.7816164E-02  0.1266606E+00
        -11   -1    0    0    0    0  0.00000000000E+00  0.00000000000E+00  0.45593999997E+02  0.45594000000E+02  0.51100000000E-03 0.  1.
         11   -1    0    0    0    0 -0.00000000000E+00 -0.00000000000E+00 -0.45593999997E+02  0.45594000000E+02  0.51100000000E-03 0. -1.
    9900012    2    1    2    0    0 -0.80557501149E+01  0.15355775815E+02  0.26758934450E+02  0.59301709314E+02  0.49999571937E+02 0.  0.
         12    1    1    2    0    0  0.80557501149E+01 -0.15355775815E+02 -0.26758934450E+02  0.31886290686E+02  0.00000000000E+00 0. -1.
         11    1    3    3    0    0  0.12957027145E+01 -0.14286977379E+01 -0.65868366620E+01  0.68634131614E+01  0.51100000000E-03 0. -1.
        -11    1    3    3    0    0 -0.65713752129E+01  0.27992287591E+02  0.21562429618E+02  0.35940082193E+02  0.51100000000E-03 0.  1.
        -12    1    3    3    0    0 -0.27800776166E+01 -0.11207814039E+02  0.11783341494E+02  0.16498213959E+02  0.00000000000E+00 0.  1.
</event>
<event>
 7    1  0.4489290E-013  0.5930163E+02  0.7816164E-02  0.1266606E+00
        -11   -1    0    0    0    0  0.00000000000E+00  0.00000000000E+00  0.45593999997E+02  0.45594000000E+02  0.51100000000E-03 0. -1.
         11   -1    0    0    0    0 -0.00000000000E+00 -0.00000000000E+00 -0.45593999997E+02  0.45594000000E+02  0.51100000000E-03 0.  1.
    9900012    2    1    2    0    0 -0.29013227635E+02 -0.83198873114E+01 -0.10283609139E+02  0.59301631131E+02  0.49999429349E+02 0.  0.
         12    1    1    2    0    0  0.29013227635E+02  0.83198873114E+01  0.10283609139E+02  0.31886368869E+02  0.00000000000E+00 0. -1.
         11    1    3    3    0    0  0.10427330648E+02 -0.13220852475E+02 -0.49299599392E+01  0.17544932883E+02  0.51100000000E-03 0.  1.
        -11    1    3    3    0    0 -0.33081881381E+02  0.51359788996E+01 -0.86681539928E+01  0.34582163739E+02  0.51100000000E-03 0. -1.
         12    1    3    3    0    0 -0.63586769026E+01 -0.23501373649E+00  0.33145047928E+01  0.71745345096E+01  0.00000000000E+00 0. -1.
</event>
<event>
 7    1  0.4489290E-013  0.5930209E+02  0.7816164E-02  0.1266604E+00
        -11   -1    0    0    0    0  0.00000000000E+00  0.00000000000E+00  0.45593999997E+02  0.45594000000E+02  0.51100000000E-03 0.  1.
         11   -1    0    0    0    0 -0.00000000000E+00 -0.00000000000E+00 -0.45593999997E+02  0.45594000000E+02  0.51100000000E-03 0. -1.
    9900012    2    1    2    0    0 -0.14509435913E+02  0.28046772722E+02  0.44233791226E+01  0.59302086598E+02  0.50000260013E+02 0.  0.
         12    1    1    2    0    0  0.14509435913E+02 -0.28046772722E+02 -0.44233791226E+01  0.31885913402E+02  0.00000000000E+00 0. -1.
         11    1    3    3    0    0 -0.10517662404E+01 -0.63769960354E+01  0.15894166761E+02  0.17157996035E+02  0.51100000000E-03 0.  1.
        -11    1    3    3    0    0 -0.15651852869E+02  0.24064393564E+02 -0.35607982762E+01  0.28926714650E+02  0.51100000000E-03 0. -1.
        -12    1    3    3    0    0  0.21941831960E+01  0.10359375193E+02 -0.79099893624E+01  0.13217375912E+02  0.00000000000E+00 0.  1.
</event>
<event>
 7    1  0.4489290E-013  0.5930195E+02  0.7816164E-02  0.1266605E+00
        -11   -1    0    0    0    0  0.00000000000E+00  0.00000000000E+00  0.45593999997E+02  0.45594000000E+02  0.51100000000E-03 0.  1.
         11   -1    0    0    0    0 -0.00000000000E+00 -0.00000000000E+00 -0.45593999997E+02  0.45594000000E+02  0.51100000000E-03 0. -1.
    9900012    2    1    2    0    0  0.24168544211E+02  0.17996185479E+02  0.10427799546E+02  0.59301949375E+02  0.50000009753E+02 0.  0.
         12    1    1    2    0    0 -0.24168544211E+02 -0.17996185479E+02 -0.10427799546E+02  0.31886050625E+02  0.00000000000E+00 0. -1.
         11    1    3    3    0    0 -0.46900412345E+01  0.68922853946E+01  0.19257149738E+02  0.20984229818E+02  0.51100000000E-03 0. -1.
        -11    1    3    3    0    0  0.16451399551E+02  0.29006414617E+01 -0.14772962026E+02  0.22300284198E+02  0.51100000000E-03 0.  1.
        -12    1    3    3    0    0  0.12407185895E+02  0.82032586231E+01  0.59436118329E+01  0.16017435359E+02  0.00000000000E+00 0.  1.
</event>
<event>
 7    1  0.4489290E-013  0.5930193E+02  0.7816164E-02  0.1266605E+00
        -11   -1    0    0    0    0  0.00000000000E+00  0.00000000000E+00  0.45593999997E+02  0.45594000000E+02  0.51100000000E-03 0.  1.
         11   -1    0    0    0    0 -0.00000000000E+00 -0.00000000000E+00 -0.45593999997E+02  0.45594000000E+02  0.51100000000E-03 0. -1.
    9900012    2    1    2    0    0 -0.55714443832E+01  0.25086796018E+02  0.18876785013E+02  0.59301931892E+02  0.49999977868E+02 0.  0.
         12    1    1    2    0    0  0.55714443832E+01 -0.25086796018E+02 -0.18876785013E+02  0.31886068108E+02  0.00000000000E+00 0. -1.
         11    1    3    3    0    0 -0.94104228247E+01 -0.51157328417E+00 -0.12879067376E+02  0.15958951773E+02  0.51100000000E-03 0. -1.
        -11    1    3    3    0    0 -0.48040792625E+01  0.13928048082E+02  0.18767334440E+02  0.23859642561E+02  0.51100000000E-03 0.  1.
         12    1    3    3    0    0  0.86430577040E+01  0.11670321220E+02  0.12988517950E+02  0.19483337558E+02  0.00000000000E+00 0. -1.
</event>
<event>
 7    1  0.4489290E-013  0.5930193E+02  0.7816164E-02  0.1266605E+00
        -11   -1    0    0    0    0  0.00000000000E+00  0.00000000000E+00  0.45593999997E+02  0.45594000000E+02  0.51100000000E-03 0. -1.
         11   -1    0    0    0    0 -0.00000000000E+00 -0.00000000000E+00 -0.45593999997E+02  0.45594000000E+02  0.51100000000E-03 0.  1.
    9900012    2    1    2    0    0  0.24407716910E+01  0.21330175248E+02 -0.23575150975E+02  0.59301929593E+02  0.49999973674E+02 0.  0.
         12    1    1    2    0    0 -0.24407716910E+01 -0.21330175248E+02  0.23575150975E+02  0.31886070407E+02  0.00000000000E+00 0. -1.
         11    1    3    3    0    0 -0.62920071047E+01  0.10461004777E+02  0.74398339711E+01  0.14295912147E+02  0.51100000000E-03 0. -1.
        -11    1    3    3    0    0  0.42068610482E+01  0.51896351609E+01 -0.35728805736E+02  0.36348006170E+02  0.51100000000E-03 0.  1.
        -12    1    3    3    0    0  0.45259177475E+01  0.56795353099E+01  0.47138207902E+01  0.86580112749E+01  0.00000000000E+00 0.  1.
</event>
<event>
 7    1  0.4489290E-013  0.5930195E+02  0.7816164E-02  0.1266605E+00
        -11   -1    0    0    0    0  0.00000000000E+00  0.00000000000E+00  0.45593999997E+02  0.45594000000E+02  0.51100000000E-03 0.  1.
         11   -1    0    0    0    0 -0.00000000000E+00 -0.00000000000E+00 -0.45593999997E+02  0.45594000000E+02  0.51100000000E-03 0. -1.
    9900012    2    1    2    0    0  0.29166168990E+02 -0.12051810894E+02  0.45616357818E+01  0.59301951634E+02  0.50000013872E+02 0.  0.
         12    1    1    2    0    0 -0.29166168990E+02  0.12051810894E+02 -0.45616357818E+01  0.31886048366E+02  0.00000000000E+00 0. -1.
         11    1    3    3    0    0  0.20920931113E+02 -0.12379562404E+02 -0.74361229615E+01  0.25421149638E+02  0.51100000000E-03 0. -1.
        -11    1    3    3    0    0  0.12654923336E+02  0.84804697754E+01  0.17420854883E+02  0.23141988622E+02  0.51100000000E-03 0.  1.
         12    1    3    3    0    0 -0.44096854589E+01 -0.81527182653E+01 -0.54230961392E+01  0.10738813375E+02  0.00000000000E+00 0. -1.
</event>
<event>
 7    1  0.4489290E-013  0.5930193E+02  0.7816164E-02  0.1266605E+00
        -11   -1    0    0    0    0  0.00000000000E+00  0.00000000000E+00  0.45593999997E+02  0.45594000000E+02  0.51100000000E-03 0.  1.
         11   -1    0    0    0    0 -0.00000000000E+00 -0.00000000000E+00 -0.45593999997E+02  0.45594000000E+02  0.51100000000E-03 0. -1.
    9900012    2    1    2    0    0  0.28794813539E+02 -0.13680994326E+02 -0.64091819687E+00  0.59301926730E+02  0.49999968452E+02 0.  0.
         12    1    1    2    0    0 -0.28794813539E+02  0.13680994326E+02  0.64091819687E+00  0.31886073270E+02  0.00000000000E+00 0. -1.
         11    1    3    3    0    0 -0.78948741942E+01 -0.59374095326E+01  0.35757472997E+01  0.10505609907E+02  0.51100000000E-03 0. -1.
        -11    1    3    3    0    0  0.33323127016E+02 -0.11672979760E+02 -0.13796636069E+02  0.37908263184E+02  0.51100000000E-03 0.  1.
        -12    1    3    3    0    0  0.33665607172E+01  0.39293949675E+01  0.95799705720E+01  0.10888053638E+02  0.00000000000E+00 0.  1.
</event>
<event>
 7    1  0.4489290E-013  0.5930201E+02  0.7816164E-02  0.1266605E+00
        -11   -1    0    0    0    0  0.00000000000E+00  0.00000000000E+00  0.45593999997E+02  0.45594000000E+02  0.51100000000E-03 0.  1.
         11   -1    0    0    0    0 -0.00000000000E+00 -0.00000000000E+00 -0.45593999997E+02  0.45594000000E+02  0.51100000000E-03 0. -1.
    9900012    2    1    2    0    0 -0.19878676259E+02 -0.53028920239E+01  0.24360495135E+02  0.59302013159E+02  0.50000126078E+02 0.  0.
         12    1    1    2    0    0  0.19878676259E+02  0.53028920239E+01 -0.24360495135E+02  0.31885986841E+02  0.00000000000E+00 0. -1.
         11    1    3    3    0    0 -0.27186140580E+02 -0.12338902719E+02 -0.12369962808E+01  0.29880845370E+02  0.51100000000E-03 0. -1.
        -11    1    3    3    0    0 -0.18133938827E+01 -0.12113640611E+01  0.45289065005E+01  0.50266086593E+01  0.51100000000E-03 0.  1.
         12    1    3    3    0    0  0.91208582046E+01  0.82473747564E+01  0.21068584916E+02  0.24394559129E+02  0.00000000000E+00 0. -1.
</event>
<event>
 7    1  0.4489290E-013  0.5930199E+02  0.7816164E-02  0.1266605E+00
        -11   -1    0    0    0    0  0.00000000000E+00  0.00000000000E+00  0.45593999997E+02  0.45594000000E+02  0.51100000000E-03 0. -1.
         11   -1    0    0    0    0 -0.00000000000E+00 -0.00000000000E+00 -0.45593999997E+02  0.45594000000E+02  0.51100000000E-03 0.  1.
    9900012    2    1    2    0    0  0.19198215338E+02  0.50563820475E+01 -0.24951541110E+02  0.59301986211E+02  0.50000076932E+02 0.  0.
         12    1    1    2    0    0 -0.19198215338E+02 -0.50563820475E+01  0.24951541110E+02  0.31886013789E+02  0.00000000000E+00 0. -1.
         11    1    3    3    0    0  0.80939827373E+01  0.89161796970E+01  0.30602809619E+01  0.12424819386E+02  0.51100000000E-03 0. -1.
        -11    1    3    3    0    0  0.37173743918E+01  0.74489154193E+01 -0.31781299653E+02  0.32853557207E+02  0.51100000000E-03 0.  1.
        -12    1    3    3    0    0  0.73868582092E+01 -0.11308713069E+02  0.37694775807E+01  0.14023609618E+02  0.00000000000E+00 0.  1.
</event>
<event>
 7    1  0.4489290E-013  0.5930200E+02  0.7816164E-02  0.1266605E+00
        -11   -1    0    0    0    0  0.00000000000E+00  0.00000000000E+00  0.45593999997E+02  0.45594000000E+02  0.51100000000E-03 0.  1.
         11   -1    0    0    0    0 -0.00000000000E+00 -0.00000000000E+00 -0.45593999997E+02  0.45594000000E+02  0.51100000000E-03 0. -1.
    9900012    2    1    2    0    0  0.17905946085E+02 -0.24417346813E+02  0.99943502263E+01  0.59302003591E+02  0.50000108629E+02 0.  0.
         12    1    1    2    0    0 -0.17905946085E+02  0.24417346813E+02 -0.99943502263E+01  0.31885996409E+02  0.00000000000E+00 0. -1.
         11    1    3    3    0    0  0.36720172707E+01  0.14741638495E+02  0.60103483722E+01  0.16337805978E+02  0.51100000000E-03 0. -1.
        -11    1    3    3    0    0  0.80377696448E+01 -0.18599412271E+02  0.66525479712E+01  0.21326046808E+02  0.51100000000E-03 0.  1.
        -12    1    3    3    0    0  0.61961591694E+01 -0.20559573036E+02 -0.26685461171E+01  0.21638150805E+02  0.00000000000E+00 0.  1.
</event>
<event>
 7    1  0.4489290E-013  0.5930196E+02  0.7816164E-02  0.1266605E+00
        -11   -1    0    0    0    0  0.00000000000E+00  0.00000000000E+00  0.45593999997E+02  0.45594000000E+02  0.51100000000E-03 0.  1.
         11   -1    0    0    0    0 -0.00000000000E+00 -0.00000000000E+00 -0.45593999997E+02  0.45594000000E+02  0.51100000000E-03 0. -1.
    9900012    2    1    2    0    0  0.94372727573E+01  0.11341162100E+02  0.28267215520E+02  0.59301959980E+02  0.50000029093E+02 0.  0.
         12    1    1    2    0    0 -0.94372727573E+01 -0.11341162100E+02 -0.28267215520E+02  0.31886040020E+02  0.00000000000E+00 0. -1.
         11    1    3    3    0    0  0.82413361084E+01  0.21603599261E+02  0.26548695769E+01  0.23274094067E+02  0.51100000000E-03 0. -1.
        -11    1    3    3    0    0 -0.63082659280E-01  0.51066140834E+01  0.18229028947E+02  0.18930900228E+02  0.51100000000E-03 0.  1.
         12    1    3    3    0    0  0.12590193081E+01 -0.15369051245E+02  0.73833169965E+01  0.17096965686E+02  0.00000000000E+00 0. -1.
</event>
<event>
 7    1  0.4489290E-013  0.5930190E+02  0.7816164E-02  0.1266605E+00
        -11   -1    0    0    0    0  0.00000000000E+00  0.00000000000E+00  0.45593999997E+02  0.45594000000E+02  0.51100000000E-03 0.  1.
         11   -1    0    0    0    0 -0.00000000000E+00 -0.00000000000E+00 -0.45593999997E+02  0.45594000000E+02  0.51100000000E-03 0. -1.
    9900012    2    1    2    0    0  0.18849926411E+02 -0.56303994290E+01  0.25093872081E+02  0.59301897393E+02  0.49999914950E+02 0.  0.
         12    1    1    2    0    0 -0.18849926411E+02  0.56303994290E+01 -0.25093872081E+02  0.31886102607E+02  0.00000000000E+00 0. -1.
         11    1    3    3    0    0  0.26596901489E+00  0.15106411323E+02  0.81676310840E+01  0.17175115731E+02  0.51100000000E-03 0. -1.
        -11    1    3    3    0    0 -0.26614376701E+01 -0.15552702063E+02  0.26215355286E+01  0.15995069263E+02  0.51100000000E-03 0.  1.
         12    1    3    3    0    0  0.21245395066E+02 -0.51841086886E+01  0.14304705468E+02  0.26131712400E+02  0.00000000000E+00 0. -1.
</event>
<event>
 7    1  0.4489290E-013  0.5930194E+02  0.7816164E-02  0.1266605E+00
        -11   -1    0    0    0    0  0.00000000000E+00  0.00000000000E+00  0.45593999997E+02  0.45594000000E+02  0.51100000000E-03 0.  1.
         11   -1    0    0    0    0 -0.00000000000E+00 -0.00000000000E+00 -0.45593999997E+02  0.45594000000E+02  0.51100000000E-03 0. -1.
    9900012    2    1    2    0    0  0.97872425845E+01 -0.28561606801E+02  0.10255028172E+02  0.59301935595E+02  0.49999984620E+02 0.  0.
         12    1    1    2    0    0 -0.97872425845E+01  0.28561606801E+02 -0.10255028172E+02  0.31886064405E+02  0.00000000000E+00 0. -1.
         11    1    3    3    0    0  0.36864147974E+01 -0.15369167302E+02 -0.88637563670E+01  0.18120903256E+02  0.51100000000E-03 0. -1.
        -11    1    3    3    0    0  0.15316564582E+01 -0.11132703792E+02  0.28450005178E+02  0.30588982659E+02  0.51100000000E-03 0.  1.
        -12    1    3    3    0    0  0.45691713288E+01 -0.20597357061E+01 -0.93312206383E+01  0.10592049679E+02  0.00000000000E+00 0.  1.
</event>
<event>
 7    1  0.4489290E-013  0.5930195E+02  0.7816164E-02  0.1266605E+00
        -11   -1    0    0    0    0  0.00000000000E+00  0.00000000000E+00  0.45593999997E+02  0.45594000000E+02  0.51100000000E-03 0.  1.
         11   -1    0    0    0    0 -0.00000000000E+00 -0.00000000000E+00 -0.45593999997E+02  0.45594000000E+02  0.51100000000E-03 0. -1.
    9900012    2    1    2    0    0  0.74787808706E+01  0.34449724261E-01  0.30996561452E+02  0.59301950198E+02  0.50000011254E+02 0.  0.
         12    1    1    2    0    0 -0.74787808706E+01 -0.34449724261E-01 -0.30996561452E+02  0.31886049802E+02  0.00000000000E+00 0. -1.
         11    1    3    3    0    0  0.10117912873E+02 -0.17785072482E+02  0.16086279427E+02  0.26027857195E+02  0.51100000000E-03 0. -1.
        -11    1    3    3    0    0  0.60188461417E+01  0.14449423483E+02 -0.62524601177E-01  0.15652995159E+02  0.51100000000E-03 0.  1.
         12    1    3    3    0    0 -0.86579781446E+01  0.33700987241E+01  0.14972806626E+02  0.17621097844E+02  0.00000000000E+00 0. -1.
</event>
<event>
 7    1  0.4489290E-013  0.5930194E+02  0.7816164E-02  0.1266605E+00
        -11   -1    0    0    0    0  0.00000000000E+00  0.00000000000E+00  0.45593999997E+02  0.45594000000E+02  0.51100000000E-03 0.  1.
         11   -1    0    0    0    0 -0.00000000000E+00 -0.00000000000E+00 -0.45593999997E+02  0.45594000000E+02  0.51100000000E-03 0. -1.
    9900012    2    1    2    0    0 -0.21865975623E+02  0.20053437331E+02  0.11681580297E+02  0.59301944161E+02  0.50000000243E+02 0.  0.
         12    1    1    2    0    0  0.21865975623E+02 -0.20053437331E+02 -0.11681580297E+02  0.31886055839E+02  0.00000000000E+00 0. -1.
         11    1    3    3    0    0  0.28192527186E+01  0.19416785039E+02  0.27306578506E+01  0.19809498220E+02  0.51100000000E-03 0. -1.
        -11    1    3    3    0    0 -0.15724693911E+02  0.48401744988E+01 -0.91766368209E+01  0.18838894644E+02  0.51100000000E-03 0.  1.
        -12    1    3    3    0    0 -0.89605344306E+01 -0.42035222074E+01  0.18127559267E+02  0.20653551298E+02  0.00000000000E+00 0.  1.
</event>
<event>
 7    1  0.4489290E-013  0.5930195E+02  0.7816164E-02  0.1266605E+00
        -11   -1    0    0    0    0  0.00000000000E+00  0.00000000000E+00  0.45593999997E+02  0.45594000000E+02  0.51100000000E-03 0.  1.
         11   -1    0    0    0    0 -0.00000000000E+00 -0.00000000000E+00 -0.45593999997E+02  0.45594000000E+02  0.51100000000E-03 0. -1.
    9900012    2    1    2    0    0 -0.97127475138E+01  0.29255357828E+02 -0.81551723154E+01  0.59301948796E+02  0.50000008696E+02 0.  0.
         12    1    1    2    0    0  0.97127475138E+01 -0.29255357828E+02  0.81551723154E+01  0.31886051204E+02  0.00000000000E+00 0. -1.
         11    1    3    3    0    0 -0.98782619874E+01 -0.98685195538E+01 -0.24199110496E+01  0.14171228169E+02  0.51100000000E-03 0. -1.
        -11    1    3    3    0    0  0.34775411919E+01  0.20970250860E+02  0.73691927700E+01  0.22497771361E+02  0.51100000000E-03 0.  1.
         12    1    3    3    0    0 -0.33120267182E+01  0.18153626521E+02 -0.13104454036E+02  0.22632949265E+02  0.00000000000E+00 0. -1.
</event>
<event>
 7    1  0.4489290E-013  0.5930195E+02  0.7816164E-02  0.1266605E+00
        -11   -1    0    0    0    0  0.00000000000E+00  0.00000000000E+00  0.45593999997E+02  0.45594000000E+02  0.51100000000E-03 0.  1.
         11   -1    0    0    0    0 -0.00000000000E+00 -0.00000000000E+00 -0.45593999997E+02  0.45594000000E+02  0.51100000000E-03 0. -1.
    9900012    2    1    2    0    0  0.16566485322E+01  0.28690482073E+02  0.13814196456E+02  0.59301948666E+02  0.50000008459E+02 0.  0.
         12    1    1    2    0    0 -0.16566485322E+01 -0.28690482073E+02 -0.13814196456E+02  0.31886051334E+02  0.00000000000E+00 0. -1.
         11    1    3    3    0    0  0.17643925857E+02 -0.16103691137E+01  0.81618642839E+01  0.19506856159E+02  0.51100000000E-03 0. -1.
        -11    1    3    3    0    0 -0.17515538500E+02  0.23058438898E+02 -0.21550313919E+01  0.29036698399E+02  0.51100000000E-03 0.  1.
        -12    1    3    3    0    0  0.15282611743E+01  0.72424122889E+01  0.78073635638E+01  0.10758394109E+02  0.00000000000E+00 0.  1.
</event>
<event>
 7    1  0.4489290E-013  0.5930195E+02  0.7816164E-02  0.1266605E+00
        -11   -1    0    0    0    0  0.00000000000E+00  0.00000000000E+00  0.45593999997E+02  0.45594000000E+02  0.51100000000E-03 0.  1.
         11   -1    0    0    0    0 -0.00000000000E+00 -0.00000000000E+00 -0.45593999997E+02  0.45594000000E+02  0.51100000000E-03 0. -1.
    9900012    2    1    2    0    0 -0.23899351576E+02 -0.18201177358E+02  0.10689165504E+02  0.59301950979E+02  0.50000012678E+02 0.  0.
         12    1    1    2    0    0  0.23899351576E+02  0.18201177358E+02 -0.10689165504E+02  0.31886049021E+02  0.00000000000E+00 0. -1.
         11    1    3    3    0    0  0.40194463528E+01 -0.14819870045E+02  0.89087867118E+00  0.15381097562E+02  0.51100000000E-03 0. -1.
        -11    1    3    3    0    0 -0.31615009151E+02  0.39230888047E+01  0.13907725680E+02  0.34760958894E+02  0.51100000000E-03 0.  1.
        -12    1    3    3    0    0  0.36962112224E+01 -0.73043961174E+01 -0.41094388471E+01  0.91598945234E+01  0.00000000000E+00 0.  1.
</event>
<event>
 7    1  0.4489290E-013  0.5930194E+02  0.7816164E-02  0.1266605E+00
        -11   -1    0    0    0    0  0.00000000000E+00  0.00000000000E+00  0.45593999997E+02  0.45594000000E+02  0.51100000000E-03 0.  1.
         11   -1    0    0    0    0 -0.00000000000E+00 -0.00000000000E+00 -0.45593999997E+02  0.45594000000E+02  0.51100000000E-03 0. -1.
    9900012    2    1    2    0    0 -0.72004586072E+01  0.11739674645E+02  0.28758555889E+02  0.59301935619E+02  0.49999984664E+02 0.  0.
         12    1    1    2    0    0  0.72004586072E+01 -0.11739674645E+02 -0.28758555889E+02  0.31886064381E+02  0.00000000000E+00 0. -1.
         11    1    3    3    0    0 -0.87163530209E+00  0.23562710172E+02  0.16240185006E+02  0.28630484943E+02  0.51100000000E-03 0. -1.
        -11    1    3    3    0    0  0.19572187852E+01 -0.13157267212E+02 -0.24356859529E+01  0.13523200516E+02  0.51100000000E-03 0.  1.
        -12    1    3    3    0    0 -0.82860420903E+01  0.13342316851E+01  0.14954056836E+02  0.17148250160E+02  0.00000000000E+00 0.  1.
</event>
<event>
 7    1  0.4489290E-013  0.5930196E+02  0.7816164E-02  0.1266605E+00
        -11   -1    0    0    0    0  0.00000000000E+00  0.00000000000E+00  0.45593999997E+02  0.45594000000E+02  0.51100000000E-03 0. -1.
         11   -1    0    0    0    0 -0.00000000000E+00 -0.00000000000E+00 -0.45593999997E+02  0.45594000000E+02  0.51100000000E-03 0.  1.
    9900012    2    1    2    0    0 -0.18026681278E+02 -0.19723393382E+02 -0.17399607501E+02  0.59301955630E+02  0.50000021159E+02 0.  0.
         12    1    1    2    0    0  0.18026681278E+02  0.19723393382E+02  0.17399607501E+02  0.31886044370E+02  0.00000000000E+00 0. -1.
         11    1    3    3    0    0  0.41410332696E+01 -0.84524991564E+01  0.10113617552E+02  0.13815866197E+02  0.51100000000E-03 0. -1.
        -11    1    3    3    0    0 -0.98479565485E+01 -0.18998039980E+02 -0.13567431342E+02  0.25337382753E+02  0.51100000000E-03 0.  1.
         12    1    3    3    0    0 -0.12319757999E+02  0.77271457545E+01 -0.13945793711E+02  0.20148706680E+02  0.00000000000E+00 0. -1.
</event>
<event>
 7    1  0.4489290E-013  0.5930196E+02  0.7816164E-02  0.1266605E+00
        -11   -1    0    0    0    0  0.00000000000E+00  0.00000000000E+00  0.45593999997E+02  0.45594000000E+02  0.51100000000E-03 0.  1.
         11   -1    0    0    0    0 -0.00000000000E+00 -0.00000000000E+00 -0.45593999997E+02  0.45594000000E+02  0.51100000000E-03 0. -1.
    9900012    2    1    2    0    0  0.18197687872E+02  0.84827819217E+01  0.24771076782E+02  0.59301957944E+02  0.50000025381E+02 0.  0.
         12    1    1    2    0    0 -0.18197687872E+02 -0.84827819217E+01 -0.24771076782E+02  0.31886042056E+02  0.00000000000E+00 0. -1.
         11    1    3    3    0    0 -0.14850868362E+01  0.13710325214E+02  0.29654267050E+02  0.32704037288E+02  0.51100000000E-03 0. -1.
        -11    1    3    3    0    0  0.13568022767E+02  0.38454520599E+01  0.10682482545E+01  0.14142839105E+02  0.51100000000E-03 0.  1.
         12    1    3    3    0    0  0.61147519412E+01 -0.90729953523E+01 -0.59514385225E+01  0.12455081551E+02  0.00000000000E+00 0. -1.
</event>
<event>
 7    1  0.4489290E-013  0.5930196E+02  0.7816164E-02  0.1266605E+00
        -11   -1    0    0    0    0  0.00000000000E+00  0.00000000000E+00  0.45593999997E+02  0.45594000000E+02  0.51100000000E-03 0.  1.
         11   -1    0    0    0    0 -0.00000000000E+00 -0.00000000000E+00 -0.45593999997E+02  0.45594000000E+02  0.51100000000E-03 0. -1.
    9900012    2    1    2    0    0  0.26399067456E+02 -0.22817265996E+01  0.17737029417E+02  0.59301964634E+02  0.50000037582E+02 0.  0.
         12    1    1    2    0    0 -0.26399067456E+02  0.22817265996E+01 -0.17737029417E+02  0.31886035366E+02  0.00000000000E+00 0. -1.
         11    1    3    3    0    0  0.38261827787E+01  0.97313996944E+01 -0.53746510831E+01  0.11756984698E+02  0.51100000000E-03 0. -1.
        -11    1    3    3    0    0  0.26152349105E+02 -0.18748469392E+02  0.23595319394E+02  0.39902250135E+02  0.51100000000E-03 0.  1.
        -12    1    3    3    0    0 -0.35794644279E+01  0.67353430980E+01 -0.48363889384E+00  0.76427298015E+01  0.00000000000E+00 0.  1.
</event>
<event>
 7    1  0.4489290E-013  0.5930195E+02  0.7816164E-02  0.1266605E+00
        -11   -1    0    0    0    0  0.00000000000E+00  0.00000000000E+00  0.45593999997E+02  0.45594000000E+02  0.51100000000E-03 0. -1.
         11   -1    0    0    0    0 -0.00000000000E+00 -0.00000000000E+00 -0.45593999997E+02  0.45594000000E+02  0.51100000000E-03 0.  1.
    9900012    2    1    2    0    0  0.93416389929E+01 -0.29567440038E+02  0.74310387360E+01  0.59301951857E+02  0.50000014279E+02 0.  0.
         12    1    1    2    0    0 -0.93416389929E+01  0.29567440038E+02 -0.74310387360E+01  0.31886048143E+02  0.00000000000E+00 0. -1.
         11    1    3    3    0    0 -0.11760186457E+02 -0.11898032997E+02  0.10117632684E+02  0.19550745922E+02  0.51100000000E-03 0. -1.
        -11    1    3    3    0    0  0.23042442858E+02 -0.23722376146E+02 -0.38316547917E+01  0.33292444812E+02  0.51100000000E-03 0.  1.
        -12    1    3    3    0    0 -0.19406174081E+01  0.60529691049E+01  0.11450608433E+01  0.64587611230E+01  0.00000000000E+00 0.  1.
</event>
<event>
 7    1  0.4489290E-013  0.5930195E+02  0.7816164E-02  0.1266605E+00
        -11   -1    0    0    0    0  0.00000000000E+00  0.00000000000E+00  0.45593999997E+02  0.45594000000E+02  0.51100000000E-03 0.  1.
         11   -1    0    0    0    0 -0.00000000000E+00 -0.00000000000E+00 -0.45593999997E+02  0.45594000000E+02  0.51100000000E-03 0. -1.
    9900012    2    1    2    0    0 -0.26219718501E+02 -0.60283972734E+01  0.17114458123E+02  0.59301954638E+02  0.50000019351E+02 0.  0.
         12    1    1    2    0    0  0.26219718501E+02  0.60283972734E+01 -0.17114458123E+02  0.31886045362E+02  0.00000000000E+00 0. -1.
         11    1    3    3    0    0 -0.32522333952E+02 -0.14882123790E+02  0.14756872290E+02  0.38690374698E+02  0.51100000000E-03 0. -1.
        -11    1    3    3    0    0  0.97033522953E+01 -0.12564247339E+01  0.61772141776E+00  0.98038374573E+01  0.51100000000E-03 0.  1.
         12    1    3    3    0    0 -0.34007368442E+01  0.10110151251E+02  0.17398644154E+01  0.10807742483E+02  0.00000000000E+00 0. -1.
</event>
<event>
 7    1  0.4489290E-013  0.5930193E+02  0.7816164E-02  0.1266605E+00
        -11   -1    0    0    0    0  0.00000000000E+00  0.00000000000E+00  0.45593999997E+02  0.45594000000E+02  0.51100000000E-03 0.  1.
         11   -1    0    0    0    0 -0.00000000000E+00 -0.00000000000E+00 -0.45593999997E+02  0.45594000000E+02  0.51100000000E-03 0. -1.
    9900012    2    1    2    0    0  0.31548077984E+01  0.64185060244E+01  0.31073645393E+02  0.59301929846E+02  0.49999974136E+02 0.  0.
         12    1    1    2    0    0 -0.31548077984E+01 -0.64185060244E+01 -0.31073645393E+02  0.31886070154E+02  0.00000000000E+00 0. -1.
         11    1    3    3    0    0  0.10560674278E+02 -0.15930948497E+02  0.17376214265E+01  0.19192245562E+02  0.51100000000E-03 0. -1.
        -11    1    3    3    0    0 -0.21983313340E+01  0.66490184985E+01  0.19832273297E+02  0.21032383888E+02  0.51100000000E-03 0.  1.
        -12    1    3    3    0    0 -0.52075351451E+01  0.15700436023E+02  0.95037506705E+01  0.19077300396E+02  0.00000000000E+00 0.  1.
</event>
<event>
 7    1  0.4489290E-013  0.5930194E+02  0.7816164E-02  0.1266605E+00
        -11   -1    0    0    0    0  0.00000000000E+00  0.00000000000E+00  0.45593999997E+02  0.45594000000E+02  0.51100000000E-03 0. -1.
         11   -1    0    0    0    0 -0.00000000000E+00 -0.00000000000E+00 -0.45593999997E+02  0.45594000000E+02  0.51100000000E-03 0.  1.
    9900012    2    1    2    0    0  0.26704020196E+01 -0.28140707758E+02 -0.14754337666E+02  0.59301937841E+02  0.49999988717E+02 0.  0.
         12    1    1    2    0    0 -0.26704020196E+01  0.28140707758E+02  0.14754337666E+02  0.31886062159E+02  0.00000000000E+00 0. -1.
         11    1    3    3    0    0 -0.11820138385E+02 -0.14921387379E+02 -0.20396057040E+01  0.19144802544E+02  0.51100000000E-03 0. -1.
        -11    1    3    3    0    0  0.13072546716E+02  0.84412417142E+01 -0.12566476156E+01  0.15611700830E+02  0.51100000000E-03 0.  1.
        -12    1    3    3    0    0  0.14179936890E+01 -0.21660562093E+02 -0.11458084346E+02  0.24545434467E+02  0.00000000000E+00 0.  1.
</event>
<event>
 7    1  0.4489290E-013  0.5930205E+02  0.7816164E-02  0.1266604E+00
        -11   -1    0    0    0    0  0.00000000000E+00  0.00000000000E+00  0.45593999997E+02  0.45594000000E+02  0.51100000000E-03 0.  1.
         11   -1    0    0    0    0 -0.00000000000E+00 -0.00000000000E+00 -0.45593999997E+02  0.45594000000E+02  0.51100000000E-03 0. -1.
    9900012    2    1    2    0    0  0.11499022635E+02  0.17686305498E+02  0.23909855422E+02  0.59302045254E+02  0.50000184613E+02 0.  0.
         12    1    1    2    0    0 -0.11499022635E+02 -0.17686305498E+02 -0.23909855422E+02  0.31885954746E+02  0.00000000000E+00 0. -1.
         11    1    3    3    0    0 -0.89848062675E+01  0.99224276231E+00  0.22405033194E+01  0.93129557472E+01  0.51100000000E-03 0. -1.
        -11    1    3    3    0    0  0.11566360941E+02  0.77234728974E+01  0.31194775246E+02  0.34154746990E+02  0.51100000000E-03 0.  1.
        -12    1    3    3    0    0  0.89174679619E+01  0.89705898385E+01 -0.95254231434E+01  0.15834342518E+02  0.00000000000E+00 0.  1.
</event>
<event>
 7    1  0.4489290E-013  0.5930194E+02  0.7816164E-02  0.1266605E+00
        -11   -1    0    0    0    0  0.00000000000E+00  0.00000000000E+00  0.45593999997E+02  0.45594000000E+02  0.51100000000E-03 0.  1.
         11   -1    0    0    0    0 -0.00000000000E+00 -0.00000000000E+00 -0.45593999997E+02  0.45594000000E+02  0.51100000000E-03 0. -1.
    9900012    2    1    2    0    0  0.31417817363E+02 -0.17830912073E+01  0.51441173257E+01  0.59301943405E+02  0.49999998864E+02 0.  0.
         12    1    1    2    0    0 -0.31417817363E+02  0.17830912073E+01 -0.51441173257E+01  0.31886056595E+02  0.00000000000E+00 0. -1.
         11    1    3    3    0    0 -0.52424574394E+01  0.27129109769E+01  0.92214600149E+01  0.10948907299E+02  0.51100000000E-03 0. -1.
        -11    1    3    3    0    0  0.36928831028E+02 -0.12608640514E+02 -0.71541407083E+01  0.39672384681E+02  0.51100000000E-03 0.  1.
        -12    1    3    3    0    0 -0.26855622596E+00  0.81126383298E+01  0.30767980191E+01  0.86806514252E+01  0.00000000000E+00 0.  1.
</event>
<event>
 7    1  0.4489290E-013  0.5930193E+02  0.7816164E-02  0.1266605E+00
        -11   -1    0    0    0    0  0.00000000000E+00  0.00000000000E+00  0.45593999997E+02  0.45594000000E+02  0.51100000000E-03 0.  1.
         11   -1    0    0    0    0 -0.00000000000E+00 -0.00000000000E+00 -0.45593999997E+02  0.45594000000E+02  0.51100000000E-03 0. -1.
    9900012    2    1    2    0    0  0.13232983236E+02  0.78491686331E+01  0.27928478790E+02  0.59301933747E+02  0.49999981250E+02 0.  0.
         12    1    1    2    0    0 -0.13232983236E+02 -0.78491686331E+01 -0.27928478790E+02  0.31886066253E+02  0.00000000000E+00 0. -1.
         11    1    3    3    0    0  0.21711173639E+02 -0.84305094929E+01  0.77986192793E+01  0.24561494540E+02  0.51100000000E-03 0. -1.
        -11    1    3    3    0    0 -0.15211418852E+01  0.20005094197E+02  0.16827841613E+02  0.26185757963E+02  0.51100000000E-03 0.  1.
        -12    1    3    3    0    0 -0.69570485177E+01 -0.37254160714E+01  0.33020178979E+01  0.85546812436E+01  0.00000000000E+00 0.  1.
</event>
<event>
 7    1  0.4489290E-013  0.5930171E+02  0.7816164E-02  0.1266606E+00
        -11   -1    0    0    0    0  0.00000000000E+00  0.00000000000E+00  0.45593999997E+02  0.45594000000E+02  0.51100000000E-03 0.  1.
         11   -1    0    0    0    0 -0.00000000000E+00 -0.00000000000E+00 -0.45593999997E+02  0.45594000000E+02  0.51100000000E-03 0. -1.
    9900012    2    1    2    0    0  0.19939854899E+02 -0.23627032343E+02 -0.78039160887E+01  0.59301708634E+02  0.49999570697E+02 0.  0.
         12    1    1    2    0    0 -0.19939854899E+02  0.23627032343E+02  0.78039160887E+01  0.31886291366E+02  0.00000000000E+00 0. -1.
         11    1    3    3    0    0  0.69095543764E+01  0.25681581944E+01 -0.60916787311E+01  0.95627364397E+01  0.51100000000E-03 0. -1.
        -11    1    3    3    0    0 -0.11141062811E+02 -0.19690025670E+02  0.62514273899E+01  0.23471274702E+02  0.51100000000E-03 0.  1.
        -12    1    3    3    0    0  0.24171363334E+02 -0.65051648674E+01 -0.79636647475E+01  0.26267697493E+02  0.00000000000E+00 0.  1.
</event>
<event>
 7    1  0.4489290E-013  0.5930201E+02  0.7816164E-02  0.1266605E+00
        -11   -1    0    0    0    0  0.00000000000E+00  0.00000000000E+00  0.45593999997E+02  0.45594000000E+02  0.51100000000E-03 0. -1.
         11   -1    0    0    0    0 -0.00000000000E+00 -0.00000000000E+00 -0.45593999997E+02  0.45594000000E+02  0.51100000000E-03 0.  1.
    9900012    2    1    2    0    0 -0.68920271887E+01  0.18155450762E+02 -0.25290239268E+02  0.59302005687E+02  0.50000112451E+02 0.  0.
         12    1    1    2    0    0  0.68920271887E+01 -0.18155450762E+02  0.25290239268E+02  0.31885994313E+02  0.00000000000E+00 0. -1.
         11    1    3    3    0    0  0.72016451011E+01 -0.16459123949E+01  0.92235692604E+01  0.11817231060E+02  0.51100000000E-03 0. -1.
        -11    1    3    3    0    0 -0.15321907630E+02  0.23869034059E+02 -0.30082142714E+02  0.41345216783E+02  0.51100000000E-03 0.  1.
        -12    1    3    3    0    0  0.12282353400E+01 -0.40676709024E+01 -0.44316658139E+01  0.61395578430E+01  0.00000000000E+00 0.  1.
</event>
<event>
 7    1  0.4489290E-013  0.5930198E+02  0.7816164E-02  0.1266605E+00
        -11   -1    0    0    0    0  0.00000000000E+00  0.00000000000E+00  0.45593999997E+02  0.45594000000E+02  0.51100000000E-03 0.  1.
         11   -1    0    0    0    0 -0.00000000000E+00 -0.00000000000E+00 -0.45593999997E+02  0.45594000000E+02  0.51100000000E-03 0. -1.
    9900012    2    1    2    0    0  0.24240013569E+02  0.51261714752E+00  0.20709358986E+02  0.59301975103E+02  0.50000056673E+02 0.  0.
         12    1    1    2    0    0 -0.24240013569E+02 -0.51261714752E+00 -0.20709358986E+02  0.31886024897E+02  0.00000000000E+00 0. -1.
         11    1    3    3    0    0  0.89114721505E+01 -0.11764918007E+02 -0.73055951246E+01  0.16468131405E+02  0.51100000000E-03 0. -1.
        -11    1    3    3    0    0  0.15552463179E+01  0.12551602563E+02  0.25997672230E+02  0.28910905895E+02  0.51100000000E-03 0.  1.
        -12    1    3    3    0    0  0.13773295100E+02 -0.27406740834E+00  0.20172818798E+01  0.13922937802E+02  0.00000000000E+00 0.  1.
</event>
<event>
 7    1  0.4489290E-013  0.5930195E+02  0.7816164E-02  0.1266605E+00
        -11   -1    0    0    0    0  0.00000000000E+00  0.00000000000E+00  0.45593999997E+02  0.45594000000E+02  0.51100000000E-03 0.  1.
         11   -1    0    0    0    0 -0.00000000000E+00 -0.00000000000E+00 -0.45593999997E+02  0.45594000000E+02  0.51100000000E-03 0. -1.
    9900012    2    1    2    0    0 -0.12801171442E+02 -0.16425204718E+02  0.24146692655E+02  0.59301951225E+02  0.50000013126E+02 0.  0.
         12    1    1    2    0    0  0.12801171442E+02  0.16425204718E+02 -0.24146692655E+02  0.31886048775E+02  0.00000000000E+00 0. -1.
         11    1    3    3    0    0 -0.20702172608E+02 -0.75304409989E+01 -0.16148366823E+01  0.22088349646E+02  0.51100000000E-03 0. -1.
        -11    1    3    3    0    0  0.14663425387E+02 -0.74412544030E+00  0.85090030960E+01  0.16969764309E+02  0.51100000000E-03 0.  1.
        -12    1    3    3    0    0 -0.67624242215E+01 -0.81506382789E+01  0.17252526241E+02  0.20243837270E+02  0.00000000000E+00 0.  1.
</event>
<event>
 7    1  0.4489290E-013  0.5930194E+02  0.7816164E-02  0.1266605E+00
        -11   -1    0    0    0    0  0.00000000000E+00  0.00000000000E+00  0.45593999997E+02  0.45594000000E+02  0.51100000000E-03 0.  1.
         11   -1    0    0    0    0 -0.00000000000E+00 -0.00000000000E+00 -0.45593999997E+02  0.45594000000E+02  0.51100000000E-03 0. -1.
    9900012    2    1    2    0    0 -0.19751222203E+02 -0.23780323490E+02  0.78170605392E+01  0.59301937225E+02  0.49999987594E+02 0.  0.
         12    1    1    2    0    0  0.19751222203E+02  0.23780323490E+02 -0.78170605392E+01  0.31886062775E+02  0.00000000000E+00 0. -1.
         11    1    3    3    0    0 -0.10529775299E+02  0.34021519634E+01  0.17936561610E+01  0.11210174330E+02  0.51100000000E-03 0. -1.
        -11    1    3    3    0    0  0.58364171140E+01 -0.22429692600E+02 -0.10316583313E+02  0.25369011931E+02  0.51100000000E-03 0.  1.
        -12    1    3    3    0    0 -0.15057864018E+02 -0.47527828538E+01  0.16339987691E+02  0.22722750964E+02  0.00000000000E+00 0.  1.
</event>
<event>
 7    1  0.4489290E-013  0.5930195E+02  0.7816164E-02  0.1266605E+00
        -11   -1    0    0    0    0  0.00000000000E+00  0.00000000000E+00  0.45593999997E+02  0.45594000000E+02  0.51100000000E-03 0.  1.
         11   -1    0    0    0    0 -0.00000000000E+00 -0.00000000000E+00 -0.45593999997E+02  0.45594000000E+02  0.51100000000E-03 0. -1.
    9900012    2    1    2    0    0  0.29668021411E+02 -0.51771459417E+00  0.11673078623E+02  0.59301948388E+02  0.50000007952E+02 0.  0.
         12    1    1    2    0    0 -0.29668021411E+02  0.51771459417E+00 -0.11673078623E+02  0.31886051612E+02  0.00000000000E+00 0. -1.
         11    1    3    3    0    0  0.33642630803E+01 -0.85603004342E+01 -0.27411744628E+01  0.95974500413E+01  0.51100000000E-03 0. -1.
        -11    1    3    3    0    0 -0.17628945603E+00  0.13758001595E+02  0.17697038774E+02  0.22416486511E+02  0.51100000000E-03 0.  1.
        -12    1    3    3    0    0  0.26480047787E+02 -0.57154157551E+01 -0.32827856882E+01  0.27288011835E+02  0.00000000000E+00 0.  1.
</event>
<event>
 7    1  0.4489290E-013  0.5930194E+02  0.7816164E-02  0.1266605E+00
        -11   -1    0    0    0    0  0.00000000000E+00  0.00000000000E+00  0.45593999997E+02  0.45594000000E+02  0.51100000000E-03 0.  1.
         11   -1    0    0    0    0 -0.00000000000E+00 -0.00000000000E+00 -0.45593999997E+02  0.45594000000E+02  0.51100000000E-03 0. -1.
    9900012    2    1    2    0    0  0.10207283344E+02 -0.14376173922E+02  0.26567983779E+02  0.59301940789E+02  0.49999994094E+02 0.  0.
         12    1    1    2    0    0 -0.10207283344E+02  0.14376173922E+02 -0.26567983779E+02  0.31886059211E+02  0.00000000000E+00 0. -1.
         11    1    3    3    0    0  0.10933778060E+02 -0.23527055254E+02 -0.13282413968E+01  0.25977568344E+02  0.51100000000E-03 0. -1.
        -11    1    3    3    0    0  0.66343159513E+01  0.74325972956E+01  0.20274424081E+02  0.22590040345E+02  0.51100000000E-03 0.  1.
         12    1    3    3    0    0 -0.73608106680E+01  0.17182840362E+01  0.76218010949E+01  0.10734332101E+02  0.00000000000E+00 0. -1.
</event>
<event>
 7    1  0.4489290E-013  0.5930197E+02  0.7816164E-02  0.1266605E+00
        -11   -1    0    0    0    0  0.00000000000E+00  0.00000000000E+00  0.45593999997E+02  0.45594000000E+02  0.51100000000E-03 0.  1.
         11   -1    0    0    0    0 -0.00000000000E+00 -0.00000000000E+00 -0.45593999997E+02  0.45594000000E+02  0.51100000000E-03 0. -1.
    9900012    2    1    2    0    0 -0.18122276820E+02 -0.25502416166E+02 -0.61586518121E+01  0.59301966387E+02  0.50000040778E+02 0.  0.
         12    1    1    2    0    0  0.18122276820E+02  0.25502416166E+02  0.61586518121E+01  0.31886033613E+02  0.00000000000E+00 0. -1.
         11    1    3    3    0    0 -0.16723548063E+02 -0.72541020836E+01  0.46716473111E+01  0.18818165312E+02  0.51100000000E-03 0. -1.
        -11    1    3    3    0    0  0.14509126290E+02 -0.17524730751E+02 -0.89511429970E+01  0.24449006009E+02  0.51100000000E-03 0.  1.
        -12    1    3    3    0    0 -0.15907855048E+02 -0.72358333077E+00 -0.18791561262E+01  0.16034795066E+02  0.00000000000E+00 0.  1.
</event>
<event>
 7    1  0.4489290E-013  0.5930196E+02  0.7816164E-02  0.1266605E+00
        -11   -1    0    0    0    0  0.00000000000E+00  0.00000000000E+00  0.45593999997E+02  0.45594000000E+02  0.51100000000E-03 0.  1.
         11   -1    0    0    0    0 -0.00000000000E+00 -0.00000000000E+00 -0.45593999997E+02  0.45594000000E+02  0.51100000000E-03 0. -1.
    9900012    2    1    2    0    0 -0.33660087619E+01 -0.55006648455E+01  0.31227110188E+02  0.59301956981E+02  0.50000023624E+02 0.  0.
         12    1    1    2    0    0  0.33660087619E+01  0.55006648455E+01 -0.31227110188E+02  0.31886043019E+02  0.00000000000E+00 0. -1.
         11    1    3    3    0    0  0.57829105009E+01 -0.89860678884E+01 -0.51478786528E+01  0.11861371120E+02  0.51100000000E-03 0. -1.
        -11    1    3    3    0    0 -0.13356609075E+01  0.78759805257E+01  0.37560086051E+02  0.38400196923E+02  0.51100000000E-03 0.  1.
        -12    1    3    3    0    0 -0.78132583553E+01 -0.43905774828E+01 -0.11850972104E+01  0.90403889384E+01  0.00000000000E+00 0.  1.
</event>
<event>
 7    1  0.4489290E-013  0.5930203E+02  0.7816164E-02  0.1266604E+00
        -11   -1    0    0    0    0  0.00000000000E+00  0.00000000000E+00  0.45593999997E+02  0.45594000000E+02  0.51100000000E-03 0. -1.
         11   -1    0    0    0    0 -0.00000000000E+00 -0.00000000000E+00 -0.45593999997E+02  0.45594000000E+02  0.51100000000E-03 0.  1.
    9900012    2    1    2    0    0 -0.22163160581E+02  0.29829221675E+01 -0.22729095122E+02  0.59302026960E+02  0.50000151249E+02 0.  0.
         12    1    1    2    0    0  0.22163160581E+02 -0.29829221675E+01  0.22729095122E+02  0.31885973040E+02  0.00000000000E+00 0. -1.
         11    1    3    3    0    0  0.16546325020E+01  0.36662727526E+01  0.47896956460E+01  0.62546422165E+01  0.51100000000E-03 0. -1.
        -11    1    3    3    0    0 -0.26851398517E+02  0.10057374214E+02 -0.67304668204E+01  0.29452462754E+02  0.51100000000E-03 0.  1.
        -12    1    3    3    0    0  0.30336054342E+01 -0.10740724799E+02 -0.20788323948E+02  0.23594921990E+02  0.00000000000E+00 0.  1.
</event>
<event>
 7    1  0.4489290E-013  0.5930193E+02  0.7816164E-02  0.1266605E+00
        -11   -1    0    0    0    0  0.00000000000E+00  0.00000000000E+00  0.45593999997E+02  0.45594000000E+02  0.51100000000E-03 0. -1.
         11   -1    0    0    0    0 -0.00000000000E+00 -0.00000000000E+00 -0.45593999997E+02  0.45594000000E+02  0.51100000000E-03 0.  1.
    9900012    2    1    2    0    0 -0.97563614879E+01  0.15378560582E+02 -0.26173164309E+02  0.59301933372E+02  0.49999980567E+02 0.  0.
         12    1    1    2    0    0  0.97563614879E+01 -0.15378560582E+02  0.26173164309E+02  0.31886066628E+02  0.00000000000E+00 0. -1.
         11    1    3    3    0    0  0.67489884056E+01 -0.39575013019E+01 -0.22480253033E+00  0.78269532701E+01  0.51100000000E-03 0. -1.
        -11    1    3    3    0    0 -0.15203091630E+02  0.21117881176E+02 -0.59724352373E+00  0.26027977266E+02  0.51100000000E-03 0.  1.
        -12    1    3    3    0    0 -0.13022582630E+01 -0.17818192916E+01 -0.25351118255E+02  0.25447002836E+02  0.00000000000E+00 0.  1.
</event>
<event>
 7    1  0.4489290E-013  0.5930193E+02  0.7816164E-02  0.1266605E+00
        -11   -1    0    0    0    0  0.00000000000E+00  0.00000000000E+00  0.45593999997E+02  0.45594000000E+02  0.51100000000E-03 0.  1.
         11   -1    0    0    0    0 -0.00000000000E+00 -0.00000000000E+00 -0.45593999997E+02  0.45594000000E+02  0.51100000000E-03 0. -1.
    9900012    2    1    2    0    0  0.81812775002E+01 -0.97972772760E+00  0.30803055609E+02  0.59301930897E+02  0.49999976054E+02 0.  0.
         12    1    1    2    0    0 -0.81812775002E+01  0.97972772760E+00 -0.30803055609E+02  0.31886069103E+02  0.00000000000E+00 0. -1.
         11    1    3    3    0    0  0.21497255611E+02  0.12692762221E+01  0.16922337317E+02  0.27388109856E+02  0.51100000000E-03 0.  1.
        -11    1    3    3    0    0 -0.20357012199E+02 -0.35265339461E+01  0.13634358503E+02  0.24753588010E+02  0.51100000000E-03 0. -1.
         12    1    3    3    0    0  0.70410340878E+01  0.12775299963E+01  0.24635978889E+00  0.71602330313E+01  0.00000000000E+00 0. -1.
</event>
<event>
 7    1  0.4489290E-013  0.5930194E+02  0.7816164E-02  0.1266605E+00
        -11   -1    0    0    0    0  0.00000000000E+00  0.00000000000E+00  0.45593999997E+02  0.45594000000E+02  0.51100000000E-03 0.  1.
         11   -1    0    0    0    0 -0.00000000000E+00 -0.00000000000E+00 -0.45593999997E+02  0.45594000000E+02  0.51100000000E-03 0. -1.
    9900012    2    1    2    0    0  0.48006021455E+01  0.21788909224E+02  0.22779779253E+02  0.59301942091E+02  0.49999996469E+02 0.  0.
         12    1    1    2    0    0 -0.48006021455E+01 -0.21788909224E+02 -0.22779779253E+02  0.31886057909E+02  0.00000000000E+00 0. -1.
         11    1    3    3    0    0 -0.40161680640E+01 -0.24931556150E+01  0.13969151981E+02  0.14747292571E+02  0.51100000000E-03 0.  1.
        -11    1    3    3    0    0 -0.72149739623E+01  0.26308017549E+02  0.32837337300E+01  0.27476363371E+02  0.51100000000E-03 0. -1.
        -12    1    3    3    0    0  0.16031744172E+02 -0.20259527097E+01  0.55268935415E+01  0.17078286149E+02  0.00000000000E+00 0.  1.
</event>
<event>
 7    1  0.4489290E-013  0.5930194E+02  0.7816164E-02  0.1266605E+00
        -11   -1    0    0    0    0  0.00000000000E+00  0.00000000000E+00  0.45593999997E+02  0.45594000000E+02  0.51100000000E-03 0.  1.
         11   -1    0    0    0    0 -0.00000000000E+00 -0.00000000000E+00 -0.45593999997E+02  0.45594000000E+02  0.51100000000E-03 0. -1.
    9900012    2    1    2    0    0  0.17302226944E+02 -0.24174155831E+01 -0.26674144460E+02  0.59301938186E+02  0.49999989345E+02 0.  0.
         12    1    1    2    0    0 -0.17302226944E+02  0.24174155831E+01  0.26674144460E+02  0.31886061814E+02  0.00000000000E+00 0. -1.
         11    1    3    3    0    0  0.16096006807E+02  0.15578180753E+02 -0.19449780544E+02  0.29665722883E+02  0.51100000000E-03 0. -1.
        -11    1    3    3    0    0  0.98436721781E+01 -0.16744166764E+02 -0.77040833412E+01  0.20895403872E+02  0.51100000000E-03 0.  1.
        -12    1    3    3    0    0 -0.86374520412E+01 -0.12514295718E+01  0.47971942453E+00  0.87408114305E+01  0.00000000000E+00 0.  1.
</event>
<event>
 7    1  0.4489290E-013  0.5930196E+02  0.7816164E-02  0.1266605E+00
        -11   -1    0    0    0    0  0.00000000000E+00  0.00000000000E+00  0.45593999997E+02  0.45594000000E+02  0.51100000000E-03 0.  1.
         11   -1    0    0    0    0 -0.00000000000E+00 -0.00000000000E+00 -0.45593999997E+02  0.45594000000E+02  0.51100000000E-03 0. -1.
    9900012    2    1    2    0    0 -0.82534559128E+01 -0.17794832263E+02  0.25138496758E+02  0.59301959025E+02  0.50000027352E+02 0.  0.
         12    1    1    2    0    0  0.82534559128E+01  0.17794832263E+02 -0.25138496758E+02  0.31886040975E+02  0.00000000000E+00 0. -1.
         11    1    3    3    0    0 -0.95885096157E+01  0.67147943327E+01 -0.43006418767E+01  0.12470906158E+02  0.51100000000E-03 0. -1.
        -11    1    3    3    0    0 -0.72664351300E+01 -0.22271964434E+02  0.29835859540E+02  0.37934417011E+02  0.51100000000E-03 0.  1.
         12    1    3    3    0    0  0.86014888329E+01 -0.22376621617E+01 -0.39672090460E+00  0.88966358568E+01  0.00000000000E+00 0. -1.
</event>
<event>
 7    1  0.4489290E-013  0.5930195E+02  0.7816164E-02  0.1266605E+00
        -11   -1    0    0    0    0  0.00000000000E+00  0.00000000000E+00  0.45593999997E+02  0.45594000000E+02  0.51100000000E-03 0. -1.
         11   -1    0    0    0    0 -0.00000000000E+00 -0.00000000000E+00 -0.45593999997E+02  0.45594000000E+02  0.51100000000E-03 0.  1.
    9900012    2    1    2    0    0  0.16905882349E+02  0.22028304505E+02 -0.15673714034E+02  0.59301947109E+02  0.50000005619E+02 0.  0.
         12    1    1    2    0    0 -0.16905882349E+02 -0.22028304505E+02  0.15673714034E+02  0.31886052891E+02  0.00000000000E+00 0. -1.
         11    1    3    3    0    0  0.14224921653E+02  0.10637159785E+02 -0.44173501968E+01  0.18303293347E+02  0.51100000000E-03 0. -1.
        -11    1    3    3    0    0 -0.34580410342E+01  0.23145697047E+02 -0.14255596487E+02  0.27402616135E+02  0.51100000000E-03 0.  1.
        -12    1    3    3    0    0  0.61390017303E+01 -0.11754552327E+02  0.29992326496E+01  0.13596037627E+02  0.00000000000E+00 0.  1.
</event>
<event>
 7    1  0.4489290E-013  0.5930192E+02  0.7816164E-02  0.1266605E+00
        -11   -1    0    0    0    0  0.00000000000E+00  0.00000000000E+00  0.45593999997E+02  0.45594000000E+02  0.51100000000E-03 0. -1.
         11   -1    0    0    0    0 -0.00000000000E+00 -0.00000000000E+00 -0.45593999997E+02  0.45594000000E+02  0.51100000000E-03 0.  1.
    9900012    2    1    2    0    0 -0.31280618524E+02  0.52519450103E+01 -0.32652744183E+01  0.59301920927E+02  0.49999957869E+02 0.  0.
         12    1    1    2    0    0  0.31280618524E+02 -0.52519450103E+01  0.32652744183E+01  0.31886079073E+02  0.00000000000E+00 0. -1.
         11    1    3    3    0    0 -0.18452733542E+02  0.17005249356E+02  0.41557208113E+01  0.25435249096E+02  0.51100000000E-03 0. -1.
        -11    1    3    3    0    0 -0.77709407148E+01 -0.92526806090E+01 -0.18115475910E+02  0.21775446855E+02  0.51100000000E-03 0.  1.
        -12    1    3    3    0    0 -0.50569442672E+01 -0.25006237370E+01  0.10694480680E+02  0.12091224975E+02  0.00000000000E+00 0.  1.
</event>
<event>
 7    1  0.4489290E-013  0.5930193E+02  0.7816164E-02  0.1266605E+00
        -11   -1    0    0    0    0  0.00000000000E+00  0.00000000000E+00  0.45593999997E+02  0.45594000000E+02  0.51100000000E-03 0. -1.
         11   -1    0    0    0    0 -0.00000000000E+00 -0.00000000000E+00 -0.45593999997E+02  0.45594000000E+02  0.51100000000E-03 0.  1.
    9900012    2    1    2    0    0 -0.25558021497E+02 -0.14617686189E+02  0.12240598013E+02  0.59301930125E+02  0.49999974645E+02 0.  0.
         12    1    1    2    0    0  0.25558021497E+02  0.14617686189E+02 -0.12240598013E+02  0.31886069875E+02  0.00000000000E+00 0. -1.
         11    1    3    3    0    0 -0.29295104908E+01  0.76216436628E+01  0.75379398192E+01  0.11112696379E+02  0.51100000000E-03 0. -1.
        -11    1    3    3    0    0 -0.14340228068E+02 -0.28645625506E+02  0.13252442468E+02  0.34667581879E+02  0.51100000000E-03 0.  1.
        -12    1    3    3    0    0 -0.82882829384E+01  0.64062956546E+01 -0.85497842742E+01  0.13521651867E+02  0.00000000000E+00 0.  1.
</event>
<event>
 7    1  0.4489290E-013  0.5930191E+02  0.7816164E-02  0.1266605E+00
        -11   -1    0    0    0    0  0.00000000000E+00  0.00000000000E+00  0.45593999997E+02  0.45594000000E+02  0.51100000000E-03 0.  1.
         11   -1    0    0    0    0 -0.00000000000E+00 -0.00000000000E+00 -0.45593999997E+02  0.45594000000E+02  0.51100000000E-03 0. -1.
    9900012    2    1    2    0    0 -0.29075164822E+02  0.73110553061E+01  0.10858444927E+02  0.59301912668E+02  0.49999942807E+02 0.  0.
         12    1    1    2    0    0  0.29075164822E+02 -0.73110553061E+01 -0.10858444927E+02  0.31886087332E+02  0.00000000000E+00 0. -1.
         11    1    3    3    0    0 -0.23827683421E+02  0.24334358561E+02 -0.37085116252E+01  0.34258904865E+02  0.51100000000E-03 0. -1.
        -11    1    3    3    0    0 -0.41949486934E+01 -0.47734913010E+01  0.10156860501E+02  0.11981052927E+02  0.51100000000E-03 0.  1.
         12    1    3    3    0    0 -0.10525327080E+01 -0.12249811954E+02  0.44100960511E+01  0.13061954876E+02  0.00000000000E+00 0. -1.
</event>
<event>
 7    1  0.4489290E-013  0.5930167E+02  0.7816164E-02  0.1266606E+00
        -11   -1    0    0    0    0  0.00000000000E+00  0.00000000000E+00  0.45593999997E+02  0.45594000000E+02  0.51100000000E-03 0. -1.
         11   -1    0    0    0    0 -0.00000000000E+00 -0.00000000000E+00 -0.45593999997E+02  0.45594000000E+02  0.51100000000E-03 0.  1.
    9900012    2    1    2    0    0 -0.24969875917E+02  0.18984574010E+02 -0.57296740218E+01  0.59301671926E+02  0.49999503749E+02 0.  0.
         12    1    1    2    0    0  0.24969875917E+02 -0.18984574010E+02  0.57296740218E+01  0.31886328074E+02  0.00000000000E+00 0. -1.
         11    1    3    3    0    0 -0.45016770680E+01 -0.93204679631E+01  0.37672181671E+01  0.11014905921E+02  0.51100000000E-03 0. -1.
        -11    1    3    3    0    0  0.83925979326E+00  0.24371617212E+02  0.57485896852E+00  0.24392837999E+02  0.51100000000E-03 0.  1.
        -12    1    3    3    0    0 -0.21307458642E+02  0.39334247609E+01 -0.10071751157E+02  0.23893928005E+02  0.00000000000E+00 0.  1.
</event>
<event>
 7    1  0.4489290E-013  0.5930198E+02  0.7816164E-02  0.1266605E+00
        -11   -1    0    0    0    0  0.00000000000E+00  0.00000000000E+00  0.45593999997E+02  0.45594000000E+02  0.51100000000E-03 0.  1.
         11   -1    0    0    0    0 -0.00000000000E+00 -0.00000000000E+00 -0.45593999997E+02  0.45594000000E+02  0.51100000000E-03 0. -1.
    9900012    2    1    2    0    0 -0.25788754502E+02  0.14150627778E+02  0.12305211940E+02  0.59301978515E+02  0.50000062896E+02 0.  0.
         12    1    1    2    0    0  0.25788754502E+02 -0.14150627778E+02 -0.12305211940E+02  0.31886021485E+02  0.00000000000E+00 0. -1.
         11    1    3    3    0    0  0.49710351521E+01  0.10946641281E+02  0.16331317904E+02  0.20279351335E+02  0.51100000000E-03 0. -1.
        -11    1    3    3    0    0 -0.18144338491E+02 -0.94204134113E+01  0.10391351941E+01  0.20470491209E+02  0.51100000000E-03 0.  1.
         12    1    3    3    0    0 -0.12615451163E+02  0.12624399909E+02 -0.50652411582E+01  0.18552135971E+02  0.00000000000E+00 0. -1.
</event>
<event>
 7    1  0.4489290E-013  0.5930195E+02  0.7816164E-02  0.1266605E+00
        -11   -1    0    0    0    0  0.00000000000E+00  0.00000000000E+00  0.45593999997E+02  0.45594000000E+02  0.51100000000E-03 0.  1.
         11   -1    0    0    0    0 -0.00000000000E+00 -0.00000000000E+00 -0.45593999997E+02  0.45594000000E+02  0.51100000000E-03 0. -1.
    9900012    2    1    2    0    0 -0.18932071332E+02 -0.22384376398E+01  0.25559465180E+02  0.59301949942E+02  0.50000010787E+02 0.  0.
         12    1    1    2    0    0  0.18932071332E+02  0.22384376398E+01 -0.25559465180E+02  0.31886050058E+02  0.00000000000E+00 0. -1.
         11    1    3    3    0    0 -0.17397500515E+02 -0.21557665774E+02  0.66992331561E+01  0.28500626360E+02  0.51100000000E-03 0. -1.
        -11    1    3    3    0    0  0.51282042466E+01  0.16075187741E+02  0.12024982933E+02  0.20719805851E+02  0.51100000000E-03 0.  1.
         12    1    3    3    0    0 -0.66627750642E+01  0.32440403936E+01  0.68352490906E+01  0.10081517731E+02  0.00000000000E+00 0. -1.
</event>
<event>
 7    1  0.4489290E-013  0.5930195E+02  0.7816164E-02  0.1266605E+00
        -11   -1    0    0    0    0  0.00000000000E+00  0.00000000000E+00  0.45593999997E+02  0.45594000000E+02  0.51100000000E-03 0.  1.
         11   -1    0    0    0    0 -0.00000000000E+00 -0.00000000000E+00 -0.45593999997E+02  0.45594000000E+02  0.51100000000E-03 0. -1.
    9900012    2    1    2    0    0  0.28657534851E+02  0.47961593208E+01  0.13132514171E+02  0.59301946992E+02  0.50000005406E+02 0.  0.
         12    1    1    2    0    0 -0.28657534851E+02 -0.47961593208E+01 -0.13132514171E+02  0.31886053008E+02  0.00000000000E+00 0. -1.
         11    1    3    3    0    0 -0.73375970995E+01  0.15160877840E+02  0.77250567863E+01  0.18530219931E+02  0.51100000000E-03 0. -1.
        -11    1    3    3    0    0  0.13570105112E+02 -0.28811183481E+01  0.94532358462E+01  0.16787264932E+02  0.51100000000E-03 0.  1.
         12    1    3    3    0    0  0.22425026839E+02 -0.74836001707E+01 -0.40457784614E+01  0.23984462129E+02  0.00000000000E+00 0. -1.
</event>
<event>
 7    1  0.4489290E-013  0.5930195E+02  0.7816164E-02  0.1266605E+00
        -11   -1    0    0    0    0  0.00000000000E+00  0.00000000000E+00  0.45593999997E+02  0.45594000000E+02  0.51100000000E-03 0.  1.
         11   -1    0    0    0    0 -0.00000000000E+00 -0.00000000000E+00 -0.45593999997E+02  0.45594000000E+02  0.51100000000E-03 0. -1.
    9900012    2    1    2    0    0  0.10253840993E+02  0.89972293007E+01  0.28820634322E+02  0.59301947361E+02  0.50000006079E+02 0.  0.
         12    1    1    2    0    0 -0.10253840993E+02 -0.89972293007E+01 -0.28820634322E+02  0.31886052639E+02  0.00000000000E+00 0. -1.
         11    1    3    3    0    0  0.12029011110E+02  0.12751167046E+02  0.10690849157E+02  0.20532501681E+02  0.51100000000E-03 0. -1.
        -11    1    3    3    0    0 -0.20433732224E-01 -0.18297742402E+02  0.46904195210E+01  0.18889357588E+02  0.51100000000E-03 0.  1.
        -12    1    3    3    0    0 -0.17547363846E+01  0.14543804656E+02  0.13439365643E+02  0.19880088092E+02  0.00000000000E+00 0.  1.
</event>
<event>
 7    1  0.4489290E-013  0.5930190E+02  0.7816164E-02  0.1266605E+00
        -11   -1    0    0    0    0  0.00000000000E+00  0.00000000000E+00  0.45593999997E+02  0.45594000000E+02  0.51100000000E-03 0.  1.
         11   -1    0    0    0    0 -0.00000000000E+00 -0.00000000000E+00 -0.45593999997E+02  0.45594000000E+02  0.51100000000E-03 0. -1.
    9900012    2    1    2    0    0  0.28598959436E+02 -0.12512380947E+02 -0.65010103629E+01  0.59301901250E+02  0.49999921983E+02 0.  0.
         12    1    1    2    0    0 -0.28598959436E+02  0.12512380947E+02  0.65010103629E+01  0.31886098750E+02  0.00000000000E+00 0. -1.
         11    1    3    3    0    0 -0.11541363884E+02 -0.29336818799E+01  0.91703478802E+00  0.11943639426E+02  0.51100000000E-03 0.  1.
        -11    1    3    3    0    0  0.26918384707E+02 -0.14291351523E+02 -0.11757339106E+02  0.32666147411E+02  0.51100000000E-03 0. -1.
        -12    1    3    3    0    0  0.13221938613E+02  0.47126524559E+01  0.43392939553E+01  0.14692114412E+02  0.00000000000E+00 0.  1.
</event>
<event>
 7    1  0.4489290E-013  0.5930195E+02  0.7816164E-02  0.1266605E+00
        -11   -1    0    0    0    0  0.00000000000E+00  0.00000000000E+00  0.45593999997E+02  0.45594000000E+02  0.51100000000E-03 0. -1.
         11   -1    0    0    0    0 -0.00000000000E+00 -0.00000000000E+00 -0.45593999997E+02  0.45594000000E+02  0.51100000000E-03 0.  1.
    9900012    2    1    2    0    0 -0.24349716594E+02  0.10036524476E+02 -0.17974411262E+02  0.59301953177E+02  0.50000016686E+02 0.  0.
         12    1    1    2    0    0  0.24349716594E+02 -0.10036524476E+02  0.17974411262E+02  0.31886046823E+02  0.00000000000E+00 0. -1.
         11    1    3    3    0    0  0.99703641277E+01  0.92473969993E+01 -0.13569359185E+02  0.19210674664E+02  0.51100000000E-03 0. -1.
        -11    1    3    3    0    0 -0.21830503035E+01 -0.62718508360E+01  0.10967745620E+01  0.67308793064E+01  0.51100000000E-03 0.  1.
         12    1    3    3    0    0 -0.32137030418E+02  0.70609783131E+01 -0.55018266385E+01  0.33360399206E+02  0.00000000000E+00 0. -1.
</event>
<event>
 7    1  0.4489290E-013  0.5930195E+02  0.7816164E-02  0.1266605E+00
        -11   -1    0    0    0    0  0.00000000000E+00  0.00000000000E+00  0.45593999997E+02  0.45594000000E+02  0.51100000000E-03 0. -1.
         11   -1    0    0    0    0 -0.00000000000E+00 -0.00000000000E+00 -0.45593999997E+02  0.45594000000E+02  0.51100000000E-03 0.  1.
    9900012    2    1    2    0    0 -0.26258494402E+02 -0.14725665912E+02 -0.10505547766E+02  0.59301948211E+02  0.50000007630E+02 0.  0.
         12    1    1    2    0    0  0.26258494402E+02  0.14725665912E+02  0.10505547766E+02  0.31886051789E+02  0.00000000000E+00 0. -1.
         11    1    3    3    0    0 -0.45641369605E+01  0.58594519424E+01 -0.54403914075E+01  0.92066488033E+01  0.51100000000E-03 0. -1.
        -11    1    3    3    0    0 -0.10785966345E+02 -0.27804051700E+02 -0.15269944646E+02  0.33504829065E+02  0.51100000000E-03 0.  1.
        -12    1    3    3    0    0 -0.10908391097E+02  0.72189338453E+01  0.10204788288E+02  0.16590470343E+02  0.00000000000E+00 0.  1.
</event>
<event>
 7    1  0.4489290E-013  0.5930192E+02  0.7816164E-02  0.1266605E+00
        -11   -1    0    0    0    0  0.00000000000E+00  0.00000000000E+00  0.45593999997E+02  0.45594000000E+02  0.51100000000E-03 0. -1.
         11   -1    0    0    0    0 -0.00000000000E+00 -0.00000000000E+00 -0.45593999997E+02  0.45594000000E+02  0.51100000000E-03 0.  1.
    9900012    2    1    2    0    0  0.30560471267E+01  0.13356933712E+02 -0.28791929759E+02  0.59301916492E+02  0.49999949782E+02 0.  0.
         12    1    1    2    0    0 -0.30560471267E+01 -0.13356933712E+02  0.28791929759E+02  0.31886083508E+02  0.00000000000E+00 0. -1.
         11    1    3    3    0    0 -0.78928349943E+01 -0.11409170369E+02  0.21964542406E+01  0.14046010973E+02  0.51100000000E-03 0. -1.
        -11    1    3    3    0    0  0.60705930753E+01  0.21512953294E+02 -0.11974361144E+02  0.25358323777E+02  0.51100000000E-03 0.  1.
         12    1    3    3    0    0  0.48782890457E+01  0.32531507874E+01 -0.19014022855E+02  0.19897581742E+02  0.00000000000E+00 0. -1.
</event>
<event>
 7    1  0.4489290E-013  0.5930199E+02  0.7816164E-02  0.1266605E+00
        -11   -1    0    0    0    0  0.00000000000E+00  0.00000000000E+00  0.45593999997E+02  0.45594000000E+02  0.51100000000E-03 0. -1.
         11   -1    0    0    0    0 -0.00000000000E+00 -0.00000000000E+00 -0.45593999997E+02  0.45594000000E+02  0.51100000000E-03 0.  1.
    9900012    2    1    2    0    0 -0.15192636347E+02  0.10130880651E+02 -0.26139376581E+02  0.59301985041E+02  0.50000074798E+02 0.  0.
         12    1    1    2    0    0  0.15192636347E+02 -0.10130880651E+02  0.26139376581E+02  0.31886014959E+02  0.00000000000E+00 0. -1.
         11    1    3    3    0    0 -0.96041430222E+01  0.46459238534E+01 -0.33428886893E+02  0.35090093343E+02  0.51100000000E-03 0. -1.
        -11    1    3    3    0    0 -0.90810584965E+01 -0.54176153798E+01 -0.11999593278E+00  0.10574997830E+02  0.51100000000E-03 0.  1.
         12    1    3    3    0    0  0.34925651722E+01  0.10902572178E+02  0.74095062448E+01  0.13636893868E+02  0.00000000000E+00 0. -1.
</event>
<event>
 7    1  0.4489290E-013  0.5930193E+02  0.7816164E-02  0.1266605E+00
        -11   -1    0    0    0    0  0.00000000000E+00  0.00000000000E+00  0.45593999997E+02  0.45594000000E+02  0.51100000000E-03 0.  1.
         11   -1    0    0    0    0 -0.00000000000E+00 -0.00000000000E+00 -0.45593999997E+02  0.45594000000E+02  0.51100000000E-03 0. -1.
    9900012    2    1    2    0    0  0.24682818092E+01 -0.50120398453E+01  0.31392808656E+02  0.59301931039E+02  0.49999976311E+02 0.  0.
         12    1    1    2    0    0 -0.24682818092E+01  0.50120398453E+01 -0.31392808656E+02  0.31886068961E+02  0.00000000000E+00 0. -1.
         11    1    3    3    0    0 -0.13499969538E+02 -0.32629448749E+00 -0.15144147798E+01  0.13588564972E+02  0.51100000000E-03 0. -1.
        -11    1    3    3    0    0  0.75432163939E+01 -0.13126429772E+02  0.29743757755E+02  0.33375056521E+02  0.51100000000E-03 0.  1.
         12    1    3    3    0    0  0.84250349532E+01  0.84406844139E+01  0.31634656802E+01  0.12338309546E+02  0.00000000000E+00 0. -1.
</event>
<event>
 7    1  0.4489290E-013  0.5930195E+02  0.7816164E-02  0.1266605E+00
        -11   -1    0    0    0    0  0.00000000000E+00  0.00000000000E+00  0.45593999997E+02  0.45594000000E+02  0.51100000000E-03 0.  1.
         11   -1    0    0    0    0 -0.00000000000E+00 -0.00000000000E+00 -0.45593999997E+02  0.45594000000E+02  0.51100000000E-03 0. -1.
    9900012    2    1    2    0    0  0.25361903646E+02  0.14525517863E+02  0.12747679112E+02  0.59301950566E+02  0.50000011924E+02 0.  0.
         12    1    1    2    0    0 -0.25361903646E+02 -0.14525517863E+02 -0.12747679112E+02  0.31886049434E+02  0.00000000000E+00 0. -1.
         11    1    3    3    0    0  0.12185533627E+01 -0.99886000231E+01 -0.21323835185E+01  0.10286110171E+02  0.51100000000E-03 0. -1.
        -11    1    3    3    0    0  0.19281481123E+02  0.30378017042E+02  0.46773825141E+01  0.36283292865E+02  0.51100000000E-03 0.  1.
        -12    1    3    3    0    0  0.48618691608E+01 -0.58638991552E+01  0.10202680116E+02  0.12732547530E+02  0.00000000000E+00 0.  1.
</event>
<event>
 7    1  0.4489290E-013  0.5930195E+02  0.7816164E-02  0.1266605E+00
        -11   -1    0    0    0    0  0.00000000000E+00  0.00000000000E+00  0.45593999997E+02  0.45594000000E+02  0.51100000000E-03 0. -1.
         11   -1    0    0    0    0 -0.00000000000E+00 -0.00000000000E+00 -0.45593999997E+02  0.45594000000E+02  0.51100000000E-03 0.  1.
    9900012    2    1    2    0    0 -0.44783699693E+01 -0.12420064469E+02 -0.29024233816E+02  0.59301953717E+02  0.50000017670E+02 0.  0.
         12    1    1    2    0    0  0.44783699693E+01  0.12420064469E+02  0.29024233816E+02  0.31886046283E+02  0.00000000000E+00 0. -1.
         11    1    3    3    0    0 -0.25816089506E+00 -0.17577514444E+02 -0.11091387961E+01  0.17614364882E+02  0.51100000000E-03 0. -1.
        -11    1    3    3    0    0  0.80703804454E+01  0.12544197688E+02 -0.73813514156E+01  0.16642484344E+02  0.51100000000E-03 0.  1.
        -12    1    3    3    0    0 -0.12290589520E+02 -0.73867477132E+01 -0.20533743604E+02  0.25045104490E+02  0.00000000000E+00 0.  1.
</event>
<event>
 7    1  0.4489290E-013  0.5930194E+02  0.7816164E-02  0.1266605E+00
        -11   -1    0    0    0    0  0.00000000000E+00  0.00000000000E+00  0.45593999997E+02  0.45594000000E+02  0.51100000000E-03 0. -1.
         11   -1    0    0    0    0 -0.00000000000E+00 -0.00000000000E+00 -0.45593999997E+02  0.45594000000E+02  0.51100000000E-03 0.  1.
    9900012    2    1    2    0    0  0.23648242641E+02 -0.13851240840E+02 -0.16297998737E+02  0.59301936969E+02  0.49999987126E+02 0.  0.
         12    1    1    2    0    0 -0.23648242641E+02  0.13851240840E+02  0.16297998737E+02  0.31886063031E+02  0.00000000000E+00 0. -1.
         11    1    3    3    0    0  0.12123924919E+01 -0.52924899738E+01  0.11223165980E+02  0.12467549902E+02  0.51100000000E-03 0. -1.
        -11    1    3    3    0    0  0.29184917138E+02 -0.67412696525E+01 -0.17739875878E+02  0.34812458996E+02  0.51100000000E-03 0.  1.
        -12    1    3    3    0    0 -0.67490669893E+01 -0.18174812140E+01 -0.97812888392E+01  0.12021928071E+02  0.00000000000E+00 0.  1.
</event>
<event>
 7    1  0.4489290E-013  0.5930194E+02  0.7816164E-02  0.1266605E+00
        -11   -1    0    0    0    0  0.00000000000E+00  0.00000000000E+00  0.45593999997E+02  0.45594000000E+02  0.51100000000E-03 0. -1.
         11   -1    0    0    0    0 -0.00000000000E+00 -0.00000000000E+00 -0.45593999997E+02  0.45594000000E+02  0.51100000000E-03 0.  1.
    9900012    2    1    2    0    0 -0.10258503652E+02  0.29028108308E+02 -0.82977645458E+01  0.59301939322E+02  0.49999991417E+02 0.  0.
         12    1    1    2    0    0  0.10258503652E+02 -0.29028108308E+02  0.82977645458E+01  0.31886060678E+02  0.00000000000E+00 0. -1.
         11    1    3    3    0    0 -0.45924078711E+00 -0.12810635636E+02 -0.57267304767E+01  0.14039897781E+02  0.51100000000E-03 0. -1.
        -11    1    3    3    0    0 -0.21989522147E+01  0.26021232355E+02  0.42053092910E+01  0.26450416832E+02  0.51100000000E-03 0.  1.
        -12    1    3    3    0    0 -0.76003106500E+01  0.15817511589E+02 -0.67763433601E+01  0.18811624709E+02  0.00000000000E+00 0.  1.
</event>
<event>
 7    1  0.4489290E-013  0.5930194E+02  0.7816164E-02  0.1266605E+00
        -11   -1    0    0    0    0  0.00000000000E+00  0.00000000000E+00  0.45593999997E+02  0.45594000000E+02  0.51100000000E-03 0. -1.
         11   -1    0    0    0    0 -0.00000000000E+00 -0.00000000000E+00 -0.45593999997E+02  0.45594000000E+02  0.51100000000E-03 0.  1.
    9900012    2    1    2    0    0  0.14993207285E+02 -0.54874658237E+01 -0.27600944226E+02  0.59301942419E+02  0.49999997067E+02 0.  0.
         12    1    1    2    0    0 -0.14993207285E+02  0.54874658237E+01  0.27600944226E+02  0.31886057581E+02  0.00000000000E+00 0. -1.
         11    1    3    3    0    0  0.17672263326E+02  0.11419661793E+02  0.17556264300E+01  0.21113971463E+02  0.51100000000E-03 0. -1.
        -11    1    3    3    0    0 -0.56971698773E+01 -0.17443905872E+02 -0.29892731442E+02  0.35075960286E+02  0.51100000000E-03 0.  1.
        -12    1    3    3    0    0  0.30181138364E+01  0.53677825489E+00  0.53616078546E+00  0.31120106703E+01  0.00000000000E+00 0.  1.
</event>
<event>
 7    1  0.4489290E-013  0.5930187E+02  0.7816164E-02  0.1266605E+00
        -11   -1    0    0    0    0  0.00000000000E+00  0.00000000000E+00  0.45593999997E+02  0.45594000000E+02  0.51100000000E-03 0.  1.
         11   -1    0    0    0    0 -0.00000000000E+00 -0.00000000000E+00 -0.45593999997E+02  0.45594000000E+02  0.51100000000E-03 0. -1.
    9900012    2    1    2    0    0 -0.64716074711E+01 -0.21731258067E+02  0.22418653459E+02  0.59301869734E+02  0.49999864506E+02 0.  0.
         12    1    1    2    0    0  0.64716074711E+01  0.21731258067E+02 -0.22418653459E+02  0.31886130266E+02  0.00000000000E+00 0. -1.
         11    1    3    3    0    0  0.69385534837E+01 -0.95025174982E+01 -0.49234900746E+01  0.12754690040E+02  0.51100000000E-03 0. -1.
        -11    1    3    3    0    0 -0.19967384785E+02 -0.17872976055E+02  0.12970002561E+02  0.29771810407E+02  0.51100000000E-03 0.  1.
        -12    1    3    3    0    0  0.65572238298E+01  0.56442354865E+01  0.14372140972E+02  0.16775369287E+02  0.00000000000E+00 0.  1.
</event>
<event>
 7    1  0.4489290E-013  0.5930200E+02  0.7816164E-02  0.1266605E+00
        -11   -1    0    0    0    0  0.00000000000E+00  0.00000000000E+00  0.45593999997E+02  0.45594000000E+02  0.51100000000E-03 0. -1.
         11   -1    0    0    0    0 -0.00000000000E+00 -0.00000000000E+00 -0.45593999997E+02  0.45594000000E+02  0.51100000000E-03 0.  1.
    9900012    2    1    2    0    0  0.18656843990E+02 -0.20691594481E+02 -0.15507973333E+02  0.59301997636E+02  0.50000097769E+02 0.  0.
         12    1    1    2    0    0 -0.18656843990E+02  0.20691594481E+02  0.15507973333E+02  0.31886002364E+02  0.00000000000E+00 0. -1.
         11    1    3    3    0    0  0.38521971140E+01 -0.29964799424E+02 -0.17798928712E+02  0.35064661565E+02  0.51100000000E-03 0. -1.
        -11    1    3    3    0    0  0.15721832621E+02  0.90325527843E+01  0.69982418451E+01  0.19435493818E+02  0.51100000000E-03 0.  1.
        -12    1    3    3    0    0 -0.91718574496E+00  0.24065215863E+00 -0.47072864663E+01  0.48018422535E+01  0.00000000000E+00 0.  1.
</event>
<event>
 7    1  0.4489290E-013  0.5930195E+02  0.7816164E-02  0.1266605E+00
        -11   -1    0    0    0    0  0.00000000000E+00  0.00000000000E+00  0.45593999997E+02  0.45594000000E+02  0.51100000000E-03 0. -1.
         11   -1    0    0    0    0 -0.00000000000E+00 -0.00000000000E+00 -0.45593999997E+02  0.45594000000E+02  0.51100000000E-03 0.  1.
    9900012    2    1    2    0    0  0.75658724086E+00 -0.68321533393E+01 -0.31136306235E+02  0.59301948042E+02  0.50000007322E+02 0.  0.
         12    1    1    2    0    0 -0.75658724086E+00  0.68321533393E+01  0.31136306235E+02  0.31886051958E+02  0.00000000000E+00 0. -1.
         11    1    3    3    0    0 -0.12424412505E+02  0.64089310210E+01 -0.97696802496E+01  0.17055411908E+02  0.51100000000E-03 0. -1.
        -11    1    3    3    0    0  0.12939483711E+02 -0.11149731727E+02 -0.29367418037E+02  0.33973401342E+02  0.51100000000E-03 0.  1.
        -12    1    3    3    0    0  0.24151603436E+00 -0.20913526336E+01  0.80007920522E+01  0.82731347925E+01  0.00000000000E+00 0.  1.
</event>
<event>
 7    1  0.4489290E-013  0.5930196E+02  0.7816164E-02  0.1266605E+00
        -11   -1    0    0    0    0  0.00000000000E+00  0.00000000000E+00  0.45593999997E+02  0.45594000000E+02  0.51100000000E-03 0.  1.
         11   -1    0    0    0    0 -0.00000000000E+00 -0.00000000000E+00 -0.45593999997E+02  0.45594000000E+02  0.51100000000E-03 0. -1.
    9900012    2    1    2    0    0 -0.30147221326E+02  0.57266466022E+01 -0.86643021138E+01  0.59301959699E+02  0.50000028580E+02 0.  0.
         12    1    1    2    0    0  0.30147221326E+02 -0.57266466022E+01  0.86643021138E+01  0.31886040301E+02  0.00000000000E+00 0. -1.
         11    1    3    3    0    0 -0.12014260959E+02  0.13400207834E+02 -0.16647585843E+02  0.24516324175E+02  0.51100000000E-03 0. -1.
        -11    1    3    3    0    0 -0.56332168894E+01 -0.14909387152E+02 -0.35191319526E+01  0.16321986636E+02  0.51100000000E-03 0.  1.
        -12    1    3    3    0    0 -0.12499743477E+02  0.72358259204E+01  0.11502415682E+02  0.18463648888E+02  0.00000000000E+00 0.  1.
</event>
<event>
 7    1  0.4489290E-013  0.5930197E+02  0.7816164E-02  0.1266605E+00
        -11   -1    0    0    0    0  0.00000000000E+00  0.00000000000E+00  0.45593999997E+02  0.45594000000E+02  0.51100000000E-03 0.  1.
         11   -1    0    0    0    0 -0.00000000000E+00 -0.00000000000E+00 -0.45593999997E+02  0.45594000000E+02  0.51100000000E-03 0. -1.
    9900012    2    1    2    0    0 -0.15065040172E+02  0.10466404834E+02  0.26080987402E+02  0.59301969055E+02  0.50000045644E+02 0.  0.
         12    1    1    2    0    0  0.15065040172E+02 -0.10466404834E+02 -0.26080987402E+02  0.31886030945E+02  0.00000000000E+00 0. -1.
         11    1    3    3    0    0 -0.12847355534E+02 -0.15688320588E+02 -0.15080598114E+01  0.20333523840E+02  0.51100000000E-03 0. -1.
        -11    1    3    3    0    0 -0.36067355870E+01  0.24218972045E+02  0.27123015748E+02  0.36540732505E+02  0.51100000000E-03 0.  1.
         12    1    3    3    0    0  0.13890509489E+01  0.19357533772E+01  0.46603146511E+00  0.24277127100E+01  0.00000000000E+00 0. -1.
</event>
<event>
 7    1  0.4489290E-013  0.5930202E+02  0.7816164E-02  0.1266605E+00
        -11   -1    0    0    0    0  0.00000000000E+00  0.00000000000E+00  0.45593999997E+02  0.45594000000E+02  0.51100000000E-03 0. -1.
         11   -1    0    0    0    0 -0.00000000000E+00 -0.00000000000E+00 -0.45593999997E+02  0.45594000000E+02  0.51100000000E-03 0.  1.
    9900012    2    1    2    0    0 -0.25682430881E+02  0.15778670689E+02 -0.10400108390E+02  0.59302016258E+02  0.50000131731E+02 0.  0.
         12    1    1    2    0    0  0.25682430881E+02 -0.15778670689E+02  0.10400108390E+02  0.31885983742E+02  0.00000000000E+00 0. -1.
         11    1    3    3    0    0  0.16430371970E+01 -0.98575373148E+01  0.37358547732E+01  0.10668984220E+02  0.51100000000E-03 0. -1.
        -11    1    3    3    0    0 -0.99703910563E+01  0.24120806277E+02  0.15429523286E+00  0.26100685825E+02  0.51100000000E-03 0.  1.
        -12    1    3    3    0    0 -0.17355077021E+02  0.15154017271E+01 -0.14290258396E+02  0.22532346213E+02  0.00000000000E+00 0.  1.
</event>
<event>
 7    1  0.4489290E-013  0.5930194E+02  0.7816164E-02  0.1266605E+00
        -11   -1    0    0    0    0  0.00000000000E+00  0.00000000000E+00  0.45593999997E+02  0.45594000000E+02  0.51100000000E-03 0. -1.
         11   -1    0    0    0    0 -0.00000000000E+00 -0.00000000000E+00 -0.45593999997E+02  0.45594000000E+02  0.51100000000E-03 0.  1.
    9900012    2    1    2    0    0 -0.78627109851E+01 -0.20268173233E+02  0.23325943760E+02  0.59301941565E+02  0.49999995509E+02 0.  0.
         12    1    1    2    0    0  0.78627109851E+01  0.20268173233E+02 -0.23325943760E+02  0.31886058435E+02  0.00000000000E+00 0. -1.
         11    1    3    3    0    0  0.62677171756E+00 -0.16159601295E+02 -0.44201522215E+01  0.16764942670E+02  0.51100000000E-03 0.  1.
        -11    1    3    3    0    0 -0.37664506310E+01 -0.45817586922E+01  0.34096575403E+02  0.34608598896E+02  0.51100000000E-03 0. -1.
         12    1    3    3    0    0 -0.47230320717E+01  0.47318675368E+00 -0.63504794223E+01  0.79283999992E+01  0.00000000000E+00 0. -1.
</event>
<event>
 7    1  0.4489290E-013  0.5930194E+02  0.7816164E-02  0.1266605E+00
        -11   -1    0    0    0    0  0.00000000000E+00  0.00000000000E+00  0.45593999997E+02  0.45594000000E+02  0.51100000000E-03 0.  1.
         11   -1    0    0    0    0 -0.00000000000E+00 -0.00000000000E+00 -0.45593999997E+02  0.45594000000E+02  0.51100000000E-03 0. -1.
    9900012    2    1    2    0    0  0.31638292278E+02 -0.16794847158E+01  0.35942667119E+01  0.59301937836E+02  0.49999988707E+02 0.  0.
         12    1    1    2    0    0 -0.31638292278E+02  0.16794847158E+01 -0.35942667119E+01  0.31886062164E+02  0.00000000000E+00 0. -1.
         11    1    3    3    0    0  0.79164868973E+01  0.11393273135E+01 -0.18348414883E+02  0.20015822754E+02  0.51100000000E-03 0. -1.
        -11    1    3    3    0    0  0.59682563464E+00  0.18948476510E+01  0.14360926494E+02  0.14497684590E+02  0.51100000000E-03 0.  1.
         12    1    3    3    0    0  0.23124979746E+02 -0.47136596802E+01  0.75817551014E+01  0.24788430492E+02  0.00000000000E+00 0. -1.
</event>
<event>
 7    1  0.4489290E-013  0.5930194E+02  0.7816164E-02  0.1266605E+00
        -11   -1    0    0    0    0  0.00000000000E+00  0.00000000000E+00  0.45593999997E+02  0.45594000000E+02  0.51100000000E-03 0.  1.
         11   -1    0    0    0    0 -0.00000000000E+00 -0.00000000000E+00 -0.45593999997E+02  0.45594000000E+02  0.51100000000E-03 0. -1.
    9900012    2    1    2    0    0 -0.18192160937E+01 -0.30139994568E+02  0.10246545693E+02  0.59301944766E+02  0.50000001346E+02 0.  0.
         12    1    1    2    0    0  0.18192160937E+01  0.30139994568E+02 -0.10246545693E+02  0.31886055234E+02  0.00000000000E+00 0. -1.
         11    1    3    3    0    0 -0.17918696806E+02 -0.22996279456E+01  0.15705641499E+02  0.23938152792E+02  0.51100000000E-03 0. -1.
        -11    1    3    3    0    0  0.99141351708E+01 -0.24426850820E+02  0.11896503601E+00  0.26362383620E+02  0.51100000000E-03 0.  1.
         12    1    3    3    0    0  0.61853455414E+01 -0.34135158021E+01 -0.55780608423E+01  0.90014083541E+01  0.00000000000E+00 0. -1.
</event>
<event>
 7    1  0.4489290E-013  0.5930194E+02  0.7816164E-02  0.1266605E+00
        -11   -1    0    0    0    0  0.00000000000E+00  0.00000000000E+00  0.45593999997E+02  0.45594000000E+02  0.51100000000E-03 0. -1.
         11   -1    0    0    0    0 -0.00000000000E+00 -0.00000000000E+00 -0.45593999997E+02  0.45594000000E+02  0.51100000000E-03 0.  1.
    9900012    2    1    2    0    0  0.24074552151E+02 -0.16543738197E+02 -0.12784429509E+02  0.59301937643E+02  0.49999988355E+02 0.  0.
         12    1    1    2    0    0 -0.24074552151E+02  0.16543738197E+02  0.12784429509E+02  0.31886062357E+02  0.00000000000E+00 0. -1.
         11    1    3    3    0    0 -0.15439937001E+01 -0.76933212945E+01  0.39472960809E+01  0.87836356765E+01  0.51100000000E-03 0. -1.
        -11    1    3    3    0    0  0.17153072327E+02  0.13421525300E+02 -0.68254866280E+00  0.21790619646E+02  0.51100000000E-03 0.  1.
        -12    1    3    3    0    0  0.84654735242E+01 -0.22271942202E+02 -0.16049176927E+02  0.28727682320E+02  0.00000000000E+00 0.  1.
</event>
<event>
 7    1  0.4489290E-013  0.5930195E+02  0.7816164E-02  0.1266605E+00
        -11   -1    0    0    0    0  0.00000000000E+00  0.00000000000E+00  0.45593999997E+02  0.45594000000E+02  0.51100000000E-03 0.  1.
         11   -1    0    0    0    0 -0.00000000000E+00 -0.00000000000E+00 -0.45593999997E+02  0.45594000000E+02  0.51100000000E-03 0. -1.
    9900012    2    1    2    0    0 -0.30788099627E+02 -0.64354551438E+01  0.52343332602E+01  0.59301946525E+02  0.50000004555E+02 0.  0.
         12    1    1    2    0    0  0.30788099627E+02  0.64354551438E+01 -0.52343332602E+01  0.31886053475E+02  0.00000000000E+00 0. -1.
         11    1    3    3    0    0 -0.21353901358E+02 -0.16110270844E+02 -0.66985353602E+01  0.27575356862E+02  0.51100000000E-03 0. -1.
        -11    1    3    3    0    0 -0.13706784283E+02  0.13596100643E+02  0.15637751483E+02  0.24844902088E+02  0.51100000000E-03 0.  1.
        -12    1    3    3    0    0  0.42725860136E+01 -0.39212849425E+01 -0.37048828629E+01  0.68816875744E+01  0.00000000000E+00 0.  1.
</event>
<event>
 7    1  0.4489290E-013  0.5930194E+02  0.7816164E-02  0.1266605E+00
        -11   -1    0    0    0    0  0.00000000000E+00  0.00000000000E+00  0.45593999997E+02  0.45594000000E+02  0.51100000000E-03 0. -1.
         11   -1    0    0    0    0 -0.00000000000E+00 -0.00000000000E+00 -0.45593999997E+02  0.45594000000E+02  0.51100000000E-03 0.  1.
    9900012    2    1    2    0    0 -0.45688495005E+01 -0.27868868861E+02 -0.14804481950E+02  0.59301938419E+02  0.49999989770E+02 0.  0.
         12    1    1    2    0    0  0.45688495005E+01  0.27868868861E+02  0.14804481950E+02  0.31886061581E+02  0.00000000000E+00 0. -1.
         11    1    3    3    0    0 -0.20526810107E+02 -0.10425767269E+02 -0.58253429335E+01  0.23748287872E+02  0.51100000000E-03 0. -1.
        -11    1    3    3    0    0  0.12714370086E+02 -0.13335727020E+02  0.62450216380E+01  0.19455002374E+02  0.51100000000E-03 0.  1.
        -12    1    3    3    0    0  0.32435905202E+01 -0.41073745716E+01 -0.15224160655E+02  0.16098648172E+02  0.00000000000E+00 0.  1.
</event>
<event>
 7    1  0.4489290E-013  0.5930191E+02  0.7816164E-02  0.1266605E+00
        -11   -1    0    0    0    0  0.00000000000E+00  0.00000000000E+00  0.45593999997E+02  0.45594000000E+02  0.51100000000E-03 0.  1.
         11   -1    0    0    0    0 -0.00000000000E+00 -0.00000000000E+00 -0.45593999997E+02  0.45594000000E+02  0.51100000000E-03 0. -1.
    9900012    2    1    2    0    0 -0.12808562712E+02  0.23255474163E+02  0.17659164751E+02  0.59301914367E+02  0.49999945906E+02 0.  0.
         12    1    1    2    0    0  0.12808562712E+02 -0.23255474163E+02 -0.17659164751E+02  0.31886085633E+02  0.00000000000E+00 0. -1.
         11    1    3    3    0    0 -0.13817790823E+02  0.27439232088E+02  0.30018113184E+02  0.42952647418E+02  0.51100000000E-03 0.  1.
        -11    1    3    3    0    0 -0.26400233180E+00 -0.70818643140E+01 -0.10532343569E+02  0.12694595728E+02  0.51100000000E-03 0. -1.
        -12    1    3    3    0    0  0.12732304425E+01  0.28981063886E+01 -0.18266048643E+01  0.36546712205E+01  0.00000000000E+00 0.  1.
</event>
<event>
 7    1  0.4489290E-013  0.5930195E+02  0.7816164E-02  0.1266605E+00
        -11   -1    0    0    0    0  0.00000000000E+00  0.00000000000E+00  0.45593999997E+02  0.45594000000E+02  0.51100000000E-03 0. -1.
         11   -1    0    0    0    0 -0.00000000000E+00 -0.00000000000E+00 -0.45593999997E+02  0.45594000000E+02  0.51100000000E-03 0.  1.
    9900012    2    1    2    0    0  0.50761686046E+01 -0.30690393007E+02 -0.70037611880E+01  0.59301946914E+02  0.50000005264E+02 0.  0.
         12    1    1    2    0    0 -0.50761686046E+01  0.30690393007E+02  0.70037611880E+01  0.31886053086E+02  0.00000000000E+00 0. -1.
         11    1    3    3    0    0 -0.34740689107E+01 -0.80510943222E+00 -0.10204046505E+01  0.37092562470E+01  0.51100000000E-03 0. -1.
        -11    1    3    3    0    0  0.91390573326E+01 -0.42076949596E+02 -0.49978319577E+01  0.43347091953E+02  0.51100000000E-03 0.  1.
        -12    1    3    3    0    0 -0.58881981730E+00  0.12191666022E+02 -0.98552457981E+00  0.12245598714E+02  0.00000000000E+00 0.  1.
</event>
<event>
 7    1  0.4489290E-013  0.5930194E+02  0.7816164E-02  0.1266605E+00
        -11   -1    0    0    0    0  0.00000000000E+00  0.00000000000E+00  0.45593999997E+02  0.45594000000E+02  0.51100000000E-03 0. -1.
         11   -1    0    0    0    0 -0.00000000000E+00 -0.00000000000E+00 -0.45593999997E+02  0.45594000000E+02  0.51100000000E-03 0.  1.
    9900012    2    1    2    0    0  0.29088519241E+02 -0.61463471596E+01 -0.11523939654E+02  0.59301941601E+02  0.49999995575E+02 0.  0.
         12    1    1    2    0    0 -0.29088519241E+02  0.61463471596E+01  0.11523939654E+02  0.31886058399E+02  0.00000000000E+00 0. -1.
         11    1    3    3    0    0 -0.97462270384E+01  0.35103220981E+01 -0.22174615986E+01  0.10593792471E+02  0.51100000000E-03 0. -1.
        -11    1    3    3    0    0  0.26419924026E+02 -0.10196541569E+02 -0.17988152103E+02  0.33549298977E+02  0.51100000000E-03 0.  1.
        -12    1    3    3    0    0  0.12414822254E+02  0.53987231171E+00  0.86816740477E+01  0.15158850153E+02  0.00000000000E+00 0.  1.
</event>
<event>
 7    1  0.4489290E-013  0.5930200E+02  0.7816164E-02  0.1266605E+00
        -11   -1    0    0    0    0  0.00000000000E+00  0.00000000000E+00  0.45593999997E+02  0.45594000000E+02  0.51100000000E-03 0. -1.
         11   -1    0    0    0    0 -0.00000000000E+00 -0.00000000000E+00 -0.45593999997E+02  0.45594000000E+02  0.51100000000E-03 0.  1.
    9900012    2    1    2    0    0 -0.25284433367E+02 -0.63525699150E+01 -0.18359181621E+02  0.59301995782E+02  0.50000094387E+02 0.  0.
         12    1    1    2    0    0  0.25284433367E+02  0.63525699150E+01  0.18359181621E+02  0.31886004218E+02  0.00000000000E+00 0. -1.
         11    1    3    3    0    0 -0.19793101110E+02 -0.24217029651E+01  0.22070856638E+01  0.20062470541E+02  0.51100000000E-03 0. -1.
        -11    1    3    3    0    0 -0.64554031768E+01 -0.24899688185E+01 -0.29417443015E+02  0.30220160964E+02  0.51100000000E-03 0.  1.
        -12    1    3    3    0    0  0.96407091991E+00 -0.14408981313E+01  0.88511757301E+01  0.90193642774E+01  0.00000000000E+00 0.  1.
</event>
<event>
 7    1  0.4489290E-013  0.5930194E+02  0.7816164E-02  0.1266605E+00
        -11   -1    0    0    0    0  0.00000000000E+00  0.00000000000E+00  0.45593999997E+02  0.45594000000E+02  0.51100000000E-03 0. -1.
         11   -1    0    0    0    0 -0.00000000000E+00 -0.00000000000E+00 -0.45593999997E+02  0.45594000000E+02  0.51100000000E-03 0.  1.
    9900012    2    1    2    0    0  0.13786838162E+02  0.23530152435E+02 -0.16521986726E+02  0.59301936814E+02  0.49999986844E+02 0.  0.
         12    1    1    2    0    0 -0.13786838162E+02 -0.23530152435E+02  0.16521986726E+02  0.31886063186E+02  0.00000000000E+00 0. -1.
         11    1    3    3    0    0 -0.77623826052E+01  0.18042912084E+02  0.10010711641E+02  0.22045761679E+02  0.51100000000E-03 0. -1.
        -11    1    3    3    0    0  0.86630027367E+01 -0.25345567622E+01 -0.17235980122E+02  0.19456376986E+02  0.51100000000E-03 0.  1.
         12    1    3    3    0    0  0.12886218030E+02  0.80217971133E+01 -0.92967182449E+01  0.17799798150E+02  0.00000000000E+00 0. -1.
</event>
<event>
 7    1  0.4489290E-013  0.5930192E+02  0.7816164E-02  0.1266605E+00
        -11   -1    0    0    0    0  0.00000000000E+00  0.00000000000E+00  0.45593999997E+02  0.45594000000E+02  0.51100000000E-03 0. -1.
         11   -1    0    0    0    0 -0.00000000000E+00 -0.00000000000E+00 -0.45593999997E+02  0.45594000000E+02  0.51100000000E-03 0.  1.
    9900012    2    1    2    0    0  0.24870738799E+02  0.35097765529E+01 -0.19643059530E+02  0.59301922042E+02  0.49999959904E+02 0.  0.
         12    1    1    2    0    0 -0.24870738799E+02 -0.35097765529E+01  0.19643059530E+02  0.31886077958E+02  0.00000000000E+00 0. -1.
         11    1    3    3    0    0  0.70420531716E+01  0.26099283398E+02 -0.11297410236E+02  0.29298371714E+02  0.51100000000E-03 0. -1.
        -11    1    3    3    0    0  0.63128589422E+01 -0.91978223373E+01 -0.33815718970E+01  0.11657064490E+02  0.51100000000E-03 0.  1.
         12    1    3    3    0    0  0.11515826685E+02 -0.13391684508E+02 -0.49640773960E+01  0.18346485838E+02  0.00000000000E+00 0. -1.
</event>
<event>
 7    1  0.4489290E-013  0.5930195E+02  0.7816164E-02  0.1266605E+00
        -11   -1    0    0    0    0  0.00000000000E+00  0.00000000000E+00  0.45593999997E+02  0.45594000000E+02  0.51100000000E-03 0. -1.
         11   -1    0    0    0    0 -0.00000000000E+00 -0.00000000000E+00 -0.45593999997E+02  0.45594000000E+02  0.51100000000E-03 0.  1.
    9900012    2    1    2    0    0 -0.22158707851E+01 -0.27606799367E+02 -0.15801107662E+02  0.59301945713E+02  0.50000003074E+02 0.  0.
         12    1    1    2    0    0  0.22158707851E+01  0.27606799367E+02  0.15801107662E+02  0.31886054287E+02  0.00000000000E+00 0. -1.
         11    1    3    3    0    0  0.35414148628E+01  0.74999822659E+01  0.43344211776E+01  0.93583417562E+01  0.51100000000E-03 0. -1.
        -11    1    3    3    0    0  0.46730924687E+01 -0.34522964468E+02 -0.18248417480E+02  0.39327822336E+02  0.51100000000E-03 0.  1.
         12    1    3    3    0    0 -0.10430378116E+02 -0.58381716455E+00 -0.18871113599E+01  0.10615781621E+02  0.00000000000E+00 0. -1.
</event>
<event>
 7    1  0.4489290E-013  0.5930195E+02  0.7816164E-02  0.1266605E+00
        -11   -1    0    0    0    0  0.00000000000E+00  0.00000000000E+00  0.45593999997E+02  0.45594000000E+02  0.51100000000E-03 0. -1.
         11   -1    0    0    0    0 -0.00000000000E+00 -0.00000000000E+00 -0.45593999997E+02  0.45594000000E+02  0.51100000000E-03 0.  1.
    9900012    2    1    2    0    0  0.14572465004E+02 -0.16194127180E+02 -0.23283329580E+02  0.59301954028E+02  0.50000018237E+02 0.  0.
         12    1    1    2    0    0 -0.14572465004E+02  0.16194127180E+02  0.23283329580E+02  0.31886045972E+02  0.00000000000E+00 0. -1.
         11    1    3    3    0    0  0.14836820862E+02  0.36947590138E+01 -0.18230279613E+02  0.23793393884E+02  0.51100000000E-03 0. -1.
        -11    1    3    3    0    0 -0.89987568645E+01 -0.21050772020E+02 -0.10460664511E+02  0.25170183353E+02  0.51100000000E-03 0.  1.
         12    1    3    3    0    0  0.87344010063E+01  0.11618858266E+01  0.54076145438E+01  0.10338376791E+02  0.00000000000E+00 0. -1.
</event>
<event>
 7    1  0.4489290E-013  0.5930194E+02  0.7816164E-02  0.1266605E+00
        -11   -1    0    0    0    0  0.00000000000E+00  0.00000000000E+00  0.45593999997E+02  0.45594000000E+02  0.51100000000E-03 0.  1.
         11   -1    0    0    0    0 -0.00000000000E+00 -0.00000000000E+00 -0.45593999997E+02  0.45594000000E+02  0.51100000000E-03 0. -1.
    9900012    2    1    2    0    0 -0.75852620814E+01 -0.95282388940E+01  0.29468585039E+02  0.59301936564E+02  0.49999986388E+02 0.  0.
         12    1    1    2    0    0  0.75852620814E+01  0.95282388940E+01 -0.29468585039E+02  0.31886063436E+02  0.00000000000E+00 0. -1.
         11    1    3    3    0    0 -0.12776033192E+02 -0.82549334837E+01  0.31935054732E+02  0.35372569484E+02  0.51100000000E-03 0. -1.
        -11    1    3    3    0    0  0.12596551447E+02 -0.20788231862E+01  0.46882736411E+01  0.13600533967E+02  0.51100000000E-03 0.  1.
         12    1    3    3    0    0 -0.74057803367E+01  0.80551777592E+00 -0.71547433341E+01  0.10328833112E+02  0.00000000000E+00 0. -1.
</event>
<event>
 7    1  0.4489290E-013  0.5930180E+02  0.7816164E-02  0.1266605E+00
        -11   -1    0    0    0    0  0.00000000000E+00  0.00000000000E+00  0.45593999997E+02  0.45594000000E+02  0.51100000000E-03 0.  1.
         11   -1    0    0    0    0 -0.00000000000E+00 -0.00000000000E+00 -0.45593999997E+02  0.45594000000E+02  0.51100000000E-03 0. -1.
    9900012    2    1    2    0    0 -0.66299052787E+01 -0.30693748938E+02  0.55378395600E+01  0.59301803380E+02  0.49999743492E+02 0.  0.
         12    1    1    2    0    0  0.66299052787E+01  0.30693748938E+02 -0.55378395600E+01  0.31886196620E+02  0.00000000000E+00 0. -1.
         11    1    3    3    0    0 -0.15238321017E+01  0.11259304092E+02 -0.78109740004E+01  0.13787868145E+02  0.51100000000E-03 0. -1.
        -11    1    3    3    0    0  0.20771965141E+01 -0.91071287062E+01  0.59876100335E+01  0.11095314903E+02  0.51100000000E-03 0.  1.
         12    1    3    3    0    0 -0.71832696911E+01 -0.32845924324E+02  0.73612035268E+01  0.34418620331E+02  0.00000000000E+00 0. -1.
</event>
<event>
 7    1  0.4489290E-013  0.5930201E+02  0.7816164E-02  0.1266605E+00
        -11   -1    0    0    0    0  0.00000000000E+00  0.00000000000E+00  0.45593999997E+02  0.45594000000E+02  0.51100000000E-03 0. -1.
         11   -1    0    0    0    0 -0.00000000000E+00 -0.00000000000E+00 -0.45593999997E+02  0.45594000000E+02  0.51100000000E-03 0.  1.
    9900012    2    1    2    0    0  0.26158096524E+02  0.35942954846E+01  0.17876004552E+02  0.59302007581E+02  0.50000115906E+02 0.  0.
         12    1    1    2    0    0 -0.26158096524E+02 -0.35942954846E+01 -0.17876004552E+02  0.31885992419E+02  0.00000000000E+00 0. -1.
         11    1    3    3    0    0 -0.27925235721E+01  0.23254649962E+01  0.83311637369E+01  0.90892389572E+01  0.51100000000E-03 0. -1.
        -11    1    3    3    0    0  0.18971687917E+02 -0.11481411325E+02  0.20871884803E+02  0.30452969049E+02  0.51100000000E-03 0.  1.
        -12    1    3    3    0    0  0.99789321792E+01  0.12750241813E+02 -0.11327043988E+02  0.19759799575E+02  0.00000000000E+00 0.  1.
</event>
<event>
 7    1  0.4489290E-013  0.5930200E+02  0.7816164E-02  0.1266605E+00
        -11   -1    0    0    0    0  0.00000000000E+00  0.00000000000E+00  0.45593999997E+02  0.45594000000E+02  0.51100000000E-03 0.  1.
         11   -1    0    0    0    0 -0.00000000000E+00 -0.00000000000E+00 -0.45593999997E+02  0.45594000000E+02  0.51100000000E-03 0. -1.
    9900012    2    1    2    0    0  0.19726356808E+02  0.13115193015E+02  0.21344306117E+02  0.59302002378E+02  0.50000106417E+02 0.  0.
         12    1    1    2    0    0 -0.19726356808E+02 -0.13115193015E+02 -0.21344306117E+02  0.31885997622E+02  0.00000000000E+00 0. -1.
         11    1    3    3    0    0  0.13188042719E+02  0.31758471017E+02  0.16580726432E+02  0.38176503786E+02  0.51100000000E-03 0. -1.
        -11    1    3    3    0    0  0.73934777936E+01 -0.13760900351E+02  0.37797467002E+01  0.16072099356E+02  0.51100000000E-03 0.  1.
         12    1    3    3    0    0 -0.85516370452E+00 -0.48823776509E+01  0.98383298486E+00  0.50533992351E+01  0.00000000000E+00 0. -1.
</event>
<event>
 7    1  0.4489290E-013  0.5930195E+02  0.7816164E-02  0.1266605E+00
        -11   -1    0    0    0    0  0.00000000000E+00  0.00000000000E+00  0.45593999997E+02  0.45594000000E+02  0.51100000000E-03 0.  1.
         11   -1    0    0    0    0 -0.00000000000E+00 -0.00000000000E+00 -0.45593999997E+02  0.45594000000E+02  0.51100000000E-03 0. -1.
    9900012    2    1    2    0    0  0.24730364306E+02  0.19916867215E+02  0.29064610517E+01  0.59301952359E+02  0.50000015193E+02 0.  0.
         12    1    1    2    0    0 -0.24730364306E+02 -0.19916867215E+02 -0.29064610517E+01  0.31886047641E+02  0.00000000000E+00 0. -1.
         11    1    3    3    0    0 -0.90493898604E+01  0.63113619167E+01 -0.10805658215E+01  0.11085683057E+02  0.51100000000E-03 0. -1.
        -11    1    3    3    0    0  0.30624996921E+02  0.11182550241E+02  0.15453234790E+02  0.36079666462E+02  0.51100000000E-03 0.  1.
        -12    1    3    3    0    0  0.31547572456E+01  0.24229550571E+01 -0.11466207917E+02  0.12136602839E+02  0.00000000000E+00 0.  1.
</event>
<event>
 7    1  0.4489290E-013  0.5930195E+02  0.7816164E-02  0.1266605E+00
        -11   -1    0    0    0    0  0.00000000000E+00  0.00000000000E+00  0.45593999997E+02  0.45594000000E+02  0.51100000000E-03 0. -1.
         11   -1    0    0    0    0 -0.00000000000E+00 -0.00000000000E+00 -0.45593999997E+02  0.45594000000E+02  0.51100000000E-03 0.  1.
    9900012    2    1    2    0    0 -0.29279274281E+02  0.94794712518E+01 -0.83416803128E+01  0.59301954336E+02  0.50000018799E+02 0.  0.
         12    1    1    2    0    0  0.29279274281E+02 -0.94794712518E+01  0.83416803128E+01  0.31886045664E+02  0.00000000000E+00 0. -1.
         11    1    3    3    0    0  0.10535097684E+02  0.64796859514E+01 -0.66835517799E+01  0.14058608675E+02  0.51100000000E-03 0.  1.
        -11    1    3    3    0    0 -0.37775331522E+02  0.90327306831E+01 -0.12028959986E+01  0.38858883852E+02  0.51100000000E-03 0. -1.
        -12    1    3    3    0    0 -0.20390404428E+01 -0.60329453827E+01 -0.45523253428E+00  0.63844618080E+01  0.00000000000E+00 0.  1.
</event>
<event>
 7    1  0.4489290E-013  0.5930194E+02  0.7816164E-02  0.1266605E+00
        -11   -1    0    0    0    0  0.00000000000E+00  0.00000000000E+00  0.45593999997E+02  0.45594000000E+02  0.51100000000E-03 0.  1.
         11   -1    0    0    0    0 -0.00000000000E+00 -0.00000000000E+00 -0.45593999997E+02  0.45594000000E+02  0.51100000000E-03 0. -1.
    9900012    2    1    2    0    0  0.27376040549E+02  0.12988041569E+02 -0.99289529224E+01  0.59301938373E+02  0.49999989688E+02 0.  0.
         12    1    1    2    0    0 -0.27376040549E+02 -0.12988041569E+02  0.99289529224E+01  0.31886061627E+02  0.00000000000E+00 0. -1.
         11    1    3    3    0    0  0.54835697196E+01  0.18507551749E+02 -0.18538084000E+01  0.19391637746E+02  0.51100000000E-03 0. -1.
        -11    1    3    3    0    0  0.52275756281E+01 -0.77127847982E+01 -0.18087013877E+02  0.20345875934E+02  0.51100000000E-03 0.  1.
        -12    1    3    3    0    0  0.16664895201E+02  0.21932746178E+01  0.10011869354E+02  0.19564424693E+02  0.00000000000E+00 0.  1.
</event>
<event>
 7    1  0.4489290E-013  0.5930195E+02  0.7816164E-02  0.1266605E+00
        -11   -1    0    0    0    0  0.00000000000E+00  0.00000000000E+00  0.45593999997E+02  0.45594000000E+02  0.51100000000E-03 0.  1.
         11   -1    0    0    0    0 -0.00000000000E+00 -0.00000000000E+00 -0.45593999997E+02  0.45594000000E+02  0.51100000000E-03 0. -1.
    9900012    2    1    2    0    0  0.19132236901E+02 -0.20152739760E+02  0.15637931895E+02  0.59301947836E+02  0.50000006945E+02 0.  0.
         12    1    1    2    0    0 -0.19132236901E+02  0.20152739760E+02 -0.15637931895E+02  0.31886052164E+02  0.00000000000E+00 0. -1.
         11    1    3    3    0    0  0.18205511370E+02 -0.27247626049E+02  0.62101384624E+01  0.33353254557E+02  0.51100000000E-03 0. -1.
        -11    1    3    3    0    0 -0.14901052684E+01  0.72272947599E+01  0.16714240885E+02  0.18270743058E+02  0.51100000000E-03 0.  1.
         12    1    3    3    0    0  0.24168307989E+01 -0.13240847049E+00 -0.72864474524E+01  0.76779502206E+01  0.00000000000E+00 0. -1.
</event>
<event>
 7    1  0.4489290E-013  0.5930195E+02  0.7816164E-02  0.1266605E+00
        -11   -1    0    0    0    0  0.00000000000E+00  0.00000000000E+00  0.45593999997E+02  0.45594000000E+02  0.51100000000E-03 0.  1.
         11   -1    0    0    0    0 -0.00000000000E+00 -0.00000000000E+00 -0.45593999997E+02  0.45594000000E+02  0.51100000000E-03 0. -1.
    9900012    2    1    2    0    0  0.23534075517E+02  0.12580137903E+01  0.21477542051E+02  0.59301950987E+02  0.50000012691E+02 0.  0.
         12    1    1    2    0    0 -0.23534075517E+02 -0.12580137903E+01 -0.21477542051E+02  0.31886049013E+02  0.00000000000E+00 0. -1.
         11    1    3    3    0    0 -0.11384742169E+02  0.62792350276E+01  0.15328941198E+02  0.20100188689E+02  0.51100000000E-03 0. -1.
        -11    1    3    3    0    0  0.13222581236E+02  0.55815713471E+01  0.30146766376E+00  0.14355538174E+02  0.51100000000E-03 0.  1.
         12    1    3    3    0    0  0.21696236450E+02 -0.10602792584E+02  0.58471331887E+01  0.24846224124E+02  0.00000000000E+00 0. -1.
</event>
<event>
 7    1  0.4489290E-013  0.5930198E+02  0.7816164E-02  0.1266605E+00
        -11   -1    0    0    0    0  0.00000000000E+00  0.00000000000E+00  0.45593999997E+02  0.45594000000E+02  0.51100000000E-03 0.  1.
         11   -1    0    0    0    0 -0.00000000000E+00 -0.00000000000E+00 -0.45593999997E+02  0.45594000000E+02  0.51100000000E-03 0. -1.
    9900012    2    1    2    0    0 -0.86920026543E+01  0.17356921877E+02  0.25296330162E+02  0.59301984776E+02  0.50000074315E+02 0.  0.
         12    1    1    2    0    0  0.86920026543E+01 -0.17356921877E+02 -0.25296330162E+02  0.31886015224E+02  0.00000000000E+00 0. -1.
         11    1    3    3    0    0  0.90902415739E+01  0.18077975291E+01  0.24262317683E+02  0.25972306086E+02  0.51100000000E-03 0. -1.
        -11    1    3    3    0    0 -0.16963577210E+02  0.15359969824E+02  0.95320878112E+01  0.24790165854E+02  0.51100000000E-03 0.  1.
         12    1    3    3    0    0 -0.81866701778E+00  0.18915452407E+00 -0.84980753323E+01  0.85395128359E+01  0.00000000000E+00 0. -1.
</event>
<event>
 7    1  0.4489290E-013  0.5930194E+02  0.7816164E-02  0.1266605E+00
        -11   -1    0    0    0    0  0.00000000000E+00  0.00000000000E+00  0.45593999997E+02  0.45594000000E+02  0.51100000000E-03 0. -1.
         11   -1    0    0    0    0 -0.00000000000E+00 -0.00000000000E+00 -0.45593999997E+02  0.45594000000E+02  0.51100000000E-03 0.  1.
    9900012    2    1    2    0    0 -0.14531379029E+01  0.30795170855E+02 -0.81404372362E+01  0.59301939156E+02  0.49999991115E+02 0.  0.
         12    1    1    2    0    0  0.14531379029E+01 -0.30795170855E+02  0.81404372362E+01  0.31886060844E+02  0.00000000000E+00 0. -1.
         11    1    3    3    0    0 -0.95609301856E+01 -0.72586478445E+01  0.33430081582E+01  0.12460941311E+02  0.51100000000E-03 0. -1.
        -11    1    3    3    0    0 -0.27485918497E+01  0.32682763550E+02 -0.52396513459E+01  0.33214029218E+02  0.51100000000E-03 0.  1.
         12    1    3    3    0    0  0.10856384132E+02  0.53710551497E+01 -0.62437940485E+01  0.13626968627E+02  0.00000000000E+00 0. -1.
</event>
<event>
 7    1  0.4489290E-013  0.5930194E+02  0.7816164E-02  0.1266605E+00
        -11   -1    0    0    0    0  0.00000000000E+00  0.00000000000E+00  0.45593999997E+02  0.45594000000E+02  0.51100000000E-03 0.  1.
         11   -1    0    0    0    0 -0.00000000000E+00 -0.00000000000E+00 -0.45593999997E+02  0.45594000000E+02  0.51100000000E-03 0. -1.
    9900012    2    1    2    0    0  0.28062314011E+02  0.99690120179E-02  0.15140256456E+02  0.59301938271E+02  0.49999989501E+02 0.  0.
         12    1    1    2    0    0 -0.28062314011E+02 -0.99690120179E-02 -0.15140256456E+02  0.31886061729E+02  0.00000000000E+00 0. -1.
         11    1    3    3    0    0  0.23602420661E+02 -0.28581985795E+01 -0.44875530424E+01  0.24194662485E+02  0.51100000000E-03 0. -1.
        -11    1    3    3    0    0 -0.48198078282E+01 -0.11117183964E+02  0.61895598904E+01  0.13606358024E+02  0.51100000000E-03 0.  1.
        -12    1    3    3    0    0  0.92797011784E+01  0.13985351555E+02  0.13438249608E+02  0.21500917762E+02  0.00000000000E+00 0.  1.
</event>
<event>
 7    1  0.4489290E-013  0.5930193E+02  0.7816164E-02  0.1266605E+00
        -11   -1    0    0    0    0  0.00000000000E+00  0.00000000000E+00  0.45593999997E+02  0.45594000000E+02  0.51100000000E-03 0. -1.
         11   -1    0    0    0    0 -0.00000000000E+00 -0.00000000000E+00 -0.45593999997E+02  0.45594000000E+02  0.51100000000E-03 0.  1.
    9900012    2    1    2    0    0 -0.26155836665E+02  0.16629267004E+02 -0.74874165658E+01  0.59301925930E+02  0.49999966994E+02 0.  0.
         12    1    1    2    0    0  0.26155836665E+02 -0.16629267004E+02  0.74874165658E+01  0.31886074070E+02  0.00000000000E+00 0. -1.
         11    1    3    3    0    0  0.94493458788E+01 -0.34263567268E+01 -0.13587458294E+01  0.10142792931E+02  0.51100000000E-03 0. -1.
        -11    1    3    3    0    0 -0.13341784323E+02  0.21875124523E+02 -0.77322996079E+01  0.26764019491E+02  0.51100000000E-03 0.  1.
        -12    1    3    3    0    0 -0.22263398221E+02 -0.18195007919E+01  0.16036288715E+01  0.22395113508E+02  0.00000000000E+00 0.  1.
</event>
<event>
 7    1  0.4489290E-013  0.5930198E+02  0.7816164E-02  0.1266605E+00
        -11   -1    0    0    0    0  0.00000000000E+00  0.00000000000E+00  0.45593999997E+02  0.45594000000E+02  0.51100000000E-03 0.  1.
         11   -1    0    0    0    0 -0.00000000000E+00 -0.00000000000E+00 -0.45593999997E+02  0.45594000000E+02  0.51100000000E-03 0. -1.
    9900012    2    1    2    0    0 -0.78478369700E+01  0.30595160224E+02  0.43664464758E+01  0.59301980665E+02  0.50000066817E+02 0.  0.
         12    1    1    2    0    0  0.78478369700E+01 -0.30595160224E+02 -0.43664464758E+01  0.31886019335E+02  0.00000000000E+00 0. -1.
         11    1    3    3    0    0 -0.15688718555E+02  0.24563766681E+02  0.17387528966E+02  0.33938778518E+02  0.51100000000E-03 0. -1.
        -11    1    3    3    0    0  0.11777109529E+02  0.67619080277E+00 -0.12724123506E+01  0.11864930522E+02  0.51100000000E-03 0.  1.
         12    1    3    3    0    0 -0.39362279434E+01  0.53552027397E+01 -0.11748670139E+02  0.13498271625E+02  0.00000000000E+00 0. -1.
</event>
<event>
 7    1  0.4489290E-013  0.5930189E+02  0.7816164E-02  0.1266605E+00
        -11   -1    0    0    0    0  0.00000000000E+00  0.00000000000E+00  0.45593999997E+02  0.45594000000E+02  0.51100000000E-03 0.  1.
         11   -1    0    0    0    0 -0.00000000000E+00 -0.00000000000E+00 -0.45593999997E+02  0.45594000000E+02  0.51100000000E-03 0. -1.
    9900012    2    1    2    0    0 -0.56654303885E+01  0.31374806188E+02  0.49826694545E+00  0.59301892762E+02  0.49999906504E+02 0.  0.
         12    1    1    2    0    0  0.56654303885E+01 -0.31374806188E+02 -0.49826694545E+00  0.31886107238E+02  0.00000000000E+00 0. -1.
         11    1    3    3    0    0  0.79118863830E+01 -0.40909633563E+01  0.31543088797E-01  0.89070153557E+01  0.51100000000E-03 0. -1.
        -11    1    3    3    0    0 -0.21020720770E+02  0.24905390541E+02 -0.96455794338E+01  0.33988032932E+02  0.51100000000E-03 0.  1.
        -12    1    3    3    0    0  0.74434039983E+01  0.10560379003E+02  0.10112303290E+02  0.16406844475E+02  0.00000000000E+00 0.  1.
</event>
<event>
 7    1  0.4489290E-013  0.5930184E+02  0.7816164E-02  0.1266605E+00
        -11   -1    0    0    0    0  0.00000000000E+00  0.00000000000E+00  0.45593999997E+02  0.45594000000E+02  0.51100000000E-03 0.  1.
         11   -1    0    0    0    0 -0.00000000000E+00 -0.00000000000E+00 -0.45593999997E+02  0.45594000000E+02  0.51100000000E-03 0. -1.
    9900012    2    1    2    0    0 -0.18301812909E+02  0.16049469456E+02  0.20595768160E+02  0.59301835419E+02  0.49999801924E+02 0.  0.
         12    1    1    2    0    0  0.18301812909E+02 -0.16049469456E+02 -0.20595768160E+02  0.31886164581E+02  0.00000000000E+00 0. -1.
         11    1    3    3    0    0  0.17211649968E+01 -0.10154175472E+01 -0.56129970904E+01  0.59581220481E+01  0.51100000000E-03 0. -1.
        -11    1    3    3    0    0 -0.16894740346E+02 -0.86692124391E+01  0.17966067063E+02  0.26141290359E+02  0.51100000000E-03 0.  1.
        -12    1    3    3    0    0 -0.31282375601E+01  0.25734099442E+02  0.82426981876E+01  0.27202423012E+02  0.00000000000E+00 0.  1.
</event>
<event>
 7    1  0.4489290E-013  0.5930192E+02  0.7816164E-02  0.1266605E+00
        -11   -1    0    0    0    0  0.00000000000E+00  0.00000000000E+00  0.45593999997E+02  0.45594000000E+02  0.51100000000E-03 0.  1.
         11   -1    0    0    0    0 -0.00000000000E+00 -0.00000000000E+00 -0.45593999997E+02  0.45594000000E+02  0.51100000000E-03 0. -1.
    9900012    2    1    2    0    0 -0.19815477483E+02 -0.58105471028E+01  0.24296217751E+02  0.59301924630E+02  0.49999964623E+02 0.  0.
         12    1    1    2    0    0  0.19815477483E+02  0.58105471028E+01 -0.24296217751E+02  0.31886075370E+02  0.00000000000E+00 0. -1.
         11    1    3    3    0    0  0.11625186937E+02  0.63726900956E+01  0.85245308481E+01  0.15761464933E+02  0.51100000000E-03 0. -1.
        -11    1    3    3    0    0 -0.17483765091E+02 -0.16743446418E+02  0.15707313002E+02  0.28857316606E+02  0.51100000000E-03 0.  1.
        -12    1    3    3    0    0 -0.13956899329E+02  0.45602092198E+01  0.64373901111E-01  0.14683143090E+02  0.00000000000E+00 0.  1.
</event>
<event>
 7    1  0.4489290E-013  0.5930187E+02  0.7816164E-02  0.1266605E+00
        -11   -1    0    0    0    0  0.00000000000E+00  0.00000000000E+00  0.45593999997E+02  0.45594000000E+02  0.51100000000E-03 0.  1.
         11   -1    0    0    0    0 -0.00000000000E+00 -0.00000000000E+00 -0.45593999997E+02  0.45594000000E+02  0.51100000000E-03 0. -1.
    9900012    2    1    2    0    0 -0.27373347898E+02  0.16249042522E+02  0.18422575574E+01  0.59301867106E+02  0.49999859714E+02 0.  0.
         12    1    1    2    0    0  0.27373347898E+02 -0.16249042522E+02 -0.18422575574E+01  0.31886132894E+02  0.00000000000E+00 0. -1.
         11    1    3    3    0    0 -0.25262889816E+02  0.15759923670E+02 -0.20131850231E+02  0.35942734870E+02  0.51100000000E-03 0. -1.
        -11    1    3    3    0    0  0.27805934996E+01 -0.74271654193E+00  0.77324946767E+01  0.82507455577E+01  0.51100000000E-03 0.  1.
         12    1    3    3    0    0 -0.48910515810E+01  0.12318353936E+01  0.14241613112E+02  0.15108386679E+02  0.00000000000E+00 0. -1.
</event>
<event>
 7    1  0.4489290E-013  0.5930194E+02  0.7816164E-02  0.1266605E+00
        -11   -1    0    0    0    0  0.00000000000E+00  0.00000000000E+00  0.45593999997E+02  0.45594000000E+02  0.51100000000E-03 0.  1.
         11   -1    0    0    0    0 -0.00000000000E+00 -0.00000000000E+00 -0.45593999997E+02  0.45594000000E+02  0.51100000000E-03 0. -1.
    9900012    2    1    2    0    0  0.10455153319E+02  0.96585293769E+01  0.28532847818E+02  0.59301939954E+02  0.49999992570E+02 0.  0.
         12    1    1    2    0    0 -0.10455153319E+02 -0.96585293769E+01 -0.28532847818E+02  0.31886060046E+02  0.00000000000E+00 0. -1.
         11    1    3    3    0    0 -0.19749377374E+01  0.27421699530E+02  0.85030628793E+01  0.28777631292E+02  0.51100000000E-03 0. -1.
        -11    1    3    3    0    0 -0.36352890267E+00 -0.45404712351E+01  0.50300562423E+01  0.67859780696E+01  0.51100000000E-03 0.  1.
         12    1    3    3    0    0  0.12793619959E+02 -0.13222698918E+02  0.14999728697E+02  0.23738330592E+02  0.00000000000E+00 0. -1.
</event>
<event>
 7    1  0.4489290E-013  0.5930191E+02  0.7816164E-02  0.1266605E+00
        -11   -1    0    0    0    0  0.00000000000E+00  0.00000000000E+00  0.45593999997E+02  0.45594000000E+02  0.51100000000E-03 0.  1.
         11   -1    0    0    0    0 -0.00000000000E+00 -0.00000000000E+00 -0.45593999997E+02  0.45594000000E+02  0.51100000000E-03 0. -1.
    9900012    2    1    2    0    0  0.28876593988E+02 -0.91542961988E+01  0.99530951988E+01  0.59301907055E+02  0.49999932571E+02 0.  0.
         12    1    1    2    0    0 -0.28876593988E+02  0.91542961988E+01 -0.99530951988E+01  0.31886092945E+02  0.00000000000E+00 0. -1.
         11    1    3    3    0    0  0.36938852268E+01  0.90479106102E+01  0.27496258791E+01  0.10152335555E+02  0.51100000000E-03 0. -1.
        -11    1    3    3    0    0  0.24689898579E+02 -0.13882268033E+02 -0.11035987683E+02  0.30399037517E+02  0.51100000000E-03 0.  1.
        -12    1    3    3    0    0  0.49281018287E+00 -0.43199387761E+01  0.18239457003E+02  0.18750533983E+02  0.00000000000E+00 0.  1.
</event>
<event>
 7    1  0.4489290E-013  0.5930195E+02  0.7816164E-02  0.1266605E+00
        -11   -1    0    0    0    0  0.00000000000E+00  0.00000000000E+00  0.45593999997E+02  0.45594000000E+02  0.51100000000E-03 0.  1.
         11   -1    0    0    0    0 -0.00000000000E+00 -0.00000000000E+00 -0.45593999997E+02  0.45594000000E+02  0.51100000000E-03 0. -1.
    9900012    2    1    2    0    0  0.21335659649E+02  0.62271592095E+01  0.22863337228E+02  0.59301951739E+02  0.50000014063E+02 0.  0.
         12    1    1    2    0    0 -0.21335659649E+02 -0.62271592095E+01 -0.22863337228E+02  0.31886048261E+02  0.00000000000E+00 0. -1.
         11    1    3    3    0    0 -0.78930558681E+01 -0.54154748882E+01  0.12194003498E+01  0.96495925653E+01  0.51100000000E-03 0. -1.
        -11    1    3    3    0    0  0.26708712980E+02  0.21633094706E+02  0.17144563530E+02  0.38409402423E+02  0.51100000000E-03 0.  1.
        -12    1    3    3    0    0  0.25200025371E+01 -0.99904606085E+01  0.44993733488E+01  0.11242956750E+02  0.00000000000E+00 0.  1.
</event>
<event>
 7    1  0.4489290E-013  0.5930196E+02  0.7816164E-02  0.1266605E+00
        -11   -1    0    0    0    0  0.00000000000E+00  0.00000000000E+00  0.45593999997E+02  0.45594000000E+02  0.51100000000E-03 0. -1.
         11   -1    0    0    0    0 -0.00000000000E+00 -0.00000000000E+00 -0.45593999997E+02  0.45594000000E+02  0.51100000000E-03 0.  1.
    9900012    2    1    2    0    0 -0.12027449454E+02  0.29472280046E+02  0.18559640311E+01  0.59301961771E+02  0.50000032359E+02 0.  0.
         12    1    1    2    0    0  0.12027449454E+02 -0.29472280046E+02 -0.18559640311E+01  0.31886038229E+02  0.00000000000E+00 0. -1.
         11    1    3    3    0    0  0.16007831028E+02  0.96275308665E+01 -0.42014634336E+01  0.19146600222E+02  0.51100000000E-03 0. -1.
        -11    1    3    3    0    0 -0.20213018013E+02  0.14444401516E+02  0.13323609691E+02  0.28190874548E+02  0.51100000000E-03 0.  1.
         12    1    3    3    0    0 -0.78222624701E+01  0.54003476637E+01 -0.72661822264E+01  0.11964487001E+02  0.00000000000E+00 0. -1.
</event>
<event>
 7    1  0.4489290E-013  0.5930193E+02  0.7816164E-02  0.1266605E+00
        -11   -1    0    0    0    0  0.00000000000E+00  0.00000000000E+00  0.45593999997E+02  0.45594000000E+02  0.51100000000E-03 0. -1.
         11   -1    0    0    0    0 -0.00000000000E+00 -0.00000000000E+00 -0.45593999997E+02  0.45594000000E+02  0.51100000000E-03 0.  1.
    9900012    2    1    2    0    0 -0.28295636776E+01  0.31233487710E+02  0.57605721261E+01  0.59301931312E+02  0.49999976810E+02 0.  0.
         12    1    1    2    0    0  0.28295636776E+01 -0.31233487710E+02 -0.57605721261E+01  0.31886068688E+02  0.00000000000E+00 0. -1.
         11    1    3    3    0    0 -0.13987317472E+02  0.16864381526E+02  0.15067333935E+02  0.26590918873E+02  0.51100000000E-03 0. -1.
        -11    1    3    3    0    0  0.43741195789E+00  0.55504693570E+01 -0.16259054383E+02  0.17185921244E+02  0.51100000000E-03 0.  1.
         12    1    3    3    0    0  0.10720341837E+02  0.88186368270E+01  0.69522925742E+01  0.15525091195E+02  0.00000000000E+00 0. -1.
</event>
<event>
 7    1  0.4489290E-013  0.5930203E+02  0.7816164E-02  0.1266604E+00
        -11   -1    0    0    0    0  0.00000000000E+00  0.00000000000E+00  0.45593999997E+02  0.45594000000E+02  0.51100000000E-03 0.  1.
         11   -1    0    0    0    0 -0.00000000000E+00 -0.00000000000E+00 -0.45593999997E+02  0.45594000000E+02  0.51100000000E-03 0. -1.
    9900012    2    1    2    0    0  0.11310582906E+02  0.51113294744E+01  0.29371077332E+02  0.59302028816E+02  0.50000154634E+02 0.  0.
         12    1    1    2    0    0 -0.11310582906E+02 -0.51113294744E+01 -0.29371077332E+02  0.31885971184E+02  0.00000000000E+00 0. -1.
         11    1    3    3    0    0  0.14475892847E+02 -0.62295416407E+01  0.43592671099E+01  0.16351204016E+02  0.51100000000E-03 0. -1.
        -11    1    3    3    0    0  0.61483116720E+01  0.10212726497E+02  0.30031333386E+02  0.32310718100E+02  0.51100000000E-03 0.  1.
        -12    1    3    3    0    0 -0.93136216126E+01  0.11281446180E+01 -0.50195231636E+01  0.10640106701E+02  0.00000000000E+00 0.  1.
</event>
<event>
 7    1  0.4489290E-013  0.5930199E+02  0.7816164E-02  0.1266605E+00
        -11   -1    0    0    0    0  0.00000000000E+00  0.00000000000E+00  0.45593999997E+02  0.45594000000E+02  0.51100000000E-03 0. -1.
         11   -1    0    0    0    0 -0.00000000000E+00 -0.00000000000E+00 -0.45593999997E+02  0.45594000000E+02  0.51100000000E-03 0.  1.
    9900012    2    1    2    0    0 -0.10260273642E+02 -0.30177376681E+02  0.87773777172E+00  0.59301988927E+02  0.50000081885E+02 0.  0.
         12    1    1    2    0    0  0.10260273642E+02  0.30177376681E+02 -0.87773777172E+00  0.31886011073E+02  0.00000000000E+00 0. -1.
         11    1    3    3    0    0  0.63729530411E+01  0.48120233145E+01  0.97185206150E+01  0.12578542922E+02  0.51100000000E-03 0. -1.
        -11    1    3    3    0    0 -0.18398710023E+02 -0.10533415818E+02 -0.60410666106E+01  0.22044497394E+02  0.51100000000E-03 0.  1.
        -12    1    3    3    0    0  0.17654833398E+01 -0.24455984178E+02 -0.27997162327E+01  0.24678948610E+02  0.00000000000E+00 0.  1.
</event>
<event>
 7    1  0.4489290E-013  0.5930196E+02  0.7816164E-02  0.1266605E+00
        -11   -1    0    0    0    0  0.00000000000E+00  0.00000000000E+00  0.45593999997E+02  0.45594000000E+02  0.51100000000E-03 0.  1.
         11   -1    0    0    0    0 -0.00000000000E+00 -0.00000000000E+00 -0.45593999997E+02  0.45594000000E+02  0.51100000000E-03 0. -1.
    9900012    2    1    2    0    0 -0.51690370070E+01 -0.70634429008E+01  0.30661187623E+02  0.59301959235E+02  0.50000027735E+02 0.  0.
         12    1    1    2    0    0  0.51690370070E+01  0.70634429008E+01 -0.30661187623E+02  0.31886040765E+02  0.00000000000E+00 0. -1.
         11    1    3    3    0    0 -0.86494794395E+01 -0.89059326035E+00 -0.74182363875E+01  0.11429649264E+02  0.51100000000E-03 0. -1.
        -11    1    3    3    0    0 -0.36992984161E+01  0.73196008810E+01  0.28905839806E+02  0.30046779211E+02  0.51100000000E-03 0.  1.
         12    1    3    3    0    0  0.71797408485E+01 -0.13492450522E+02  0.91735842049E+01  0.17825530760E+02  0.00000000000E+00 0. -1.
</event>
<event>
 7    1  0.4489290E-013  0.5930196E+02  0.7816164E-02  0.1266605E+00
        -11   -1    0    0    0    0  0.00000000000E+00  0.00000000000E+00  0.45593999997E+02  0.45594000000E+02  0.51100000000E-03 0. -1.
         11   -1    0    0    0    0 -0.00000000000E+00 -0.00000000000E+00 -0.45593999997E+02  0.45594000000E+02  0.51100000000E-03 0.  1.
    9900012    2    1    2    0    0 -0.49155065351E+00  0.20811598068E+02 -0.24152752412E+02  0.59301957830E+02  0.50000025172E+02 0.  0.
         12    1    1    2    0    0  0.49155065351E+00 -0.20811598068E+02  0.24152752412E+02  0.31886042170E+02  0.00000000000E+00 0. -1.
         11    1    3    3    0    0  0.18852042797E+01  0.16279029193E+02 -0.49852960617E+01  0.17129330510E+02  0.51100000000E-03 0. -1.
        -11    1    3    3    0    0 -0.77812647001E+01 -0.14788904901E+01 -0.28642689254E+02  0.29717652084E+02  0.51100000000E-03 0.  1.
        -12    1    3    3    0    0  0.54045097668E+01  0.60114593658E+01  0.94752329045E+01  0.12454975236E+02  0.00000000000E+00 0.  1.
</event>
<event>
 7    1  0.4489290E-013  0.5930194E+02  0.7816164E-02  0.1266605E+00
        -11   -1    0    0    0    0  0.00000000000E+00  0.00000000000E+00  0.45593999997E+02  0.45594000000E+02  0.51100000000E-03 0. -1.
         11   -1    0    0    0    0 -0.00000000000E+00 -0.00000000000E+00 -0.45593999997E+02  0.45594000000E+02  0.51100000000E-03 0.  1.
    9900012    2    1    2    0    0 -0.10177368424E+02  0.24311409692E+02 -0.17947066904E+02  0.59301942236E+02  0.49999996733E+02 0.  0.
         12    1    1    2    0    0  0.10177368424E+02 -0.24311409692E+02  0.17947066904E+02  0.31886057764E+02  0.00000000000E+00 0. -1.
         11    1    3    3    0    0 -0.14084877382E+02  0.15355687990E+02 -0.10480590833E+02  0.23324315831E+02  0.51100000000E-03 0. -1.
        -11    1    3    3    0    0  0.87580875394E+01 -0.17558810379E+01  0.10947664464E+02  0.14129351473E+02  0.51100000000E-03 0.  1.
         12    1    3    3    0    0 -0.48505785814E+01  0.10711602740E+02 -0.18414140536E+02  0.21848274932E+02  0.00000000000E+00 0. -1.
</event>
<event>
 7    1  0.4489290E-013  0.5930196E+02  0.7816164E-02  0.1266605E+00
        -11   -1    0    0    0    0  0.00000000000E+00  0.00000000000E+00  0.45593999997E+02  0.45594000000E+02  0.51100000000E-03 0.  1.
         11   -1    0    0    0    0 -0.00000000000E+00 -0.00000000000E+00 -0.45593999997E+02  0.45594000000E+02  0.51100000000E-03 0. -1.
    9900012    2    1    2    0    0  0.23379143092E+02 -0.18800694711E+02 -0.10801342615E+02  0.59301961432E+02  0.50000031740E+02 0.  0.
         12    1    1    2    0    0 -0.23379143092E+02  0.18800694711E+02  0.10801342615E+02  0.31886038568E+02  0.00000000000E+00 0. -1.
         11    1    3    3    0    0  0.25032445824E+01  0.88171278801E+01  0.11676908895E+02  0.14844466278E+02  0.51100000000E-03 0. -1.
        -11    1    3    3    0    0  0.14469574627E+02 -0.57836496602E+01 -0.98245060705E+01  0.18421186527E+02  0.51100000000E-03 0.  1.
         12    1    3    3    0    0  0.64063238824E+01 -0.21834172931E+02 -0.12653745439E+02  0.26036308626E+02  0.00000000000E+00 0. -1.
</event>
<event>
 7    1  0.4489290E-013  0.5930193E+02  0.7816164E-02  0.1266605E+00
        -11   -1    0    0    0    0  0.00000000000E+00  0.00000000000E+00  0.45593999997E+02  0.45594000000E+02  0.51100000000E-03 0.  1.
         11   -1    0    0    0    0 -0.00000000000E+00 -0.00000000000E+00 -0.45593999997E+02  0.45594000000E+02  0.51100000000E-03 0. -1.
    9900012    2    1    2    0    0 -0.17399522605E+02  0.26406009313E+02 -0.40866207689E+01  0.59301934329E+02  0.49999982311E+02 0.  0.
         12    1    1    2    0    0  0.17399522605E+02 -0.26406009313E+02  0.40866207689E+01  0.31886065671E+02  0.00000000000E+00 0. -1.
         11    1    3    3    0    0  0.45581952677E+00 -0.46227570457E+01 -0.14765814061E+02  0.15479241561E+02  0.51100000000E-03 0. -1.
        -11    1    3    3    0    0  0.50024229031E+00  0.18527185394E+02  0.11112352174E+02  0.21609979455E+02  0.51100000000E-03 0.  1.
        -12    1    3    3    0    0 -0.18355584422E+02  0.12501580964E+02 -0.43315888176E+00  0.22212713312E+02  0.00000000000E+00 0.  1.
</event>
<event>
 7    1  0.4489290E-013  0.5930194E+02  0.7816164E-02  0.1266605E+00
        -11   -1    0    0    0    0  0.00000000000E+00  0.00000000000E+00  0.45593999997E+02  0.45594000000E+02  0.51100000000E-03 0.  1.
         11   -1    0    0    0    0 -0.00000000000E+00 -0.00000000000E+00 -0.45593999997E+02  0.45594000000E+02  0.51100000000E-03 0. -1.
    9900012    2    1    2    0    0  0.21404651888E+02 -0.23566160978E+02  0.17882440247E+01  0.59301939058E+02  0.49999990937E+02 0.  0.
         12    1    1    2    0    0 -0.21404651888E+02  0.23566160978E+02 -0.17882440247E+01  0.31886060942E+02  0.00000000000E+00 0. -1.
         11    1    3    3    0    0  0.31637706785E+00  0.46259253175E+01 -0.47674779481E+01  0.66504229744E+01  0.51100000000E-03 0. -1.
        -11    1    3    3    0    0  0.39185750122E+01 -0.15385894531E+02  0.21359487777E+02  0.26614069569E+02  0.51100000000E-03 0.  1.
        -12    1    3    3    0    0  0.17169699808E+02 -0.12806191764E+02 -0.14803765805E+02  0.26037446515E+02  0.00000000000E+00 0.  1.
</event>
<event>
 7    1  0.4489290E-013  0.5930197E+02  0.7816164E-02  0.1266605E+00
        -11   -1    0    0    0    0  0.00000000000E+00  0.00000000000E+00  0.45593999997E+02  0.45594000000E+02  0.51100000000E-03 0. -1.
         11   -1    0    0    0    0 -0.00000000000E+00 -0.00000000000E+00 -0.45593999997E+02  0.45594000000E+02  0.51100000000E-03 0.  1.
    9900012    2    1    2    0    0 -0.17937898598E+02  0.14750743712E+02 -0.21848706343E+02  0.59301974613E+02  0.50000055779E+02 0.  0.
         12    1    1    2    0    0  0.17937898598E+02 -0.14750743712E+02  0.21848706343E+02  0.31886025387E+02  0.00000000000E+00 0. -1.
         11    1    3    3    0    0 -0.13346045607E+02  0.23448250443E+01  0.33919854978E+01  0.13968561262E+02  0.51100000000E-03 0. -1.
        -11    1    3    3    0    0  0.12355809448E+02  0.32268577217E+01 -0.22492268367E+02  0.25864662658E+02  0.51100000000E-03 0.  1.
        -12    1    3    3    0    0 -0.16947662438E+02  0.91790609457E+01 -0.27484234742E+01  0.19468750693E+02  0.00000000000E+00 0.  1.
</event>
<event>
 7    1  0.4489290E-013  0.5930200E+02  0.7816164E-02  0.1266605E+00
        -11   -1    0    0    0    0  0.00000000000E+00  0.00000000000E+00  0.45593999997E+02  0.45594000000E+02  0.51100000000E-03 0. -1.
         11   -1    0    0    0    0 -0.00000000000E+00 -0.00000000000E+00 -0.45593999997E+02  0.45594000000E+02  0.51100000000E-03 0.  1.
    9900012    2    1    2    0    0  0.22970736792E+02  0.10888259692E+02 -0.19248589787E+02  0.59301997481E+02  0.50000097485E+02 0.  0.
         12    1    1    2    0    0 -0.22970736792E+02 -0.10888259692E+02  0.19248589787E+02  0.31886002519E+02  0.00000000000E+00 0. -1.
         11    1    3    3    0    0 -0.87081979867E+01  0.17189409380E+02 -0.16307877351E+02  0.25243917504E+02  0.51100000000E-03 0. -1.
        -11    1    3    3    0    0  0.20967962364E+02 -0.77936986742E+01  0.13807933485E+01  0.22412134554E+02  0.51100000000E-03 0.  1.
        -12    1    3    3    0    0  0.10710972414E+02  0.14925489867E+01 -0.43215057845E+01  0.11645945423E+02  0.00000000000E+00 0.  1.
</event>
<event>
 7    1  0.4489290E-013  0.5930194E+02  0.7816164E-02  0.1266605E+00
        -11   -1    0    0    0    0  0.00000000000E+00  0.00000000000E+00  0.45593999997E+02  0.45594000000E+02  0.51100000000E-03 0.  1.
         11   -1    0    0    0    0 -0.00000000000E+00 -0.00000000000E+00 -0.45593999997E+02  0.45594000000E+02  0.51100000000E-03 0. -1.
    9900012    2    1    2    0    0  0.25603530675E+00 -0.12802584037E+02  0.29201863683E+02  0.59301944197E+02  0.50000000308E+02 0.  0.
         12    1    1    2    0    0 -0.25603530675E+00  0.12802584037E+02 -0.29201863683E+02  0.31886055803E+02  0.00000000000E+00 0. -1.
         11    1    3    3    0    0 -0.13441938524E+02 -0.11205896247E+02  0.28947612293E+01  0.17738023137E+02  0.51100000000E-03 0. -1.
        -11    1    3    3    0    0  0.18751381951E+02 -0.10696444646E+02  0.19770571876E+02  0.29272918640E+02  0.51100000000E-03 0.  1.
        -12    1    3    3    0    0 -0.50534081204E+01  0.90997568560E+01  0.65365305784E+01  0.12291002419E+02  0.00000000000E+00 0.  1.
</event>
<event>
 7    1  0.4489290E-013  0.5930192E+02  0.7816164E-02  0.1266605E+00
        -11   -1    0    0    0    0  0.00000000000E+00  0.00000000000E+00  0.45593999997E+02  0.45594000000E+02  0.51100000000E-03 0.  1.
         11   -1    0    0    0    0 -0.00000000000E+00 -0.00000000000E+00 -0.45593999997E+02  0.45594000000E+02  0.51100000000E-03 0. -1.
    9900012    2    1    2    0    0 -0.28768083370E+01  0.22330731397E+02  0.22578411356E+02  0.59301917609E+02  0.49999951818E+02 0.  0.
         12    1    1    2    0    0  0.28768083370E+01 -0.22330731397E+02 -0.22578411356E+02  0.31886082391E+02  0.00000000000E+00 0. -1.
         11    1    3    3    0    0 -0.99300908857E+01 -0.20736807159E+01 -0.33410386104E+01  0.10680327521E+02  0.51100000000E-03 0. -1.
        -11    1    3    3    0    0  0.63747336254E+01  0.31052917414E+02  0.27255276180E+02  0.41806351056E+02  0.51100000000E-03 0.  1.
        -12    1    3    3    0    0  0.67854892331E+00 -0.66485053013E+01 -0.13358262135E+01  0.68152390315E+01  0.00000000000E+00 0.  1.
</event>
<event>
 7    1  0.4489290E-013  0.5930195E+02  0.7816164E-02  0.1266605E+00
        -11   -1    0    0    0    0  0.00000000000E+00  0.00000000000E+00  0.45593999997E+02  0.45594000000E+02  0.51100000000E-03 0. -1.
         11   -1    0    0    0    0 -0.00000000000E+00 -0.00000000000E+00 -0.45593999997E+02  0.45594000000E+02  0.51100000000E-03 0.  1.
    9900012    2    1    2    0    0  0.25783723426E+02 -0.16678799794E+02 -0.85870523289E+01  0.59301949382E+02  0.50000009766E+02 0.  0.
         12    1    1    2    0    0 -0.25783723426E+02  0.16678799794E+02  0.85870523289E+01  0.31886050618E+02  0.00000000000E+00 0. -1.
         11    1    3    3    0    0  0.10279274503E+02  0.60694523652E+01  0.82568520404E+01  0.14514728458E+02  0.51100000000E-03 0. -1.
        -11    1    3    3    0    0  0.20670739127E+02 -0.76415966274E+01 -0.18449278938E+02  0.28741074243E+02  0.51100000000E-03 0.  1.
        -12    1    3    3    0    0 -0.51662902035E+01 -0.15106655532E+02  0.16053745686E+01  0.16046146682E+02  0.00000000000E+00 0.  1.
</event>
<event>
 7    1  0.4489290E-013  0.5930204E+02  0.7816164E-02  0.1266604E+00
        -11   -1    0    0    0    0  0.00000000000E+00  0.00000000000E+00  0.45593999997E+02  0.45594000000E+02  0.51100000000E-03 0. -1.
         11   -1    0    0    0    0 -0.00000000000E+00 -0.00000000000E+00 -0.45593999997E+02  0.45594000000E+02  0.51100000000E-03 0.  1.
    9900012    2    1    2    0    0  0.19703255840E+02  0.25066938997E+02 -0.38033493243E+00  0.59302041083E+02  0.50000177006E+02 0.  0.
         12    1    1    2    0    0 -0.19703255840E+02 -0.25066938997E+02  0.38033493243E+00  0.31885958917E+02  0.00000000000E+00 0. -1.
         11    1    3    3    0    0 -0.16155129311E+01  0.25841075721E+02  0.10547327879E+02  0.27957417658E+02  0.51100000000E-03 0. -1.
        -11    1    3    3    0    0 -0.69172434578E-01 -0.23385314174E+01 -0.95752730132E+01  0.98569451431E+01  0.51100000000E-03 0.  1.
         12    1    3    3    0    0  0.21387941206E+02  0.15643946932E+01 -0.13523897982E+01  0.21487678282E+02  0.00000000000E+00 0. -1.
</event>
<event>
 7    1  0.4489290E-013  0.5930191E+02  0.7816164E-02  0.1266605E+00
        -11   -1    0    0    0    0  0.00000000000E+00  0.00000000000E+00  0.45593999997E+02  0.45594000000E+02  0.51100000000E-03 0. -1.
         11   -1    0    0    0    0 -0.00000000000E+00 -0.00000000000E+00 -0.45593999997E+02  0.45594000000E+02  0.51100000000E-03 0.  1.
    9900012    2    1    2    0    0 -0.12323540051E+02 -0.26002143735E+02 -0.13738319685E+02  0.59301912972E+02  0.49999943362E+02 0.  0.
         12    1    1    2    0    0  0.12323540051E+02  0.26002143735E+02  0.13738319685E+02  0.31886087028E+02  0.00000000000E+00 0. -1.
         11    1    3    3    0    0  0.37446556671E+01 -0.19638768220E+02  0.71189421081E+01  0.21222228918E+02  0.51100000000E-03 0. -1.
        -11    1    3    3    0    0 -0.12541206194E+02  0.91628293557E+01 -0.13332328844E+02  0.20469252240E+02  0.51100000000E-03 0.  1.
         12    1    3    3    0    0 -0.35269895242E+01 -0.15526204871E+02 -0.75249329492E+01  0.17610431814E+02  0.00000000000E+00 0. -1.
</event>
<event>
 7    1  0.4489290E-013  0.5930194E+02  0.7816164E-02  0.1266605E+00
        -11   -1    0    0    0    0  0.00000000000E+00  0.00000000000E+00  0.45593999997E+02  0.45594000000E+02  0.51100000000E-03 0.  1.
         11   -1    0    0    0    0 -0.00000000000E+00 -0.00000000000E+00 -0.45593999997E+02  0.45594000000E+02  0.51100000000E-03 0. -1.
    9900012    2    1    2    0    0 -0.13371458270E+02 -0.21625427961E+02  0.19242288000E+02  0.59301942259E+02  0.49999996775E+02 0.  0.
         12    1    1    2    0    0  0.13371458270E+02  0.21625427961E+02 -0.19242288000E+02  0.31886057741E+02  0.00000000000E+00 0. -1.
         11    1    3    3    0    0 -0.17824432790E+02 -0.24606551288E+01  0.89688248117E-01  0.17993700903E+02  0.51100000000E-03 0. -1.
        -11    1    3    3    0    0  0.14247142836E+01  0.33730772820E+01  0.18182124334E+02  0.18547158993E+02  0.51100000000E-03 0.  1.
         12    1    3    3    0    0  0.30282602367E+01 -0.22537850114E+02  0.97047541801E+00  0.22761082364E+02  0.00000000000E+00 0. -1.
</event>
<event>
 7    1  0.4489290E-013  0.5930196E+02  0.7816164E-02  0.1266605E+00
        -11   -1    0    0    0    0  0.00000000000E+00  0.00000000000E+00  0.45593999997E+02  0.45594000000E+02  0.51100000000E-03 0. -1.
         11   -1    0    0    0    0 -0.00000000000E+00 -0.00000000000E+00 -0.45593999997E+02  0.45594000000E+02  0.51100000000E-03 0.  1.
    9900012    2    1    2    0    0  0.28581390484E+02 -0.11696427482E+02  0.79383213048E+01  0.59301964765E+02  0.50000037821E+02 0.  0.
         12    1    1    2    0    0 -0.28581390484E+02  0.11696427482E+02 -0.79383213048E+01  0.31886035235E+02  0.00000000000E+00 0. -1.
         11    1    3    3    0    0  0.86973270811E+01 -0.48549623220E+01  0.14524277230E+02  0.17611609433E+02  0.51100000000E-03 0. -1.
        -11    1    3    3    0    0  0.21128241334E+02  0.10320721398E+02 -0.68139416041E+01  0.24481619074E+02  0.51100000000E-03 0.  1.
        -12    1    3    3    0    0 -0.12441779309E+01 -0.17162186557E+02  0.22798567885E+00  0.17208736259E+02  0.00000000000E+00 0.  1.
</event>
<event>
 7    1  0.4489290E-013  0.5930195E+02  0.7816164E-02  0.1266605E+00
        -11   -1    0    0    0    0  0.00000000000E+00  0.00000000000E+00  0.45593999997E+02  0.45594000000E+02  0.51100000000E-03 0.  1.
         11   -1    0    0    0    0 -0.00000000000E+00 -0.00000000000E+00 -0.45593999997E+02  0.45594000000E+02  0.51100000000E-03 0. -1.
    9900012    2    1    2    0    0 -0.10258039913E+02  0.12686694262E+02  0.27395991895E+02  0.59301953427E+02  0.50000017142E+02 0.  0.
         12    1    1    2    0    0  0.10258039913E+02 -0.12686694262E+02 -0.27395991895E+02  0.31886046573E+02  0.00000000000E+00 0. -1.
         11    1    3    3    0    0 -0.30487141968E+01 -0.18038970081E+02  0.15584450143E+02  0.24032773172E+02  0.51100000000E-03 0.  1.
        -11    1    3    3    0    0 -0.26462679715E+01  0.14255230945E+02  0.84425720643E-02  0.14498772879E+02  0.51100000000E-03 0. -1.
        -12    1    3    3    0    0 -0.45630577451E+01  0.16470433398E+02  0.11803099180E+02  0.20770407376E+02  0.00000000000E+00 0.  1.
</event>
<event>
 7    1  0.4489290E-013  0.5930199E+02  0.7816164E-02  0.1266605E+00
        -11   -1    0    0    0    0  0.00000000000E+00  0.00000000000E+00  0.45593999997E+02  0.45594000000E+02  0.51100000000E-03 0.  1.
         11   -1    0    0    0    0 -0.00000000000E+00 -0.00000000000E+00 -0.45593999997E+02  0.45594000000E+02  0.51100000000E-03 0. -1.
    9900012    2    1    2    0    0  0.20169674793E+02  0.20112990967E+01  0.24614149846E+02  0.59301992443E+02  0.50000088298E+02 0.  0.
         12    1    1    2    0    0 -0.20169674793E+02 -0.20112990967E+01 -0.24614149846E+02  0.31886007557E+02  0.00000000000E+00 0. -1.
         11    1    3    3    0    0 -0.94157219532E+01 -0.86485899285E+01  0.19468511213E+01  0.12932291259E+02  0.51100000000E-03 0. -1.
        -11    1    3    3    0    0  0.26690881182E+02 -0.17437468071E+00  0.79176406327E+01  0.27841023298E+02  0.51100000000E-03 0.  1.
         12    1    3    3    0    0  0.28945155637E+01  0.10834263706E+02  0.14749658092E+02  0.18528677887E+02  0.00000000000E+00 0. -1.
</event>
<event>
 7    1  0.4489290E-013  0.5930193E+02  0.7816164E-02  0.1266605E+00
        -11   -1    0    0    0    0  0.00000000000E+00  0.00000000000E+00  0.45593999997E+02  0.45594000000E+02  0.51100000000E-03 0. -1.
         11   -1    0    0    0    0 -0.00000000000E+00 -0.00000000000E+00 -0.45593999997E+02  0.45594000000E+02  0.51100000000E-03 0.  1.
    9900012    2    1    2    0    0 -0.29480917484E+02 -0.63133736087E+01  0.10379702685E+02  0.59301930788E+02  0.49999975853E+02 0.  0.
         12    1    1    2    0    0  0.29480917484E+02  0.63133736087E+01 -0.10379702685E+02  0.31886069212E+02  0.00000000000E+00 0. -1.
         11    1    3    3    0    0 -0.77419335814E+01  0.98757568234E+01  0.11329911944E+02  0.16906655888E+02  0.51100000000E-03 0. -1.
        -11    1    3    3    0    0 -0.59078368457E+01 -0.15765932057E+02 -0.13982571776E+02  0.21885599456E+02  0.51100000000E-03 0.  1.
        -12    1    3    3    0    0 -0.15831147057E+02 -0.42319837531E+00  0.13032362517E+02  0.20509675443E+02  0.00000000000E+00 0.  1.
</event>
<event>
 7    1  0.4489290E-013  0.5930193E+02  0.7816164E-02  0.1266605E+00
        -11   -1    0    0    0    0  0.00000000000E+00  0.00000000000E+00  0.45593999997E+02  0.45594000000E+02  0.51100000000E-03 0.  1.
         11   -1    0    0    0    0 -0.00000000000E+00 -0.00000000000E+00 -0.45593999997E+02  0.45594000000E+02  0.51100000000E-03 0. -1.
    9900012    2    1    2    0    0  0.28884815638E+02  0.12096696708E+01  0.13450847205E+02  0.59301934616E+02  0.49999982835E+02 0.  0.
         12    1    1    2    0    0 -0.28884815638E+02 -0.12096696708E+01 -0.13450847205E+02  0.31886065384E+02  0.00000000000E+00 0. -1.
         11    1    3    3    0    0 -0.25325029921E+01 -0.56955727572E+01  0.32593608108E+01  0.70339571788E+01  0.51100000000E-03 0. -1.
        -11    1    3    3    0    0  0.38565244584E+02 -0.10518844007E+01  0.13809167631E+02  0.40976550142E+02  0.51100000000E-03 0.  1.
        -12    1    3    3    0    0 -0.71479259540E+01  0.79571268287E+01 -0.36176812370E+01  0.11291427294E+02  0.00000000000E+00 0.  1.
</event>
<event>
 7    1  0.4489290E-013  0.5930162E+02  0.7816164E-02  0.1266606E+00
        -11   -1    0    0    0    0  0.00000000000E+00  0.00000000000E+00  0.45593999997E+02  0.45594000000E+02  0.51100000000E-03 0. -1.
         11   -1    0    0    0    0 -0.00000000000E+00 -0.00000000000E+00 -0.45593999997E+02  0.45594000000E+02  0.51100000000E-03 0.  1.
    9900012    2    1    2    0    0 -0.12307733543E+02  0.21973110547E+02 -0.19556151332E+02  0.59301624430E+02  0.49999417127E+02 0.  0.
         12    1    1    2    0    0  0.12307733543E+02 -0.21973110547E+02  0.19556151332E+02  0.31886375570E+02  0.00000000000E+00 0. -1.
         11    1    3    3    0    0 -0.15700318148E+01  0.23716960501E+02 -0.36308570327E+01  0.24044590626E+02  0.51100000000E-03 0.  1.
        -11    1    3    3    0    0 -0.84451409743E+01 -0.13859306721E+02 -0.15282407907E+01  0.16301420461E+02  0.51100000000E-03 0. -1.
        -12    1    3    3    0    0 -0.22925607542E+01  0.12115456767E+02 -0.14397053509E+02  0.18955613343E+02  0.00000000000E+00 0.  1.
</event>
<event>
 7    1  0.4489290E-013  0.5930193E+02  0.7816164E-02  0.1266605E+00
        -11   -1    0    0    0    0  0.00000000000E+00  0.00000000000E+00  0.45593999997E+02  0.45594000000E+02  0.51100000000E-03 0. -1.
         11   -1    0    0    0    0 -0.00000000000E+00 -0.00000000000E+00 -0.45593999997E+02  0.45594000000E+02  0.51100000000E-03 0.  1.
    9900012    2    1    2    0    0  0.12631763231E+01 -0.31846263213E+01 -0.31701480692E+02  0.59301931925E+02  0.49999977927E+02 0.  0.
         12    1    1    2    0    0 -0.12631763231E+01  0.31846263213E+01  0.31701480692E+02  0.31886068075E+02  0.00000000000E+00 0. -1.
         11    1    3    3    0    0 -0.11390678570E+01  0.17752809448E+02 -0.12563137940E+02  0.21778249564E+02  0.51100000000E-03 0. -1.
        -11    1    3    3    0    0 -0.62645901972E+01 -0.21542024725E+02 -0.90007979466E+01  0.24172676383E+02  0.51100000000E-03 0.  1.
        -12    1    3    3    0    0  0.86668343773E+01  0.60458895529E+00 -0.10137544805E+02  0.13351005977E+02  0.00000000000E+00 0.  1.
</event>
<event>
 7    1  0.4489290E-013  0.5930193E+02  0.7816164E-02  0.1266605E+00
        -11   -1    0    0    0    0  0.00000000000E+00  0.00000000000E+00  0.45593999997E+02  0.45594000000E+02  0.51100000000E-03 0.  1.
         11   -1    0    0    0    0 -0.00000000000E+00 -0.00000000000E+00 -0.45593999997E+02  0.45594000000E+02  0.51100000000E-03 0. -1.
    9900012    2    1    2    0    0 -0.18907102348E+02  0.25675590359E+02  0.82027470992E-01  0.59301934266E+02  0.49999982197E+02 0.  0.
         12    1    1    2    0    0  0.18907102348E+02 -0.25675590359E+02 -0.82027470992E-01  0.31886065734E+02  0.00000000000E+00 0. -1.
         11    1    3    3    0    0 -0.12646639736E+02  0.37496383406E+02  0.32234361225E+01  0.39702730458E+02  0.51100000000E-03 0.  1.
        -11    1    3    3    0    0 -0.97960065780E+01 -0.11050598132E+02  0.60375009128E-01  0.14767569514E+02  0.51100000000E-03 0. -1.
         12    1    3    3    0    0  0.35355439655E+01 -0.77019491594E+00 -0.32017836606E+01  0.48316342939E+01  0.00000000000E+00 0. -1.
</event>
<event>
 7    1  0.4489290E-013  0.5930195E+02  0.7816164E-02  0.1266605E+00
        -11   -1    0    0    0    0  0.00000000000E+00  0.00000000000E+00  0.45593999997E+02  0.45594000000E+02  0.51100000000E-03 0.  1.
         11   -1    0    0    0    0 -0.00000000000E+00 -0.00000000000E+00 -0.45593999997E+02  0.45594000000E+02  0.51100000000E-03 0. -1.
    9900012    2    1    2    0    0 -0.50399258980E+01 -0.22456418140E+02  0.22068723637E+02  0.59301950830E+02  0.50000012405E+02 0.  0.
         12    1    1    2    0    0  0.50399258980E+01  0.22456418140E+02 -0.22068723637E+02  0.31886049170E+02  0.00000000000E+00 0. -1.
         11    1    3    3    0    0  0.21944040178E+02 -0.76034591678E+01  0.52085441868E+01  0.23800891232E+02  0.51100000000E-03 0. -1.
        -11    1    3    3    0    0 -0.18314447842E+02 -0.87518297514E+01  0.85255549282E+01  0.22015871794E+02  0.51100000000E-03 0.  1.
         12    1    3    3    0    0 -0.86695182338E+01 -0.61011292206E+01  0.83346245217E+01  0.13485187803E+02  0.00000000000E+00 0. -1.
</event>
<event>
 7    1  0.4489290E-013  0.5930195E+02  0.7816164E-02  0.1266605E+00
        -11   -1    0    0    0    0  0.00000000000E+00  0.00000000000E+00  0.45593999997E+02  0.45594000000E+02  0.51100000000E-03 0.  1.
         11   -1    0    0    0    0 -0.00000000000E+00 -0.00000000000E+00 -0.45593999997E+02  0.45594000000E+02  0.51100000000E-03 0. -1.
    9900012    2    1    2    0    0  0.13245781009E+02  0.17047135197E+02  0.23466249171E+02  0.59301946887E+02  0.50000005215E+02 0.  0.
         12    1    1    2    0    0 -0.13245781009E+02 -0.17047135197E+02 -0.23466249171E+02  0.31886053113E+02  0.00000000000E+00 0. -1.
         11    1    3    3    0    0  0.92926960370E+01  0.18963569955E+02 -0.24717867209E+01  0.21262194499E+02  0.51100000000E-03 0. -1.
        -11    1    3    3    0    0 -0.89190533809E+01 -0.90293103180E+01  0.15354490457E+02  0.19920801577E+02  0.51100000000E-03 0.  1.
         12    1    3    3    0    0  0.12872138353E+02  0.71128755603E+01  0.10583545435E+02  0.18118950811E+02  0.00000000000E+00 0. -1.
</event>
<event>
 7    1  0.4489290E-013  0.5930195E+02  0.7816164E-02  0.1266605E+00
        -11   -1    0    0    0    0  0.00000000000E+00  0.00000000000E+00  0.45593999997E+02  0.45594000000E+02  0.51100000000E-03 0. -1.
         11   -1    0    0    0    0 -0.00000000000E+00 -0.00000000000E+00 -0.45593999997E+02  0.45594000000E+02  0.51100000000E-03 0.  1.
    9900012    2    1    2    0    0  0.19563537659E+02 -0.11523470820E+02 -0.22387450181E+02  0.59301948017E+02  0.50000007275E+02 0.  0.
         12    1    1    2    0    0 -0.19563537659E+02  0.11523470820E+02  0.22387450181E+02  0.31886051983E+02  0.00000000000E+00 0. -1.
         11    1    3    3    0    0  0.20720229903E+02 -0.26197640803E+02 -0.25227548134E+02  0.41857777008E+02  0.51100000000E-03 0. -1.
        -11    1    3    3    0    0  0.76701030116E-01 -0.34522656538E+00 -0.16753491164E+01  0.17122673134E+01  0.51100000000E-03 0.  1.
         12    1    3    3    0    0 -0.12333932742E+01  0.15019396549E+02  0.45154470695E+01  0.15731903696E+02  0.00000000000E+00 0. -1.
</event>
<event>
 7    1  0.4489290E-013  0.5930195E+02  0.7816164E-02  0.1266605E+00
        -11   -1    0    0    0    0  0.00000000000E+00  0.00000000000E+00  0.45593999997E+02  0.45594000000E+02  0.51100000000E-03 0. -1.
         11   -1    0    0    0    0 -0.00000000000E+00 -0.00000000000E+00 -0.45593999997E+02  0.45594000000E+02  0.51100000000E-03 0.  1.
    9900012    2    1    2    0    0  0.97610817717E+01  0.28787444262E+02 -0.96293507094E+01  0.59301951960E+02  0.50000014467E+02 0.  0.
         12    1    1    2    0    0 -0.97610817717E+01 -0.28787444262E+02  0.96293507094E+01  0.31886048040E+02  0.00000000000E+00 0. -1.
         11    1    3    3    0    0 -0.78336117285E+01 -0.53525814443E+01  0.60817579615E+01  0.11269577676E+02  0.51100000000E-03 0. -1.
        -11    1    3    3    0    0  0.17900133110E+02  0.19655990874E+02  0.10319589706E+00  0.26585398103E+02  0.51100000000E-03 0.  1.
         12    1    3    3    0    0 -0.30543961026E+00  0.14484034832E+02 -0.15814304568E+02  0.21446976182E+02  0.00000000000E+00 0. -1.
</event>
<event>
 7    1  0.4489290E-013  0.5930197E+02  0.7816164E-02  0.1266605E+00
        -11   -1    0    0    0    0  0.00000000000E+00  0.00000000000E+00  0.45593999997E+02  0.45594000000E+02  0.51100000000E-03 0.  1.
         11   -1    0    0    0    0 -0.00000000000E+00 -0.00000000000E+00 -0.45593999997E+02  0.45594000000E+02  0.51100000000E-03 0. -1.
    9900012    2    1    2    0    0 -0.16139738032E+02  0.41261020786E+01  0.27188287029E+02  0.59301971498E+02  0.50000050098E+02 0.  0.
         12    1    1    2    0    0  0.16139738032E+02 -0.41261020786E+01 -0.27188287029E+02  0.31886028502E+02  0.00000000000E+00 0. -1.
         11    1    3    3    0    0  0.96527313256E+01  0.12172194866E+02  0.13532850702E+02  0.20602805592E+02  0.51100000000E-03 0. -1.
        -11    1    3    3    0    0 -0.28056068612E+01 -0.74685094765E+01 -0.47155593738E+01  0.92675004251E+01  0.51100000000E-03 0.  1.
         12    1    3    3    0    0 -0.22986862496E+02 -0.57758331062E+00  0.18370995701E+02  0.29431665480E+02  0.00000000000E+00 0. -1.
</event>
<event>
 7    1  0.4489290E-013  0.5930201E+02  0.7816164E-02  0.1266605E+00
        -11   -1    0    0    0    0  0.00000000000E+00  0.00000000000E+00  0.45593999997E+02  0.45594000000E+02  0.51100000000E-03 0. -1.
         11   -1    0    0    0    0 -0.00000000000E+00 -0.00000000000E+00 -0.45593999997E+02  0.45594000000E+02  0.51100000000E-03 0.  1.
    9900012    2    1    2    0    0  0.10751827650E+02 -0.27087761959E+02 -0.12937074028E+02  0.59302007305E+02  0.50000115402E+02 0.  0.
         12    1    1    2    0    0 -0.10751827650E+02  0.27087761959E+02  0.12937074028E+02  0.31885992695E+02  0.00000000000E+00 0. -1.
         11    1    3    3    0    0 -0.11876630358E+02  0.80838188144E+01  0.19341732833E+01  0.14496327184E+02  0.51100000000E-03 0.  1.
        -11    1    3    3    0    0  0.16793189081E+02 -0.23663327299E+02 -0.76024194964E+01  0.29996017083E+02  0.51100000000E-03 0. -1.
        -12    1    3    3    0    0  0.58352689273E+01 -0.11508253474E+02 -0.72688278153E+01  0.14809663037E+02  0.00000000000E+00 0.  1.
</event>
<event>
 7    1  0.4489290E-013  0.5930195E+02  0.7816164E-02  0.1266605E+00
        -11   -1    0    0    0    0  0.00000000000E+00  0.00000000000E+00  0.45593999997E+02  0.45594000000E+02  0.51100000000E-03 0.  1.
         11   -1    0    0    0    0 -0.00000000000E+00 -0.00000000000E+00 -0.45593999997E+02  0.45594000000E+02  0.51100000000E-03 0. -1.
    9900012    2    1    2    0    0 -0.18833531716E+02 -0.14678689236E+02  0.21131836453E+02  0.59301947462E+02  0.50000006263E+02 0.  0.
         12    1    1    2    0    0  0.18833531716E+02  0.14678689236E+02 -0.21131836453E+02  0.31886052538E+02  0.00000000000E+00 0. -1.
         11    1    3    3    0    0 -0.13340992530E+02  0.10120791410E+02  0.36673939280E+01  0.17142411702E+02  0.51100000000E-03 0. -1.
        -11    1    3    3    0    0 -0.10253127810E+02 -0.29756715010E+02  0.13736447225E+02  0.34340627553E+02  0.51100000000E-03 0.  1.
        -12    1    3    3    0    0  0.47605886250E+01  0.49572343637E+01  0.37279953007E+01  0.78189082074E+01  0.00000000000E+00 0.  1.
</event>
<event>
 7    1  0.4489290E-013  0.5930195E+02  0.7816164E-02  0.1266605E+00
        -11   -1    0    0    0    0  0.00000000000E+00  0.00000000000E+00  0.45593999997E+02  0.45594000000E+02  0.51100000000E-03 0. -1.
         11   -1    0    0    0    0 -0.00000000000E+00 -0.00000000000E+00 -0.45593999997E+02  0.45594000000E+02  0.51100000000E-03 0.  1.
    9900012    2    1    2    0    0  0.14038596065E+02 -0.24681946708E+02  0.14506532712E+02  0.59301950322E+02  0.50000011479E+02 0.  0.
         12    1    1    2    0    0 -0.14038596065E+02  0.24681946708E+02 -0.14506532712E+02  0.31886049678E+02  0.00000000000E+00 0. -1.
         11    1    3    3    0    0  0.57434547100E+01  0.90508873741E+01  0.17752004739E+02  0.20737393925E+02  0.51100000000E-03 0. -1.
        -11    1    3    3    0    0  0.12760792904E+02 -0.26333804905E+02  0.19320680478E+00  0.29263363536E+02  0.51100000000E-03 0.  1.
        -12    1    3    3    0    0 -0.44656515496E+01 -0.73990291766E+01 -0.34386788317E+01  0.93011928604E+01  0.00000000000E+00 0.  1.
</event>
<event>
 7    1  0.4489290E-013  0.5930196E+02  0.7816164E-02  0.1266605E+00
        -11   -1    0    0    0    0  0.00000000000E+00  0.00000000000E+00  0.45593999997E+02  0.45594000000E+02  0.51100000000E-03 0.  1.
         11   -1    0    0    0    0 -0.00000000000E+00 -0.00000000000E+00 -0.45593999997E+02  0.45594000000E+02  0.51100000000E-03 0. -1.
    9900012    2    1    2    0    0  0.10928486050E+02 -0.57208917748E+00  0.29949300146E+02  0.59301958028E+02  0.50000025534E+02 0.  0.
         12    1    1    2    0    0 -0.10928486050E+02  0.57208917748E+00 -0.29949300146E+02  0.31886041972E+02  0.00000000000E+00 0. -1.
         11    1    3    3    0    0  0.20599714803E+02  0.32670525591E+01  0.78246928950E+00  0.20871850441E+02  0.51100000000E-03 0. -1.
        -11    1    3    3    0    0  0.20363704152E+01 -0.31704586881E+01  0.26016056065E+02  0.26287521492E+02  0.51100000000E-03 0.  1.
        -12    1    3    3    0    0 -0.11707599168E+02 -0.66868304847E+00  0.31507747919E+01  0.12142586096E+02  0.00000000000E+00 0.  1.
</event>
<event>
 7    1  0.4489290E-013  0.5930193E+02  0.7816164E-02  0.1266605E+00
        -11   -1    0    0    0    0  0.00000000000E+00  0.00000000000E+00  0.45593999997E+02  0.45594000000E+02  0.51100000000E-03 0. -1.
         11   -1    0    0    0    0 -0.00000000000E+00 -0.00000000000E+00 -0.45593999997E+02  0.45594000000E+02  0.51100000000E-03 0.  1.
    9900012    2    1    2    0    0 -0.72485521176E+01 -0.26237766997E+01 -0.30940197248E+02  0.59301929095E+02  0.49999972767E+02 0.  0.
         12    1    1    2    0    0  0.72485521176E+01  0.26237766997E+01  0.30940197248E+02  0.31886070905E+02  0.00000000000E+00 0. -1.
         11    1    3    3    0    0 -0.11576131617E+02  0.71682785974E-01 -0.25995893117E+02  0.28456957336E+02  0.51100000000E-03 0.  1.
        -11    1    3    3    0    0 -0.29929614796E+01 -0.11789265578E+02  0.70898119976E+01  0.14078708595E+02  0.51100000000E-03 0. -1.
        -12    1    3    3    0    0  0.73205409790E+01  0.90938060923E+01 -0.12034116129E+02  0.16766263164E+02  0.00000000000E+00 0.  1.
</event>
<event>
 7    1  0.4489290E-013  0.5930191E+02  0.7816164E-02  0.1266605E+00
        -11   -1    0    0    0    0  0.00000000000E+00  0.00000000000E+00  0.45593999997E+02  0.45594000000E+02  0.51100000000E-03 0. -1.
         11   -1    0    0    0    0 -0.00000000000E+00 -0.00000000000E+00 -0.45593999997E+02  0.45594000000E+02  0.51100000000E-03 0.  1.
    9900012    2    1    2    0    0  0.17316350361E+02 -0.26668735479E+02 -0.23760237692E+01  0.59301906937E+02  0.49999932355E+02 0.  0.
         12    1    1    2    0    0 -0.17316350361E+02  0.26668735479E+02  0.23760237692E+01  0.31886093063E+02  0.00000000000E+00 0. -1.
         11    1    3    3    0    0  0.26323805613E+02 -0.15515874365E+02 -0.82228134640E+01  0.31643320951E+02  0.51100000000E-03 0. -1.
        -11    1    3    3    0    0 -0.49752805615E+01  0.66462104801E+01 -0.54892614514E+00  0.83202674588E+01  0.51100000000E-03 0.  1.
         12    1    3    3    0    0 -0.40321746907E+01 -0.17799071594E+02  0.63957158400E+01  0.19338318527E+02  0.00000000000E+00 0. -1.
</event>
<event>
 7    1  0.4489290E-013  0.5930195E+02  0.7816164E-02  0.1266605E+00
        -11   -1    0    0    0    0  0.00000000000E+00  0.00000000000E+00  0.45593999997E+02  0.45594000000E+02  0.51100000000E-03 0. -1.
         11   -1    0    0    0    0 -0.00000000000E+00 -0.00000000000E+00 -0.45593999997E+02  0.45594000000E+02  0.51100000000E-03 0.  1.
    9900012    2    1    2    0    0  0.28641357021E+02 -0.85374323599E+01 -0.11113277024E+02  0.59301952746E+02  0.50000015900E+02 0.  0.
         12    1    1    2    0    0 -0.28641357021E+02  0.85374323599E+01  0.11113277024E+02  0.31886047254E+02  0.00000000000E+00 0. -1.
         11    1    3    3    0    0 -0.88822052220E+01  0.38055973349E+01  0.89721169055E+01  0.13186167855E+02  0.51100000000E-03 0. -1.
        -11    1    3    3    0    0  0.28079763727E+02 -0.54414150401E+01 -0.89594718466E+01  0.29972558526E+02  0.51100000000E-03 0.  1.
         12    1    3    3    0    0  0.94437985158E+01 -0.69016146546E+01 -0.11125922083E+02  0.16143226364E+02  0.00000000000E+00 0. -1.
</event>
<event>
 7    1  0.4489290E-013  0.5930193E+02  0.7816164E-02  0.1266605E+00
        -11   -1    0    0    0    0  0.00000000000E+00  0.00000000000E+00  0.45593999997E+02  0.45594000000E+02  0.51100000000E-03 0.  1.
         11   -1    0    0    0    0 -0.00000000000E+00 -0.00000000000E+00 -0.45593999997E+02  0.45594000000E+02  0.51100000000E-03 0. -1.
    9900012    2    1    2    0    0  0.14696643099E+02 -0.26150362600E+02  0.10811519877E+02  0.59301925539E+02  0.49999966281E+02 0.  0.
         12    1    1    2    0    0 -0.14696643099E+02  0.26150362600E+02 -0.10811519877E+02  0.31886074461E+02  0.00000000000E+00 0. -1.
         11    1    3    3    0    0  0.52669738833E+01  0.40052130924E+01  0.30575201007E+01  0.72891134735E+01  0.51100000000E-03 0. -1.
        -11    1    3    3    0    0 -0.11368661094E+02 -0.27691940468E+02  0.80233564673E+00  0.29945513265E+02  0.51100000000E-03 0.  1.
        -12    1    3    3    0    0  0.20798330309E+02 -0.24636352243E+01  0.69516641297E+01  0.22067298800E+02  0.00000000000E+00 0.  1.
</event>
<event>
 7    1  0.4489290E-013  0.5930193E+02  0.7816164E-02  0.1266605E+00
        -11   -1    0    0    0    0  0.00000000000E+00  0.00000000000E+00  0.45593999997E+02  0.45594000000E+02  0.51100000000E-03 0.  1.
         11   -1    0    0    0    0 -0.00000000000E+00 -0.00000000000E+00 -0.45593999997E+02  0.45594000000E+02  0.51100000000E-03 0. -1.
    9900012    2    1    2    0    0  0.93430725999E+01  0.23565199354E+02  0.19341913032E+02  0.59301933671E+02  0.49999981113E+02 0.  0.
         12    1    1    2    0    0 -0.93430725999E+01 -0.23565199354E+02 -0.19341913032E+02  0.31886066329E+02  0.00000000000E+00 0. -1.
         11    1    3    3    0    0  0.15222366154E+02 -0.11210572608E+01  0.16549492125E+02  0.22513615671E+02  0.51100000000E-03 0. -1.
        -11    1    3    3    0    0  0.29333154817E+01  0.20990261355E+02 -0.77431292186E+01  0.22564384809E+02  0.51100000000E-03 0.  1.
        -12    1    3    3    0    0 -0.88126090362E+01  0.36959952594E+01  0.10535550125E+02  0.14223933191E+02  0.00000000000E+00 0.  1.
</event>
<event>
 7    1  0.4489290E-013  0.5930182E+02  0.7816164E-02  0.1266605E+00
        -11   -1    0    0    0    0  0.00000000000E+00  0.00000000000E+00  0.45593999997E+02  0.45594000000E+02  0.51100000000E-03 0.  1.
         11   -1    0    0    0    0 -0.00000000000E+00 -0.00000000000E+00 -0.45593999997E+02  0.45594000000E+02  0.51100000000E-03 0. -1.
    9900012    2    1    2    0    0 -0.20894898906E+02 -0.17422643609E+02  0.16630787157E+02  0.59301821300E+02  0.49999776174E+02 0.  0.
         12    1    1    2    0    0  0.20894898906E+02  0.17422643609E+02 -0.16630787157E+02  0.31886178700E+02  0.00000000000E+00 0. -1.
         11    1    3    3    0    0 -0.17429033990E+02 -0.19111585434E+01 -0.25966618775E+00  0.17535426416E+02  0.51100000000E-03 0. -1.
        -11    1    3    3    0    0  0.28454360032E+01  0.10106660979E+02  0.99946580136E+01  0.14496009494E+02  0.51100000000E-03 0.  1.
        -12    1    3    3    0    0 -0.63113009186E+01 -0.25618146045E+02  0.68957953309E+01  0.27270385389E+02  0.00000000000E+00 0.  1.
</event>
<event>
 7    1  0.4489290E-013  0.5930194E+02  0.7816164E-02  0.1266605E+00
        -11   -1    0    0    0    0  0.00000000000E+00  0.00000000000E+00  0.45593999997E+02  0.45594000000E+02  0.51100000000E-03 0.  1.
         11   -1    0    0    0    0 -0.00000000000E+00 -0.00000000000E+00 -0.45593999997E+02  0.45594000000E+02  0.51100000000E-03 0. -1.
    9900012    2    1    2    0    0 -0.27485504551E+02  0.13462984114E+02 -0.89451655700E+01  0.59301938958E+02  0.49999990755E+02 0.  0.
         12    1    1    2    0    0  0.27485504551E+02 -0.13462984114E+02  0.89451655700E+01  0.31886061042E+02  0.00000000000E+00 0. -1.
         11    1    3    3    0    0 -0.27720045833E+02 -0.83456816403E+01 -0.16335519522E-01  0.28949121060E+02  0.51100000000E-03 0. -1.
        -11    1    3    3    0    0  0.91422376042E+01  0.86253037914E+01 -0.10901637470E+01  0.12616054501E+02  0.51100000000E-03 0.  1.
         12    1    3    3    0    0 -0.89076963222E+01  0.13183361963E+02 -0.78386663035E+01  0.17736763398E+02  0.00000000000E+00 0. -1.
</event>
<event>
 7    1  0.4489290E-013  0.5930193E+02  0.7816164E-02  0.1266605E+00
        -11   -1    0    0    0    0  0.00000000000E+00  0.00000000000E+00  0.45593999997E+02  0.45594000000E+02  0.51100000000E-03 0.  1.
         11   -1    0    0    0    0 -0.00000000000E+00 -0.00000000000E+00 -0.45593999997E+02  0.45594000000E+02  0.51100000000E-03 0. -1.
    9900012    2    1    2    0    0 -0.20867036215E+02  0.20117898681E+02  0.13287531573E+02  0.59301928699E+02  0.49999972044E+02 0.  0.
         12    1    1    2    0    0  0.20867036215E+02 -0.20117898681E+02 -0.13287531573E+02  0.31886071301E+02  0.00000000000E+00 0. -1.
         11    1    3    3    0    0  0.14823223177E+02  0.13923572838E+02 -0.36883172491E+00  0.20340350612E+02  0.51100000000E-03 0. -1.
        -11    1    3    3    0    0 -0.13927725162E+02  0.37865066288E+01  0.72286912979E+01  0.16142277992E+02  0.51100000000E-03 0.  1.
         12    1    3    3    0    0 -0.21762534230E+02  0.24078192143E+01  0.64276719997E+01  0.22819300095E+02  0.00000000000E+00 0. -1.
</event>
<event>
 7    1  0.4489290E-013  0.5930195E+02  0.7816164E-02  0.1266605E+00
        -11   -1    0    0    0    0  0.00000000000E+00  0.00000000000E+00  0.45593999997E+02  0.45594000000E+02  0.51100000000E-03 0. -1.
         11   -1    0    0    0    0 -0.00000000000E+00 -0.00000000000E+00 -0.45593999997E+02  0.45594000000E+02  0.51100000000E-03 0.  1.
    9900012    2    1    2    0    0  0.24337846040E+02  0.13190329708E+02 -0.15824171542E+02  0.59301953637E+02  0.50000017526E+02 0.  0.
         12    1    1    2    0    0 -0.24337846040E+02 -0.13190329708E+02  0.15824171542E+02  0.31886046363E+02  0.00000000000E+00 0. -1.
         11    1    3    3    0    0 -0.80262095296E+01  0.57585724741E+01 -0.98478735162E+00  0.99272857691E+01  0.51100000000E-03 0. -1.
        -11    1    3    3    0    0  0.22353486421E+02  0.28798778963E+01 -0.25517988799E+02  0.34046142285E+02  0.51100000000E-03 0.  1.
        -12    1    3    3    0    0  0.10010569148E+02  0.45518793377E+01  0.10678604609E+02  0.15328525583E+02  0.00000000000E+00 0.  1.
</event>
<event>
 7    1  0.4489290E-013  0.5930195E+02  0.7816164E-02  0.1266605E+00
        -11   -1    0    0    0    0  0.00000000000E+00  0.00000000000E+00  0.45593999997E+02  0.45594000000E+02  0.51100000000E-03 0. -1.
         11   -1    0    0    0    0 -0.00000000000E+00 -0.00000000000E+00 -0.45593999997E+02  0.45594000000E+02  0.51100000000E-03 0.  1.
    9900012    2    1    2    0    0 -0.16693698883E+02 -0.20597128370E+02 -0.17714365674E+02  0.59301952412E+02  0.50000015292E+02 0.  0.
         12    1    1    2    0    0  0.16693698883E+02  0.20597128370E+02  0.17714365674E+02  0.31886047588E+02  0.00000000000E+00 0. -1.
         11    1    3    3    0    0 -0.10034911988E+02 -0.10511898808E+02  0.11184644797E+02  0.18338368375E+02  0.51100000000E-03 0. -1.
        -11    1    3    3    0    0 -0.23264020603E+01 -0.37113354867E+01 -0.32259785073E+02  0.32555796578E+02  0.51100000000E-03 0.  1.
        -12    1    3    3    0    0 -0.43323848348E+01 -0.63738940755E+01  0.33607746016E+01  0.84077874596E+01  0.00000000000E+00 0.  1.
</event>
<event>
 7    1  0.4489290E-013  0.5930194E+02  0.7816164E-02  0.1266605E+00
        -11   -1    0    0    0    0  0.00000000000E+00  0.00000000000E+00  0.45593999997E+02  0.45594000000E+02  0.51100000000E-03 0.  1.
         11   -1    0    0    0    0 -0.00000000000E+00 -0.00000000000E+00 -0.45593999997E+02  0.45594000000E+02  0.51100000000E-03 0. -1.
    9900012    2    1    2    0    0 -0.30930076860E+02 -0.41139304006E+01 -0.65670998782E+01  0.59301939115E+02  0.49999991041E+02 0.  0.
         12    1    1    2    0    0  0.30930076860E+02  0.41139304006E+01  0.65670998782E+01  0.31886060885E+02  0.00000000000E+00 0. -1.
         11    1    3    3    0    0 -0.18971035873E+02  0.11568834540E+02 -0.22192739277E+02  0.31404710022E+02  0.51100000000E-03 0. -1.
        -11    1    3    3    0    0 -0.10110720649E+02 -0.36039576864E+01  0.89350819140E+01  0.13966061439E+02  0.51100000000E-03 0.  1.
         12    1    3    3    0    0 -0.18483203375E+01 -0.12078807254E+02  0.66905574846E+01  0.13931167654E+02  0.00000000000E+00 0. -1.
</event>
<event>
 7    1  0.4489290E-013  0.5930190E+02  0.7816164E-02  0.1266605E+00
        -11   -1    0    0    0    0  0.00000000000E+00  0.00000000000E+00  0.45593999997E+02  0.45594000000E+02  0.51100000000E-03 0. -1.
         11   -1    0    0    0    0 -0.00000000000E+00 -0.00000000000E+00 -0.45593999997E+02  0.45594000000E+02  0.51100000000E-03 0.  1.
    9900012    2    1    2    0    0  0.18423047710E+01 -0.27429354631E+02 -0.16154258112E+02  0.59301895856E+02  0.49999912146E+02 0.  0.
         12    1    1    2    0    0 -0.18423047710E+01  0.27429354631E+02  0.16154258112E+02  0.31886104144E+02  0.00000000000E+00 0. -1.
         11    1    3    3    0    0 -0.40864955816E+01  0.27786816817E+00 -0.27583470369E+02  0.27885919291E+02  0.51100000000E-03 0.  1.
        -11    1    3    3    0    0  0.32622977309E+01 -0.13068919038E+02  0.93389042919E+01  0.16390679209E+02  0.51100000000E-03 0. -1.
        -12    1    3    3    0    0  0.26665026217E+01 -0.14638303761E+02  0.20903079651E+01  0.15025297356E+02  0.00000000000E+00 0.  1.
</event>
<event>
 7    1  0.4489290E-013  0.5930194E+02  0.7816164E-02  0.1266605E+00
        -11   -1    0    0    0    0  0.00000000000E+00  0.00000000000E+00  0.45593999997E+02  0.45594000000E+02  0.51100000000E-03 0. -1.
         11   -1    0    0    0    0 -0.00000000000E+00 -0.00000000000E+00 -0.45593999997E+02  0.45594000000E+02  0.51100000000E-03 0.  1.
    9900012    2    1    2    0    0  0.82622915186E-01  0.27650834912E+02 -0.15879093754E+02  0.59301935390E+02  0.49999984246E+02 0.  0.
         12    1    1    2    0    0 -0.82622915186E-01 -0.27650834912E+02  0.15879093754E+02  0.31886064610E+02  0.00000000000E+00 0. -1.
         11    1    3    3    0    0  0.22226770226E+01  0.65776874989E+01  0.97503596621E+01  0.11969786121E+02  0.51100000000E-03 0. -1.
        -11    1    3    3    0    0  0.61733151215E+01  0.41569091976E+01 -0.27407327657E+02  0.28399847239E+02  0.51100000000E-03 0.  1.
        -12    1    3    3    0    0 -0.83133692289E+01  0.16916238216E+02  0.17778742408E+01  0.18932302029E+02  0.00000000000E+00 0.  1.
</event>
<event>
 7    1  0.4489290E-013  0.5930194E+02  0.7816164E-02  0.1266605E+00
        -11   -1    0    0    0    0  0.00000000000E+00  0.00000000000E+00  0.45593999997E+02  0.45594000000E+02  0.51100000000E-03 0.  1.
         11   -1    0    0    0    0 -0.00000000000E+00 -0.00000000000E+00 -0.45593999997E+02  0.45594000000E+02  0.51100000000E-03 0. -1.
    9900012    2    1    2    0    0 -0.14312439890E+02 -0.25489000076E+02 -0.12735221684E+02  0.59301938283E+02  0.49999989522E+02 0.  0.
         12    1    1    2    0    0  0.14312439890E+02  0.25489000076E+02  0.12735221684E+02  0.31886061717E+02  0.00000000000E+00 0. -1.
         11    1    3    3    0    0 -0.99039680953E+00  0.20656026935E+01 -0.54409565410E+01  0.59035251054E+01  0.51100000000E-03 0. -1.
        -11    1    3    3    0    0 -0.23063510088E+02 -0.32374327114E+02  0.94354098193E+00  0.39760694455E+02  0.51100000000E-03 0.  1.
        -12    1    3    3    0    0  0.97414670073E+01  0.48197243442E+01 -0.82378061249E+01  0.13637718723E+02  0.00000000000E+00 0.  1.
</event>
<event>
 7    1  0.4489290E-013  0.5930194E+02  0.7816164E-02  0.1266605E+00
        -11   -1    0    0    0    0  0.00000000000E+00  0.00000000000E+00  0.45593999997E+02  0.45594000000E+02  0.51100000000E-03 0. -1.
         11   -1    0    0    0    0 -0.00000000000E+00 -0.00000000000E+00 -0.45593999997E+02  0.45594000000E+02  0.51100000000E-03 0.  1.
    9900012    2    1    2    0    0  0.24741347189E+02  0.15873678098E+02  0.12353660742E+02  0.59301939554E+02  0.49999991840E+02 0.  0.
         12    1    1    2    0    0 -0.24741347189E+02 -0.15873678098E+02 -0.12353660742E+02  0.31886060446E+02  0.00000000000E+00 0. -1.
         11    1    3    3    0    0 -0.54965199283E+01  0.33980589479E+01 -0.59715483695E+01  0.87987457132E+01  0.51100000000E-03 0. -1.
        -11    1    3    3    0    0  0.12047637429E+02 -0.95192017332E+01 -0.19709391644E+01  0.15480483542E+02  0.51100000000E-03 0.  1.
        -12    1    3    3    0    0  0.18190229688E+02  0.21994820883E+02  0.20296148276E+02  0.35022710298E+02  0.00000000000E+00 0.  1.
</event>
<event>
 7    1  0.4489290E-013  0.5930193E+02  0.7816164E-02  0.1266605E+00
        -11   -1    0    0    0    0  0.00000000000E+00  0.00000000000E+00  0.45593999997E+02  0.45594000000E+02  0.51100000000E-03 0.  1.
         11   -1    0    0    0    0 -0.00000000000E+00 -0.00000000000E+00 -0.45593999997E+02  0.45594000000E+02  0.51100000000E-03 0. -1.
    9900012    2    1    2    0    0  0.98673801109E+00  0.31580460790E+02  0.42921272102E+01  0.59301929191E+02  0.49999972942E+02 0.  0.
         12    1    1    2    0    0 -0.98673801109E+00 -0.31580460790E+02 -0.42921272102E+01  0.31886070809E+02  0.00000000000E+00 0. -1.
         11    1    3    3    0    0 -0.12210226164E+01  0.15689144296E+01  0.47134409351E+01  0.51155561210E+01  0.51100000000E-03 0. -1.
        -11    1    3    3    0    0  0.13569520317E+02  0.16925335359E+02 -0.18958328926E+02  0.28810017261E+02  0.51100000000E-03 0.  1.
        -12    1    3    3    0    0 -0.11361759690E+02  0.13086211002E+02  0.18537015201E+02  0.25376355810E+02  0.00000000000E+00 0.  1.
</event>
<event>
 7    1  0.4489290E-013  0.5930197E+02  0.7816164E-02  0.1266605E+00
        -11   -1    0    0    0    0  0.00000000000E+00  0.00000000000E+00  0.45593999997E+02  0.45594000000E+02  0.51100000000E-03 0. -1.
         11   -1    0    0    0    0 -0.00000000000E+00 -0.00000000000E+00 -0.45593999997E+02  0.45594000000E+02  0.51100000000E-03 0.  1.
    9900012    2    1    2    0    0  0.25980719576E+02  0.29391956327E+01 -0.18250542290E+02  0.59301969289E+02  0.50000046070E+02 0.  0.
         12    1    1    2    0    0 -0.25980719576E+02 -0.29391956327E+01  0.18250542290E+02  0.31886030711E+02  0.00000000000E+00 0. -1.
         11    1    3    3    0    0  0.79187885798E-01  0.55913915310E+01 -0.24159760591E+02  0.24798466929E+02  0.51100000000E-03 0. -1.
        -11    1    3    3    0    0  0.14172056986E+02 -0.12330755234E+02  0.31244274958E+01  0.19043549336E+02  0.51100000000E-03 0.  1.
         12    1    3    3    0    0  0.11729474705E+02  0.96785593361E+01  0.27847908051E+01  0.15459953024E+02  0.00000000000E+00 0. -1.
</event>
<event>
 7    1  0.4489290E-013  0.5930195E+02  0.7816164E-02  0.1266605E+00
        -11   -1    0    0    0    0  0.00000000000E+00  0.00000000000E+00  0.45593999997E+02  0.45594000000E+02  0.51100000000E-03 0. -1.
         11   -1    0    0    0    0 -0.00000000000E+00 -0.00000000000E+00 -0.45593999997E+02  0.45594000000E+02  0.51100000000E-03 0.  1.
    9900012    2    1    2    0    0 -0.20245758894E+01  0.31810738675E+02 -0.83565430986E+00  0.59301947866E+02  0.50000007000E+02 0.  0.
         12    1    1    2    0    0  0.20245758894E+01 -0.31810738675E+02  0.83565430986E+00  0.31886052134E+02  0.00000000000E+00 0. -1.
         11    1    3    3    0    0  0.88626043337E+01  0.21056891262E+02  0.70564859261E+01  0.23910926772E+02  0.51100000000E-03 0. -1.
        -11    1    3    3    0    0 -0.13017912659E+02 -0.22221012632E+00  0.84999504846E+01  0.15548780848E+02  0.51100000000E-03 0.  1.
        -12    1    3    3    0    0  0.21307324363E+01  0.10976057539E+02 -0.16392090721E+02  0.19842240246E+02  0.00000000000E+00 0.  1.
</event>
<event>
 7    1  0.4489290E-013  0.5930195E+02  0.7816164E-02  0.1266605E+00
        -11   -1    0    0    0    0  0.00000000000E+00  0.00000000000E+00  0.45593999997E+02  0.45594000000E+02  0.51100000000E-03 0.  1.
         11   -1    0    0    0    0 -0.00000000000E+00 -0.00000000000E+00 -0.45593999997E+02  0.45594000000E+02  0.51100000000E-03 0. -1.
    9900012    2    1    2    0    0 -0.66554484358E+01 -0.31182713510E+02  0.25236787214E+00  0.59301948108E+02  0.50000007441E+02 0.  0.
         12    1    1    2    0    0  0.66554484358E+01  0.31182713510E+02 -0.25236787214E+00  0.31886051892E+02  0.00000000000E+00 0. -1.
         11    1    3    3    0    0 -0.20955071904E+02  0.47644089202E+00 -0.18757056728E+00  0.20961326709E+02  0.51100000000E-03 0. -1.
        -11    1    3    3    0    0  0.16834920191E+02 -0.19351177871E+02 -0.11444947822E+01  0.25674744233E+02  0.51100000000E-03 0.  1.
        -12    1    3    3    0    0 -0.25352967230E+01 -0.12307976531E+02  0.15844332216E+01  0.12665877166E+02  0.00000000000E+00 0.  1.
</event>
<event>
 7    1  0.4489290E-013  0.5930195E+02  0.7816164E-02  0.1266605E+00
        -11   -1    0    0    0    0  0.00000000000E+00  0.00000000000E+00  0.45593999997E+02  0.45594000000E+02  0.51100000000E-03 0.  1.
         11   -1    0    0    0    0 -0.00000000000E+00 -0.00000000000E+00 -0.45593999997E+02  0.45594000000E+02  0.51100000000E-03 0. -1.
    9900012    2    1    2    0    0 -0.16665162768E+02 -0.24720696349E+02  0.11308390377E+02  0.59301950213E+02  0.50000011281E+02 0.  0.
         12    1    1    2    0    0  0.16665162768E+02  0.24720696349E+02 -0.11308390377E+02  0.31886049787E+02  0.00000000000E+00 0. -1.
         11    1    3    3    0    0 -0.11469367955E+02  0.87638692502E+01  0.54200563520E+01  0.15418457013E+02  0.51100000000E-03 0. -1.
        -11    1    3    3    0    0  0.92407981153E+01 -0.25096442550E+02  0.46095522429E+01  0.27138013019E+02  0.51100000000E-03 0.  1.
        -12    1    3    3    0    0 -0.14436592928E+02 -0.83881230495E+01  0.12787817822E+01  0.16745480182E+02  0.00000000000E+00 0.  1.
</event>
<event>
 7    1  0.4489290E-013  0.5930200E+02  0.7816164E-02  0.1266605E+00
        -11   -1    0    0    0    0  0.00000000000E+00  0.00000000000E+00  0.45593999997E+02  0.45594000000E+02  0.51100000000E-03 0. -1.
         11   -1    0    0    0    0 -0.00000000000E+00 -0.00000000000E+00 -0.45593999997E+02  0.45594000000E+02  0.51100000000E-03 0.  1.
    9900012    2    1    2    0    0 -0.24298234191E+02  0.20638779841E+02  0.59486182882E+00  0.59301995567E+02  0.50000093994E+02 0.  0.
         12    1    1    2    0    0  0.24298234191E+02 -0.20638779841E+02 -0.59486182882E+00  0.31886004433E+02  0.00000000000E+00 0. -1.
         11    1    3    3    0    0 -0.22016803514E+02  0.34807058655E+02  0.86049816556E+01  0.42075131357E+02  0.51100000000E-03 0. -1.
        -11    1    3    3    0    0  0.42196030083E+00 -0.47373439594E+01 -0.33001329908E+00  0.47675347218E+01  0.51100000000E-03 0.  1.
         12    1    3    3    0    0 -0.27033909776E+01 -0.94309348541E+01 -0.76801065277E+01  0.12459329487E+02  0.00000000000E+00 0. -1.
</event>
<event>
 7    1  0.4489290E-013  0.5930194E+02  0.7816164E-02  0.1266605E+00
        -11   -1    0    0    0    0  0.00000000000E+00  0.00000000000E+00  0.45593999997E+02  0.45594000000E+02  0.51100000000E-03 0. -1.
         11   -1    0    0    0    0 -0.00000000000E+00 -0.00000000000E+00 -0.45593999997E+02  0.45594000000E+02  0.51100000000E-03 0.  1.
    9900012    2    1    2    0    0  0.14356462622E+02 -0.11678348876E+02 -0.25965915466E+02  0.59301943212E+02  0.49999998512E+02 0.  0.
         12    1    1    2    0    0 -0.14356462622E+02  0.11678348876E+02  0.25965915466E+02  0.31886056788E+02  0.00000000000E+00 0. -1.
         11    1    3    3    0    0  0.60266039754E+01 -0.75816269000E+01 -0.56647199458E+01  0.11220074610E+02  0.51100000000E-03 0. -1.
        -11    1    3    3    0    0 -0.11638811787E+02  0.34851865920E+01  0.65250538944E+01  0.13790750305E+02  0.51100000000E-03 0.  1.
        -12    1    3    3    0    0  0.19968670433E+02 -0.75819085681E+01 -0.26826249415E+02  0.34291118297E+02  0.00000000000E+00 0.  1.
</event>
<event>
 7    1  0.4489290E-013  0.5930195E+02  0.7816164E-02  0.1266605E+00
        -11   -1    0    0    0    0  0.00000000000E+00  0.00000000000E+00  0.45593999997E+02  0.45594000000E+02  0.51100000000E-03 0.  1.
         11   -1    0    0    0    0 -0.00000000000E+00 -0.00000000000E+00 -0.45593999997E+02  0.45594000000E+02  0.51100000000E-03 0. -1.
    9900012    2    1    2    0    0 -0.93300149757E+01  0.71711323865E+01  0.29635210905E+02  0.59301952196E+02  0.50000014897E+02 0.  0.
         12    1    1    2    0    0  0.93300149757E+01 -0.71711323865E+01 -0.29635210905E+02  0.31886047804E+02  0.00000000000E+00 0. -1.
         11    1    3    3    0    0 -0.15643044317E+02  0.92506574251E+01  0.37297340342E+00  0.18177420271E+02  0.51100000000E-03 0. -1.
        -11    1    3    3    0    0 -0.26706822082E+01 -0.70802370018E+01  0.29880908277E+02  0.30824194704E+02  0.51100000000E-03 0.  1.
        -12    1    3    3    0    0  0.89837115490E+01  0.50007119632E+01 -0.61867077527E+00  0.10300337221E+02  0.00000000000E+00 0.  1.
</event>
<event>
 7    1  0.4489290E-013  0.5930194E+02  0.7816164E-02  0.1266605E+00
        -11   -1    0    0    0    0  0.00000000000E+00  0.00000000000E+00  0.45593999997E+02  0.45594000000E+02  0.51100000000E-03 0. -1.
         11   -1    0    0    0    0 -0.00000000000E+00 -0.00000000000E+00 -0.45593999997E+02  0.45594000000E+02  0.51100000000E-03 0.  1.
    9900012    2    1    2    0    0 -0.45090500703E+01 -0.45258069214E+01 -0.31239495487E+02  0.59301944441E+02  0.50000000754E+02 0.  0.
         12    1    1    2    0    0  0.45090500703E+01  0.45258069214E+01  0.31239495487E+02  0.31886055559E+02  0.00000000000E+00 0. -1.
         11    1    3    3    0    0  0.10158848113E+02 -0.11848085019E+01 -0.13065394889E+02  0.16592483541E+02  0.51100000000E-03 0. -1.
        -11    1    3    3    0    0 -0.80971072448E+01  0.80032654388E+01  0.76720077082E+01  0.13728623600E+02  0.51100000000E-03 0.  1.
        -12    1    3    3    0    0 -0.65707909386E+01 -0.11344263858E+02 -0.25846108306E+02  0.28980837300E+02  0.00000000000E+00 0.  1.
</event>
<event>
 7    1  0.4489290E-013  0.5930195E+02  0.7816164E-02  0.1266605E+00
        -11   -1    0    0    0    0  0.00000000000E+00  0.00000000000E+00  0.45593999997E+02  0.45594000000E+02  0.51100000000E-03 0.  1.
         11   -1    0    0    0    0 -0.00000000000E+00 -0.00000000000E+00 -0.45593999997E+02  0.45594000000E+02  0.51100000000E-03 0. -1.
    9900012    2    1    2    0    0  0.17988254191E+02 -0.11969481256E+02  0.23449395137E+02  0.59301954421E+02  0.50000018956E+02 0.  0.
         12    1    1    2    0    0 -0.17988254191E+02  0.11969481256E+02 -0.23449395137E+02  0.31886045579E+02  0.00000000000E+00 0. -1.
         11    1    3    3    0    0 -0.10025442668E+02 -0.11974352050E+02  0.46910156339E+01  0.16306447671E+02  0.51100000000E-03 0. -1.
        -11    1    3    3    0    0  0.31609824635E+02  0.21918396955E+01  0.99136345972E+01  0.33200381412E+02  0.51100000000E-03 0.  1.
         12    1    3    3    0    0 -0.35961277763E+01 -0.21869689012E+01  0.88447449056E+01  0.97951253388E+01  0.00000000000E+00 0. -1.
</event>
<event>
 7    1  0.4489290E-013  0.5930197E+02  0.7816164E-02  0.1266605E+00
        -11   -1    0    0    0    0  0.00000000000E+00  0.00000000000E+00  0.45593999997E+02  0.45594000000E+02  0.51100000000E-03 0.  1.
         11   -1    0    0    0    0 -0.00000000000E+00 -0.00000000000E+00 -0.45593999997E+02  0.45594000000E+02  0.51100000000E-03 0. -1.
    9900012    2    1    2    0    0 -0.99959978087E+01  0.15855652298E+02  0.25795300464E+02  0.59301965314E+02  0.50000038821E+02 0.  0.
         12    1    1    2    0    0  0.99959978087E+01 -0.15855652298E+02 -0.25795300464E+02  0.31886034686E+02  0.00000000000E+00 0. -1.
         11    1    3    3    0    0  0.15971320695E+02 -0.78180295647E+00 -0.33259506900E+01  0.16332674272E+02  0.51100000000E-03 0. -1.
        -11    1    3    3    0    0 -0.63952199808E+01  0.15557347721E+01  0.87291244793E+01  0.10932372282E+02  0.51100000000E-03 0.  1.
         12    1    3    3    0    0 -0.19572098523E+02  0.15081720483E+02  0.20392126674E+02  0.32036918760E+02  0.00000000000E+00 0. -1.
</event>
<event>
 7    1  0.4489290E-013  0.5930195E+02  0.7816164E-02  0.1266605E+00
        -11   -1    0    0    0    0  0.00000000000E+00  0.00000000000E+00  0.45593999997E+02  0.45594000000E+02  0.51100000000E-03 0.  1.
         11   -1    0    0    0    0 -0.00000000000E+00 -0.00000000000E+00 -0.45593999997E+02  0.45594000000E+02  0.51100000000E-03 0. -1.
    9900012    2    1    2    0    0 -0.21070694411E+02 -0.75339375867E+01  0.22715326969E+02  0.59301945715E+02  0.50000003077E+02 0.  0.
         12    1    1    2    0    0  0.21070694411E+02  0.75339375867E+01 -0.22715326969E+02  0.31886054285E+02  0.00000000000E+00 0. -1.
         11    1    3    3    0    0 -0.26140731306E+02 -0.93821285432E+01 -0.42290363535E+01  0.28093538722E+02  0.51100000000E-03 0. -1.
        -11    1    3    3    0    0  0.10328795304E+02  0.17875002477E+01  0.18328330126E+02  0.21114138747E+02  0.51100000000E-03 0.  1.
         12    1    3    3    0    0 -0.52587584092E+01  0.60690708791E-01  0.86160331963E+01  0.10094268245E+02  0.00000000000E+00 0. -1.
</event>
<event>
 7    1  0.4489290E-013  0.5930200E+02  0.7816164E-02  0.1266605E+00
        -11   -1    0    0    0    0  0.00000000000E+00  0.00000000000E+00  0.45593999997E+02  0.45594000000E+02  0.51100000000E-03 0.  1.
         11   -1    0    0    0    0 -0.00000000000E+00 -0.00000000000E+00 -0.45593999997E+02  0.45594000000E+02  0.51100000000E-03 0. -1.
    9900012    2    1    2    0    0  0.18478446206E+02  0.13650261901E+02  0.22111853597E+02  0.59302004741E+02  0.50000110726E+02 0.  0.
         12    1    1    2    0    0 -0.18478446206E+02 -0.13650261901E+02 -0.22111853597E+02  0.31885995259E+02  0.00000000000E+00 0. -1.
         11    1    3    3    0    0  0.25007507614E+02  0.12731537587E+02  0.13647223131E+02  0.31204393694E+02  0.51100000000E-03 0. -1.
        -11    1    3    3    0    0 -0.70671133874E+01 -0.58486908580E+00  0.17520941727E+02  0.18901575668E+02  0.51100000000E-03 0.  1.
         12    1    3    3    0    0  0.53805197958E+00  0.15035933999E+01 -0.90563112601E+01  0.91960353787E+01  0.00000000000E+00 0. -1.
</event>
<event>
 7    1  0.4489290E-013  0.5930196E+02  0.7816164E-02  0.1266605E+00
        -11   -1    0    0    0    0  0.00000000000E+00  0.00000000000E+00  0.45593999997E+02  0.45594000000E+02  0.51100000000E-03 0.  1.
         11   -1    0    0    0    0 -0.00000000000E+00 -0.00000000000E+00 -0.45593999997E+02  0.45594000000E+02  0.51100000000E-03 0. -1.
    9900012    2    1    2    0    0 -0.15439078073E+02  0.15581241905E+02  0.23142584274E+02  0.59301961709E+02  0.50000032247E+02 0.  0.
         12    1    1    2    0    0  0.15439078073E+02 -0.15581241905E+02 -0.23142584274E+02  0.31886038291E+02  0.00000000000E+00 0. -1.
         11    1    3    3    0    0 -0.60486316006E+01  0.22662340674E+02  0.19784949921E+02  0.30685694920E+02  0.51100000000E-03 0. -1.
        -11    1    3    3    0    0  0.40156545201E-02 -0.64042687304E+01  0.13397743091E+02  0.14849720344E+02  0.51100000000E-03 0.  1.
        -12    1    3    3    0    0 -0.93944621267E+01 -0.67683003903E+00 -0.10040108739E+02  0.13766546445E+02  0.00000000000E+00 0.  1.
</event>
<event>
 7    1  0.4489290E-013  0.5930188E+02  0.7816164E-02  0.1266605E+00
        -11   -1    0    0    0    0  0.00000000000E+00  0.00000000000E+00  0.45593999997E+02  0.45594000000E+02  0.51100000000E-03 0. -1.
         11   -1    0    0    0    0 -0.00000000000E+00 -0.00000000000E+00 -0.45593999997E+02  0.45594000000E+02  0.51100000000E-03 0.  1.
    9900012    2    1    2    0    0 -0.27841097944E+02 -0.12826637760E+02 -0.87792376422E+01  0.59301884142E+02  0.49999890783E+02 0.  0.
         12    1    1    2    0    0  0.27841097944E+02  0.12826637760E+02  0.87792376422E+01  0.31886115858E+02  0.00000000000E+00 0. -1.
         11    1    3    3    0    0  0.43686458252E+01 -0.47742519697E+01  0.33601574019E+01  0.72917217612E+01  0.51100000000E-03 0. -1.
        -11    1    3    3    0    0 -0.32401748399E+02 -0.52109148391E+01 -0.23457287563E+02  0.40339450577E+02  0.51100000000E-03 0.  1.
        -12    1    3    3    0    0  0.19200463027E+00 -0.28414709507E+01  0.11317892519E+02  0.11670711804E+02  0.00000000000E+00 0.  1.
</event>
<event>
 7    1  0.4489290E-013  0.5930198E+02  0.7816164E-02  0.1266605E+00
        -11   -1    0    0    0    0  0.00000000000E+00  0.00000000000E+00  0.45593999997E+02  0.45594000000E+02  0.51100000000E-03 0.  1.
         11   -1    0    0    0    0 -0.00000000000E+00 -0.00000000000E+00 -0.45593999997E+02  0.45594000000E+02  0.51100000000E-03 0. -1.
    9900012    2    1    2    0    0  0.20113257139E+02  0.72835684526E+01  0.23645825837E+02  0.59301975449E+02  0.50000057305E+02 0.  0.
         12    1    1    2    0    0 -0.20113257139E+02 -0.72835684526E+01 -0.23645825837E+02  0.31886024551E+02  0.00000000000E+00 0. -1.
         11    1    3    3    0    0  0.11811835640E+02 -0.51481540800E+01  0.25471487339E+01  0.13134341192E+02  0.51100000000E-03 0. -1.
        -11    1    3    3    0    0  0.65328499432E+01  0.11431178592E+02 -0.90333331684E+01  0.15967187629E+02  0.51100000000E-03 0.  1.
        -12    1    3    3    0    0  0.17685715561E+01  0.10005439407E+01  0.30132010271E+02  0.30200446628E+02  0.00000000000E+00 0.  1.
</event>
<event>
 7    1  0.4489290E-013  0.5930194E+02  0.7816164E-02  0.1266605E+00
        -11   -1    0    0    0    0  0.00000000000E+00  0.00000000000E+00  0.45593999997E+02  0.45594000000E+02  0.51100000000E-03 0.  1.
         11   -1    0    0    0    0 -0.00000000000E+00 -0.00000000000E+00 -0.45593999997E+02  0.45594000000E+02  0.51100000000E-03 0. -1.
    9900012    2    1    2    0    0 -0.12175239241E+02 -0.27075356693E+02  0.11636568673E+02  0.59301935315E+02  0.49999984110E+02 0.  0.
         12    1    1    2    0    0  0.12175239241E+02  0.27075356693E+02 -0.11636568673E+02  0.31886064685E+02  0.00000000000E+00 0. -1.
         11    1    3    3    0    0 -0.23075217316E+02 -0.15065403236E+02 -0.80239245363E+00  0.27569473385E+02  0.51100000000E-03 0. -1.
        -11    1    3    3    0    0  0.14518566589E+02 -0.16957941550E+02  0.12533503794E+02  0.25601743594E+02  0.51100000000E-03 0.  1.
         12    1    3    3    0    0 -0.36185885136E+01  0.49479880933E+01 -0.94542667168E-01  0.61307183362E+01  0.00000000000E+00 0. -1.
</event>
<event>
 7    1  0.4489290E-013  0.5930198E+02  0.7816164E-02  0.1266605E+00
        -11   -1    0    0    0    0  0.00000000000E+00  0.00000000000E+00  0.45593999997E+02  0.45594000000E+02  0.51100000000E-03 0.  1.
         11   -1    0    0    0    0 -0.00000000000E+00 -0.00000000000E+00 -0.45593999997E+02  0.45594000000E+02  0.51100000000E-03 0. -1.
    9900012    2    1    2    0    0  0.47701049334E+01 -0.22021901116E+02  0.22561034571E+02  0.59301979384E+02  0.50000064481E+02 0.  0.
         12    1    1    2    0    0 -0.47701049334E+01  0.22021901116E+02 -0.22561034571E+02  0.31886020616E+02  0.00000000000E+00 0. -1.
         11    1    3    3    0    0  0.42984132583E+01  0.54339409531E+01  0.17889588187E+02  0.19184406079E+02  0.51100000000E-03 0. -1.
        -11    1    3    3    0    0  0.45754566152E+01 -0.30783785862E+02  0.99254489655E+01  0.32666355975E+02  0.51100000000E-03 0.  1.
         12    1    3    3    0    0 -0.41037649401E+01  0.33279437934E+01 -0.52540025815E+01  0.74512173302E+01  0.00000000000E+00 0. -1.
</event>
<event>
 7    1  0.4489290E-013  0.5930193E+02  0.7816164E-02  0.1266605E+00
        -11   -1    0    0    0    0  0.00000000000E+00  0.00000000000E+00  0.45593999997E+02  0.45594000000E+02  0.51100000000E-03 0. -1.
         11   -1    0    0    0    0 -0.00000000000E+00 -0.00000000000E+00 -0.45593999997E+02  0.45594000000E+02  0.51100000000E-03 0.  1.
    9900012    2    1    2    0    0 -0.18586216386E+02  0.17739517434E+02 -0.18883419977E+02  0.59301929869E+02  0.49999974179E+02 0.  0.
         12    1    1    2    0    0  0.18586216386E+02 -0.17739517434E+02  0.18883419977E+02  0.31886070131E+02  0.00000000000E+00 0. -1.
         11    1    3    3    0    0 -0.21189464584E+02  0.13365621612E+01  0.11273220042E+02  0.24038828968E+02  0.51100000000E-03 0. -1.
        -11    1    3    3    0    0  0.39538953978E+01  0.34700443367E+01 -0.93093097208E+01  0.10692882879E+02  0.51100000000E-03 0.  1.
         12    1    3    3    0    0 -0.13506472002E+01  0.12932910936E+02 -0.20847330298E+02  0.24570218023E+02  0.00000000000E+00 0. -1.
</event>
<event>
 7    1  0.4489290E-013  0.5930195E+02  0.7816164E-02  0.1266605E+00
        -11   -1    0    0    0    0  0.00000000000E+00  0.00000000000E+00  0.45593999997E+02  0.45594000000E+02  0.51100000000E-03 0.  1.
         11   -1    0    0    0    0 -0.00000000000E+00 -0.00000000000E+00 -0.45593999997E+02  0.45594000000E+02  0.51100000000E-03 0. -1.
    9900012    2    1    2    0    0  0.24048419999E+02 -0.70382669503E+01  0.19719450807E+02  0.59301945897E+02  0.50000003409E+02 0.  0.
         12    1    1    2    0    0 -0.24048419999E+02  0.70382669503E+01 -0.19719450807E+02  0.31886054103E+02  0.00000000000E+00 0. -1.
         11    1    3    3    0    0 -0.75617942684E+00 -0.42418041258E+01 -0.37538626226E+01  0.57145598621E+01  0.51100000000E-03 0. -1.
        -11    1    3    3    0    0  0.29874508642E+02  0.11876467078E+02  0.12131434687E+02  0.34361438339E+02  0.51100000000E-03 0.  1.
        -12    1    3    3    0    0 -0.50699092161E+01 -0.14672929903E+02  0.11341878743E+02  0.19225947696E+02  0.00000000000E+00 0.  1.
</event>
<event>
 7    1  0.4489290E-013  0.5930196E+02  0.7816164E-02  0.1266605E+00
        -11   -1    0    0    0    0  0.00000000000E+00  0.00000000000E+00  0.45593999997E+02  0.45594000000E+02  0.51100000000E-03 0.  1.
         11   -1    0    0    0    0 -0.00000000000E+00 -0.00000000000E+00 -0.45593999997E+02  0.45594000000E+02  0.51100000000E-03 0. -1.
    9900012    2    1    2    0    0  0.82774126389E+01  0.29506299460E+02  0.88080665646E+01  0.59301963802E+02  0.50000036064E+02 0.  0.
         12    1    1    2    0    0 -0.82774126389E+01 -0.29506299460E+02 -0.88080665646E+01  0.31886036198E+02  0.00000000000E+00 0. -1.
         11    1    3    3    0    0 -0.25799880696E+01 -0.75348963171E+01  0.12815290200E+01  0.80668034461E+01  0.51100000000E-03 0. -1.
        -11    1    3    3    0    0 -0.80316712460E+01  0.29064573658E+02  0.37523395050E+01  0.30386464700E+02  0.51100000000E-03 0.  1.
        -12    1    3    3    0    0  0.18889071954E+02  0.79766221183E+01  0.37741980396E+01  0.20848695656E+02  0.00000000000E+00 0.  1.
</event>
<event>
 7    1  0.4489290E-013  0.5930194E+02  0.7816164E-02  0.1266605E+00
        -11   -1    0    0    0    0  0.00000000000E+00  0.00000000000E+00  0.45593999997E+02  0.45594000000E+02  0.51100000000E-03 0.  1.
         11   -1    0    0    0    0 -0.00000000000E+00 -0.00000000000E+00 -0.45593999997E+02  0.45594000000E+02  0.51100000000E-03 0. -1.
    9900012    2    1    2    0    0  0.15229002083E+02  0.24141925134E+02  0.14211473205E+02  0.59301936833E+02  0.49999986879E+02 0.  0.
         12    1    1    2    0    0 -0.15229002083E+02 -0.24141925134E+02 -0.14211473205E+02  0.31886063167E+02  0.00000000000E+00 0. -1.
         11    1    3    3    0    0  0.22510595148E+02  0.91746083413E+01  0.81656247824E+01  0.25643279050E+02  0.51100000000E-03 0.  1.
        -11    1    3    3    0    0 -0.10289206470E+02  0.24190933984E+01  0.14711795962E+02  0.18115096559E+02  0.51100000000E-03 0. -1.
         12    1    3    3    0    0  0.30076134052E+01  0.12548223394E+02 -0.86659475397E+01  0.15543561224E+02  0.00000000000E+00 0. -1.
</event>
<event>
 7    1  0.4489290E-013  0.5930190E+02  0.7816164E-02  0.1266605E+00
        -11   -1    0    0    0    0  0.00000000000E+00  0.00000000000E+00  0.45593999997E+02  0.45594000000E+02  0.51100000000E-03 0. -1.
         11   -1    0    0    0    0 -0.00000000000E+00 -0.00000000000E+00 -0.45593999997E+02  0.45594000000E+02  0.51100000000E-03 0.  1.
    9900012    2    1    2    0    0 -0.10051673287E+02 -0.19337607858E+02 -0.23275404557E+02  0.59301895334E+02  0.49999911194E+02 0.  0.
         12    1    1    2    0    0  0.10051673287E+02  0.19337607858E+02  0.23275404557E+02  0.31886104666E+02  0.00000000000E+00 0. -1.
         11    1    3    3    0    0 -0.13240891049E+02  0.96075611327E+01  0.38129749787E+01  0.16797773815E+02  0.51100000000E-03 0. -1.
        -11    1    3    3    0    0  0.13460672375E+01 -0.17107807118E+01 -0.10146181245E+02  0.10377073854E+02  0.51100000000E-03 0.  1.
         12    1    3    3    0    0  0.18431505247E+01 -0.27234388278E+02 -0.16942198290E+02  0.32127047665E+02  0.00000000000E+00 0. -1.
</event>
<event>
 7    1  0.4489290E-013  0.5930196E+02  0.7816164E-02  0.1266605E+00
        -11   -1    0    0    0    0  0.00000000000E+00  0.00000000000E+00  0.45593999997E+02  0.45594000000E+02  0.51100000000E-03 0.  1.
         11   -1    0    0    0    0 -0.00000000000E+00 -0.00000000000E+00 -0.45593999997E+02  0.45594000000E+02  0.51100000000E-03 0. -1.
    9900012    2    1    2    0    0  0.79269108601E+01  0.29716192874E+02 -0.84161418232E+01  0.59301961082E+02  0.50000031102E+02 0.  0.
         12    1    1    2    0    0 -0.79269108601E+01 -0.29716192874E+02  0.84161418232E+01  0.31886038918E+02  0.00000000000E+00 0. -1.
         11    1    3    3    0    0  0.22215404810E+02  0.17953171255E+02  0.12339535607E+02  0.31114381052E+02  0.51100000000E-03 0. -1.
        -11    1    3    3    0    0 -0.10496481037E+02  0.74298988760E+01 -0.11313466712E+02  0.17128165132E+02  0.51100000000E-03 0.  1.
         12    1    3    3    0    0 -0.37920129127E+01  0.43331227432E+01 -0.94422107187E+01  0.11059414898E+02  0.00000000000E+00 0. -1.
</event>
<event>
 7    1  0.4489290E-013  0.5930193E+02  0.7816164E-02  0.1266605E+00
        -11   -1    0    0    0    0  0.00000000000E+00  0.00000000000E+00  0.45593999997E+02  0.45594000000E+02  0.51100000000E-03 0. -1.
         11   -1    0    0    0    0 -0.00000000000E+00 -0.00000000000E+00 -0.45593999997E+02  0.45594000000E+02  0.51100000000E-03 0.  1.
    9900012    2    1    2    0    0  0.10155835503E+02 -0.85167166677E+01 -0.29000791318E+02  0.59301931653E+02  0.49999977431E+02 0.  0.
         12    1    1    2    0    0 -0.10155835503E+02  0.85167166677E+01  0.29000791318E+02  0.31886068347E+02  0.00000000000E+00 0. -1.
         11    1    3    3    0    0 -0.68135631575E+00 -0.79152609545E+01 -0.28698285093E+02  0.29777628683E+02  0.51100000000E-03 0.  1.
        -11    1    3    3    0    0  0.16615929690E+02  0.22552181936E+01  0.83517785399E+01  0.18733054572E+02  0.51100000000E-03 0. -1.
         12    1    3    3    0    0 -0.57787378714E+01 -0.28566739068E+01 -0.86542847651E+01  0.10791248398E+02  0.00000000000E+00 0. -1.
</event>
<event>
 7    1  0.4489290E-013  0.5930184E+02  0.7816164E-02  0.1266605E+00
        -11   -1    0    0    0    0  0.00000000000E+00  0.00000000000E+00  0.45593999997E+02  0.45594000000E+02  0.51100000000E-03 0.  1.
         11   -1    0    0    0    0 -0.00000000000E+00 -0.00000000000E+00 -0.45593999997E+02  0.45594000000E+02  0.51100000000E-03 0. -1.
    9900012    2    1    2    0    0 -0.13311027165E+02 -0.99857247883E+01 -0.27199793615E+02  0.59301844439E+02  0.49999818375E+02 0.  0.
         12    1    1    2    0    0  0.13311027165E+02  0.99857247883E+01  0.27199793615E+02  0.31886155561E+02  0.00000000000E+00 0. -1.
         11    1    3    3    0    0 -0.15867010427E+02  0.10223540630E+02 -0.32850449962E+01  0.19159183798E+02  0.51100000000E-03 0.  1.
        -11    1    3    3    0    0  0.28608198127E+01 -0.47859450374E+01 -0.24078298479E+02  0.24715461108E+02  0.51100000000E-03 0. -1.
         12    1    3    3    0    0 -0.30483655086E+00 -0.15423320381E+02  0.16354986021E+00  0.15427199534E+02  0.00000000000E+00 0. -1.
</event>
<event>
 7    1  0.4489290E-013  0.5930193E+02  0.7816164E-02  0.1266605E+00
        -11   -1    0    0    0    0  0.00000000000E+00  0.00000000000E+00  0.45593999997E+02  0.45594000000E+02  0.51100000000E-03 0.  1.
         11   -1    0    0    0    0 -0.00000000000E+00 -0.00000000000E+00 -0.45593999997E+02  0.45594000000E+02  0.51100000000E-03 0. -1.
    9900012    2    1    2    0    0 -0.31578616287E+02 -0.22482887159E+01  0.38022849360E+01  0.59301934400E+02  0.49999982441E+02 0.  0.
         12    1    1    2    0    0  0.31578616287E+02  0.22482887159E+01 -0.38022849360E+01  0.31886065600E+02  0.00000000000E+00 0. -1.
         11    1    3    3    0    0 -0.32102436182E+02 -0.14671454095E+02 -0.10553145808E+02  0.36840017111E+02  0.51100000000E-03 0.  1.
        -11    1    3    3    0    0  0.88812276365E+00  0.80110229119E+01  0.68115454415E+00  0.80888331614E+01  0.51100000000E-03 0. -1.
        -12    1    3    3    0    0 -0.36430286885E+00  0.44121424677E+01  0.13674276200E+02  0.14373084127E+02  0.00000000000E+00 0.  1.
</event>
<event>
 7    1  0.4489290E-013  0.5930234E+02  0.7816164E-02  0.1266603E+00
        -11   -1    0    0    0    0  0.00000000000E+00  0.00000000000E+00  0.45593999997E+02  0.45594000000E+02  0.51100000000E-03 0.  1.
         11   -1    0    0    0    0 -0.00000000000E+00 -0.00000000000E+00 -0.45593999997E+02  0.45594000000E+02  0.51100000000E-03 0. -1.
    9900012    2    1    2    0    0 -0.20351077153E+02 -0.17789869105E+02 -0.16912992529E+02  0.59302343345E+02  0.50000728254E+02 0.  0.
         12    1    1    2    0    0  0.20351077153E+02  0.17789869105E+02  0.16912992529E+02  0.31885656655E+02  0.00000000000E+00 0. -1.
         11    1    3    3    0    0  0.10089745190E+02 -0.11562977298E+02 -0.43505687462E+01  0.15950951403E+02  0.51100000000E-03 0. -1.
        -11    1    3    3    0    0 -0.26976754813E+02 -0.10059527258E+02 -0.19447255778E+02  0.34743850484E+02  0.51100000000E-03 0.  1.
         12    1    3    3    0    0 -0.34640675301E+01  0.38326354516E+01  0.68848319952E+01  0.86075414585E+01  0.00000000000E+00 0. -1.
</event>
<event>
 7    1  0.4489290E-013  0.5930192E+02  0.7816164E-02  0.1266605E+00
        -11   -1    0    0    0    0  0.00000000000E+00  0.00000000000E+00  0.45593999997E+02  0.45594000000E+02  0.51100000000E-03 0.  1.
         11   -1    0    0    0    0 -0.00000000000E+00 -0.00000000000E+00 -0.45593999997E+02  0.45594000000E+02  0.51100000000E-03 0. -1.
    9900012    2    1    2    0    0 -0.18077917460E+02  0.90327061327E+01  0.24664167328E+02  0.59301921067E+02  0.49999958124E+02 0.  0.
         12    1    1    2    0    0  0.18077917460E+02 -0.90327061327E+01 -0.24664167328E+02  0.31886078933E+02  0.00000000000E+00 0. -1.
         11    1    3    3    0    0  0.78883715232E+01 -0.40891438416E+01  0.10623155308E+01  0.89485203913E+01  0.51100000000E-03 0. -1.
        -11    1    3    3    0    0 -0.32321240510E+02  0.17052496703E+02  0.22176647366E+02  0.42746390731E+02  0.51100000000E-03 0.  1.
        -12    1    3    3    0    0  0.63549515266E+01 -0.39306467290E+01  0.14252044312E+01  0.76070099438E+01  0.00000000000E+00 0.  1.
</event>
<event>
 7    1  0.4489290E-013  0.5930202E+02  0.7816164E-02  0.1266604E+00
        -11   -1    0    0    0    0  0.00000000000E+00  0.00000000000E+00  0.45593999997E+02  0.45594000000E+02  0.51100000000E-03 0.  1.
         11   -1    0    0    0    0 -0.00000000000E+00 -0.00000000000E+00 -0.45593999997E+02  0.45594000000E+02  0.51100000000E-03 0. -1.
    9900012    2    1    2    0    0 -0.69147328256E+01 -0.13745696367E+02  0.27927725186E+02  0.59302022945E+02  0.50000143927E+02 0.  0.
         12    1    1    2    0    0  0.69147328256E+01  0.13745696367E+02 -0.27927725186E+02  0.31885977055E+02  0.00000000000E+00 0. -1.
         11    1    3    3    0    0 -0.23938566903E+02 -0.60082898543E+01  0.18503891515E+02  0.30847180322E+02  0.51100000000E-03 0. -1.
        -11    1    3    3    0    0  0.11597814849E+02 -0.14069376065E+02  0.83248270688E+01  0.20043936692E+02  0.51100000000E-03 0.  1.
         12    1    3    3    0    0  0.54260192292E+01  0.63319695516E+01  0.10990066017E+01  0.84109059315E+01  0.00000000000E+00 0. -1.
</event>
<event>
 7    1  0.4489290E-013  0.5930194E+02  0.7816164E-02  0.1266605E+00
        -11   -1    0    0    0    0  0.00000000000E+00  0.00000000000E+00  0.45593999997E+02  0.45594000000E+02  0.51100000000E-03 0. -1.
         11   -1    0    0    0    0 -0.00000000000E+00 -0.00000000000E+00 -0.45593999997E+02  0.45594000000E+02  0.51100000000E-03 0.  1.
    9900012    2    1    2    0    0 -0.14818967586E+02  0.94940732273E+01 -0.26589126278E+02  0.59301939362E+02  0.49999991491E+02 0.  0.
         12    1    1    2    0    0  0.14818967586E+02 -0.94940732273E+01  0.26589126278E+02  0.31886060638E+02  0.00000000000E+00 0. -1.
         11    1    3    3    0    0 -0.24927698467E+02  0.13741335675E+02 -0.14038094051E+02  0.31737714818E+02  0.51100000000E-03 0.  1.
        -11    1    3    3    0    0  0.78462405036E+01 -0.12804242256E+02 -0.10911368985E+02  0.18562599041E+02  0.51100000000E-03 0. -1.
        -12    1    3    3    0    0  0.22624903783E+01  0.85569798079E+01 -0.16396632426E+01  0.90016255029E+01  0.00000000000E+00 0.  1.
</event>
<event>
 7    1  0.4489290E-013  0.5930191E+02  0.7816164E-02  0.1266605E+00
        -11   -1    0    0    0    0  0.00000000000E+00  0.00000000000E+00  0.45593999997E+02  0.45594000000E+02  0.51100000000E-03 0. -1.
         11   -1    0    0    0    0 -0.00000000000E+00 -0.00000000000E+00 -0.45593999997E+02  0.45594000000E+02  0.51100000000E-03 0.  1.
    9900012    2    1    2    0    0 -0.86267735383E+00 -0.95841627532E+00 -0.31860002529E+02  0.59301913142E+02  0.49999943672E+02 0.  0.
         12    1    1    2    0    0  0.86267735383E+00  0.95841627532E+00  0.31860002529E+02  0.31886086858E+02  0.00000000000E+00 0. -1.
         11    1    3    3    0    0  0.13760369131E+02  0.11239737764E+02 -0.27850237387E+02  0.33035059957E+02  0.51100000000E-03 0. -1.
        -11    1    3    3    0    0 -0.43836416785E+01 -0.11652658499E+02  0.41915260198E+01  0.13136576993E+02  0.51100000000E-03 0.  1.
         12    1    3    3    0    0 -0.10239404806E+02 -0.54549554053E+00 -0.82012911619E+01  0.13130276192E+02  0.00000000000E+00 0. -1.
</event>
<event>
 7    1  0.4489290E-013  0.5930194E+02  0.7816164E-02  0.1266605E+00
        -11   -1    0    0    0    0  0.00000000000E+00  0.00000000000E+00  0.45593999997E+02  0.45594000000E+02  0.51100000000E-03 0. -1.
         11   -1    0    0    0    0 -0.00000000000E+00 -0.00000000000E+00 -0.45593999997E+02  0.45594000000E+02  0.51100000000E-03 0.  1.
    9900012    2    1    2    0    0  0.52026650708E-01  0.29098858700E+02 -0.13037429145E+02  0.59301939674E+02  0.49999992059E+02 0.  0.
         12    1    1    2    0    0 -0.52026650708E-01 -0.29098858700E+02  0.13037429145E+02  0.31886060326E+02  0.00000000000E+00 0. -1.
         11    1    3    3    0    0  0.19507019764E+01  0.18253132801E+02  0.59447656558E+01  0.19295655838E+02  0.51100000000E-03 0. -1.
        -11    1    3    3    0    0 -0.11524251932E+02 -0.61356534490E+01 -0.15350277273E+02  0.20151566650E+02  0.51100000000E-03 0.  1.
        -12    1    3    3    0    0  0.96255766064E+01  0.16981379348E+02 -0.36319175273E+01  0.19854717185E+02  0.00000000000E+00 0.  1.
</event>
<event>
 7    1  0.4489290E-013  0.5930195E+02  0.7816164E-02  0.1266605E+00
        -11   -1    0    0    0    0  0.00000000000E+00  0.00000000000E+00  0.45593999997E+02  0.45594000000E+02  0.51100000000E-03 0.  1.
         11   -1    0    0    0    0 -0.00000000000E+00 -0.00000000000E+00 -0.45593999997E+02  0.45594000000E+02  0.51100000000E-03 0. -1.
    9900012    2    1    2    0    0  0.67903218463E+01  0.56340686733E+01  0.30640973132E+02  0.59301946073E+02  0.50000003730E+02 0.  0.
         12    1    1    2    0    0 -0.67903218463E+01 -0.56340686733E+01 -0.30640973132E+02  0.31886053927E+02  0.00000000000E+00 0. -1.
         11    1    3    3    0    0 -0.16639705289E+02  0.16833285867E+02  0.19721950171E+02  0.30809002321E+02  0.51100000000E-03 0. -1.
        -11    1    3    3    0    0  0.78914743946E+01 -0.35429262831E+01  0.58550053533E+01  0.10445514957E+02  0.51100000000E-03 0.  1.
         12    1    3    3    0    0  0.15538552741E+02 -0.76562909102E+01  0.50640176076E+01  0.18047428795E+02  0.00000000000E+00 0. -1.
</event>
<event>
 7    1  0.4489290E-013  0.5930199E+02  0.7816164E-02  0.1266605E+00
        -11   -1    0    0    0    0  0.00000000000E+00  0.00000000000E+00  0.45593999997E+02  0.45594000000E+02  0.51100000000E-03 0.  1.
         11   -1    0    0    0    0 -0.00000000000E+00 -0.00000000000E+00 -0.45593999997E+02  0.45594000000E+02  0.51100000000E-03 0. -1.
    9900012    2    1    2    0    0 -0.31377506814E+02  0.44961461555E+01 -0.34575271253E+01  0.59301988052E+02  0.50000080290E+02 0.  0.
         12    1    1    2    0    0  0.31377506814E+02 -0.44961461555E+01  0.34575271253E+01  0.31886011948E+02  0.00000000000E+00 0. -1.
         11    1    3    3    0    0  0.23121660529E+01 -0.17505344577E+00 -0.12221058463E+02  0.12439092643E+02  0.51100000000E-03 0. -1.
        -11    1    3    3    0    0 -0.29941590284E+02  0.14904342241E+02  0.11936829684E+02  0.35512337990E+02  0.51100000000E-03 0.  1.
        -12    1    3    3    0    0 -0.37480825829E+01 -0.10233142640E+02 -0.31732983466E+01  0.11350557419E+02  0.00000000000E+00 0.  1.
</event>
<event>
 7    1  0.4489290E-013  0.5930196E+02  0.7816164E-02  0.1266605E+00
        -11   -1    0    0    0    0  0.00000000000E+00  0.00000000000E+00  0.45593999997E+02  0.45594000000E+02  0.51100000000E-03 0.  1.
         11   -1    0    0    0    0 -0.00000000000E+00 -0.00000000000E+00 -0.45593999997E+02  0.45594000000E+02  0.51100000000E-03 0. -1.
    9900012    2    1    2    0    0  0.28859163078E+02 -0.60335294539E+01  0.12143508022E+02  0.59301959820E+02  0.50000028802E+02 0.  0.
         12    1    1    2    0    0 -0.28859163078E+02  0.60335294539E+01 -0.12143508022E+02  0.31886040180E+02  0.00000000000E+00 0. -1.
         11    1    3    3    0    0 -0.79947194752E+01 -0.11307817173E+02  0.85064810273E+01  0.16252460996E+02  0.51100000000E-03 0. -1.
        -11    1    3    3    0    0  0.10072580089E+02  0.10897754516E+02 -0.23829064270E+01  0.15029842529E+02  0.51100000000E-03 0.  1.
         12    1    3    3    0    0  0.26781302465E+02 -0.56234667966E+01  0.60199334215E+01  0.28019656295E+02  0.00000000000E+00 0. -1.
</event>
<event>
 7    1  0.4489290E-013  0.5930193E+02  0.7816164E-02  0.1266605E+00
        -11   -1    0    0    0    0  0.00000000000E+00  0.00000000000E+00  0.45593999997E+02  0.45594000000E+02  0.51100000000E-03 0.  1.
         11   -1    0    0    0    0 -0.00000000000E+00 -0.00000000000E+00 -0.45593999997E+02  0.45594000000E+02  0.51100000000E-03 0. -1.
    9900012    2    1    2    0    0 -0.29329204819E+02 -0.66049736442E+01  0.10625142454E+02  0.59301928051E+02  0.49999970863E+02 0.  0.
         12    1    1    2    0    0  0.29329204819E+02  0.66049736442E+01 -0.10625142454E+02  0.31886071949E+02  0.00000000000E+00 0. -1.
         11    1    3    3    0    0 -0.74914766176E+01  0.11707634010E+02 -0.13760456516E+02  0.19558657413E+02  0.51100000000E-03 0. -1.
        -11    1    3    3    0    0 -0.10012033787E+01 -0.80915309845E+01  0.69848074088E+01  0.10736052192E+02  0.51100000000E-03 0.  1.
         12    1    3    3    0    0 -0.20836524823E+02 -0.10221076670E+02  0.17400791561E+02  0.29007218445E+02  0.00000000000E+00 0. -1.
</event>
<event>
 7    1  0.4489290E-013  0.5930195E+02  0.7816164E-02  0.1266605E+00
        -11   -1    0    0    0    0  0.00000000000E+00  0.00000000000E+00  0.45593999997E+02  0.45594000000E+02  0.51100000000E-03 0. -1.
         11   -1    0    0    0    0 -0.00000000000E+00 -0.00000000000E+00 -0.45593999997E+02  0.45594000000E+02  0.51100000000E-03 0.  1.
    9900012    2    1    2    0    0 -0.80483722549E+01  0.29449819791E+02  0.92006633357E+01  0.59301946819E+02  0.50000005090E+02 0.  0.
         12    1    1    2    0    0  0.80483722549E+01 -0.29449819791E+02 -0.92006633357E+01  0.31886053181E+02  0.00000000000E+00 0. -1.
         11    1    3    3    0    0 -0.32267154301E+01 -0.54872158611E+01  0.17945320955E+02  0.19040897427E+02  0.51100000000E-03 0. -1.
        -11    1    3    3    0    0  0.11749225438E+01  0.44408566220E+01 -0.79369152963E+01  0.91704021287E+01  0.51100000000E-03 0.  1.
        -12    1    3    3    0    0 -0.59965793687E+01  0.30496179030E+02 -0.80774232326E+00  0.31090647263E+02  0.00000000000E+00 0.  1.
</event>
<event>
 7    1  0.4489290E-013  0.5930195E+02  0.7816164E-02  0.1266605E+00
        -11   -1    0    0    0    0  0.00000000000E+00  0.00000000000E+00  0.45593999997E+02  0.45594000000E+02  0.51100000000E-03 0.  1.
         11   -1    0    0    0    0 -0.00000000000E+00 -0.00000000000E+00 -0.45593999997E+02  0.45594000000E+02  0.51100000000E-03 0. -1.
    9900012    2    1    2    0    0  0.18054674656E+02  0.19322200259E+02  0.17815769462E+02  0.59301947543E+02  0.50000006411E+02 0.  0.
         12    1    1    2    0    0 -0.18054674656E+02 -0.19322200259E+02 -0.17815769462E+02  0.31886052457E+02  0.00000000000E+00 0. -1.
         11    1    3    3    0    0  0.27500964444E+01 -0.57401048171E+01 -0.61718015979E+01  0.88658315453E+01  0.51100000000E-03 0. -1.
        -11    1    3    3    0    0  0.21407104799E+02  0.19091581238E+02  0.28790360968E+02  0.40640343195E+02  0.51100000000E-03 0.  1.
        -12    1    3    3    0    0 -0.61025265876E+01  0.59707238377E+01 -0.48027899086E+01  0.97957728028E+01  0.00000000000E+00 0.  1.
</event>
<event>
 7    1  0.4489290E-013  0.5930193E+02  0.7816164E-02  0.1266605E+00
        -11   -1    0    0    0    0  0.00000000000E+00  0.00000000000E+00  0.45593999997E+02  0.45594000000E+02  0.51100000000E-03 0.  1.
         11   -1    0    0    0    0 -0.00000000000E+00 -0.00000000000E+00 -0.45593999997E+02  0.45594000000E+02  0.51100000000E-03 0. -1.
    9900012    2    1    2    0    0  0.30001279223E+02 -0.89754238429E+00 -0.10762850617E+02  0.59301932654E+02  0.49999979258E+02 0.  0.
         12    1    1    2    0    0 -0.30001279223E+02  0.89754238429E+00  0.10762850617E+02  0.31886067346E+02  0.00000000000E+00 0. -1.
         11    1    3    3    0    0  0.15912030145E+02  0.23338815764E+02 -0.11552840838E+02  0.30518210241E+02  0.51100000000E-03 0. -1.
        -11    1    3    3    0    0  0.84963985949E+01 -0.17696071796E+02 -0.20134310459E+01  0.19733059847E+02  0.51100000000E-03 0.  1.
         12    1    3    3    0    0  0.55928504831E+01 -0.65402863525E+01  0.28034212663E+01  0.90506625666E+01  0.00000000000E+00 0. -1.
</event>
<event>
 7    1  0.4489290E-013  0.5930165E+02  0.7816164E-02  0.1266606E+00
        -11   -1    0    0    0    0  0.00000000000E+00  0.00000000000E+00  0.45593999997E+02  0.45594000000E+02  0.51100000000E-03 0.  1.
         11   -1    0    0    0    0 -0.00000000000E+00 -0.00000000000E+00 -0.45593999997E+02  0.45594000000E+02  0.51100000000E-03 0. -1.
    9900012    2    1    2    0    0 -0.10914759819E+02 -0.21207659030E+02  0.21162288196E+02  0.59301651430E+02  0.49999466369E+02 0.  0.
         12    1    1    2    0    0  0.10914759819E+02  0.21207659030E+02 -0.21162288196E+02  0.31886348570E+02  0.00000000000E+00 0. -1.
         11    1    3    3    0    0 -0.22548915896E+02 -0.16453277913E+02  0.28692369843E+02  0.40030189228E+02  0.51100000000E-03 0.  1.
        -11    1    3    3    0    0  0.81543788218E+01 -0.13059468979E+01  0.20522005274E+01  0.85094605314E+01  0.51100000000E-03 0. -1.
        -12    1    3    3    0    0  0.34797772552E+01 -0.34484342189E+01 -0.95822821740E+01  0.10762001671E+02  0.00000000000E+00 0.  1.
</event>
<event>
 7    1  0.4489290E-013  0.5930187E+02  0.7816164E-02  0.1266605E+00
        -11   -1    0    0    0    0  0.00000000000E+00  0.00000000000E+00  0.45593999997E+02  0.45594000000E+02  0.51100000000E-03 0.  1.
         11   -1    0    0    0    0 -0.00000000000E+00 -0.00000000000E+00 -0.45593999997E+02  0.45594000000E+02  0.51100000000E-03 0. -1.
    9900012    2    1    2    0    0  0.15425350126E+02 -0.22893464116E+02  0.15958482735E+02  0.59301869835E+02  0.49999864690E+02 0.  0.
         12    1    1    2    0    0 -0.15425350126E+02  0.22893464116E+02 -0.15958482735E+02  0.31886130165E+02  0.00000000000E+00 0. -1.
         11    1    3    3    0    0 -0.14157128786E+01 -0.16667291442E+02 -0.74223470753E+01  0.18300111567E+02  0.51100000000E-03 0. -1.
        -11    1    3    3    0    0  0.65110625931E+00  0.44041745451E+01  0.21024799622E+02  0.21490995607E+02  0.51100000000E-03 0.  1.
        -12    1    3    3    0    0  0.16189956745E+02 -0.10630347218E+02  0.23560301884E+01  0.19510762661E+02  0.00000000000E+00 0.  1.
</event>
<event>
 7    1  0.4489290E-013  0.5930195E+02  0.7816164E-02  0.1266605E+00
        -11   -1    0    0    0    0  0.00000000000E+00  0.00000000000E+00  0.45593999997E+02  0.45594000000E+02  0.51100000000E-03 0.  1.
         11   -1    0    0    0    0 -0.00000000000E+00 -0.00000000000E+00 -0.45593999997E+02  0.45594000000E+02  0.51100000000E-03 0. -1.
    9900012    2    1    2    0    0  0.24901768041E+02  0.15874263370E+02 -0.12026215661E+02  0.59301950507E+02  0.50000011817E+02 0.  0.
         12    1    1    2    0    0 -0.24901768041E+02 -0.15874263370E+02  0.12026215661E+02  0.31886049493E+02  0.00000000000E+00 0. -1.
         11    1    3    3    0    0  0.36342882982E+02  0.97852551840E+00 -0.62550016012E+01  0.36890211452E+02  0.51100000000E-03 0. -1.
        -11    1    3    3    0    0 -0.68081903823E+01  0.11614256232E+01 -0.34913957646E+01  0.77388765597E+01  0.51100000000E-03 0.  1.
         12    1    3    3    0    0 -0.46329245591E+01  0.13734312229E+02 -0.22798182953E+01  0.14672862496E+02  0.00000000000E+00 0. -1.
</event>
<event>
 7    1  0.6775111E-013  0.5930191E+02  0.7816164E-02  0.1266605E+00
        -11   -1    0    0    0    0  0.00000000000E+00  0.00000000000E+00  0.45593999997E+02  0.45594000000E+02  0.51100000000E-03 0. -1.
         11   -1    0    0    0    0 -0.00000000000E+00 -0.00000000000E+00 -0.45593999997E+02  0.45594000000E+02  0.51100000000E-03 0.  1.
    9900012    2    1    2    0    0  0.23781276458E+02 -0.77981897675E-01 -0.21240704952E+02  0.59301909961E+02  0.49999937871E+02 0.  0.
         12    1    1    2    0    0 -0.23781276458E+02  0.77981897675E-01  0.21240704952E+02  0.31886090039E+02  0.00000000000E+00 0. -1.
         11    1    3    3    0    0 -0.10263489443E+02 -0.71748184902E+00 -0.50242979522E+01  0.11449784536E+02  0.51100000000E-03 0. -1.
        -11    1    3    3    0    0  0.22266344200E+02 -0.30351763019E+01 -0.24302608615E+02  0.33100138444E+02  0.51100000000E-03 0.  1.
         12    1    3    3    0    0  0.11778421701E+02  0.36746762532E+01  0.80862016159E+01  0.14751986981E+02  0.00000000000E+00 0. -1.
</event>
<event>
 7    1  0.4489290E-013  0.5930193E+02  0.7816164E-02  0.1266605E+00
        -11   -1    0    0    0    0  0.00000000000E+00  0.00000000000E+00  0.45593999997E+02  0.45594000000E+02  0.51100000000E-03 0.  1.
         11   -1    0    0    0    0 -0.00000000000E+00 -0.00000000000E+00 -0.45593999997E+02  0.45594000000E+02  0.51100000000E-03 0. -1.
    9900012    2    1    2    0    0 -0.26698444372E+02 -0.16489869312E+02 -0.56567300891E+01  0.59301932241E+02  0.49999978504E+02 0.  0.
         12    1    1    2    0    0  0.26698444372E+02  0.16489869312E+02  0.56567300891E+01  0.31886067759E+02  0.00000000000E+00 0. -1.
         11    1    3    3    0    0 -0.17503364918E+01 -0.93877754864E+01 -0.55444895489E+01  0.11042435014E+02  0.51100000000E-03 0. -1.
        -11    1    3    3    0    0 -0.29508824743E+01 -0.16881355284E+01  0.18580726300E+02  0.18889174122E+02  0.51100000000E-03 0.  1.
        -12    1    3    3    0    0 -0.21997225406E+02 -0.54139582976E+01 -0.18692966840E+02  0.29370323105E+02  0.00000000000E+00 0.  1.
</event>
<event>
 7    1  0.4489290E-013  0.5930204E+02  0.7816164E-02  0.1266604E+00
        -11   -1    0    0    0    0  0.00000000000E+00  0.00000000000E+00  0.45593999997E+02  0.45594000000E+02  0.51100000000E-03 0. -1.
         11   -1    0    0    0    0 -0.00000000000E+00 -0.00000000000E+00 -0.45593999997E+02  0.45594000000E+02  0.51100000000E-03 0.  1.
    9900012    2    1    2    0    0 -0.18610772208E+02  0.25891029268E+02 -0.89213188695E-01  0.59302043879E+02  0.50000182105E+02 0.  0.
         12    1    1    2    0    0  0.18610772208E+02 -0.25891029268E+02  0.89213188695E-01  0.31885956121E+02  0.00000000000E+00 0. -1.
         11    1    3    3    0    0 -0.10336030567E+02 -0.81310997712E+00  0.16648003515E+02  0.19612513786E+02  0.51100000000E-03 0. -1.
        -11    1    3    3    0    0  0.52882531087E+01  0.20212892081E+02 -0.86143866204E+01  0.22599431062E+02  0.51100000000E-03 0.  1.
         12    1    3    3    0    0 -0.13562994750E+02  0.64912471634E+01 -0.81228300834E+01  0.17090099031E+02  0.00000000000E+00 0. -1.
</event>
<event>
 7    1  0.4489290E-013  0.5930196E+02  0.7816164E-02  0.1266605E+00
        -11   -1    0    0    0    0  0.00000000000E+00  0.00000000000E+00  0.45593999997E+02  0.45594000000E+02  0.51100000000E-03 0.  1.
         11   -1    0    0    0    0 -0.00000000000E+00 -0.00000000000E+00 -0.45593999997E+02  0.45594000000E+02  0.51100000000E-03 0. -1.
    9900012    2    1    2    0    0  0.36096342498E+01 -0.31054136765E+02  0.62714254976E+01  0.59301958424E+02  0.50000026255E+02 0.  0.
         12    1    1    2    0    0 -0.36096342498E+01  0.31054136765E+02 -0.62714254976E+01  0.31886041576E+02  0.00000000000E+00 0. -1.
         11    1    3    3    0    0 -0.12825964161E+01  0.19502640427E+01 -0.89245711379E+01  0.92247793284E+01  0.51100000000E-03 0. -1.
        -11    1    3    3    0    0 -0.87826667769E+01 -0.32288304121E+02  0.72251624086E+01  0.34232627577E+02  0.51100000000E-03 0.  1.
        -12    1    3    3    0    0  0.13674897443E+02 -0.71609668617E+00  0.79708342269E+01  0.15844551518E+02  0.00000000000E+00 0.  1.
</event>
<event>
 7    1  0.4489290E-013  0.5930195E+02  0.7816164E-02  0.1266605E+00
        -11   -1    0    0    0    0  0.00000000000E+00  0.00000000000E+00  0.45593999997E+02  0.45594000000E+02  0.51100000000E-03 0.  1.
         11   -1    0    0    0    0 -0.00000000000E+00 -0.00000000000E+00 -0.45593999997E+02  0.45594000000E+02  0.51100000000E-03 0. -1.
    9900012    2    1    2    0    0 -0.44260329984E+01  0.29624439698E+02  0.10932655625E+02  0.59301950471E+02  0.50000011751E+02 0.  0.
         12    1    1    2    0    0  0.44260329984E+01 -0.29624439698E+02 -0.10932655625E+02  0.31886049529E+02  0.00000000000E+00 0. -1.
         11    1    3    3    0    0 -0.16534057399E+02  0.15153007163E+02  0.95994078815E+01  0.24395436297E+02  0.51100000000E-03 0. -1.
        -11    1    3    3    0    0  0.17584291486E+02  0.16726279371E+02 -0.64642170826E+01  0.25114972256E+02  0.51100000000E-03 0.  1.
        -12    1    3    3    0    0 -0.54762670847E+01 -0.22548468356E+01  0.77974648259E+01  0.97915419188E+01  0.00000000000E+00 0.  1.
</event>
<event>
 7    1  0.4489290E-013  0.5930185E+02  0.7816164E-02  0.1266605E+00
        -11   -1    0    0    0    0  0.00000000000E+00  0.00000000000E+00  0.45593999997E+02  0.45594000000E+02  0.51100000000E-03 0. -1.
         11   -1    0    0    0    0 -0.00000000000E+00 -0.00000000000E+00 -0.45593999997E+02  0.45594000000E+02  0.51100000000E-03 0.  1.
    9900012    2    1    2    0    0  0.95368415933E+01  0.23384760597E+02 -0.19466073626E+02  0.59301852567E+02  0.49999833197E+02 0.  0.
         12    1    1    2    0    0 -0.95368415933E+01 -0.23384760597E+02  0.19466073626E+02  0.31886147433E+02  0.00000000000E+00 0. -1.
         11    1    3    3    0    0 -0.15569366068E+02  0.11751932051E+02  0.64912672550E+01  0.20558443947E+02  0.51100000000E-03 0. -1.
        -11    1    3    3    0    0  0.11830592543E+02  0.12337913095E+01 -0.11050573549E+02  0.16235773370E+02  0.51100000000E-03 0.  1.
         12    1    3    3    0    0  0.13275615119E+02  0.10399037236E+02 -0.14906767332E+02  0.22507635249E+02  0.00000000000E+00 0. -1.
</event>
<event>
 7    1  0.4489290E-013  0.5930195E+02  0.7816164E-02  0.1266605E+00
        -11   -1    0    0    0    0  0.00000000000E+00  0.00000000000E+00  0.45593999997E+02  0.45594000000E+02  0.51100000000E-03 0.  1.
         11   -1    0    0    0    0 -0.00000000000E+00 -0.00000000000E+00 -0.45593999997E+02  0.45594000000E+02  0.51100000000E-03 0. -1.
    9900012    2    1    2    0    0  0.17704726863E+02 -0.18334100136E+02  0.19160470649E+02  0.59301949499E+02  0.50000009978E+02 0.  0.
         12    1    1    2    0    0 -0.17704726863E+02  0.18334100136E+02 -0.19160470649E+02  0.31886050501E+02  0.00000000000E+00 0. -1.
         11    1    3    3    0    0 -0.52176803624E+01 -0.96301559628E+01  0.43296786104E+01  0.11777529850E+02  0.51100000000E-03 0.  1.
        -11    1    3    3    0    0  0.31439572454E+01 -0.13612370431E+01 -0.12521062209E+02  0.12981310895E+02  0.51100000000E-03 0. -1.
        -12    1    3    3    0    0  0.19778449980E+02 -0.73427071298E+01  0.27351854248E+02  0.34543108754E+02  0.00000000000E+00 0.  1.
</event>
<event>
 7    1  0.4489290E-013  0.5930200E+02  0.7816164E-02  0.1266605E+00
        -11   -1    0    0    0    0  0.00000000000E+00  0.00000000000E+00  0.45593999997E+02  0.45594000000E+02  0.51100000000E-03 0.  1.
         11   -1    0    0    0    0 -0.00000000000E+00 -0.00000000000E+00 -0.45593999997E+02  0.45594000000E+02  0.51100000000E-03 0. -1.
    9900012    2    1    2    0    0 -0.30982650444E+02  0.73192397808E+01  0.17948110737E+01  0.59301996075E+02  0.50000094922E+02 0.  0.
         12    1    1    2    0    0  0.30982650444E+02 -0.73192397808E+01 -0.17948110737E+01  0.31886003925E+02  0.00000000000E+00 0. -1.
         11    1    3    3    0    0  0.10592336027E+02  0.11347493649E+01 -0.11801777021E+00  0.10653598785E+02  0.51100000000E-03 0. -1.
        -11    1    3    3    0    0 -0.20196552674E+02 -0.29672668289E+01 -0.97618980270E+01  0.22627418450E+02  0.51100000000E-03 0.  1.
         12    1    3    3    0    0 -0.21378433796E+02  0.91517572448E+01  0.11674726871E+02  0.26020978839E+02  0.00000000000E+00 0. -1.
</event>
<event>
 7    1  0.4489290E-013  0.5930197E+02  0.7816164E-02  0.1266605E+00
        -11   -1    0    0    0    0  0.00000000000E+00  0.00000000000E+00  0.45593999997E+02  0.45594000000E+02  0.51100000000E-03 0.  1.
         11   -1    0    0    0    0 -0.00000000000E+00 -0.00000000000E+00 -0.45593999997E+02  0.45594000000E+02  0.51100000000E-03 0. -1.
    9900012    2    1    2    0    0 -0.65097624513E+00  0.31575464389E+02  0.43914877862E+01  0.59301970356E+02  0.50000048017E+02 0.  0.
         12    1    1    2    0    0  0.65097624513E+00 -0.31575464389E+02 -0.43914877862E+01  0.31886029644E+02  0.00000000000E+00 0. -1.
         11    1    3    3    0    0  0.32954012947E+01 -0.63231866844E+01  0.13360023818E+01  0.72544649812E+01  0.51100000000E-03 0. -1.
        -11    1    3    3    0    0 -0.86774821253E+01  0.39864296189E+02  0.11306313902E+02  0.42335487963E+02  0.51100000000E-03 0.  1.
        -12    1    3    3    0    0  0.47311045855E+01 -0.19656451160E+01 -0.82508284978E+01  0.97120174126E+01  0.00000000000E+00 0.  1.
</event>
<event>
 7    1  0.4489290E-013  0.5930190E+02  0.7816164E-02  0.1266605E+00
        -11   -1    0    0    0    0  0.00000000000E+00  0.00000000000E+00  0.45593999997E+02  0.45594000000E+02  0.51100000000E-03 0.  1.
         11   -1    0    0    0    0 -0.00000000000E+00 -0.00000000000E+00 -0.45593999997E+02  0.45594000000E+02  0.51100000000E-03 0. -1.
    9900012    2    1    2    0    0  0.81382036090E+01 -0.15407639703E+02  0.26703890726E+02  0.59301898026E+02  0.49999916103E+02 0.  0.
         12    1    1    2    0    0 -0.81382036090E+01  0.15407639703E+02 -0.26703890726E+02  0.31886101974E+02  0.00000000000E+00 0. -1.
         11    1    3    3    0    0 -0.62821336715E+00 -0.19889044128E+02 -0.45617012217E+01  0.20415137684E+02  0.51100000000E-03 0. -1.
        -11    1    3    3    0    0  0.10437147132E+02 -0.57523502517E+01  0.21810225461E+02  0.24853762464E+02  0.51100000000E-03 0.  1.
         12    1    3    3    0    0 -0.16707301560E+01  0.10233754677E+02  0.94553664866E+01  0.14032997878E+02  0.00000000000E+00 0. -1.
</event>
<event>
 7    1  0.4489290E-013  0.5930188E+02  0.7816164E-02  0.1266605E+00
        -11   -1    0    0    0    0  0.00000000000E+00  0.00000000000E+00  0.45593999997E+02  0.45594000000E+02  0.51100000000E-03 0.  1.
         11   -1    0    0    0    0 -0.00000000000E+00 -0.00000000000E+00 -0.45593999997E+02  0.45594000000E+02  0.51100000000E-03 0. -1.
    9900012    2    1    2    0    0  0.12926995600E+02 -0.44114553778E+01  0.28812433883E+02  0.59301882330E+02  0.49999887477E+02 0.  0.
         12    1    1    2    0    0 -0.12926995600E+02  0.44114553778E+01 -0.28812433883E+02  0.31886117670E+02  0.00000000000E+00 0. -1.
         11    1    3    3    0    0 -0.12491481601E+02  0.14112690092E+01 -0.19121644408E+00  0.12572404575E+02  0.51100000000E-03 0. -1.
        -11    1    3    3    0    0  0.14389932307E+02  0.39811618850E+01  0.28251495583E+02  0.31954135956E+02  0.51100000000E-03 0.  1.
         12    1    3    3    0    0  0.11028544895E+02 -0.98038862720E+01  0.75215474475E+00  0.14775341799E+02  0.00000000000E+00 0. -1.
</event>
<event>
 7    1  0.4489290E-013  0.5930194E+02  0.7816164E-02  0.1266605E+00
        -11   -1    0    0    0    0  0.00000000000E+00  0.00000000000E+00  0.45593999997E+02  0.45594000000E+02  0.51100000000E-03 0. -1.
         11   -1    0    0    0    0 -0.00000000000E+00 -0.00000000000E+00 -0.45593999997E+02  0.45594000000E+02  0.51100000000E-03 0.  1.
    9900012    2    1    2    0    0 -0.17200577820E+02  0.54997361259E+00 -0.26843216711E+02  0.59301942989E+02  0.49999998105E+02 0.  0.
         12    1    1    2    0    0  0.17200577820E+02 -0.54997361259E+00  0.26843216711E+02  0.31886057011E+02  0.00000000000E+00 0. -1.
         11    1    3    3    0    0 -0.38006260656E+01  0.20424770242E+01 -0.17076936732E+01  0.46403328358E+01  0.51100000000E-03 0. -1.
        -11    1    3    3    0    0  0.81787531397E+01  0.96605864539E+01  0.69329186971E+01  0.14432057909E+02  0.51100000000E-03 0.  1.
        -12    1    3    3    0    0 -0.21578704894E+02 -0.11153089866E+02 -0.32068441735E+02  0.40229552244E+02  0.00000000000E+00 0.  1.
</event>
<event>
 7    1  0.4489290E-013  0.5930195E+02  0.7816164E-02  0.1266605E+00
        -11   -1    0    0    0    0  0.00000000000E+00  0.00000000000E+00  0.45593999997E+02  0.45594000000E+02  0.51100000000E-03 0.  1.
         11   -1    0    0    0    0 -0.00000000000E+00 -0.00000000000E+00 -0.45593999997E+02  0.45594000000E+02  0.51100000000E-03 0. -1.
    9900012    2    1    2    0    0 -0.17969715400E+02  0.12406310361E+02  0.23235594744E+02  0.59301951774E+02  0.50000014128E+02 0.  0.
         12    1    1    2    0    0  0.17969715400E+02 -0.12406310361E+02 -0.23235594744E+02  0.31886048226E+02  0.00000000000E+00 0. -1.
         11    1    3    3    0    0 -0.19570150546E+02  0.18149232714E+00 -0.91497585364E+01  0.21604208234E+02  0.51100000000E-03 0. -1.
        -11    1    3    3    0    0  0.57274122255E+01  0.33482661363E+01  0.23700112846E+02  0.24611165882E+02  0.51100000000E-03 0.  1.
         12    1    3    3    0    0 -0.41269770789E+01  0.88765518979E+01  0.86852404349E+01  0.13086577659E+02  0.00000000000E+00 0. -1.
</event>
<event>
 7    1  0.4489290E-013  0.5930193E+02  0.7816164E-02  0.1266605E+00
        -11   -1    0    0    0    0  0.00000000000E+00  0.00000000000E+00  0.45593999997E+02  0.45594000000E+02  0.51100000000E-03 0.  1.
         11   -1    0    0    0    0 -0.00000000000E+00 -0.00000000000E+00 -0.45593999997E+02  0.45594000000E+02  0.51100000000E-03 0. -1.
    9900012    2    1    2    0    0  0.21344928780E+02  0.23541031549E+02  0.26334672105E+01  0.59301932501E+02  0.49999978978E+02 0.  0.
         12    1    1    2    0    0 -0.21344928780E+02 -0.23541031549E+02 -0.26334672105E+01  0.31886067499E+02  0.00000000000E+00 0. -1.
         11    1    3    3    0    0  0.42273031975E+01  0.72908380250E+01  0.21845418988E+02  0.23414712094E+02  0.51100000000E-03 0. -1.
        -11    1    3    3    0    0  0.14402378551E+02  0.17075690890E+02 -0.70887215046E+01  0.23436247569E+02  0.51100000000E-03 0.  1.
         12    1    3    3    0    0  0.27152470315E+01 -0.82549736551E+00 -0.12123230273E+02  0.12450972838E+02  0.00000000000E+00 0. -1.
</event>
<event>
 7    1  0.4489290E-013  0.5930194E+02  0.7816164E-02  0.1266605E+00
        -11   -1    0    0    0    0  0.00000000000E+00  0.00000000000E+00  0.45593999997E+02  0.45594000000E+02  0.51100000000E-03 0.  1.
         11   -1    0    0    0    0 -0.00000000000E+00 -0.00000000000E+00 -0.45593999997E+02  0.45594000000E+02  0.51100000000E-03 0. -1.
    9900012    2    1    2    0    0 -0.25684019357E+01  0.27435053062E+02  0.16044992557E+02  0.59301943311E+02  0.49999998693E+02 0.  0.
         12    1    1    2    0    0  0.25684019357E+01 -0.27435053062E+02 -0.16044992557E+02  0.31886056689E+02  0.00000000000E+00 0. -1.
         11    1    3    3    0    0  0.10332451998E+02  0.19308818762E+01 -0.11607145353E+02  0.15659300515E+02  0.51100000000E-03 0. -1.
        -11    1    3    3    0    0 -0.17180063513E+02  0.21513361407E+02  0.20095079013E+02  0.34085062743E+02  0.51100000000E-03 0.  1.
        -12    1    3    3    0    0  0.42792095796E+01  0.39908097784E+01  0.75570588967E+01  0.95575800537E+01  0.00000000000E+00 0.  1.
</event>
<event>
 7    1  0.4489290E-013  0.5930194E+02  0.7816164E-02  0.1266605E+00
        -11   -1    0    0    0    0  0.00000000000E+00  0.00000000000E+00  0.45593999997E+02  0.45594000000E+02  0.51100000000E-03 0.  1.
         11   -1    0    0    0    0 -0.00000000000E+00 -0.00000000000E+00 -0.45593999997E+02  0.45594000000E+02  0.51100000000E-03 0. -1.
    9900012    2    1    2    0    0 -0.26693392807E+02  0.17391201167E+02 -0.13151849079E+01  0.59301940210E+02  0.49999993037E+02 0.  0.
         12    1    1    2    0    0  0.26693392807E+02 -0.17391201167E+02  0.13151849079E+01  0.31886059790E+02  0.00000000000E+00 0. -1.
         11    1    3    3    0    0 -0.31972325413E+01  0.57678021839E+01  0.22363970874E+02  0.23316025208E+02  0.51100000000E-03 0. -1.
        -11    1    3    3    0    0 -0.11702753926E+02  0.94616096036E+01 -0.14348746241E+02  0.20793340874E+02  0.51100000000E-03 0.  1.
         12    1    3    3    0    0 -0.11793406340E+02  0.21617893799E+01 -0.93304095414E+01  0.15192574128E+02  0.00000000000E+00 0. -1.
</event>
<event>
 7    1  0.4489290E-013  0.5930195E+02  0.7816164E-02  0.1266605E+00
        -11   -1    0    0    0    0  0.00000000000E+00  0.00000000000E+00  0.45593999997E+02  0.45594000000E+02  0.51100000000E-03 0.  1.
         11   -1    0    0    0    0 -0.00000000000E+00 -0.00000000000E+00 -0.45593999997E+02  0.45594000000E+02  0.51100000000E-03 0. -1.
    9900012    2    1    2    0    0  0.29121430697E+02 -0.10900616091E+02  0.70596652011E+01  0.59301952428E+02  0.50000015320E+02 0.  0.
         12    1    1    2    0    0 -0.29121430697E+02  0.10900616091E+02 -0.70596652011E+01  0.31886047572E+02  0.00000000000E+00 0. -1.
         11    1    3    3    0    0  0.27012583469E+02  0.97325413134E+01  0.17637285720E+02  0.33696822905E+02  0.51100000000E-03 0. -1.
        -11    1    3    3    0    0  0.33522642712E+01 -0.19266702658E+02 -0.56704086411E+01  0.20361656158E+02  0.51100000000E-03 0.  1.
         12    1    3    3    0    0 -0.12434170433E+01 -0.13664547467E+01 -0.49072118774E+01  0.52434733648E+01  0.00000000000E+00 0. -1.
</event>
<event>
 7    1  0.4489290E-013  0.5930194E+02  0.7816164E-02  0.1266605E+00
        -11   -1    0    0    0    0  0.00000000000E+00  0.00000000000E+00  0.45593999997E+02  0.45594000000E+02  0.51100000000E-03 0. -1.
         11   -1    0    0    0    0 -0.00000000000E+00 -0.00000000000E+00 -0.45593999997E+02  0.45594000000E+02  0.51100000000E-03 0.  1.
    9900012    2    1    2    0    0 -0.23793094094E+02  0.15181708859E+02  0.14836609612E+02  0.59301943561E+02  0.49999999149E+02 0.  0.
         12    1    1    2    0    0  0.23793094094E+02 -0.15181708859E+02 -0.14836609612E+02  0.31886056439E+02  0.00000000000E+00 0. -1.
         11    1    3    3    0    0 -0.17461488215E+01  0.57774144010E+01  0.18308695072E+02  0.19277859538E+02  0.51100000000E-03 0. -1.
        -11    1    3    3    0    0 -0.64288322509E+01 -0.76085333826E+01 -0.11828680936E+02  0.15464066648E+02  0.51100000000E-03 0.  1.
        -12    1    3    3    0    0 -0.15618113022E+02  0.17012827841E+02  0.83565954757E+01  0.24560017375E+02  0.00000000000E+00 0.  1.
</event>
<event>
 7    1  0.4489290E-013  0.5930192E+02  0.7816164E-02  0.1266605E+00
        -11   -1    0    0    0    0  0.00000000000E+00  0.00000000000E+00  0.45593999997E+02  0.45594000000E+02  0.51100000000E-03 0.  1.
         11   -1    0    0    0    0 -0.00000000000E+00 -0.00000000000E+00 -0.45593999997E+02  0.45594000000E+02  0.51100000000E-03 0. -1.
    9900012    2    1    2    0    0 -0.29931073639E+02  0.80157720384E+01  0.75233352009E+01  0.59301916153E+02  0.49999949164E+02 0.  0.
         12    1    1    2    0    0  0.29931073639E+02 -0.80157720384E+01 -0.75233352009E+01  0.31886083847E+02  0.00000000000E+00 0. -1.
         11    1    3    3    0    0  0.47121828602E+01 -0.25193912110E+01  0.99322085683E+00  0.54349321352E+01  0.51100000000E-03 0. -1.
        -11    1    3    3    0    0 -0.16321254737E+02  0.22389859596E+01 -0.16482530287E+02  0.23303867045E+02  0.51100000000E-03 0.  1.
        -12    1    3    3    0    0 -0.18322001762E+02  0.82961772898E+01  0.23012644631E+02  0.30563116973E+02  0.00000000000E+00 0.  1.
</event>
<event>
 7    1  0.4489290E-013  0.5930167E+02  0.7816164E-02  0.1266606E+00
        -11   -1    0    0    0    0  0.00000000000E+00  0.00000000000E+00  0.45593999997E+02  0.45594000000E+02  0.51100000000E-03 0. -1.
         11   -1    0    0    0    0 -0.00000000000E+00 -0.00000000000E+00 -0.45593999997E+02  0.45594000000E+02  0.51100000000E-03 0.  1.
    9900012    2    1    2    0    0 -0.75218718940E+01 -0.61293913188E+00 -0.30980374042E+02  0.59301673354E+02  0.49999506354E+02 0.  0.
         12    1    1    2    0    0  0.75218718940E+01  0.61293913188E+00  0.30980374042E+02  0.31886326646E+02  0.00000000000E+00 0. -1.
         11    1    3    3    0    0 -0.11071044564E+02  0.81195323479E+01 -0.48098678559E+01  0.14547496773E+02  0.51100000000E-03 0. -1.
        -11    1    3    3    0    0  0.70193707097E+01 -0.21125488492E+02 -0.10908265424E+02  0.24790080355E+02  0.51100000000E-03 0.  1.
        -12    1    3    3    0    0 -0.34701980394E+01  0.12393017012E+02 -0.15262240762E+02  0.19964096227E+02  0.00000000000E+00 0.  1.
</event>
<event>
 7    1  0.4489290E-013  0.5930197E+02  0.7816164E-02  0.1266605E+00
        -11   -1    0    0    0    0  0.00000000000E+00  0.00000000000E+00  0.45593999997E+02  0.45594000000E+02  0.51100000000E-03 0.  1.
         11   -1    0    0    0    0 -0.00000000000E+00 -0.00000000000E+00 -0.45593999997E+02  0.45594000000E+02  0.51100000000E-03 0. -1.
    9900012    2    1    2    0    0  0.15825040033E+02  0.19347289400E+02  0.19798225061E+02  0.59301965208E+02  0.50000038627E+02 0.  0.
         12    1    1    2    0    0 -0.15825040033E+02 -0.19347289400E+02 -0.19798225061E+02  0.31886034792E+02  0.00000000000E+00 0. -1.
         11    1    3    3    0    0  0.22320682193E+02  0.18912953217E+02  0.15298999350E+02  0.33014724508E+02  0.51100000000E-03 0. -1.
        -11    1    3    3    0    0 -0.10454072816E+02  0.23015275702E+01  0.12931275312E+02  0.16786975578E+02  0.51100000000E-03 0.  1.
         12    1    3    3    0    0  0.39584306554E+01 -0.18671913866E+01 -0.84320496006E+01  0.95002651223E+01  0.00000000000E+00 0. -1.
</event>
<event>
 7    1  0.4489290E-013  0.5930194E+02  0.7816164E-02  0.1266605E+00
        -11   -1    0    0    0    0  0.00000000000E+00  0.00000000000E+00  0.45593999997E+02  0.45594000000E+02  0.51100000000E-03 0.  1.
         11   -1    0    0    0    0 -0.00000000000E+00 -0.00000000000E+00 -0.45593999997E+02  0.45594000000E+02  0.51100000000E-03 0. -1.
    9900012    2    1    2    0    0  0.85066537789E+01  0.26763255033E+02  0.15102503691E+02  0.59301943545E+02  0.49999999120E+02 0.  0.
         12    1    1    2    0    0 -0.85066537789E+01 -0.26763255033E+02 -0.15102503691E+02  0.31886056455E+02  0.00000000000E+00 0. -1.
         11    1    3    3    0    0 -0.11078578750E+02 -0.12590985149E+01  0.81496345770E+01  0.13810748720E+02  0.51100000000E-03 0. -1.
        -11    1    3    3    0    0  0.18140477373E+02  0.64320007962E+01 -0.61365468105E+01  0.20201602921E+02  0.51100000000E-03 0.  1.
        -12    1    3    3    0    0  0.14447551560E+01  0.21590352752E+02  0.13089415925E+02  0.25289591904E+02  0.00000000000E+00 0.  1.
</event>
<event>
 7    1  0.4489290E-013  0.5930195E+02  0.7816164E-02  0.1266605E+00
        -11   -1    0    0    0    0  0.00000000000E+00  0.00000000000E+00  0.45593999997E+02  0.45594000000E+02  0.51100000000E-03 0. -1.
         11   -1    0    0    0    0 -0.00000000000E+00 -0.00000000000E+00 -0.45593999997E+02  0.45594000000E+02  0.51100000000E-03 0.  1.
    9900012    2    1    2    0    0 -0.27756083822E+02  0.13778466279E+02 -0.75149202396E+01  0.59301947433E+02  0.50000006210E+02 0.  0.
         12    1    1    2    0    0  0.27756083822E+02 -0.13778466279E+02  0.75149202396E+01  0.31886052567E+02  0.00000000000E+00 0. -1.
         11    1    3    3    0    0 -0.21883850906E+02  0.12797558736E+00  0.18429811779E+02  0.28610789410E+02  0.51100000000E-03 0. -1.
        -11    1    3    3    0    0 -0.44143340387E+01  0.31233946106E+01 -0.11966918977E+02  0.13131987243E+02  0.51100000000E-03 0.  1.
         12    1    3    3    0    0 -0.14578988771E+01  0.10527096081E+02 -0.13977813041E+02  0.17559170779E+02  0.00000000000E+00 0. -1.
</event>
<event>
 7    1  0.4489290E-013  0.5930195E+02  0.7816164E-02  0.1266605E+00
        -11   -1    0    0    0    0  0.00000000000E+00  0.00000000000E+00  0.45593999997E+02  0.45594000000E+02  0.51100000000E-03 0. -1.
         11   -1    0    0    0    0 -0.00000000000E+00 -0.00000000000E+00 -0.45593999997E+02  0.45594000000E+02  0.51100000000E-03 0.  1.
    9900012    2    1    2    0    0 -0.17887326975E+02  0.13044442866E+02 -0.22947901267E+02  0.59301950879E+02  0.50000012495E+02 0.  0.
         12    1    1    2    0    0  0.17887326975E+02 -0.13044442866E+02  0.22947901267E+02  0.31886049121E+02  0.00000000000E+00 0. -1.
         11    1    3    3    0    0  0.14275795551E+02 -0.41638369491E+01 -0.43818294558E+01  0.15502783827E+02  0.51100000000E-03 0. -1.
        -11    1    3    3    0    0 -0.58672682875E+01  0.40983329913E+01 -0.11554529198E+02  0.13591479527E+02  0.51100000000E-03 0.  1.
         12    1    3    3    0    0 -0.26295854238E+02  0.13109946824E+02 -0.70115426127E+01  0.30207687525E+02  0.00000000000E+00 0. -1.
</event>
<event>
 7    1  0.4489290E-013  0.5930194E+02  0.7816164E-02  0.1266605E+00
        -11   -1    0    0    0    0  0.00000000000E+00  0.00000000000E+00  0.45593999997E+02  0.45594000000E+02  0.51100000000E-03 0.  1.
         11   -1    0    0    0    0 -0.00000000000E+00 -0.00000000000E+00 -0.45593999997E+02  0.45594000000E+02  0.51100000000E-03 0. -1.
    9900012    2    1    2    0    0 -0.36829387180E+01  0.22650834186E+02  0.22138118322E+02  0.59301943333E+02  0.49999998733E+02 0.  0.
         12    1    1    2    0    0  0.36829387180E+01 -0.22650834186E+02 -0.22138118322E+02  0.31886056667E+02  0.00000000000E+00 0. -1.
         11    1    3    3    0    0  0.17557463494E+02  0.21008740332E+02  0.90353763491E+01  0.28831748485E+02  0.51100000000E-03 0. -1.
        -11    1    3    3    0    0 -0.21062544674E+02 -0.43331919724E+01  0.96827968725E+01  0.23583127366E+02  0.51100000000E-03 0.  1.
        -12    1    3    3    0    0 -0.17785753816E+00  0.59752858270E+01  0.34199450998E+01  0.68870674822E+01  0.00000000000E+00 0.  1.
</event>
<event>
 7    1  0.4489290E-013  0.5930196E+02  0.7816164E-02  0.1266605E+00
        -11   -1    0    0    0    0  0.00000000000E+00  0.00000000000E+00  0.45593999997E+02  0.45594000000E+02  0.51100000000E-03 0.  1.
         11   -1    0    0    0    0 -0.00000000000E+00 -0.00000000000E+00 -0.45593999997E+02  0.45594000000E+02  0.51100000000E-03 0. -1.
    9900012    2    1    2    0    0  0.34666091417E+01  0.13625436194E+02  0.28619043685E+02  0.59301959922E+02  0.50000028987E+02 0.  0.
         12    1    1    2    0    0 -0.34666091417E+01 -0.13625436194E+02 -0.28619043685E+02  0.31886040078E+02  0.00000000000E+00 0. -1.
         11    1    3    3    0    0 -0.20803100764E+02  0.10833035451E+02  0.15353895198E+02  0.28033297282E+02  0.51100000000E-03 0. -1.
        -11    1    3    3    0    0  0.17495727797E+02  0.40424377260E+01  0.20044688443E+01  0.18068195524E+02  0.51100000000E-03 0.  1.
         12    1    3    3    0    0  0.67739821087E+01 -0.12500369828E+01  0.11260679642E+02  0.13200467116E+02  0.00000000000E+00 0. -1.
</event>
<event>
 7    1  0.4489290E-013  0.5930195E+02  0.7816164E-02  0.1266605E+00
        -11   -1    0    0    0    0  0.00000000000E+00  0.00000000000E+00  0.45593999997E+02  0.45594000000E+02  0.51100000000E-03 0.  1.
         11   -1    0    0    0    0 -0.00000000000E+00 -0.00000000000E+00 -0.45593999997E+02  0.45594000000E+02  0.51100000000E-03 0. -1.
    9900012    2    1    2    0    0 -0.27058264900E+02 -0.71335614122E+01  0.15286683860E+02  0.59301951307E+02  0.50000013275E+02 0.  0.
         12    1    1    2    0    0  0.27058264900E+02  0.71335614122E+01 -0.15286683860E+02  0.31886048693E+02  0.00000000000E+00 0. -1.
         11    1    3    3    0    0 -0.21164127686E+01 -0.74632420445E+01 -0.18344376072E+01  0.79714707814E+01  0.51100000000E-03 0. -1.
        -11    1    3    3    0    0  0.10404756824E+02 -0.66684011843E+01  0.43701923089E+01  0.13108208116E+02  0.51100000000E-03 0.  1.
        -12    1    3    3    0    0 -0.35346608956E+02  0.69980818166E+01  0.12750929158E+02  0.38222272410E+02  0.00000000000E+00 0.  1.
</event>
<event>
 7    1  0.4489290E-013  0.5930194E+02  0.7816164E-02  0.1266605E+00
        -11   -1    0    0    0    0  0.00000000000E+00  0.00000000000E+00  0.45593999997E+02  0.45594000000E+02  0.51100000000E-03 0.  1.
         11   -1    0    0    0    0 -0.00000000000E+00 -0.00000000000E+00 -0.45593999997E+02  0.45594000000E+02  0.51100000000E-03 0. -1.
    9900012    2    1    2    0    0  0.31147189327E+02 -0.57699119080E+01 -0.36443531448E+01  0.59301943545E+02  0.49999999121E+02 0.  0.
         12    1    1    2    0    0 -0.31147189327E+02  0.57699119080E+01  0.36443531448E+01  0.31886056455E+02  0.00000000000E+00 0. -1.
         11    1    3    3    0    0  0.17749296933E+02 -0.93908663784E+01 -0.22116884094E+02  0.29872771469E+02  0.51100000000E-03 0. -1.
        -11    1    3    3    0    0 -0.41126941073E+01 -0.19254613353E+01  0.37238126873E+01  0.58726855326E+01  0.51100000000E-03 0.  1.
         12    1    3    3    0    0  0.17510586501E+02  0.55464158056E+01  0.14748718262E+02  0.23556486544E+02  0.00000000000E+00 0. -1.
</event>
<event>
 7    1  0.4489290E-013  0.5930208E+02  0.7816164E-02  0.1266604E+00
        -11   -1    0    0    0    0  0.00000000000E+00  0.00000000000E+00  0.45593999997E+02  0.45594000000E+02  0.51100000000E-03 0. -1.
         11   -1    0    0    0    0 -0.00000000000E+00 -0.00000000000E+00 -0.45593999997E+02  0.45594000000E+02  0.51100000000E-03 0.  1.
    9900012    2    1    2    0    0  0.73254343572E+01  0.28559143369E+02  0.12141872650E+02  0.59302082577E+02  0.50000252680E+02 0.  0.
         12    1    1    2    0    0 -0.73254343572E+01 -0.28559143369E+02 -0.12141872650E+02  0.31885917423E+02  0.00000000000E+00 0. -1.
         11    1    3    3    0    0  0.70670930169E+00  0.38999392529E+02  0.98060655373E+00  0.39018119447E+02  0.51100000000E-03 0. -1.
        -11    1    3    3    0    0  0.43475281656E+01  0.14288013418E+01  0.15114523125E+01  0.48194359399E+01  0.51100000000E-03 0.  1.
         12    1    3    3    0    0  0.22711968899E+01 -0.11869050503E+02  0.96498137839E+01  0.15464527190E+02  0.00000000000E+00 0. -1.
</event>
<event>
 7    1  0.4489290E-013  0.5930191E+02  0.7816164E-02  0.1266605E+00
        -11   -1    0    0    0    0  0.00000000000E+00  0.00000000000E+00  0.45593999997E+02  0.45594000000E+02  0.51100000000E-03 0. -1.
         11   -1    0    0    0    0 -0.00000000000E+00 -0.00000000000E+00 -0.45593999997E+02  0.45594000000E+02  0.51100000000E-03 0.  1.
    9900012    2    1    2    0    0 -0.27836653327E+02 -0.44333115494E+01 -0.14906011292E+02  0.59301910676E+02  0.49999939175E+02 0.  0.
         12    1    1    2    0    0  0.27836653327E+02  0.44333115494E+01  0.14906011292E+02  0.31886089324E+02  0.00000000000E+00 0. -1.
         11    1    3    3    0    0 -0.24371657348E+01 -0.76114529923E+01  0.23102493256E+01  0.83193296413E+01  0.51100000000E-03 0. -1.
        -11    1    3    3    0    0 -0.15715508082E+02  0.19674097566E+02 -0.19320964451E+02  0.31738729919E+02  0.51100000000E-03 0.  1.
        -12    1    3    3    0    0 -0.96839795097E+01 -0.16495956123E+02  0.21047038334E+01  0.19243851116E+02  0.00000000000E+00 0.  1.
</event>
<event>
 7    1  0.4489290E-013  0.5930201E+02  0.7816164E-02  0.1266605E+00
        -11   -1    0    0    0    0  0.00000000000E+00  0.00000000000E+00  0.45593999997E+02  0.45594000000E+02  0.51100000000E-03 0.  1.
         11   -1    0    0    0    0 -0.00000000000E+00 -0.00000000000E+00 -0.45593999997E+02  0.45594000000E+02  0.51100000000E-03 0. -1.
    9900012    2    1    2    0    0  0.20846598577E+02 -0.59619757464E+01  0.23379277920E+02  0.59302008356E+02  0.50000117319E+02 0.  0.
         12    1    1    2    0    0 -0.20846598577E+02  0.59619757464E+01 -0.23379277920E+02  0.31885991644E+02  0.00000000000E+00 0. -1.
         11    1    3    3    0    0 -0.81914277715E+00  0.17394728350E+02 -0.25828480946E+01  0.17604507201E+02  0.51100000000E-03 0. -1.
        -11    1    3    3    0    0  0.60494026693E+01 -0.97660564299E+01  0.60947692752E+01  0.13004512433E+02  0.51100000000E-03 0.  1.
         12    1    3    3    0    0  0.15616338685E+02 -0.13590647667E+02  0.19867356740E+02  0.28692988721E+02  0.00000000000E+00 0. -1.
</event>
<event>
 7    1  0.4489290E-013  0.5930195E+02  0.7816164E-02  0.1266605E+00
        -11   -1    0    0    0    0  0.00000000000E+00  0.00000000000E+00  0.45593999997E+02  0.45594000000E+02  0.51100000000E-03 0. -1.
         11   -1    0    0    0    0 -0.00000000000E+00 -0.00000000000E+00 -0.45593999997E+02  0.45594000000E+02  0.51100000000E-03 0.  1.
    9900012    2    1    2    0    0  0.94834235700E+01 -0.20048970971E+02 -0.22909030168E+02  0.59301949400E+02  0.50000009798E+02 0.  0.
         12    1    1    2    0    0 -0.94834235700E+01  0.20048970971E+02  0.22909030168E+02  0.31886050600E+02  0.00000000000E+00 0. -1.
         11    1    3    3    0    0  0.16139168380E+01  0.63345219423E+01 -0.17312272321E+02  0.18505287595E+02  0.51100000000E-03 0. -1.
        -11    1    3    3    0    0  0.18949040954E+02 -0.16315665993E+02 -0.59418926650E+00  0.25012400345E+02  0.51100000000E-03 0.  1.
        -12    1    3    3    0    0 -0.11079534222E+02 -0.10067826920E+02 -0.50025685812E+01  0.15784261461E+02  0.00000000000E+00 0.  1.
</event>
<event>
 7    1  0.4489290E-013  0.5930195E+02  0.7816164E-02  0.1266605E+00
        -11   -1    0    0    0    0  0.00000000000E+00  0.00000000000E+00  0.45593999997E+02  0.45594000000E+02  0.51100000000E-03 0.  1.
         11   -1    0    0    0    0 -0.00000000000E+00 -0.00000000000E+00 -0.45593999997E+02  0.45594000000E+02  0.51100000000E-03 0. -1.
    9900012    2    1    2    0    0  0.27131705864E+00 -0.45121276736E+01  0.31564017040E+02  0.59301951628E+02  0.50000013861E+02 0.  0.
         12    1    1    2    0    0 -0.27131705864E+00  0.45121276736E+01 -0.31564017040E+02  0.31886048372E+02  0.00000000000E+00 0. -1.
         11    1    3    3    0    0 -0.23255072375E+02  0.48008993399E+01  0.17519762736E+02  0.29509136081E+02  0.51100000000E-03 0. -1.
        -11    1    3    3    0    0  0.56390719285E+01 -0.25413084817E+01  0.21192809437E+00  0.61888847778E+01  0.51100000000E-03 0.  1.
         12    1    3    3    0    0  0.17887317505E+02 -0.67717185319E+01  0.13832326210E+02  0.23603930769E+02  0.00000000000E+00 0. -1.
</event>
<event>
 7    1  0.4489290E-013  0.5930189E+02  0.7816164E-02  0.1266605E+00
        -11   -1    0    0    0    0  0.00000000000E+00  0.00000000000E+00  0.45593999997E+02  0.45594000000E+02  0.51100000000E-03 0. -1.
         11   -1    0    0    0    0 -0.00000000000E+00 -0.00000000000E+00 -0.45593999997E+02  0.45594000000E+02  0.51100000000E-03 0.  1.
    9900012    2    1    2    0    0 -0.17304814994E+02  0.11834809898E+02 -0.24025081439E+02  0.59301891968E+02  0.49999905055E+02 0.  0.
         12    1    1    2    0    0  0.17304814994E+02 -0.11834809898E+02  0.24025081439E+02  0.31886108032E+02  0.00000000000E+00 0. -1.
         11    1    3    3    0    0  0.11418088312E+02  0.64609792188E+01  0.79110852349E+01  0.15319995530E+02  0.51100000000E-03 0. -1.
        -11    1    3    3    0    0 -0.10603064372E+02  0.66201222207E+00 -0.16932881791E+02  0.19989640323E+02  0.51100000000E-03 0.  1.
         12    1    3    3    0    0 -0.18119838935E+02  0.47118184571E+01 -0.15003284883E+02  0.23992256115E+02  0.00000000000E+00 0. -1.
</event>
<event>
 7    1  0.4489290E-013  0.5930201E+02  0.7816164E-02  0.1266605E+00
        -11   -1    0    0    0    0  0.00000000000E+00  0.00000000000E+00  0.45593999997E+02  0.45594000000E+02  0.51100000000E-03 0. -1.
         11   -1    0    0    0    0 -0.00000000000E+00 -0.00000000000E+00 -0.45593999997E+02  0.45594000000E+02  0.51100000000E-03 0.  1.
    9900012    2    1    2    0    0  0.84880910583E+01 -0.85199419330E+01 -0.29530993088E+02  0.59302005376E+02  0.50000111885E+02 0.  0.
         12    1    1    2    0    0 -0.84880910583E+01  0.85199419330E+01  0.29530993088E+02  0.31885994624E+02  0.00000000000E+00 0. -1.
         11    1    3    3    0    0 -0.48683589227E+01 -0.75604146975E+01  0.11928047284E+02  0.14937841252E+02  0.51100000000E-03 0. -1.
        -11    1    3    3    0    0  0.49616528095E+01 -0.43120080342E+01 -0.14256251257E+02  0.15698793331E+02  0.51100000000E-03 0.  1.
         12    1    3    3    0    0  0.83947971715E+01  0.33524807986E+01 -0.27202789115E+02  0.28665370793E+02  0.00000000000E+00 0. -1.
</event>
<event>
 7    1  0.4489290E-013  0.5930194E+02  0.7816164E-02  0.1266605E+00
        -11   -1    0    0    0    0  0.00000000000E+00  0.00000000000E+00  0.45593999997E+02  0.45594000000E+02  0.51100000000E-03 0. -1.
         11   -1    0    0    0    0 -0.00000000000E+00 -0.00000000000E+00 -0.45593999997E+02  0.45594000000E+02  0.51100000000E-03 0.  1.
    9900012    2    1    2    0    0 -0.21786346720E+02 -0.21163759235E+02  0.97041863300E+01  0.59301939712E+02  0.49999992130E+02 0.  0.
         12    1    1    2    0    0  0.21786346720E+02  0.21163759235E+02 -0.97041863300E+01  0.31886060288E+02  0.00000000000E+00 0. -1.
         11    1    3    3    0    0 -0.75980010189E+01 -0.16037414713E+02  0.39875028551E+01  0.18188690701E+02  0.51100000000E-03 0. -1.
        -11    1    3    3    0    0  0.54067694893E+01  0.51010885722E+00 -0.12589891488E+02  0.13711263082E+02  0.51100000000E-03 0.  1.
        -12    1    3    3    0    0 -0.19595115190E+02 -0.56364533794E+01  0.18306574963E+02  0.27401985929E+02  0.00000000000E+00 0.  1.
</event>
<event>
 7    1  0.4489290E-013  0.5930194E+02  0.7816164E-02  0.1266605E+00
        -11   -1    0    0    0    0  0.00000000000E+00  0.00000000000E+00  0.45593999997E+02  0.45594000000E+02  0.51100000000E-03 0.  1.
         11   -1    0    0    0    0 -0.00000000000E+00 -0.00000000000E+00 -0.45593999997E+02  0.45594000000E+02  0.51100000000E-03 0. -1.
    9900012    2    1    2    0    0 -0.14598933357E+02  0.13699601889E+02  0.24817585977E+02  0.59301944728E+02  0.50000001277E+02 0.  0.
         12    1    1    2    0    0  0.14598933357E+02 -0.13699601889E+02 -0.24817585977E+02  0.31886055272E+02  0.00000000000E+00 0. -1.
         11    1    3    3    0    0  0.38607613975E+00 -0.10821313329E+02 -0.92598952781E+01  0.14247650255E+02  0.51100000000E-03 0. -1.
        -11    1    3    3    0    0 -0.86249207049E+01  0.11184001953E+02  0.12249309476E+02  0.18695366799E+02  0.51100000000E-03 0.  1.
         12    1    3    3    0    0 -0.63600887922E+01  0.13336913265E+02  0.21828171779E+02  0.26358927674E+02  0.00000000000E+00 0. -1.
</event>
<event>
 7    1  0.4489290E-013  0.5930192E+02  0.7816164E-02  0.1266605E+00
        -11   -1    0    0    0    0  0.00000000000E+00  0.00000000000E+00  0.45593999997E+02  0.45594000000E+02  0.51100000000E-03 0. -1.
         11   -1    0    0    0    0 -0.00000000000E+00 -0.00000000000E+00 -0.45593999997E+02  0.45594000000E+02  0.51100000000E-03 0.  1.
    9900012    2    1    2    0    0  0.10859134559E+02 -0.27663237109E+02  0.11556232492E+02  0.59301921531E+02  0.49999958972E+02 0.  0.
         12    1    1    2    0    0 -0.10859134559E+02  0.27663237109E+02 -0.11556232492E+02  0.31886078469E+02  0.00000000000E+00 0. -1.
         11    1    3    3    0    0  0.87485537994E+01 -0.19006571552E+02  0.25803304261E+02  0.33220437486E+02  0.51100000000E-03 0. -1.
        -11    1    3    3    0    0 -0.71745672154E+01 -0.86638533195E+01 -0.32916066054E+01  0.11720556445E+02  0.51100000000E-03 0.  1.
         12    1    3    3    0    0  0.92851479750E+01  0.71877627837E-02 -0.10955465164E+02  0.14360927600E+02  0.00000000000E+00 0. -1.
</event>
<event>
 7    1  0.4489290E-013  0.5930197E+02  0.7816164E-02  0.1266605E+00
        -11   -1    0    0    0    0  0.00000000000E+00  0.00000000000E+00  0.45593999997E+02  0.45594000000E+02  0.51100000000E-03 0.  1.
         11   -1    0    0    0    0 -0.00000000000E+00 -0.00000000000E+00 -0.45593999997E+02  0.45594000000E+02  0.51100000000E-03 0. -1.
    9900012    2    1    2    0    0 -0.37605206638E+01  0.75259263415E+01  0.30756102685E+02  0.59301969590E+02  0.50000046619E+02 0.  0.
         12    1    1    2    0    0  0.37605206638E+01 -0.75259263415E+01 -0.30756102685E+02  0.31886030410E+02  0.00000000000E+00 0. -1.
         11    1    3    3    0    0 -0.19454306196E+02  0.21050565181E+01 -0.39423522427E+01  0.19961047918E+02  0.51100000000E-03 0. -1.
        -11    1    3    3    0    0  0.11966642532E+02  0.48525131558E+01  0.17584272325E+02  0.21816371167E+02  0.51100000000E-03 0.  1.
         12    1    3    3    0    0  0.37271429998E+01  0.56835666763E+00  0.17114182602E+02  0.17524550505E+02  0.00000000000E+00 0. -1.
</event>
<event>
 7    1  0.4489290E-013  0.5930195E+02  0.7816164E-02  0.1266605E+00
        -11   -1    0    0    0    0  0.00000000000E+00  0.00000000000E+00  0.45593999997E+02  0.45594000000E+02  0.51100000000E-03 0.  1.
         11   -1    0    0    0    0 -0.00000000000E+00 -0.00000000000E+00 -0.45593999997E+02  0.45594000000E+02  0.51100000000E-03 0. -1.
    9900012    2    1    2    0    0 -0.28314468487E+02 -0.23773786864E+01  0.14469248693E+02  0.59301949557E+02  0.50000010085E+02 0.  0.
         12    1    1    2    0    0  0.28314468487E+02  0.23773786864E+01 -0.14469248693E+02  0.31886050443E+02  0.00000000000E+00 0. -1.
         11    1    3    3    0    0  0.48150333590E+01  0.29190475320E+01  0.16893158546E+02  0.17806857967E+02  0.51100000000E-03 0.  1.
        -11    1    3    3    0    0 -0.28528912805E+02 -0.13767720471E+02 -0.31171779484E+01  0.31830265338E+02  0.51100000000E-03 0. -1.
         12    1    3    3    0    0 -0.46005890404E+01  0.84712942531E+01  0.69326809537E+00  0.96648262526E+01  0.00000000000E+00 0. -1.
</event>
<event>
 7    1  0.4489290E-013  0.5930196E+02  0.7816164E-02  0.1266605E+00
        -11   -1    0    0    0    0  0.00000000000E+00  0.00000000000E+00  0.45593999997E+02  0.45594000000E+02  0.51100000000E-03 0.  1.
         11   -1    0    0    0    0 -0.00000000000E+00 -0.00000000000E+00 -0.45593999997E+02  0.45594000000E+02  0.51100000000E-03 0. -1.
    9900012    2    1    2    0    0 -0.17138574224E+02  0.21883345230E+02  0.15623957491E+02  0.59301959598E+02  0.50000028396E+02 0.  0.
         12    1    1    2    0    0  0.17138574224E+02 -0.21883345230E+02 -0.15623957491E+02  0.31886040402E+02  0.00000000000E+00 0. -1.
         11    1    3    3    0    0 -0.32563901909E+02  0.17467242778E+02  0.11106374427E+00  0.36953005469E+02  0.51100000000E-03 0. -1.
        -11    1    3    3    0    0  0.12104909800E+02  0.38243433953E+01  0.12706490630E+02  0.17961329240E+02  0.51100000000E-03 0.  1.
         12    1    3    3    0    0  0.33204178849E+01  0.59175905677E+00  0.28064031165E+01  0.43876248886E+01  0.00000000000E+00 0. -1.
</event>
<event>
 7    1  0.4489290E-013  0.5930200E+02  0.7816164E-02  0.1266605E+00
        -11   -1    0    0    0    0  0.00000000000E+00  0.00000000000E+00  0.45593999997E+02  0.45594000000E+02  0.51100000000E-03 0.  1.
         11   -1    0    0    0    0 -0.00000000000E+00 -0.00000000000E+00 -0.45593999997E+02  0.45594000000E+02  0.51100000000E-03 0. -1.
    9900012    2    1    2    0    0  0.36526083166E+01  0.12492949455E+02  0.29108442899E+02  0.59302003362E+02  0.50000108211E+02 0.  0.
         12    1    1    2    0    0 -0.36526083166E+01 -0.12492949455E+02 -0.29108442899E+02  0.31885996638E+02  0.00000000000E+00 0. -1.
         11    1    3    3    0    0 -0.85611258314E+00  0.18822218592E+01 -0.63738148790E+01  0.67008360863E+01  0.51100000000E-03 0. -1.
        -11    1    3    3    0    0  0.13765033333E+02  0.20568158407E+02  0.18795371756E+02  0.31077182669E+02  0.51100000000E-03 0.  1.
        -12    1    3    3    0    0 -0.92563124333E+01 -0.99574308113E+01  0.16686886022E+02  0.21523984606E+02  0.00000000000E+00 0.  1.
</event>
<event>
 7    1  0.4489290E-013  0.5930194E+02  0.7816164E-02  0.1266605E+00
        -11   -1    0    0    0    0  0.00000000000E+00  0.00000000000E+00  0.45593999997E+02  0.45594000000E+02  0.51100000000E-03 0. -1.
         11   -1    0    0    0    0 -0.00000000000E+00 -0.00000000000E+00 -0.45593999997E+02  0.45594000000E+02  0.51100000000E-03 0.  1.
    9900012    2    1    2    0    0  0.60053229130E+01 -0.51396067187E+01 -0.30890796301E+02  0.59301941030E+02  0.49999994533E+02 0.  0.
         12    1    1    2    0    0 -0.60053229130E+01  0.51396067187E+01  0.30890796301E+02  0.31886058970E+02  0.00000000000E+00 0. -1.
         11    1    3    3    0    0  0.14052439717E+02 -0.87528239941E+01  0.50020115821E+01  0.17294597711E+02  0.51100000000E-03 0. -1.
        -11    1    3    3    0    0 -0.14251655646E+02 -0.19878811569E+00 -0.26835136642E+02  0.30385420257E+02  0.51100000000E-03 0.  1.
         12    1    3    3    0    0  0.62045388419E+01  0.38120053911E+01 -0.90576712414E+01  0.11621923062E+02  0.00000000000E+00 0. -1.
</event>
<event>
 7    1  0.4489290E-013  0.5930196E+02  0.7816164E-02  0.1266605E+00
        -11   -1    0    0    0    0  0.00000000000E+00  0.00000000000E+00  0.45593999997E+02  0.45594000000E+02  0.51100000000E-03 0.  1.
         11   -1    0    0    0    0 -0.00000000000E+00 -0.00000000000E+00 -0.45593999997E+02  0.45594000000E+02  0.51100000000E-03 0. -1.
    9900012    2    1    2    0    0 -0.70972638736E+01 -0.51078139701E+01  0.30663636299E+02  0.59301960592E+02  0.50000030210E+02 0.  0.
         12    1    1    2    0    0  0.70972638736E+01  0.51078139701E+01 -0.30663636299E+02  0.31886039408E+02  0.00000000000E+00 0. -1.
         11    1    3    3    0    0 -0.93748520788E+00  0.11798041756E+02  0.81647878992E+01  0.14378331944E+02  0.51100000000E-03 0. -1.
        -11    1    3    3    0    0 -0.71048523356E+00 -0.18373005507E+02 -0.31558219699E+01  0.18655597905E+02  0.51100000000E-03 0.  1.
        -12    1    3    3    0    0 -0.54492934322E+01  0.14671497802E+01  0.25654670369E+02  0.26268030744E+02  0.00000000000E+00 0.  1.
</event>
<event>
 7    1  0.4489290E-013  0.5930195E+02  0.7816164E-02  0.1266605E+00
        -11   -1    0    0    0    0  0.00000000000E+00  0.00000000000E+00  0.45593999997E+02  0.45594000000E+02  0.51100000000E-03 0.  1.
         11   -1    0    0    0    0 -0.00000000000E+00 -0.00000000000E+00 -0.45593999997E+02  0.45594000000E+02  0.51100000000E-03 0. -1.
    9900012    2    1    2    0    0 -0.43761543244E+01 -0.26598907445E+02  0.17031366346E+02  0.59301952212E+02  0.50000014926E+02 0.  0.
         12    1    1    2    0    0  0.43761543244E+01  0.26598907445E+02 -0.17031366346E+02  0.31886047788E+02  0.00000000000E+00 0. -1.
         11    1    3    3    0    0 -0.18162045071E+02 -0.30740015169E+02  0.12885202660E+02  0.37958356940E+02  0.51100000000E-03 0. -1.
        -11    1    3    3    0    0  0.14401067506E+01  0.32259789880E+00  0.77806742035E+01  0.79193982208E+01  0.51100000000E-03 0.  1.
         12    1    3    3    0    0  0.12345783996E+02  0.38185098255E+01 -0.36345105180E+01  0.13424197051E+02  0.00000000000E+00 0. -1.
</event>
<event>
 7    1  0.4489290E-013  0.5930194E+02  0.7816164E-02  0.1266605E+00
        -11   -1    0    0    0    0  0.00000000000E+00  0.00000000000E+00  0.45593999997E+02  0.45594000000E+02  0.51100000000E-03 0. -1.
         11   -1    0    0    0    0 -0.00000000000E+00 -0.00000000000E+00 -0.45593999997E+02  0.45594000000E+02  0.51100000000E-03 0.  1.
    9900012    2    1    2    0    0 -0.55895450000E+01  0.31092635278E+02  0.43273123994E+01  0.59301943260E+02  0.49999998600E+02 0.  0.
         12    1    1    2    0    0  0.55895450000E+01 -0.31092635278E+02 -0.43273123994E+01  0.31886056740E+02  0.00000000000E+00 0. -1.
         11    1    3    3    0    0  0.70243414484E+01  0.93967668025E+01 -0.39797159943E+01  0.12388653631E+02  0.51100000000E-03 0. -1.
        -11    1    3    3    0    0 -0.18724259415E+02  0.24303338100E+02 -0.58887905270E+01  0.31239846151E+02  0.51100000000E-03 0.  1.
        -12    1    3    3    0    0  0.61103729664E+01 -0.26074696246E+01  0.14195818921E+02  0.15673443478E+02  0.00000000000E+00 0.  1.
</event>
<event>
 7    1  0.4489290E-013  0.5930198E+02  0.7816164E-02  0.1266605E+00
        -11   -1    0    0    0    0  0.00000000000E+00  0.00000000000E+00  0.45593999997E+02  0.45594000000E+02  0.51100000000E-03 0.  1.
         11   -1    0    0    0    0 -0.00000000000E+00 -0.00000000000E+00 -0.45593999997E+02  0.45594000000E+02  0.51100000000E-03 0. -1.
    9900012    2    1    2    0    0 -0.27481356210E+02  0.16139413502E+02  0.10064609503E+01  0.59301975303E+02  0.50000057039E+02 0.  0.
         12    1    1    2    0    0  0.27481356210E+02 -0.16139413502E+02 -0.10064609503E+01  0.31886024697E+02  0.00000000000E+00 0. -1.
         11    1    3    3    0    0 -0.10456733731E+02 -0.11820083536E+02 -0.35691872955E-01  0.15781600974E+02  0.51100000000E-03 0. -1.
        -11    1    3    3    0    0  0.73413215295E+01  0.12921452312E+02 -0.16153641066E+00  0.14862201248E+02  0.51100000000E-03 0.  1.
        -12    1    3    3    0    0 -0.24365944009E+02  0.15038044726E+02  0.12036892339E+01  0.28658173082E+02  0.00000000000E+00 0.  1.
</event>
<event>
 7    1  0.4489290E-013  0.5930196E+02  0.7816164E-02  0.1266605E+00
        -11   -1    0    0    0    0  0.00000000000E+00  0.00000000000E+00  0.45593999997E+02  0.45594000000E+02  0.51100000000E-03 0.  1.
         11   -1    0    0    0    0 -0.00000000000E+00 -0.00000000000E+00 -0.45593999997E+02  0.45594000000E+02  0.51100000000E-03 0. -1.
    9900012    2    1    2    0    0  0.10292955170E+02  0.23229605982E+02  0.19265521164E+02  0.59301955624E+02  0.50000021150E+02 0.  0.
         12    1    1    2    0    0 -0.10292955170E+02 -0.23229605982E+02 -0.19265521164E+02  0.31886044376E+02  0.00000000000E+00 0. -1.
         11    1    3    3    0    0 -0.85256189194E+01 -0.33685809221E+01 -0.15779248349E+00  0.91683375874E+01  0.51100000000E-03 0. -1.
        -11    1    3    3    0    0  0.24828330311E+02  0.13647930505E+02  0.31833969088E+01  0.28510454385E+02  0.51100000000E-03 0.  1.
        -12    1    3    3    0    0 -0.60097562215E+01  0.12950256399E+02  0.16239916739E+02  0.21623163652E+02  0.00000000000E+00 0.  1.
</event>
<event>
 7    1  0.4489290E-013  0.5930192E+02  0.7816164E-02  0.1266605E+00
        -11   -1    0    0    0    0  0.00000000000E+00  0.00000000000E+00  0.45593999997E+02  0.45594000000E+02  0.51100000000E-03 0. -1.
         11   -1    0    0    0    0 -0.00000000000E+00 -0.00000000000E+00 -0.45593999997E+02  0.45594000000E+02  0.51100000000E-03 0.  1.
    9900012    2    1    2    0    0  0.13005588262E+02 -0.26333111740E+02  0.12415484212E+02  0.59301916074E+02  0.49999949019E+02 0.  0.
         12    1    1    2    0    0 -0.13005588262E+02  0.26333111740E+02 -0.12415484212E+02  0.31886083926E+02  0.00000000000E+00 0. -1.
         11    1    3    3    0    0  0.85330704362E+01  0.17375532509E+00  0.15288914428E+02  0.17509836854E+02  0.51100000000E-03 0. -1.
        -11    1    3    3    0    0  0.35091511870E+01 -0.30977876568E+02 -0.10502157932E+02  0.32897390478E+02  0.51100000000E-03 0.  1.
        -12    1    3    3    0    0  0.96336663835E+00  0.44710095036E+01  0.76287277160E+01  0.88946887425E+01  0.00000000000E+00 0.  1.
</event>
<event>
 7    1  0.4489290E-013  0.5930197E+02  0.7816164E-02  0.1266605E+00
        -11   -1    0    0    0    0  0.00000000000E+00  0.00000000000E+00  0.45593999997E+02  0.45594000000E+02  0.51100000000E-03 0. -1.
         11   -1    0    0    0    0 -0.00000000000E+00 -0.00000000000E+00 -0.45593999997E+02  0.45594000000E+02  0.51100000000E-03 0.  1.
    9900012    2    1    2    0    0 -0.25055119334E+02  0.18649681371E+02  0.64147756169E+01  0.59301969104E+02  0.50000045733E+02 0.  0.
         12    1    1    2    0    0  0.25055119334E+02 -0.18649681371E+02 -0.64147756169E+01  0.31886030896E+02  0.00000000000E+00 0. -1.
         11    1    3    3    0    0  0.87839553732E+01  0.97030279255E+01  0.23962235078E+01  0.13305957699E+02  0.51100000000E-03 0. -1.
        -11    1    3    3    0    0 -0.31342522859E+02 -0.43813137032E+00 -0.61412583386E+01  0.31941520823E+02  0.51100000000E-03 0.  1.
        -12    1    3    3    0    0 -0.24965518485E+01  0.93847848159E+01  0.10159810448E+02  0.14054490582E+02  0.00000000000E+00 0.  1.
</event>
<event>
 7    1  0.4489290E-013  0.5930195E+02  0.7816164E-02  0.1266605E+00
        -11   -1    0    0    0    0  0.00000000000E+00  0.00000000000E+00  0.45593999997E+02  0.45594000000E+02  0.51100000000E-03 0.  1.
         11   -1    0    0    0    0 -0.00000000000E+00 -0.00000000000E+00 -0.45593999997E+02  0.45594000000E+02  0.51100000000E-03 0. -1.
    9900012    2    1    2    0    0 -0.20315032776E+02 -0.17564930250E+02  0.17189904709E+02  0.59301950460E+02  0.50000011731E+02 0.  0.
         12    1    1    2    0    0  0.20315032776E+02  0.17564930250E+02 -0.17189904709E+02  0.31886049540E+02  0.00000000000E+00 0. -1.
         11    1    3    3    0    0 -0.18157678601E+02 -0.29674850538E+01 -0.77731262071E+01  0.19973200820E+02  0.51100000000E-03 0. -1.
        -11    1    3    3    0    0  0.51986052177E+01  0.63337294739E+01  0.71984561193E+01  0.10906850876E+02  0.51100000000E-03 0.  1.
         12    1    3    3    0    0 -0.73559593931E+01 -0.20931174670E+02  0.17764574797E+02  0.28421898764E+02  0.00000000000E+00 0. -1.
</event>
<event>
 7    1  0.4489290E-013  0.5930192E+02  0.7816164E-02  0.1266605E+00
        -11   -1    0    0    0    0  0.00000000000E+00  0.00000000000E+00  0.45593999997E+02  0.45594000000E+02  0.51100000000E-03 0.  1.
         11   -1    0    0    0    0 -0.00000000000E+00 -0.00000000000E+00 -0.45593999997E+02  0.45594000000E+02  0.51100000000E-03 0. -1.
    9900012    2    1    2    0    0 -0.17533313354E+02  0.12688008794E+02  0.23416218831E+02  0.59301922338E+02  0.49999960443E+02 0.  0.
         12    1    1    2    0    0  0.17533313354E+02 -0.12688008794E+02 -0.23416218831E+02  0.31886077662E+02  0.00000000000E+00 0. -1.
         11    1    3    3    0    0  0.10295838313E+02 -0.55013259684E+01  0.36758595225E+01  0.12238497353E+02  0.51100000000E-03 0. -1.
        -11    1    3    3    0    0 -0.28343912864E+02  0.22184782616E+02  0.22251556212E+02  0.42316352989E+02  0.51100000000E-03 0.  1.
        -12    1    3    3    0    0  0.51476119678E+00 -0.39954478538E+01 -0.25111969039E+01  0.47470719957E+01  0.00000000000E+00 0.  1.
</event>
<event>
 7    1  0.4489290E-013  0.5930194E+02  0.7816164E-02  0.1266605E+00
        -11   -1    0    0    0    0  0.00000000000E+00  0.00000000000E+00  0.45593999997E+02  0.45594000000E+02  0.51100000000E-03 0.  1.
         11   -1    0    0    0    0 -0.00000000000E+00 -0.00000000000E+00 -0.45593999997E+02  0.45594000000E+02  0.51100000000E-03 0. -1.
    9900012    2    1    2    0    0 -0.12960183552E+02  0.93887060798E+01  0.27579093445E+02  0.59301944195E+02  0.50000000305E+02 0.  0.
         12    1    1    2    0    0  0.12960183552E+02 -0.93887060798E+01 -0.27579093445E+02  0.31886055805E+02  0.00000000000E+00 0. -1.
         11    1    3    3    0    0  0.16574663736E+02  0.81042252273E+01  0.14185046134E+02  0.23272590715E+02  0.51100000000E-03 0. -1.
        -11    1    3    3    0    0 -0.11320649051E+02  0.59469493579E+00  0.13722200988E+02  0.17799144845E+02  0.51100000000E-03 0.  1.
         12    1    3    3    0    0 -0.18214198237E+02  0.68978591672E+00 -0.32815367799E+00  0.18230208635E+02  0.00000000000E+00 0. -1.
</event>
<event>
 7    1  0.4489290E-013  0.5930200E+02  0.7816164E-02  0.1266605E+00
        -11   -1    0    0    0    0  0.00000000000E+00  0.00000000000E+00  0.45593999997E+02  0.45594000000E+02  0.51100000000E-03 0.  1.
         11   -1    0    0    0    0 -0.00000000000E+00 -0.00000000000E+00 -0.45593999997E+02  0.45594000000E+02  0.51100000000E-03 0. -1.
    9900012    2    1    2    0    0  0.29039615616E+01 -0.22001295469E+01  0.31677172298E+02  0.59302002955E+02  0.50000107469E+02 0.  0.
         12    1    1    2    0    0 -0.29039615616E+01  0.22001295469E+01 -0.31677172298E+02  0.31885997045E+02  0.00000000000E+00 0. -1.
         11    1    3    3    0    0 -0.10651146633E+02  0.43495181556E+01 -0.87594567312E+01  0.14460059311E+02  0.51100000000E-03 0. -1.
        -11    1    3    3    0    0  0.14038370735E+02 -0.89455552015E+01  0.32171275063E+02  0.36222779438E+02  0.51100000000E-03 0.  1.
        -12    1    3    3    0    0 -0.48326254037E+00  0.23959074990E+01  0.82653539659E+01  0.86191642059E+01  0.00000000000E+00 0.  1.
</event>
<event>
 7    1  0.4489290E-013  0.5930195E+02  0.7816164E-02  0.1266605E+00
        -11   -1    0    0    0    0  0.00000000000E+00  0.00000000000E+00  0.45593999997E+02  0.45594000000E+02  0.51100000000E-03 0. -1.
         11   -1    0    0    0    0 -0.00000000000E+00 -0.00000000000E+00 -0.45593999997E+02  0.45594000000E+02  0.51100000000E-03 0.  1.
    9900012    2    1    2    0    0 -0.15453158076E+01 -0.28135284468E+02 -0.14924415486E+02  0.59301946456E+02  0.50000004428E+02 0.  0.
         12    1    1    2    0    0  0.15453158076E+01  0.28135284468E+02  0.14924415486E+02  0.31886053544E+02  0.00000000000E+00 0. -1.
         11    1    3    3    0    0  0.75917472314E+01  0.35133519715E+01  0.10536566105E+02  0.13453530899E+02  0.51100000000E-03 0. -1.
        -11    1    3    3    0    0  0.16070545316E+01 -0.11439821908E+02 -0.18704965385E+02  0.21984719235E+02  0.51100000000E-03 0.  1.
         12    1    3    3    0    0 -0.10744117571E+02 -0.20208814531E+02 -0.67560162064E+01  0.23863696321E+02  0.00000000000E+00 0. -1.
</event>
<event>
 7    1  0.4489290E-013  0.5930194E+02  0.7816164E-02  0.1266605E+00
        -11   -1    0    0    0    0  0.00000000000E+00  0.00000000000E+00  0.45593999997E+02  0.45594000000E+02  0.51100000000E-03 0. -1.
         11   -1    0    0    0    0 -0.00000000000E+00 -0.00000000000E+00 -0.45593999997E+02  0.45594000000E+02  0.51100000000E-03 0.  1.
    9900012    2    1    2    0    0  0.12065415720E+02 -0.22273011345E+02 -0.19366452711E+02  0.59301940640E+02  0.49999993822E+02 0.  0.
         12    1    1    2    0    0 -0.12065415720E+02  0.22273011345E+02  0.19366452711E+02  0.31886059360E+02  0.00000000000E+00 0. -1.
         11    1    3    3    0    0  0.22498062943E+02  0.57333792803E+01 -0.94720125589E+00  0.23236429688E+02  0.51100000000E-03 0. -1.
        -11    1    3    3    0    0 -0.57057943676E+01 -0.16268869074E+02 -0.57870382275E+01  0.18185763719E+02  0.51100000000E-03 0.  1.
         12    1    3    3    0    0 -0.47268528560E+01 -0.11737521551E+02 -0.12632213228E+02  0.17879747233E+02  0.00000000000E+00 0. -1.
</event>
<event>
 7    1  0.4489290E-013  0.5930194E+02  0.7816164E-02  0.1266605E+00
        -11   -1    0    0    0    0  0.00000000000E+00  0.00000000000E+00  0.45593999997E+02  0.45594000000E+02  0.51100000000E-03 0. -1.
         11   -1    0    0    0    0 -0.00000000000E+00 -0.00000000000E+00 -0.45593999997E+02  0.45594000000E+02  0.51100000000E-03 0.  1.
    9900012    2    1    2    0    0  0.62491885738E+01 -0.31834542162E+01 -0.31105207666E+02  0.59301942192E+02  0.49999996652E+02 0.  0.
         12    1    1    2    0    0 -0.62491885738E+01  0.31834542162E+01  0.31105207666E+02  0.31886057808E+02  0.00000000000E+00 0. -1.
         11    1    3    3    0    0 -0.15328660690E+02  0.68176267201E+01 -0.25646365055E+02  0.30646107639E+02  0.51100000000E-03 0. -1.
        -11    1    3    3    0    0  0.20926414763E+02 -0.54710353844E+01 -0.84132843495E+01  0.23208412630E+02  0.51100000000E-03 0.  1.
         12    1    3    3    0    0  0.65143450062E+00 -0.45300455519E+01  0.29544417384E+01  0.54474219220E+01  0.00000000000E+00 0. -1.
</event>
<event>
 7    1  0.4489290E-013  0.5930194E+02  0.7816164E-02  0.1266605E+00
        -11   -1    0    0    0    0  0.00000000000E+00  0.00000000000E+00  0.45593999997E+02  0.45594000000E+02  0.51100000000E-03 0.  1.
         11   -1    0    0    0    0 -0.00000000000E+00 -0.00000000000E+00 -0.45593999997E+02  0.45594000000E+02  0.51100000000E-03 0. -1.
    9900012    2    1    2    0    0  0.22525315997E+02  0.19056410396E+02  0.12090657950E+02  0.59301942740E+02  0.49999997651E+02 0.  0.
         12    1    1    2    0    0 -0.22525315997E+02 -0.19056410396E+02 -0.12090657950E+02  0.31886057260E+02  0.00000000000E+00 0. -1.
         11    1    3    3    0    0  0.41356958310E+01  0.15376628936E+02 -0.73928780539E+01  0.17555607185E+02  0.51100000000E-03 0. -1.
        -11    1    3    3    0    0  0.58346534498E+01 -0.40185987446E+01  0.25026906556E+02  0.26010351185E+02  0.51100000000E-03 0.  1.
         12    1    3    3    0    0  0.12554966716E+02  0.76983802040E+01 -0.55433705516E+01  0.15735984370E+02  0.00000000000E+00 0. -1.
</event>
<event>
 7    1  0.4489290E-013  0.5930189E+02  0.7816164E-02  0.1266605E+00
        -11   -1    0    0    0    0  0.00000000000E+00  0.00000000000E+00  0.45593999997E+02  0.45594000000E+02  0.51100000000E-03 0. -1.
         11   -1    0    0    0    0 -0.00000000000E+00 -0.00000000000E+00 -0.45593999997E+02  0.45594000000E+02  0.51100000000E-03 0.  1.
    9900012    2    1    2    0    0 -0.13073070161E+02 -0.21371078328E+02 -0.19725516754E+02  0.59301887607E+02  0.49999897102E+02 0.  0.
         12    1    1    2    0    0  0.13073070161E+02  0.21371078328E+02  0.19725516754E+02  0.31886112393E+02  0.00000000000E+00 0. -1.
         11    1    3    3    0    0  0.57009093350E+01 -0.31804242873E+02 -0.11412244313E+02  0.34267324852E+02  0.51100000000E-03 0. -1.
        -11    1    3    3    0    0 -0.64364133279E+01 -0.93892586815E+00 -0.42516795383E+01  0.77708286219E+01  0.51100000000E-03 0.  1.
         12    1    3    3    0    0 -0.12337566168E+02  0.11372090413E+02 -0.40615929026E+01  0.17263734133E+02  0.00000000000E+00 0. -1.
</event>
<event>
 7    1  0.4489290E-013  0.5930193E+02  0.7816164E-02  0.1266605E+00
        -11   -1    0    0    0    0  0.00000000000E+00  0.00000000000E+00  0.45593999997E+02  0.45594000000E+02  0.51100000000E-03 0.  1.
         11   -1    0    0    0    0 -0.00000000000E+00 -0.00000000000E+00 -0.45593999997E+02  0.45594000000E+02  0.51100000000E-03 0. -1.
    9900012    2    1    2    0    0  0.57919478408E+01  0.13150545164E+02  0.28464676950E+02  0.59301932012E+02  0.49999978085E+02 0.  0.
         12    1    1    2    0    0 -0.57919478408E+01 -0.13150545164E+02 -0.28464676950E+02  0.31886067988E+02  0.00000000000E+00 0. -1.
         11    1    3    3    0    0 -0.24230368359E+01 -0.60471884274E+01 -0.11263741852E+02  0.13011974337E+02  0.51100000000E-03 0. -1.
        -11    1    3    3    0    0 -0.16812544902E+01  0.13504494478E+01  0.10008114462E+02  0.10237806685E+02  0.51100000000E-03 0.  1.
         12    1    3    3    0    0  0.98962391669E+01  0.17847284144E+02  0.29720304340E+02  0.36052150990E+02  0.00000000000E+00 0. -1.
</event>
<event>
 7    1  0.4489290E-013  0.5930194E+02  0.7816164E-02  0.1266605E+00
        -11   -1    0    0    0    0  0.00000000000E+00  0.00000000000E+00  0.45593999997E+02  0.45594000000E+02  0.51100000000E-03 0. -1.
         11   -1    0    0    0    0 -0.00000000000E+00 -0.00000000000E+00 -0.45593999997E+02  0.45594000000E+02  0.51100000000E-03 0.  1.
    9900012    2    1    2    0    0  0.28017092481E+02  0.98665652669E+01 -0.11593710126E+02  0.59301941985E+02  0.49999996274E+02 0.  0.
         12    1    1    2    0    0 -0.28017092481E+02 -0.98665652669E+01  0.11593710126E+02  0.31886058015E+02  0.00000000000E+00 0. -1.
         11    1    3    3    0    0  0.22252151514E+01 -0.43997827563E+01  0.17168506596E+01  0.52208473662E+01  0.51100000000E-03 0. -1.
        -11    1    3    3    0    0 -0.77224102160E+00  0.24084338561E+02 -0.62208577463E+01  0.24886759360E+02  0.51100000000E-03 0.  1.
        -12    1    3    3    0    0  0.26564118351E+02 -0.98179905374E+01 -0.70897030397E+01  0.29194335258E+02  0.00000000000E+00 0.  1.
</event>
<event>
 7    1  0.4489290E-013  0.5930200E+02  0.7816164E-02  0.1266605E+00
        -11   -1    0    0    0    0  0.00000000000E+00  0.00000000000E+00  0.45593999997E+02  0.45594000000E+02  0.51100000000E-03 0.  1.
         11   -1    0    0    0    0 -0.00000000000E+00 -0.00000000000E+00 -0.45593999997E+02  0.45594000000E+02  0.51100000000E-03 0. -1.
    9900012    2    1    2    0    0 -0.23584182998E+02 -0.85382231275E-01  0.21459176949E+02  0.59301995968E+02  0.50000094727E+02 0.  0.
         12    1    1    2    0    0  0.23584182998E+02  0.85382231275E-01 -0.21459176949E+02  0.31886004032E+02  0.00000000000E+00 0. -1.
         11    1    3    3    0    0  0.22305733386E+01 -0.56588500112E+01 -0.58285511147E+01  0.84243723343E+01  0.51100000000E-03 0. -1.
        -11    1    3    3    0    0 -0.45428519823E+01  0.15126202617E+02  0.21803954243E+02  0.26923074316E+02  0.51100000000E-03 0.  1.
        -12    1    3    3    0    0 -0.21271904354E+02 -0.95527348367E+01  0.54837738209E+01  0.23954549318E+02  0.00000000000E+00 0.  1.
</event>
<event>
 7    1  0.4489290E-013  0.5930194E+02  0.7816164E-02  0.1266605E+00
        -11   -1    0    0    0    0  0.00000000000E+00  0.00000000000E+00  0.45593999997E+02  0.45594000000E+02  0.51100000000E-03 0. -1.
         11   -1    0    0    0    0 -0.00000000000E+00 -0.00000000000E+00 -0.45593999997E+02  0.45594000000E+02  0.51100000000E-03 0.  1.
    9900012    2    1    2    0    0 -0.25619070264E+02  0.15659735208E+02 -0.10731108989E+02  0.59301940850E+02  0.49999994204E+02 0.  0.
         12    1    1    2    0    0  0.25619070264E+02 -0.15659735208E+02  0.10731108989E+02  0.31886059150E+02  0.00000000000E+00 0. -1.
         11    1    3    3    0    0 -0.71635777644E+01 -0.28205700807E+00 -0.23153282399E+02  0.24237798759E+02  0.51100000000E-03 0. -1.
        -11    1    3    3    0    0  0.19709189136E+01  0.81959102552E+01  0.10008589369E+02  0.13085462456E+02  0.51100000000E-03 0.  1.
         12    1    3    3    0    0 -0.20426411413E+02  0.77458819607E+01  0.24135840415E+01  0.21978679635E+02  0.00000000000E+00 0. -1.
</event>
<event>
 7    1  0.4489290E-013  0.5930201E+02  0.7816164E-02  0.1266605E+00
        -11   -1    0    0    0    0  0.00000000000E+00  0.00000000000E+00  0.45593999997E+02  0.45594000000E+02  0.51100000000E-03 0. -1.
         11   -1    0    0    0    0 -0.00000000000E+00 -0.00000000000E+00 -0.45593999997E+02  0.45594000000E+02  0.51100000000E-03 0.  1.
    9900012    2    1    2    0    0  0.22510469170E+02 -0.22578855999E+02  0.43668319759E+00  0.59302005383E+02  0.50000111898E+02 0.  0.
         12    1    1    2    0    0 -0.22510469170E+02  0.22578855999E+02 -0.43668319759E+00  0.31885994617E+02  0.00000000000E+00 0. -1.
         11    1    3    3    0    0 -0.87351076190E-02  0.98717160605E+01  0.19211445719E+01  0.10056920553E+02  0.51100000000E-03 0. -1.
        -11    1    3    3    0    0  0.94177244153E+01 -0.34609419076E+02  0.13815066081E+00  0.35868154508E+02  0.51100000000E-03 0.  1.
        -12    1    3    3    0    0  0.13101479862E+02  0.21588470169E+01 -0.16226120351E+01  0.13376930322E+02  0.00000000000E+00 0.  1.
</event>
<event>
 7    1  0.4489290E-013  0.5930198E+02  0.7816164E-02  0.1266605E+00
        -11   -1    0    0    0    0  0.00000000000E+00  0.00000000000E+00  0.45593999997E+02  0.45594000000E+02  0.51100000000E-03 0.  1.
         11   -1    0    0    0    0 -0.00000000000E+00 -0.00000000000E+00 -0.45593999997E+02  0.45594000000E+02  0.51100000000E-03 0. -1.
    9900012    2    1    2    0    0 -0.42526315095E+01 -0.30805531181E+01  0.31450653685E+02  0.59301979560E+02  0.50000064803E+02 0.  0.
         12    1    1    2    0    0  0.42526315095E+01  0.30805531181E+01 -0.31450653685E+02  0.31886020440E+02  0.00000000000E+00 0. -1.
         11    1    3    3    0    0 -0.99884318896E+01  0.62789023192E+01 -0.89573626957E+01  0.14813093285E+02  0.51100000000E-03 0. -1.
        -11    1    3    3    0    0  0.51693832174E+01 -0.15756833053E+00  0.30577157413E+02  0.31011447989E+02  0.51100000000E-03 0.  1.
        -12    1    3    3    0    0  0.56641716279E+00 -0.92018871067E+01  0.98308589672E+01  0.13477438286E+02  0.00000000000E+00 0.  1.
</event>
<event>
 7    1  0.4489290E-013  0.5930202E+02  0.7816164E-02  0.1266605E+00
        -11   -1    0    0    0    0  0.00000000000E+00  0.00000000000E+00  0.45593999997E+02  0.45594000000E+02  0.51100000000E-03 0. -1.
         11   -1    0    0    0    0 -0.00000000000E+00 -0.00000000000E+00 -0.45593999997E+02  0.45594000000E+02  0.51100000000E-03 0.  1.
    9900012    2    1    2    0    0  0.11268544990E+02 -0.29827781163E+02  0.19835691869E+00  0.59302015920E+02  0.50000131114E+02 0.  0.
         12    1    1    2    0    0 -0.11268544990E+02  0.29827781163E+02 -0.19835691869E+00  0.31885984080E+02  0.00000000000E+00 0. -1.
         11    1    3    3    0    0  0.22213288705E+02 -0.11366387985E+02  0.69125601558E+01  0.25892247084E+02  0.51100000000E-03 0. -1.
        -11    1    3    3    0    0 -0.72115217919E+01 -0.15331144852E+02 -0.15757521600E+02  0.23137621664E+02  0.51100000000E-03 0.  1.
         12    1    3    3    0    0 -0.37332219235E+01 -0.31302483261E+01  0.90433183627E+01  0.10272147172E+02  0.00000000000E+00 0. -1.
</event>
<event>
 7    1  0.4489290E-013  0.5930193E+02  0.7816164E-02  0.1266605E+00
        -11   -1    0    0    0    0  0.00000000000E+00  0.00000000000E+00  0.45593999997E+02  0.45594000000E+02  0.51100000000E-03 0.  1.
         11   -1    0    0    0    0 -0.00000000000E+00 -0.00000000000E+00 -0.45593999997E+02  0.45594000000E+02  0.51100000000E-03 0. -1.
    9900012    2    1    2    0    0  0.68406568128E+01  0.15202810349E+02  0.27180897256E+02  0.59301934018E+02  0.49999981745E+02 0.  0.
         12    1    1    2    0    0 -0.68406568128E+01 -0.15202810349E+02 -0.27180897256E+02  0.31886065982E+02  0.00000000000E+00 0. -1.
         11    1    3    3    0    0 -0.91103620786E+01 -0.15439215863E+01  0.17096152223E+01  0.93970833527E+01  0.51100000000E-03 0. -1.
        -11    1    3    3    0    0  0.77063027509E+01  0.17469484804E+02 -0.38154025579E+01  0.19471191498E+02  0.51100000000E-03 0.  1.
        -12    1    3    3    0    0  0.82447161406E+01 -0.72275286890E+00  0.29286684592E+02  0.30433659168E+02  0.00000000000E+00 0.  1.
</event>
<event>
 7    1  0.4489290E-013  0.5930194E+02  0.7816164E-02  0.1266605E+00
        -11   -1    0    0    0    0  0.00000000000E+00  0.00000000000E+00  0.45593999997E+02  0.45594000000E+02  0.51100000000E-03 0. -1.
         11   -1    0    0    0    0 -0.00000000000E+00 -0.00000000000E+00 -0.45593999997E+02  0.45594000000E+02  0.51100000000E-03 0.  1.
    9900012    2    1    2    0    0  0.28611472207E+02  0.93758332025E+01 -0.10497545018E+02  0.59301936563E+02  0.49999986386E+02 0.  0.
         12    1    1    2    0    0 -0.28611472207E+02 -0.93758332025E+01  0.10497545018E+02  0.31886063437E+02  0.00000000000E+00 0. -1.
         11    1    3    3    0    0  0.13374327531E+02  0.27760131295E+02 -0.75384719249E+01  0.31722643107E+02  0.51100000000E-03 0. -1.
        -11    1    3    3    0    0  0.15471180528E+02 -0.12285257214E+02 -0.61516062869E+01  0.20691235630E+02  0.51100000000E-03 0.  1.
         12    1    3    3    0    0 -0.23403585166E+00 -0.60990408786E+01  0.31925331942E+01  0.68880578260E+01  0.00000000000E+00 0. -1.
</event>
<event>
 7    1  0.4489290E-013  0.5930193E+02  0.7816164E-02  0.1266605E+00
        -11   -1    0    0    0    0  0.00000000000E+00  0.00000000000E+00  0.45593999997E+02  0.45594000000E+02  0.51100000000E-03 0.  1.
         11   -1    0    0    0    0 -0.00000000000E+00 -0.00000000000E+00 -0.45593999997E+02  0.45594000000E+02  0.51100000000E-03 0. -1.
    9900012    2    1    2    0    0 -0.16605358608E+02  0.22164592969E+02  0.15802358385E+02  0.59301927076E+02  0.49999969084E+02 0.  0.
         12    1    1    2    0    0  0.16605358608E+02 -0.22164592969E+02 -0.15802358385E+02  0.31886072924E+02  0.00000000000E+00 0. -1.
         11    1    3    3    0    0 -0.25851193572E+02  0.26315780282E+02  0.17837316524E+02  0.40975289651E+02  0.51100000000E-03 0.  1.
        -11    1    3    3    0    0 -0.15918291986E+01 -0.50604409693E+01  0.32640608154E+01  0.62286496345E+01  0.51100000000E-03 0. -1.
         12    1    3    3    0    0  0.10837664162E+02  0.90925365671E+00 -0.52990189546E+01  0.12097987791E+02  0.00000000000E+00 0. -1.
</event>
<event>
 7    1  0.4489290E-013  0.5930193E+02  0.7816164E-02  0.1266605E+00
        -11   -1    0    0    0    0  0.00000000000E+00  0.00000000000E+00  0.45593999997E+02  0.45594000000E+02  0.51100000000E-03 0.  1.
         11   -1    0    0    0    0 -0.00000000000E+00 -0.00000000000E+00 -0.45593999997E+02  0.45594000000E+02  0.51100000000E-03 0. -1.
    9900012    2    1    2    0    0 -0.76296670983E+01 -0.17110285654E+02  0.25802085444E+02  0.59301932377E+02  0.49999978752E+02 0.  0.
         12    1    1    2    0    0  0.76296670983E+01  0.17110285654E+02 -0.25802085444E+02  0.31886067623E+02  0.00000000000E+00 0. -1.
         11    1    3    3    0    0  0.35672510271E+01  0.22281456093E+01 -0.70993459879E+01  0.82517044581E+01  0.51100000000E-03 0. -1.
        -11    1    3    3    0    0 -0.15354333039E+02 -0.13658262093E+02  0.37415916039E+02  0.42687872280E+02  0.51100000000E-03 0.  1.
        -12    1    3    3    0    0  0.41574149135E+01 -0.56801691701E+01 -0.45144846073E+01  0.83623556390E+01  0.00000000000E+00 0.  1.
</event>
<event>
 7    1  0.4489290E-013  0.5930197E+02  0.7816164E-02  0.1266605E+00
        -11   -1    0    0    0    0  0.00000000000E+00  0.00000000000E+00  0.45593999997E+02  0.45594000000E+02  0.51100000000E-03 0. -1.
         11   -1    0    0    0    0 -0.00000000000E+00 -0.00000000000E+00 -0.45593999997E+02  0.45594000000E+02  0.51100000000E-03 0.  1.
    9900012    2    1    2    0    0  0.10473494199E+02  0.28627378659E+02 -0.93540428725E+01  0.59301968455E+02  0.50000044549E+02 0.  0.
         12    1    1    2    0    0 -0.10473494199E+02 -0.28627378659E+02  0.93540428725E+01  0.31886031545E+02  0.00000000000E+00 0. -1.
         11    1    3    3    0    0 -0.12684665593E+02  0.20220122392E+02 -0.43634296963E+01  0.24265069745E+02  0.51100000000E-03 0. -1.
        -11    1    3    3    0    0  0.21485796007E+02  0.16031829609E+02 -0.47636896238E+01  0.27227774969E+02  0.51100000000E-03 0.  1.
         12    1    3    3    0    0  0.16723637854E+01 -0.76245733424E+01 -0.22692355235E+00  0.78091237397E+01  0.00000000000E+00 0. -1.
</event>
<event>
 7    1  0.4489290E-013  0.5930196E+02  0.7816164E-02  0.1266605E+00
        -11   -1    0    0    0    0  0.00000000000E+00  0.00000000000E+00  0.45593999997E+02  0.45594000000E+02  0.51100000000E-03 0.  1.
         11   -1    0    0    0    0 -0.00000000000E+00 -0.00000000000E+00 -0.45593999997E+02  0.45594000000E+02  0.51100000000E-03 0. -1.
    9900012    2    1    2    0    0  0.27936876846E+01  0.74201585417E+01  0.30884565628E+02  0.59301955440E+02  0.50000020814E+02 0.  0.
         12    1    1    2    0    0 -0.27936876846E+01 -0.74201585417E+01 -0.30884565628E+02  0.31886044560E+02  0.00000000000E+00 0. -1.
         11    1    3    3    0    0  0.15848621632E+02 -0.39841377046E+01  0.66195233170E+01  0.17631512984E+02  0.51100000000E-03 0. -1.
        -11    1    3    3    0    0  0.91331718361E+00  0.16837210151E+02  0.19851968106E+02  0.26046620354E+02  0.51100000000E-03 0.  1.
         12    1    3    3    0    0 -0.13968251131E+02 -0.54329139048E+01  0.44130742051E+01  0.15623822103E+02  0.00000000000E+00 0. -1.
</event>
<event>
 7    1  0.4489290E-013  0.5930199E+02  0.7816164E-02  0.1266605E+00
        -11   -1    0    0    0    0  0.00000000000E+00  0.00000000000E+00  0.45593999997E+02  0.45594000000E+02  0.51100000000E-03 0.  1.
         11   -1    0    0    0    0 -0.00000000000E+00 -0.00000000000E+00 -0.45593999997E+02  0.45594000000E+02  0.51100000000E-03 0. -1.
    9900012    2    1    2    0    0  0.12443616457E+02 -0.10196319873E+01  0.29339984662E+02  0.59301985199E+02  0.50000075087E+02 0.  0.
         12    1    1    2    0    0 -0.12443616457E+02  0.10196319873E+01 -0.29339984662E+02  0.31886014801E+02  0.00000000000E+00 0. -1.
         11    1    3    3    0    0 -0.43950498550E+00  0.47847583776E+01  0.56211850507E+01  0.73949171056E+01  0.51100000000E-03 0. -1.
        -11    1    3    3    0    0  0.34497290255E+01 -0.24604396478E+02  0.99280153177E+01  0.26755232102E+02  0.51100000000E-03 0.  1.
        -12    1    3    3    0    0  0.94333924175E+01  0.18800006113E+02  0.13790784293E+02  0.25151835992E+02  0.00000000000E+00 0.  1.
</event>
<event>
 7    1  0.4489290E-013  0.5930189E+02  0.7816164E-02  0.1266605E+00
        -11   -1    0    0    0    0  0.00000000000E+00  0.00000000000E+00  0.45593999997E+02  0.45594000000E+02  0.51100000000E-03 0.  1.
         11   -1    0    0    0    0 -0.00000000000E+00 -0.00000000000E+00 -0.45593999997E+02  0.45594000000E+02  0.51100000000E-03 0. -1.
    9900012    2    1    2    0    0 -0.12729055004E+02  0.22496670892E+02  0.18670693356E+02  0.59301892791E+02  0.49999906557E+02 0.  0.
         12    1    1    2    0    0  0.12729055004E+02 -0.22496670892E+02 -0.18670693356E+02  0.31886107209E+02  0.00000000000E+00 0. -1.
         11    1    3    3    0    0  0.15659739292E+02 -0.31330584713E+01  0.10084851090E+02  0.18887766196E+02  0.51100000000E-03 0. -1.
        -11    1    3    3    0    0 -0.15014971376E+02  0.93582958138E+01  0.62617108366E-01  0.17692681739E+02  0.51100000000E-03 0.  1.
         12    1    3    3    0    0 -0.13373822921E+02  0.16271433550E+02  0.85232251572E+01  0.22721444856E+02  0.00000000000E+00 0. -1.
</event>
<event>
 7    1  0.4489290E-013  0.5930196E+02  0.7816164E-02  0.1266605E+00
        -11   -1    0    0    0    0  0.00000000000E+00  0.00000000000E+00  0.45593999997E+02  0.45594000000E+02  0.51100000000E-03 0.  1.
         11   -1    0    0    0    0 -0.00000000000E+00 -0.00000000000E+00 -0.45593999997E+02  0.45594000000E+02  0.51100000000E-03 0. -1.
    9900012    2    1    2    0    0 -0.13878235813E+02 -0.28536237845E+02  0.31300701434E+01  0.59301958560E+02  0.50000026503E+02 0.  0.
         12    1    1    2    0    0  0.13878235813E+02  0.28536237845E+02 -0.31300701434E+01  0.31886041440E+02  0.00000000000E+00 0. -1.
         11    1    3    3    0    0  0.32190714667E+01  0.62819182861E+01 -0.64178333835E+01  0.95400997930E+01  0.51100000000E-03 0. -1.
        -11    1    3    3    0    0 -0.19219823247E+02 -0.63040294245E+01  0.46031765864E+01  0.20744436063E+02  0.51100000000E-03 0.  1.
        -12    1    3    3    0    0  0.21225159675E+01 -0.28514126707E+02  0.49447269405E+01  0.29017422704E+02  0.00000000000E+00 0.  1.
</event>
<event>
 7    1  0.4489290E-013  0.5930194E+02  0.7816164E-02  0.1266605E+00
        -11   -1    0    0    0    0  0.00000000000E+00  0.00000000000E+00  0.45593999997E+02  0.45594000000E+02  0.51100000000E-03 0. -1.
         11   -1    0    0    0    0 -0.00000000000E+00 -0.00000000000E+00 -0.45593999997E+02  0.45594000000E+02  0.51100000000E-03 0.  1.
    9900012    2    1    2    0    0 -0.30203456512E+02 -0.78609602512E+01 -0.65327787514E+01  0.59301942239E+02  0.49999996738E+02 0.  0.
         12    1    1    2    0    0  0.30203456512E+02  0.78609602512E+01  0.65327787514E+01  0.31886057761E+02  0.00000000000E+00 0. -1.
         11    1    3    3    0    0 -0.24003720819E+02 -0.24128203513E+02 -0.57283011028E+01  0.34513218507E+02  0.51100000000E-03 0. -1.
        -11    1    3    3    0    0  0.35106031154E+01  0.13497743239E+02  0.24899429383E+01  0.14167329419E+02  0.51100000000E-03 0.  1.
         12    1    3    3    0    0 -0.97103388078E+01  0.27695000230E+01 -0.32944205869E+01  0.10621394313E+02  0.00000000000E+00 0. -1.
</event>
<event>
 7    1  0.4489290E-013  0.5930202E+02  0.7816164E-02  0.1266604E+00
        -11   -1    0    0    0    0  0.00000000000E+00  0.00000000000E+00  0.45593999997E+02  0.45594000000E+02  0.51100000000E-03 0.  1.
         11   -1    0    0    0    0 -0.00000000000E+00 -0.00000000000E+00 -0.45593999997E+02  0.45594000000E+02  0.51100000000E-03 0. -1.
    9900012    2    1    2    0    0  0.26900769259E+02  0.12942421221E+02  0.11205262318E+02  0.59302022558E+02  0.50000143220E+02 0.  0.
         12    1    1    2    0    0 -0.26900769259E+02 -0.12942421221E+02 -0.11205262318E+02  0.31885977442E+02  0.00000000000E+00 0. -1.
         11    1    3    3    0    0  0.11572889921E+02 -0.56116025260E+01  0.18000114011E+02  0.22122973776E+02  0.51100000000E-03 0.  1.
        -11    1    3    3    0    0  0.13365095394E+02  0.20505885086E+02 -0.14871986533E+02  0.28640759098E+02  0.51100000000E-03 0. -1.
         12    1    3    3    0    0  0.19627839442E+01 -0.19518613385E+01  0.80771348400E+01  0.85382896835E+01  0.00000000000E+00 0. -1.
</event>
<event>
 7    1  0.4489290E-013  0.5930196E+02  0.7816164E-02  0.1266605E+00
        -11   -1    0    0    0    0  0.00000000000E+00  0.00000000000E+00  0.45593999997E+02  0.45594000000E+02  0.51100000000E-03 0.  1.
         11   -1    0    0    0    0 -0.00000000000E+00 -0.00000000000E+00 -0.45593999997E+02  0.45594000000E+02  0.51100000000E-03 0. -1.
    9900012    2    1    2    0    0  0.19140375037E+02  0.79418631172E+01 -0.24234111798E+02  0.59301963542E+02  0.50000035590E+02 0.  0.
         12    1    1    2    0    0 -0.19140375037E+02 -0.79418631172E+01  0.24234111798E+02  0.31886036458E+02  0.00000000000E+00 0. -1.
         11    1    3    3    0    0  0.24227168844E+02  0.18370880395E+02 -0.17997292436E+02  0.35331961338E+02  0.51100000000E-03 0. -1.
        -11    1    3    3    0    0  0.14847615815E+01 -0.11960057435E+02 -0.10503547877E+02  0.15986619688E+02  0.51100000000E-03 0.  1.
        -12    1    3    3    0    0 -0.65715553885E+01  0.15310401564E+01  0.42667285146E+01  0.79833825163E+01  0.00000000000E+00 0.  1.
</event>
<event>
 7    1  0.4489290E-013  0.5930192E+02  0.7816164E-02  0.1266605E+00
        -11   -1    0    0    0    0  0.00000000000E+00  0.00000000000E+00  0.45593999997E+02  0.45594000000E+02  0.51100000000E-03 0.  1.
         11   -1    0    0    0    0 -0.00000000000E+00 -0.00000000000E+00 -0.45593999997E+02  0.45594000000E+02  0.51100000000E-03 0. -1.
    9900012    2    1    2    0    0 -0.22821018143E+02  0.17267513384E+02  0.14062571164E+02  0.59301924743E+02  0.49999964829E+02 0.  0.
         12    1    1    2    0    0  0.22821018143E+02 -0.17267513384E+02 -0.14062571164E+02  0.31886075257E+02  0.00000000000E+00 0. -1.
         11    1    3    3    0    0 -0.91398934817E+01 -0.12072995645E+02 -0.33144140036E+01  0.15500974716E+02  0.51100000000E-03 0.  1.
        -11    1    3    3    0    0 -0.16714948896E+02  0.29258030545E+02  0.89796400536E+01  0.34871991680E+02  0.51100000000E-03 0. -1.
         12    1    3    3    0    0  0.30338242352E+01  0.82478483424E-01  0.83973451143E+01  0.89289583468E+01  0.00000000000E+00 0. -1.
</event>
<event>
 7    1  0.4489290E-013  0.5930192E+02  0.7816164E-02  0.1266605E+00
        -11   -1    0    0    0    0  0.00000000000E+00  0.00000000000E+00  0.45593999997E+02  0.45594000000E+02  0.51100000000E-03 0.  1.
         11   -1    0    0    0    0 -0.00000000000E+00 -0.00000000000E+00 -0.45593999997E+02  0.45594000000E+02  0.51100000000E-03 0. -1.
    9900012    2    1    2    0    0  0.51560446955E+01 -0.30442359178E+02  0.79624234489E+01  0.59301918140E+02  0.49999952787E+02 0.  0.
         12    1    1    2    0    0 -0.51560446955E+01  0.30442359178E+02 -0.79624234489E+01  0.31886081860E+02  0.00000000000E+00 0. -1.
         11    1    3    3    0    0 -0.53428101238E+01 -0.16004582125E+02 -0.14658040143E+02  0.22350624378E+02  0.51100000000E-03 0. -1.
        -11    1    3    3    0    0  0.21036499761E+01  0.13667002038E+01  0.18392511902E+02  0.18562804395E+02  0.51100000000E-03 0.  1.
        -12    1    3    3    0    0  0.83952048432E+01 -0.15804477257E+02  0.42279516893E+01  0.18388489367E+02  0.00000000000E+00 0.  1.
</event>
<event>
 7    1  0.4489290E-013  0.5930195E+02  0.7816164E-02  0.1266605E+00
        -11   -1    0    0    0    0  0.00000000000E+00  0.00000000000E+00  0.45593999997E+02  0.45594000000E+02  0.51100000000E-03 0. -1.
         11   -1    0    0    0    0 -0.00000000000E+00 -0.00000000000E+00 -0.45593999997E+02  0.45594000000E+02  0.51100000000E-03 0.  1.
    9900012    2    1    2    0    0  0.17704281410E+02 -0.24782639844E+02 -0.94392420833E+01  0.59301951186E+02  0.50000013054E+02 0.  0.
         12    1    1    2    0    0 -0.17704281410E+02  0.24782639844E+02  0.94392420833E+01  0.31886048814E+02  0.00000000000E+00 0. -1.
         11    1    3    3    0    0  0.18965534601E+02  0.28356776619E+01  0.11645602249E+02  0.22435521445E+02  0.51100000000E-03 0. -1.
        -11    1    3    3    0    0 -0.28297809580E+01 -0.14447807832E+01 -0.55341747996E+01  0.63813903466E+01  0.51100000000E-03 0.  1.
         12    1    3    3    0    0  0.15685277670E+01 -0.26173536723E+02 -0.15550669533E+02  0.30485039394E+02  0.00000000000E+00 0. -1.
</event>
<event>
 7    1  0.4489290E-013  0.5930186E+02  0.7816164E-02  0.1266605E+00
        -11   -1    0    0    0    0  0.00000000000E+00  0.00000000000E+00  0.45593999997E+02  0.45594000000E+02  0.51100000000E-03 0.  1.
         11   -1    0    0    0    0 -0.00000000000E+00 -0.00000000000E+00 -0.45593999997E+02  0.45594000000E+02  0.51100000000E-03 0. -1.
    9900012    2    1    2    0    0  0.18450052886E+02 -0.11721436459E+02  0.23214851829E+02  0.59301860855E+02  0.49999848312E+02 0.  0.
         12    1    1    2    0    0 -0.18450052886E+02  0.11721436459E+02 -0.23214851829E+02  0.31886139145E+02  0.00000000000E+00 0. -1.
         11    1    3    3    0    0  0.13785879868E+02 -0.62188228863E+01  0.26419466859E+02  0.30441952487E+02  0.51100000000E-03 0.  1.
        -11    1    3    3    0    0  0.44002038289E+01 -0.13286475802E+02 -0.11029463847E+02  0.17819688717E+02  0.51100000000E-03 0. -1.
         12    1    3    3    0    0  0.26396918857E+00  0.77838622286E+01  0.78248488165E+01  0.11040219650E+02  0.00000000000E+00 0. -1.
</event>
<event>
 7    1  0.4489290E-013  0.5930194E+02  0.7816164E-02  0.1266605E+00
        -11   -1    0    0    0    0  0.00000000000E+00  0.00000000000E+00  0.45593999997E+02  0.45594000000E+02  0.51100000000E-03 0.  1.
         11   -1    0    0    0    0 -0.00000000000E+00 -0.00000000000E+00 -0.45593999997E+02  0.45594000000E+02  0.51100000000E-03 0. -1.
    9900012    2    1    2    0    0  0.28715366352E+02 -0.69119827832E+00  0.13844517232E+02  0.59301942276E+02  0.49999996806E+02 0.  0.
         12    1    1    2    0    0 -0.28715366352E+02  0.69119827832E+00 -0.13844517232E+02  0.31886057724E+02  0.00000000000E+00 0. -1.
         11    1    3    3    0    0 -0.98202183773E+00  0.15263738166E+02  0.17766572095E+01  0.15398135627E+02  0.51100000000E-03 0. -1.
        -11    1    3    3    0    0  0.31634980267E+02 -0.11300548574E+02  0.16284099701E+02  0.37331572133E+02  0.51100000000E-03 0.  1.
        -12    1    3    3    0    0 -0.19375920774E+01 -0.46543878707E+01 -0.42162396790E+01  0.65722345165E+01  0.00000000000E+00 0.  1.
</event>
<event>
 7    1  0.4489290E-013  0.5930194E+02  0.7816164E-02  0.1266605E+00
        -11   -1    0    0    0    0  0.00000000000E+00  0.00000000000E+00  0.45593999997E+02  0.45594000000E+02  0.51100000000E-03 0.  1.
         11   -1    0    0    0    0 -0.00000000000E+00 -0.00000000000E+00 -0.45593999997E+02  0.45594000000E+02  0.51100000000E-03 0. -1.
    9900012    2    1    2    0    0  0.31719772234E+02  0.15021388367E+01 -0.28845626773E+01  0.59301936061E+02  0.49999985471E+02 0.  0.
         12    1    1    2    0    0 -0.31719772234E+02 -0.15021388367E+01  0.28845626773E+01  0.31886063939E+02  0.00000000000E+00 0. -1.
         11    1    3    3    0    0  0.18508175788E+02  0.79573151531E+01 -0.14902182364E+02  0.25058860207E+02  0.51100000000E-03 0. -1.
        -11    1    3    3    0    0 -0.44891070374E+01 -0.12005906825E+02  0.84502906852E+01  0.15352566353E+02  0.51100000000E-03 0.  1.
         12    1    3    3    0    0  0.17700703484E+02  0.55507305089E+01  0.35673290012E+01  0.18890509501E+02  0.00000000000E+00 0. -1.
</event>
<event>
 7    1  0.4489290E-013  0.5930195E+02  0.7816164E-02  0.1266605E+00
        -11   -1    0    0    0    0  0.00000000000E+00  0.00000000000E+00  0.45593999997E+02  0.45594000000E+02  0.51100000000E-03 0. -1.
         11   -1    0    0    0    0 -0.00000000000E+00 -0.00000000000E+00 -0.45593999997E+02  0.45594000000E+02  0.51100000000E-03 0.  1.
    9900012    2    1    2    0    0 -0.16351447164E+02  0.12718401444E+02 -0.24240309153E+02  0.59301950582E+02  0.50000011953E+02 0.  0.
         12    1    1    2    0    0  0.16351447164E+02 -0.12718401444E+02  0.24240309153E+02  0.31886049418E+02  0.00000000000E+00 0. -1.
         11    1    3    3    0    0  0.19741641109E+01  0.10324773358E+01  0.29217741840E+01  0.36742479542E+01  0.51100000000E-03 0. -1.
        -11    1    3    3    0    0 -0.28073272164E+02  0.12701050686E+02 -0.32234484530E+02  0.44592457789E+02  0.51100000000E-03 0.  1.
        -12    1    3    3    0    0  0.97476608890E+01 -0.10151265778E+01  0.50724011928E+01  0.11035244838E+02  0.00000000000E+00 0.  1.
</event>
<event>
 7    1  0.4489290E-013  0.5930193E+02  0.7816164E-02  0.1266605E+00
        -11   -1    0    0    0    0  0.00000000000E+00  0.00000000000E+00  0.45593999997E+02  0.45594000000E+02  0.51100000000E-03 0.  1.
         11   -1    0    0    0    0 -0.00000000000E+00 -0.00000000000E+00 -0.45593999997E+02  0.45594000000E+02  0.51100000000E-03 0. -1.
    9900012    2    1    2    0    0 -0.30006242748E+02 -0.56204792970E+01 -0.92063754423E+01  0.59301925607E+02  0.49999966405E+02 0.  0.
         12    1    1    2    0    0  0.30006242748E+02  0.56204792970E+01  0.92063754423E+01  0.31886074393E+02  0.00000000000E+00 0. -1.
         11    1    3    3    0    0  0.70106499792E+01 -0.20218129848E+01  0.86221741697E+01  0.11295079838E+02  0.51100000000E-03 0. -1.
        -11    1    3    3    0    0 -0.33120805100E+02 -0.56292106806E+01 -0.23377625368E+02  0.40929074158E+02  0.51100000000E-03 0.  1.
        -12    1    3    3    0    0 -0.38960876274E+01  0.20305443685E+01  0.55490757556E+01  0.70777716108E+01  0.00000000000E+00 0.  1.
</event>
<event>
 7    1  0.4489290E-013  0.5930193E+02  0.7816164E-02  0.1266605E+00
        -11   -1    0    0    0    0  0.00000000000E+00  0.00000000000E+00  0.45593999997E+02  0.45594000000E+02  0.51100000000E-03 0. -1.
         11   -1    0    0    0    0 -0.00000000000E+00 -0.00000000000E+00 -0.45593999997E+02  0.45594000000E+02  0.51100000000E-03 0.  1.
    9900012    2    1    2    0    0 -0.93895819022E+01 -0.93986227443E+01 -0.28986598950E+02  0.59301932879E+02  0.49999979667E+02 0.  0.
         12    1    1    2    0    0  0.93895819022E+01  0.93986227443E+01  0.28986598950E+02  0.31886067121E+02  0.00000000000E+00 0. -1.
         11    1    3    3    0    0 -0.24573366187E+02 -0.27264626367E+01  0.22912847217E+00  0.24725218389E+02  0.51100000000E-03 0. -1.
        -11    1    3    3    0    0 -0.10044061200E+01 -0.72115711411E+00 -0.22385851788E+01  0.25573742591E+01  0.51100000000E-03 0.  1.
         12    1    3    3    0    0  0.16188190405E+02 -0.59510029935E+01 -0.26977142243E+02  0.32019340231E+02  0.00000000000E+00 0. -1.
</event>
<event>
 7    1  0.4489290E-013  0.5930222E+02  0.7816164E-02  0.1266604E+00
        -11   -1    0    0    0    0  0.00000000000E+00  0.00000000000E+00  0.45593999997E+02  0.45594000000E+02  0.51100000000E-03 0.  1.
         11   -1    0    0    0    0 -0.00000000000E+00 -0.00000000000E+00 -0.45593999997E+02  0.45594000000E+02  0.51100000000E-03 0. -1.
    9900012    2    1    2    0    0 -0.12033016285E+02 -0.73361784759E+01  0.28602274439E+02  0.59302217924E+02  0.50000499519E+02 0.  0.
         12    1    1    2    0    0  0.12033016285E+02  0.73361784759E+01 -0.28602274439E+02  0.31885782076E+02  0.00000000000E+00 0. -1.
         11    1    3    3    0    0 -0.18086696462E+02 -0.12813535023E+01 -0.45329846684E+01  0.18690061690E+02  0.51100000000E-03 0. -1.
        -11    1    3    3    0    0 -0.93262355285E+00 -0.36149489788E+01  0.33000326278E+02  0.33210829221E+02  0.51100000000E-03 0.  1.
         12    1    3    3    0    0  0.69863037305E+01 -0.24398759948E+01  0.13493282883E+00  0.74013270130E+01  0.00000000000E+00 0. -1.
</event>
<event>
 7    1  0.4489290E-013  0.5930195E+02  0.7816164E-02  0.1266605E+00
        -11   -1    0    0    0    0  0.00000000000E+00  0.00000000000E+00  0.45593999997E+02  0.45594000000E+02  0.51100000000E-03 0. -1.
         11   -1    0    0    0    0 -0.00000000000E+00 -0.00000000000E+00 -0.45593999997E+02  0.45594000000E+02  0.51100000000E-03 0.  1.
    9900012    2    1    2    0    0 -0.10477535140E+02 -0.13571053724E+02 -0.26884341569E+02  0.59301951901E+02  0.50000014359E+02 0.  0.
         12    1    1    2    0    0  0.10477535140E+02  0.13571053724E+02  0.26884341569E+02  0.31886048099E+02  0.00000000000E+00 0. -1.
         11    1    3    3    0    0 -0.47463561772E+01  0.14240563780E+02 -0.25071315087E+02  0.29221437237E+02  0.51100000000E-03 0. -1.
        -11    1    3    3    0    0 -0.40660666461E+01 -0.22661421901E+02 -0.53213697446E+01  0.23630275427E+02  0.51100000000E-03 0.  1.
         12    1    3    3    0    0 -0.16651123165E+01 -0.51501956030E+01  0.35083432626E+01  0.64502392377E+01  0.00000000000E+00 0. -1.
</event>
<event>
 7    1  0.4489290E-013  0.5930194E+02  0.7816164E-02  0.1266605E+00
        -11   -1    0    0    0    0  0.00000000000E+00  0.00000000000E+00  0.45593999997E+02  0.45594000000E+02  0.51100000000E-03 0.  1.
         11   -1    0    0    0    0 -0.00000000000E+00 -0.00000000000E+00 -0.45593999997E+02  0.45594000000E+02  0.51100000000E-03 0. -1.
    9900012    2    1    2    0    0 -0.24835293993E+02 -0.18220815057E+01  0.19915044270E+02  0.59301940397E+02  0.49999993379E+02 0.  0.
         12    1    1    2    0    0  0.24835293993E+02  0.18220815057E+01 -0.19915044270E+02  0.31886059603E+02  0.00000000000E+00 0. -1.
         11    1    3    3    0    0 -0.34897594510E+01  0.86110272803E+00 -0.10688796255E+02  0.11276980295E+02  0.51100000000E-03 0. -1.
        -11    1    3    3    0    0 -0.19777880834E+02 -0.29112755047E+01  0.36664688530E+02  0.41760501441E+02  0.51100000000E-03 0.  1.
        -12    1    3    3    0    0 -0.15676537077E+01  0.22809127100E+00 -0.60608480047E+01  0.62644586607E+01  0.00000000000E+00 0.  1.
</event>
<event>
 7    1  0.4489290E-013  0.5930176E+02  0.7816164E-02  0.1266605E+00
        -11   -1    0    0    0    0  0.00000000000E+00  0.00000000000E+00  0.45593999997E+02  0.45594000000E+02  0.51100000000E-03 0.  1.
         11   -1    0    0    0    0 -0.00000000000E+00 -0.00000000000E+00 -0.45593999997E+02  0.45594000000E+02  0.51100000000E-03 0. -1.
    9900012    2    1    2    0    0  0.17340556343E+02  0.26713071937E+02  0.15649259347E+01  0.59301763161E+02  0.49999670141E+02 0.  0.
         12    1    1    2    0    0 -0.17340556343E+02 -0.26713071937E+02 -0.15649259347E+01  0.31886236839E+02  0.00000000000E+00 0. -1.
         11    1    3    3    0    0  0.41219742023E+01  0.19711770216E+02 -0.12215555353E+02  0.23553436039E+02  0.51100000000E-03 0. -1.
        -11    1    3    3    0    0  0.43146877577E+01 -0.11153474743E+02  0.14050008748E+01  0.12041202474E+02  0.51100000000E-03 0.  1.
        -12    1    3    3    0    0  0.89038943828E+01  0.18154776464E+02  0.12375480413E+02  0.23707124648E+02  0.00000000000E+00 0.  1.
</event>
<event>
 7    1  0.4489290E-013  0.5930193E+02  0.7816164E-02  0.1266605E+00
        -11   -1    0    0    0    0  0.00000000000E+00  0.00000000000E+00  0.45593999997E+02  0.45594000000E+02  0.51100000000E-03 0. -1.
         11   -1    0    0    0    0 -0.00000000000E+00 -0.00000000000E+00 -0.45593999997E+02  0.45594000000E+02  0.51100000000E-03 0.  1.
    9900012    2    1    2    0    0  0.68900965899E+01 -0.30460157369E+02 -0.64363707466E+01  0.59301929588E+02  0.49999973665E+02 0.  0.
         12    1    1    2    0    0 -0.68900965899E+01  0.30460157369E+02  0.64363707466E+01  0.31886070412E+02  0.00000000000E+00 0. -1.
         11    1    3    3    0    0 -0.31749021089E+01 -0.20523284628E+02 -0.18831245453E+02  0.28033926248E+02  0.51100000000E-03 0. -1.
        -11    1    3    3    0    0  0.15930970345E+02 -0.36169254288E+01  0.20625125079E+00  0.16337701966E+02  0.51100000000E-03 0.  1.
         12    1    3    3    0    0 -0.58659716459E+01 -0.63199473118E+01  0.12188623455E+02  0.14930301374E+02  0.00000000000E+00 0. -1.
</event>
<event>
 7    1  0.4489290E-013  0.5930195E+02  0.7816164E-02  0.1266605E+00
        -11   -1    0    0    0    0  0.00000000000E+00  0.00000000000E+00  0.45593999997E+02  0.45594000000E+02  0.51100000000E-03 0.  1.
         11   -1    0    0    0    0 -0.00000000000E+00 -0.00000000000E+00 -0.45593999997E+02  0.45594000000E+02  0.51100000000E-03 0. -1.
    9900012    2    1    2    0    0 -0.14403107096E+01 -0.30870080691E+02  0.78539081305E+01  0.59301948978E+02  0.50000009029E+02 0.  0.
         12    1    1    2    0    0  0.14403107096E+01  0.30870080691E+02 -0.78539081305E+01  0.31886051022E+02  0.00000000000E+00 0. -1.
         11    1    3    3    0    0  0.15192272982E+02 -0.55114575276E+01  0.89337705280E+01  0.18466011441E+02  0.51100000000E-03 0. -1.
        -11    1    3    3    0    0 -0.21894447436E+02 -0.13361923346E+02  0.54138662839E+01  0.26214838784E+02  0.51100000000E-03 0.  1.
         12    1    3    3    0    0  0.52618637442E+01 -0.11996699817E+02 -0.64937286813E+01  0.14621098753E+02  0.00000000000E+00 0. -1.
</event>
<event>
 7    1  0.4489290E-013  0.5930194E+02  0.7816164E-02  0.1266605E+00
        -11   -1    0    0    0    0  0.00000000000E+00  0.00000000000E+00  0.45593999997E+02  0.45594000000E+02  0.51100000000E-03 0.  1.
         11   -1    0    0    0    0 -0.00000000000E+00 -0.00000000000E+00 -0.45593999997E+02  0.45594000000E+02  0.51100000000E-03 0. -1.
    9900012    2    1    2    0    0  0.31729974049E+01  0.93670450163E+01  0.30313554525E+02  0.59301936699E+02  0.49999986635E+02 0.  0.
         12    1    1    2    0    0 -0.31729974049E+01 -0.93670450163E+01 -0.30313554525E+02  0.31886063301E+02  0.00000000000E+00 0. -1.
         11    1    3    3    0    0  0.11679658521E+02  0.10202131536E+02  0.29298505134E+02  0.33149665374E+02  0.51100000000E-03 0. -1.
        -11    1    3    3    0    0 -0.59915419317E+01  0.75067488599E+01 -0.88010299385E+01  0.13027201595E+02  0.51100000000E-03 0.  1.
        -12    1    3    3    0    0 -0.25151191846E+01 -0.83418353796E+01  0.98160793300E+01  0.13125069730E+02  0.00000000000E+00 0.  1.
</event>
<event>
 7    1  0.4489290E-013  0.5930193E+02  0.7816164E-02  0.1266605E+00
        -11   -1    0    0    0    0  0.00000000000E+00  0.00000000000E+00  0.45593999997E+02  0.45594000000E+02  0.51100000000E-03 0.  1.
         11   -1    0    0    0    0 -0.00000000000E+00 -0.00000000000E+00 -0.45593999997E+02  0.45594000000E+02  0.51100000000E-03 0. -1.
    9900012    2    1    2    0    0 -0.13051888230E+02  0.60459557941E+01  0.28457267571E+02  0.59301930229E+02  0.49999974834E+02 0.  0.
         12    1    1    2    0    0  0.13051888230E+02 -0.60459557941E+01 -0.28457267571E+02  0.31886069771E+02  0.00000000000E+00 0. -1.
         11    1    3    3    0    0  0.84129592613E+01 -0.54044949920E+01 -0.43985738594E+01  0.10924005763E+02  0.51100000000E-03 0. -1.
        -11    1    3    3    0    0 -0.13149924593E+02  0.13597808963E+02  0.54907030426E+01  0.19696922236E+02  0.51100000000E-03 0.  1.
         12    1    3    3    0    0 -0.83149228989E+01 -0.21473581770E+01  0.27365138388E+02  0.28681002230E+02  0.00000000000E+00 0. -1.
</event>
<event>
 7    1  0.4489290E-013  0.5930194E+02  0.7816164E-02  0.1266605E+00
        -11   -1    0    0    0    0  0.00000000000E+00  0.00000000000E+00  0.45593999997E+02  0.45594000000E+02  0.51100000000E-03 0. -1.
         11   -1    0    0    0    0 -0.00000000000E+00 -0.00000000000E+00 -0.45593999997E+02  0.45594000000E+02  0.51100000000E-03 0.  1.
    9900012    2    1    2    0    0 -0.15480812587E+02  0.23826301387E+02  0.14469711133E+02  0.59301941348E+02  0.49999995113E+02 0.  0.
         12    1    1    2    0    0  0.15480812587E+02 -0.23826301387E+02 -0.14469711133E+02  0.31886058652E+02  0.00000000000E+00 0. -1.
         11    1    3    3    0    0 -0.57327294138E+01 -0.24362158242E+01  0.76585880759E+01  0.98718440856E+01  0.51100000000E-03 0. -1.
        -11    1    3    3    0    0 -0.97279624831E+00  0.33169468290E+02 -0.45561189297E+01  0.33495047084E+02  0.51100000000E-03 0.  1.
        -12    1    3    3    0    0 -0.87752869244E+01 -0.69069510791E+01  0.11367241987E+02  0.15935050179E+02  0.00000000000E+00 0.  1.
</event>
<event>
 7    1  0.4489290E-013  0.5930191E+02  0.7816164E-02  0.1266605E+00
        -11   -1    0    0    0    0  0.00000000000E+00  0.00000000000E+00  0.45593999997E+02  0.45594000000E+02  0.51100000000E-03 0. -1.
         11   -1    0    0    0    0 -0.00000000000E+00 -0.00000000000E+00 -0.45593999997E+02  0.45594000000E+02  0.51100000000E-03 0.  1.
    9900012    2    1    2    0    0  0.31896353547E+01 -0.31397524632E+02 -0.45545911603E+01  0.59301911696E+02  0.49999941035E+02 0.  0.
         12    1    1    2    0    0 -0.31896353547E+01  0.31397524632E+02  0.45545911603E+01  0.31886088304E+02  0.00000000000E+00 0. -1.
         11    1    3    3    0    0  0.62193773641E+01 -0.33734786297E+02  0.10695011649E+02  0.35931876319E+02  0.51100000000E-03 0. -1.
        -11    1    3    3    0    0  0.64521324903E+01  0.28779268620E+01 -0.25478729590E+01  0.75102685419E+01  0.51100000000E-03 0.  1.
         12    1    3    3    0    0 -0.94818744997E+01 -0.54066519604E+00 -0.12701729851E+02  0.15859766836E+02  0.00000000000E+00 0. -1.
</event>
<event>
 7    1  0.4489290E-013  0.5930194E+02  0.7816164E-02  0.1266605E+00
        -11   -1    0    0    0    0  0.00000000000E+00  0.00000000000E+00  0.45593999997E+02  0.45594000000E+02  0.51100000000E-03 0. -1.
         11   -1    0    0    0    0 -0.00000000000E+00 -0.00000000000E+00 -0.45593999997E+02  0.45594000000E+02  0.51100000000E-03 0.  1.
    9900012    2    1    2    0    0  0.54143374774E+01  0.50668029743E+01 -0.31011822759E+02  0.59301942020E+02  0.49999996338E+02 0.  0.
         12    1    1    2    0    0 -0.54143374774E+01 -0.50668029743E+01  0.31011822759E+02  0.31886057980E+02  0.00000000000E+00 0. -1.
         11    1    3    3    0    0 -0.28393966850E+01 -0.54062457500E+01  0.33763567783E+01  0.69777827424E+01  0.51100000000E-03 0. -1.
        -11    1    3    3    0    0  0.18682457536E+02  0.67992347131E+01 -0.43997077677E+01  0.20362250391E+02  0.51100000000E-03 0.  1.
        -12    1    3    3    0    0 -0.10428723374E+02  0.36738140112E+01 -0.29988471769E+02  0.31961908886E+02  0.00000000000E+00 0.  1.
</event>
<event>
 7    1  0.4489290E-013  0.5930194E+02  0.7816164E-02  0.1266605E+00
        -11   -1    0    0    0    0  0.00000000000E+00  0.00000000000E+00  0.45593999997E+02  0.45594000000E+02  0.51100000000E-03 0. -1.
         11   -1    0    0    0    0 -0.00000000000E+00 -0.00000000000E+00 -0.45593999997E+02  0.45594000000E+02  0.51100000000E-03 0.  1.
    9900012    2    1    2    0    0 -0.23582272820E+02  0.15007655197E+02 -0.15341691941E+02  0.59301940076E+02  0.49999992792E+02 0.  0.
         12    1    1    2    0    0  0.23582272820E+02 -0.15007655197E+02  0.15341691941E+02  0.31886059924E+02  0.00000000000E+00 0. -1.
         11    1    3    3    0    0 -0.86790693866E+01 -0.10594798546E+02 -0.21334744186E+01  0.13861014212E+02  0.51100000000E-03 0. -1.
        -11    1    3    3    0    0 -0.86336990292E+01  0.28213483824E+02 -0.20150334977E+02  0.35729223730E+02  0.51100000000E-03 0.  1.
         12    1    3    3    0    0 -0.62695044045E+01 -0.26110300816E+01  0.69421174546E+01  0.97117021330E+01  0.00000000000E+00 0. -1.
</event>
<event>
 7    1  0.4489290E-013  0.5930195E+02  0.7816164E-02  0.1266605E+00
        -11   -1    0    0    0    0  0.00000000000E+00  0.00000000000E+00  0.45593999997E+02  0.45594000000E+02  0.51100000000E-03 0.  1.
         11   -1    0    0    0    0 -0.00000000000E+00 -0.00000000000E+00 -0.45593999997E+02  0.45594000000E+02  0.51100000000E-03 0. -1.
    9900012    2    1    2    0    0 -0.17860477588E+02 -0.24459040820E+02  0.99738978348E+01  0.59301953278E+02  0.50000016871E+02 0.  0.
         12    1    1    2    0    0  0.17860477588E+02  0.24459040820E+02 -0.99738978348E+01  0.31886046722E+02  0.00000000000E+00 0. -1.
         11    1    3    3    0    0  0.94146503993E+01 -0.51938109080E+01 -0.55194525868E+01  0.12086176857E+02  0.51100000000E-03 0. -1.
        -11    1    3    3    0    0 -0.21970583426E+02 -0.10741295510E+02 -0.44785621463E+01  0.24862411076E+02  0.51100000000E-03 0.  1.
        -12    1    3    3    0    0 -0.53045445612E+01 -0.85239344016E+01  0.19971912568E+02  0.22353365346E+02  0.00000000000E+00 0.  1.
</event>
<event>
 7    1  0.4489290E-013  0.5930198E+02  0.7816164E-02  0.1266605E+00
        -11   -1    0    0    0    0  0.00000000000E+00  0.00000000000E+00  0.45593999997E+02  0.45594000000E+02  0.51100000000E-03 0. -1.
         11   -1    0    0    0    0 -0.00000000000E+00 -0.00000000000E+00 -0.45593999997E+02  0.45594000000E+02  0.51100000000E-03 0.  1.
    9900012    2    1    2    0    0  0.25318914440E+02 -0.18148576620E+02 -0.68044253019E+01  0.59301976958E+02  0.50000060057E+02 0.  0.
         12    1    1    2    0    0 -0.25318914440E+02  0.18148576620E+02  0.68044253019E+01  0.31886023042E+02  0.00000000000E+00 0. -1.
         11    1    3    3    0    0  0.77009669427E+01 -0.75031924402E+01  0.14904992953E+02  0.18378291646E+02  0.51100000000E-03 0. -1.
        -11    1    3    3    0    0  0.62348906764E+01 -0.16957848425E+02 -0.21259147109E+02  0.27899710053E+02  0.51100000000E-03 0.  1.
        -12    1    3    3    0    0  0.11383056821E+02  0.63124642453E+01 -0.45027114552E+00  0.13023975259E+02  0.00000000000E+00 0.  1.
</event>
<event>
 7    1  0.4489290E-013  0.5930193E+02  0.7816164E-02  0.1266605E+00
        -11   -1    0    0    0    0  0.00000000000E+00  0.00000000000E+00  0.45593999997E+02  0.45594000000E+02  0.51100000000E-03 0. -1.
         11   -1    0    0    0    0 -0.00000000000E+00 -0.00000000000E+00 -0.45593999997E+02  0.45594000000E+02  0.51100000000E-03 0.  1.
    9900012    2    1    2    0    0 -0.21077724778E+02  0.16838648982E+02 -0.16997374292E+02  0.59301932287E+02  0.49999978588E+02 0.  0.
         12    1    1    2    0    0  0.21077724778E+02 -0.16838648982E+02  0.16997374292E+02  0.31886067713E+02  0.00000000000E+00 0. -1.
         11    1    3    3    0    0  0.37234540436E-01  0.58556727079E+01  0.12593156450E+02  0.13888048060E+02  0.51100000000E-03 0. -1.
        -11    1    3    3    0    0 -0.23484707433E+02  0.13033146523E+02 -0.15565743753E+02  0.31043304759E+02  0.51100000000E-03 0.  1.
         12    1    3    3    0    0  0.23697481148E+01 -0.20501702485E+01 -0.14024786989E+02  0.14370579468E+02  0.00000000000E+00 0. -1.
</event>
<event>
 7    1  0.4489290E-013  0.5930213E+02  0.7816164E-02  0.1266604E+00
        -11   -1    0    0    0    0  0.00000000000E+00  0.00000000000E+00  0.45593999997E+02  0.45594000000E+02  0.51100000000E-03 0.  1.
         11   -1    0    0    0    0 -0.00000000000E+00 -0.00000000000E+00 -0.45593999997E+02  0.45594000000E+02  0.51100000000E-03 0. -1.
    9900012    2    1    2    0    0 -0.78723790712E+01 -0.29632607429E+02  0.87546102537E+01  0.59302125761E+02  0.50000331437E+02 0.  0.
         12    1    1    2    0    0  0.78723790712E+01  0.29632607429E+02 -0.87546102537E+01  0.31885874239E+02  0.00000000000E+00 0. -1.
         11    1    3    3    0    0 -0.49793963783E+01  0.92336766122E+01  0.15017035196E+02  0.18318474784E+02  0.51100000000E-03 0. -1.
        -11    1    3    3    0    0  0.98469646203E+00 -0.25443940811E+02 -0.84791225866E+01  0.26837646529E+02  0.51100000000E-03 0.  1.
         12    1    3    3    0    0 -0.38776791549E+01 -0.13422343230E+02  0.22166976447E+01  0.14146004449E+02  0.00000000000E+00 0. -1.
</event>
<event>
 7    1  0.4489290E-013  0.5930218E+02  0.7816164E-02  0.1266604E+00
        -11   -1    0    0    0    0  0.00000000000E+00  0.00000000000E+00  0.45593999997E+02  0.45594000000E+02  0.51100000000E-03 0. -1.
         11   -1    0    0    0    0 -0.00000000000E+00 -0.00000000000E+00 -0.45593999997E+02  0.45594000000E+02  0.51100000000E-03 0.  1.
    9900012    2    1    2    0    0 -0.26974518347E+02  0.12487035433E+02  0.11539274329E+02  0.59302179546E+02  0.50000429527E+02 0.  0.
         12    1    1    2    0    0  0.26974518347E+02 -0.12487035433E+02 -0.11539274329E+02  0.31885820454E+02  0.00000000000E+00 0. -1.
         11    1    3    3    0    0 -0.59120167664E+01 -0.10517470618E+02 -0.49144395180E+01  0.13027695364E+02  0.51100000000E-03 0. -1.
        -11    1    3    3    0    0 -0.28465003584E+02  0.14401832769E+02  0.12048480072E+02  0.34100367864E+02  0.51100000000E-03 0.  1.
        -12    1    3    3    0    0  0.74025020033E+01  0.86026732822E+01  0.44052337755E+01  0.12174116318E+02  0.00000000000E+00 0.  1.
</event>
<event>
 7    1  0.4660718E-013  0.5930190E+02  0.7816164E-02  0.1266605E+00
        -11   -1    0    0    0    0  0.00000000000E+00  0.00000000000E+00  0.45593999997E+02  0.45594000000E+02  0.51100000000E-03 0. -1.
         11   -1    0    0    0    0 -0.00000000000E+00 -0.00000000000E+00 -0.45593999997E+02  0.45594000000E+02  0.51100000000E-03 0.  1.
    9900012    2    1    2    0    0  0.98323429317E+01  0.12558048519E+02 -0.27610574989E+02  0.59301899558E+02  0.49999918899E+02 0.  0.
         12    1    1    2    0    0 -0.98323429317E+01 -0.12558048519E+02  0.27610574989E+02  0.31886100442E+02  0.00000000000E+00 0. -1.
         11    1    3    3    0    0  0.15096145340E+02 -0.13044059371E+02 -0.72429940189E+01  0.21225033607E+02  0.51100000000E-03 0. -1.
        -11    1    3    3    0    0 -0.84351354476E+01  0.37777722901E+01 -0.10285400181E+02  0.13827961912E+02  0.51100000000E-03 0.  1.
         12    1    3    3    0    0  0.31713330390E+01  0.21824335600E+02 -0.10082180789E+02  0.24248904039E+02  0.00000000000E+00 0. -1.
</event>
<event>
 7    1  0.4489290E-013  0.5930195E+02  0.7816164E-02  0.1266605E+00
        -11   -1    0    0    0    0  0.00000000000E+00  0.00000000000E+00  0.45593999997E+02  0.45594000000E+02  0.51100000000E-03 0.  1.
         11   -1    0    0    0    0 -0.00000000000E+00 -0.00000000000E+00 -0.45593999997E+02  0.45594000000E+02  0.51100000000E-03 0. -1.
    9900012    2    1    2    0    0  0.20933756533E+02  0.15320625552E+02  0.18541207576E+02  0.59301951197E+02  0.50000013076E+02 0.  0.
         12    1    1    2    0    0 -0.20933756533E+02 -0.15320625552E+02 -0.18541207576E+02  0.31886048803E+02  0.00000000000E+00 0. -1.
         11    1    3    3    0    0  0.59849282085E+01 -0.12404579563E+02 -0.96491558499E+01  0.16816633691E+02  0.51100000000E-03 0. -1.
        -11    1    3    3    0    0  0.65047726555E+01  0.16211007726E+02  0.16558523992E+02  0.24068517940E+02  0.51100000000E-03 0.  1.
         12    1    3    3    0    0  0.84440556686E+01  0.11514197389E+02  0.11631839434E+02  0.18416799566E+02  0.00000000000E+00 0. -1.
</event>
<event>
 7    1  0.4489290E-013  0.5930195E+02  0.7816164E-02  0.1266605E+00
        -11   -1    0    0    0    0  0.00000000000E+00  0.00000000000E+00  0.45593999997E+02  0.45594000000E+02  0.51100000000E-03 0. -1.
         11   -1    0    0    0    0 -0.00000000000E+00 -0.00000000000E+00 -0.45593999997E+02  0.45594000000E+02  0.51100000000E-03 0.  1.
    9900012    2    1    2    0    0  0.18147768588E+02 -0.28493122752E+01 -0.26062623823E+02  0.59301945906E+02  0.50000003425E+02 0.  0.
         12    1    1    2    0    0 -0.18147768588E+02  0.28493122752E+01  0.26062623823E+02  0.31886054094E+02  0.00000000000E+00 0. -1.
         11    1    3    3    0    0  0.26300017721E+02 -0.31300314306E+01 -0.87510025933E+01  0.27893871648E+02  0.51100000000E-03 0. -1.
        -11    1    3    3    0    0 -0.12841287195E+02 -0.20887627464E+00  0.62896015638E+00  0.12858377708E+02  0.51100000000E-03 0.  1.
        -12    1    3    3    0    0  0.46890380624E+01  0.48959543004E+00 -0.17940581386E+02  0.18549696550E+02  0.00000000000E+00 0.  1.
</event>
<event>
 7    1  0.4489290E-013  0.5930193E+02  0.7816164E-02  0.1266605E+00
        -11   -1    0    0    0    0  0.00000000000E+00  0.00000000000E+00  0.45593999997E+02  0.45594000000E+02  0.51100000000E-03 0. -1.
         11   -1    0    0    0    0 -0.00000000000E+00 -0.00000000000E+00 -0.45593999997E+02  0.45594000000E+02  0.51100000000E-03 0.  1.
    9900012    2    1    2    0    0 -0.25772182794E+02 -0.43602051671E+01 -0.18262108649E+02  0.59301930826E+02  0.49999975924E+02 0.  0.
         12    1    1    2    0    0  0.25772182794E+02  0.43602051671E+01  0.18262108649E+02  0.31886069174E+02  0.00000000000E+00 0. -1.
         11    1    3    3    0    0  0.39432809570E+01  0.79920697746E+01  0.10303143305E+02  0.13622679847E+02  0.51100000000E-03 0. -1.
        -11    1    3    3    0    0 -0.13024782599E+02  0.36315173673E+00 -0.17904787930E+02  0.22144034683E+02  0.51100000000E-03 0.  1.
         12    1    3    3    0    0 -0.16690681152E+02 -0.12715426678E+02 -0.10660464024E+02  0.23535216297E+02  0.00000000000E+00 0. -1.
</event>
<event>
 7    1  0.4489290E-013  0.5930195E+02  0.7816164E-02  0.1266605E+00
        -11   -1    0    0    0    0  0.00000000000E+00  0.00000000000E+00  0.45593999997E+02  0.45594000000E+02  0.51100000000E-03 0.  1.
         11   -1    0    0    0    0 -0.00000000000E+00 -0.00000000000E+00 -0.45593999997E+02  0.45594000000E+02  0.51100000000E-03 0. -1.
    9900012    2    1    2    0    0  0.30664440181E+02 -0.65652056470E+01 -0.57715306721E+01  0.59301946888E+02  0.50000005216E+02 0.  0.
         12    1    1    2    0    0 -0.30664440181E+02  0.65652056470E+01  0.57715306721E+01  0.31886053112E+02  0.00000000000E+00 0. -1.
         11    1    3    3    0    0  0.44592162991E+01  0.69412055807E+01 -0.32991860425E+01  0.88853572647E+01  0.51100000000E-03 0. -1.
        -11    1    3    3    0    0  0.20989128199E+02 -0.27479435880E+02  0.25667137364E+01  0.34673490140E+02  0.51100000000E-03 0.  1.
        -12    1    3    3    0    0  0.52160956822E+01  0.13973024652E+02 -0.50390583660E+01  0.15743099483E+02  0.00000000000E+00 0.  1.
</event>
<event>
 7    1  0.4489290E-013  0.5930186E+02  0.7816164E-02  0.1266605E+00
        -11   -1    0    0    0    0  0.00000000000E+00  0.00000000000E+00  0.45593999997E+02  0.45594000000E+02  0.51100000000E-03 0.  1.
         11   -1    0    0    0    0 -0.00000000000E+00 -0.00000000000E+00 -0.45593999997E+02  0.45594000000E+02  0.51100000000E-03 0. -1.
    9900012    2    1    2    0    0  0.79103412961E+01  0.30644996754E+02  0.38777226738E+01  0.59301857890E+02  0.49999842906E+02 0.  0.
         12    1    1    2    0    0 -0.79103412961E+01 -0.30644996754E+02 -0.38777226738E+01  0.31886142110E+02  0.00000000000E+00 0. -1.
         11    1    3    3    0    0  0.15029252647E+02  0.18713599774E+02 -0.12194602509E+02  0.26921842104E+02  0.51100000000E-03 0. -1.
        -11    1    3    3    0    0 -0.16078022374E+02  0.10029754599E+02  0.10958237095E+02  0.21890220219E+02  0.51100000000E-03 0.  1.
        -12    1    3    3    0    0  0.89591110227E+01  0.19016423815E+01  0.51140880885E+01  0.10489795567E+02  0.00000000000E+00 0.  1.
</event>
<event>
 7    1  0.4489290E-013  0.5930193E+02  0.7816164E-02  0.1266605E+00
        -11   -1    0    0    0    0  0.00000000000E+00  0.00000000000E+00  0.45593999997E+02  0.45594000000E+02  0.51100000000E-03 0.  1.
         11   -1    0    0    0    0 -0.00000000000E+00 -0.00000000000E+00 -0.45593999997E+02  0.45594000000E+02  0.51100000000E-03 0. -1.
    9900012    2    1    2    0    0 -0.25454746650E+02 -0.18991028059E+02  0.28492045007E+01  0.59301933450E+02  0.49999980710E+02 0.  0.
         12    1    1    2    0    0  0.25454746650E+02  0.18991028059E+02 -0.28492045007E+01  0.31886066550E+02  0.00000000000E+00 0. -1.
         11    1    3    3    0    0  0.51233809632E+01  0.11028143161E+02  0.75308580710E+01  0.14303244304E+02  0.51100000000E-03 0. -1.
        -11    1    3    3    0    0 -0.31750717889E+02 -0.28386431161E+02 -0.52435742140E+01  0.42911451052E+02  0.51100000000E-03 0.  1.
         12    1    3    3    0    0  0.11725902767E+01 -0.16327400584E+01  0.56192064364E+00  0.20872380950E+01  0.00000000000E+00 0. -1.
</event>
<event>
 7    1  0.4489290E-013  0.5930192E+02  0.7816164E-02  0.1266605E+00
        -11   -1    0    0    0    0  0.00000000000E+00  0.00000000000E+00  0.45593999997E+02  0.45594000000E+02  0.51100000000E-03 0.  1.
         11   -1    0    0    0    0 -0.00000000000E+00 -0.00000000000E+00 -0.45593999997E+02  0.45594000000E+02  0.51100000000E-03 0. -1.
    9900012    2    1    2    0    0  0.27126272892E+02  0.18894220246E+01  0.16652855925E+02  0.59301918286E+02  0.49999953054E+02 0.  0.
         12    1    1    2    0    0 -0.27126272892E+02 -0.18894220246E+01 -0.16652855925E+02  0.31886081714E+02  0.00000000000E+00 0. -1.
         11    1    3    3    0    0  0.18936058373E+01  0.48391904193E+01 -0.30100706170E+01  0.60053336595E+01  0.51100000000E-03 0. -1.
        -11    1    3    3    0    0  0.29929334866E+02 -0.11437223613E+02  0.75907308984E+00  0.32049202201E+02  0.51100000000E-03 0.  1.
        -12    1    3    3    0    0 -0.46966678114E+01  0.84874552181E+01  0.18903853452E+02  0.21247382426E+02  0.00000000000E+00 0.  1.
</event>
<event>
 7    1  0.4489290E-013  0.5930194E+02  0.7816164E-02  0.1266605E+00
        -11   -1    0    0    0    0  0.00000000000E+00  0.00000000000E+00  0.45593999997E+02  0.45594000000E+02  0.51100000000E-03 0.  1.
         11   -1    0    0    0    0 -0.00000000000E+00 -0.00000000000E+00 -0.45593999997E+02  0.45594000000E+02  0.51100000000E-03 0. -1.
    9900012    2    1    2    0    0  0.84918167533E+01  0.74886565923E+01  0.29808216753E+02  0.59301941678E+02  0.49999995715E+02 0.  0.
         12    1    1    2    0    0 -0.84918167533E+01 -0.74886565923E+01 -0.29808216753E+02  0.31886058322E+02  0.00000000000E+00 0. -1.
         11    1    3    3    0    0 -0.72721638794E+01  0.57837788541E+01 -0.31103801995E+01  0.97985167535E+01  0.51100000000E-03 0. -1.
        -11    1    3    3    0    0  0.22226761935E+02 -0.24671041809E+01  0.34999908240E+02  0.41534433020E+02  0.51100000000E-03 0.  1.
        -12    1    3    3    0    0 -0.64627813027E+01  0.41719819192E+01 -0.20813112881E+01  0.79689919048E+01  0.00000000000E+00 0.  1.
</event>
<event>
 7    1  0.4489290E-013  0.5930191E+02  0.7816164E-02  0.1266605E+00
        -11   -1    0    0    0    0  0.00000000000E+00  0.00000000000E+00  0.45593999997E+02  0.45594000000E+02  0.51100000000E-03 0.  1.
         11   -1    0    0    0    0 -0.00000000000E+00 -0.00000000000E+00 -0.45593999997E+02  0.45594000000E+02  0.51100000000E-03 0. -1.
    9900012    2    1    2    0    0 -0.14154206627E+02  0.13860069373E+02  0.24985586749E+02  0.59301911600E+02  0.49999940860E+02 0.  0.
         12    1    1    2    0    0  0.14154206627E+02 -0.13860069373E+02 -0.24985586749E+02  0.31886088400E+02  0.00000000000E+00 0. -1.
         11    1    3    3    0    0  0.14350333865E+02  0.16177308928E+02  0.17578859444E+02  0.27868507420E+02  0.51100000000E-03 0. -1.
        -11    1    3    3    0    0 -0.22599709528E+02  0.64445837532E+00  0.16465097482E+01  0.22668771294E+02  0.51100000000E-03 0.  1.
         12    1    3    3    0    0 -0.59048309642E+01 -0.29616979299E+01  0.57602175567E+01  0.87646328870E+01  0.00000000000E+00 0. -1.
</event>
<event>
 7    1  0.4489290E-013  0.5930194E+02  0.7816164E-02  0.1266605E+00
        -11   -1    0    0    0    0  0.00000000000E+00  0.00000000000E+00  0.45593999997E+02  0.45594000000E+02  0.51100000000E-03 0.  1.
         11   -1    0    0    0    0 -0.00000000000E+00 -0.00000000000E+00 -0.45593999997E+02  0.45594000000E+02  0.51100000000E-03 0. -1.
    9900012    2    1    2    0    0 -0.26883741341E+02  0.15188455261E+02  0.79558714234E+01  0.59301943301E+02  0.49999998674E+02 0.  0.
         12    1    1    2    0    0  0.26883741341E+02 -0.15188455261E+02 -0.79558714234E+01  0.31886056699E+02  0.00000000000E+00 0. -1.
         11    1    3    3    0    0 -0.15369035771E+01 -0.65892918651E+01 -0.91319365865E+01  0.11365434702E+02  0.51100000000E-03 0. -1.
        -11    1    3    3    0    0 -0.27295150771E+02  0.27332221124E+02  0.12946006997E+02  0.40739104858E+02  0.51100000000E-03 0.  1.
        -12    1    3    3    0    0  0.19483130072E+01 -0.55544739983E+01  0.41418010125E+01  0.71974037401E+01  0.00000000000E+00 0.  1.
</event>
<event>
 7    1  0.4489290E-013  0.5930190E+02  0.7816164E-02  0.1266605E+00
        -11   -1    0    0    0    0  0.00000000000E+00  0.00000000000E+00  0.45593999997E+02  0.45594000000E+02  0.51100000000E-03 0.  1.
         11   -1    0    0    0    0 -0.00000000000E+00 -0.00000000000E+00 -0.45593999997E+02  0.45594000000E+02  0.51100000000E-03 0. -1.
    9900012    2    1    2    0    0 -0.21182463630E+02  0.16309075060E+02 -0.17379308394E+02  0.59301904990E+02  0.49999928804E+02 0.  0.
         12    1    1    2    0    0  0.21182463630E+02 -0.16309075060E+02  0.17379308394E+02  0.31886095010E+02  0.00000000000E+00 0. -1.
         11    1    3    3    0    0  0.41636392067E+01  0.18071034602E+02  0.46747889142E+01  0.19124639465E+02  0.51100000000E-03 0. -1.
        -11    1    3    3    0    0 -0.75608172153E+01  0.51903733059E+01 -0.18646524299E+02  0.20779769024E+02  0.51100000000E-03 0.  1.
         12    1    3    3    0    0 -0.17785285621E+02 -0.69523328473E+01 -0.34075730098E+01  0.19397496500E+02  0.00000000000E+00 0. -1.
</event>
<event>
 7    1  0.4489290E-013  0.5930191E+02  0.7816164E-02  0.1266605E+00
        -11   -1    0    0    0    0  0.00000000000E+00  0.00000000000E+00  0.45593999997E+02  0.45594000000E+02  0.51100000000E-03 0.  1.
         11   -1    0    0    0    0 -0.00000000000E+00 -0.00000000000E+00 -0.45593999997E+02  0.45594000000E+02  0.51100000000E-03 0. -1.
    9900012    2    1    2    0    0 -0.23308882017E+02 -0.16412981933E+02  0.14284004189E+02  0.59301910048E+02  0.49999938028E+02 0.  0.
         12    1    1    2    0    0  0.23308882017E+02  0.16412981933E+02 -0.14284004189E+02  0.31886089952E+02  0.00000000000E+00 0. -1.
         11    1    3    3    0    0  0.10028057861E+02 -0.10895568912E+01 -0.26066245135E+01  0.10418424559E+02  0.51100000000E-03 0. -1.
        -11    1    3    3    0    0 -0.26551367963E+02 -0.22670698916E+02  0.17108547548E+02  0.38879790760E+02  0.51100000000E-03 0.  1.
         12    1    3    3    0    0 -0.67855719150E+01  0.73472738746E+01 -0.21791884574E+00  0.10003694729E+02  0.00000000000E+00 0. -1.
</event>
<event>
 7    1  0.4489290E-013  0.5930193E+02  0.7816164E-02  0.1266605E+00
        -11   -1    0    0    0    0  0.00000000000E+00  0.00000000000E+00  0.45593999997E+02  0.45594000000E+02  0.51100000000E-03 0.  1.
         11   -1    0    0    0    0 -0.00000000000E+00 -0.00000000000E+00 -0.45593999997E+02  0.45594000000E+02  0.51100000000E-03 0. -1.
    9900012    2    1    2    0    0  0.29738268631E+02 -0.33284127613E+01  0.11012639634E+02  0.59301934322E+02  0.49999982300E+02 0.  0.
         12    1    1    2    0    0 -0.29738268631E+02  0.33284127613E+01 -0.11012639634E+02  0.31886065678E+02  0.00000000000E+00 0. -1.
         11    1    3    3    0    0  0.40000427141E+01  0.52027170855E+00  0.29595253357E+01  0.50029805955E+01  0.51100000000E-03 0. -1.
        -11    1    3    3    0    0 -0.28953168167E+01  0.94752033411E+00 -0.16190861500E+02  0.16474970429E+02  0.51100000000E-03 0.  1.
        -12    1    3    3    0    0  0.28633542734E+02 -0.47962048039E+01  0.24243975798E+02  0.37823983298E+02  0.00000000000E+00 0.  1.
</event>
<event>
 7    1  0.4489290E-013  0.5930194E+02  0.7816164E-02  0.1266605E+00
        -11   -1    0    0    0    0  0.00000000000E+00  0.00000000000E+00  0.45593999997E+02  0.45594000000E+02  0.51100000000E-03 0.  1.
         11   -1    0    0    0    0 -0.00000000000E+00 -0.00000000000E+00 -0.45593999997E+02  0.45594000000E+02  0.51100000000E-03 0. -1.
    9900012    2    1    2    0    0  0.26666588029E+02 -0.63286935670E+01  0.16296058165E+02  0.59301940490E+02  0.49999993548E+02 0.  0.
         12    1    1    2    0    0 -0.26666588029E+02  0.63286935670E+01 -0.16296058165E+02  0.31886059510E+02  0.00000000000E+00 0. -1.
         11    1    3    3    0    0  0.73068729972E+01 -0.10264657341E+02 -0.39952399470E+01  0.13218000069E+02  0.51100000000E-03 0. -1.
        -11    1    3    3    0    0  0.21236032617E+02  0.16253965848E+02  0.65466527902E+01  0.27532147575E+02  0.51100000000E-03 0.  1.
        -12    1    3    3    0    0 -0.18763175853E+01 -0.12318002074E+02  0.13744645321E+02  0.18551792846E+02  0.00000000000E+00 0.  1.
</event>
<event>
 7    1  0.4489290E-013  0.5930195E+02  0.7816164E-02  0.1266605E+00
        -11   -1    0    0    0    0  0.00000000000E+00  0.00000000000E+00  0.45593999997E+02  0.45594000000E+02  0.51100000000E-03 0. -1.
         11   -1    0    0    0    0 -0.00000000000E+00 -0.00000000000E+00 -0.45593999997E+02  0.45594000000E+02  0.51100000000E-03 0.  1.
    9900012    2    1    2    0    0  0.26718112226E+02 -0.17187086996E+02 -0.27324924424E+01  0.59301952968E+02  0.50000016306E+02 0.  0.
         12    1    1    2    0    0 -0.26718112226E+02  0.17187086996E+02  0.27324924424E+01  0.31886047032E+02  0.00000000000E+00 0. -1.
         11    1    3    3    0    0 -0.35326716752E+01  0.10492450967E+02  0.83247315545E+01  0.13851803210E+02  0.51100000000E-03 0. -1.
        -11    1    3    3    0    0  0.13258813092E+02 -0.21804713316E+01 -0.30331579309E+01  0.13775000077E+02  0.51100000000E-03 0.  1.
         12    1    3    3    0    0  0.16991970810E+02 -0.25499066632E+02 -0.80240660660E+01  0.31675149681E+02  0.00000000000E+00 0. -1.
</event>
<event>
 7    1  0.4489290E-013  0.5930179E+02  0.7816164E-02  0.1266605E+00
        -11   -1    0    0    0    0  0.00000000000E+00  0.00000000000E+00  0.45593999997E+02  0.45594000000E+02  0.51100000000E-03 0. -1.
         11   -1    0    0    0    0 -0.00000000000E+00 -0.00000000000E+00 -0.45593999997E+02  0.45594000000E+02  0.51100000000E-03 0.  1.
    9900012    2    1    2    0    0  0.26765748505E+02  0.46907180629E+00 -0.17323541712E+02  0.59301789519E+02  0.49999718213E+02 0.  0.
         12    1    1    2    0    0 -0.26765748505E+02 -0.46907180629E+00  0.17323541712E+02  0.31886210481E+02  0.00000000000E+00 0. -1.
         11    1    3    3    0    0  0.62330076489E+01 -0.13256489508E+01  0.48085913069E+01  0.79831247084E+01  0.51100000000E-03 0. -1.
        -11    1    3    3    0    0  0.24790090727E+02  0.16041809913E+02 -0.21332649239E+02  0.36427601999E+02  0.51100000000E-03 0.  1.
        -12    1    3    3    0    0 -0.42573498714E+01 -0.14247089156E+02 -0.79948377979E+00  0.14891062812E+02  0.00000000000E+00 0.  1.
</event>
<event>
 7    1  0.4489290E-013  0.5930192E+02  0.7816164E-02  0.1266605E+00
        -11   -1    0    0    0    0  0.00000000000E+00  0.00000000000E+00  0.45593999997E+02  0.45594000000E+02  0.51100000000E-03 0.  1.
         11   -1    0    0    0    0 -0.00000000000E+00 -0.00000000000E+00 -0.45593999997E+02  0.45594000000E+02  0.51100000000E-03 0. -1.
    9900012    2    1    2    0    0 -0.36650206510E+01 -0.26845214208E+02  0.16811438041E+02  0.59301916025E+02  0.49999948930E+02 0.  0.
         12    1    1    2    0    0  0.36650206510E+01  0.26845214208E+02 -0.16811438041E+02  0.31886083975E+02  0.00000000000E+00 0. -1.
         11    1    3    3    0    0  0.11789134389E+02  0.70728359739E+01 -0.35910211763E+01  0.14209297369E+02  0.51100000000E-03 0. -1.
        -11    1    3    3    0    0 -0.17792455764E+02 -0.29044452902E+02  0.20369249163E+02  0.39687000872E+02  0.51100000000E-03 0.  1.
        -12    1    3    3    0    0  0.23383007234E+01 -0.48735972803E+01  0.33210053869E-01  0.54056177844E+01  0.00000000000E+00 0.  1.
</event>
<event>
 7    1  0.4489290E-013  0.5930195E+02  0.7816164E-02  0.1266605E+00
        -11   -1    0    0    0    0  0.00000000000E+00  0.00000000000E+00  0.45593999997E+02  0.45594000000E+02  0.51100000000E-03 0.  1.
         11   -1    0    0    0    0 -0.00000000000E+00 -0.00000000000E+00 -0.45593999997E+02  0.45594000000E+02  0.51100000000E-03 0. -1.
    9900012    2    1    2    0    0  0.21139535994E+02 -0.19446069246E+01  0.23791987227E+02  0.59301950788E+02  0.50000012329E+02 0.  0.
         12    1    1    2    0    0 -0.21139535994E+02  0.19446069246E+01 -0.23791987227E+02  0.31886049212E+02  0.00000000000E+00 0. -1.
         11    1    3    3    0    0  0.24778932508E+02  0.88200541603E+01  0.11408910622E+02  0.28669706896E+02  0.51100000000E-03 0. -1.
        -11    1    3    3    0    0 -0.30803519947E+01 -0.13212049307E+02  0.19119303494E+02  0.23443433658E+02  0.51100000000E-03 0.  1.
         12    1    3    3    0    0 -0.55904452006E+00  0.24473882218E+01 -0.67362268890E+01  0.71888102343E+01  0.00000000000E+00 0. -1.
</event>
<event>
 7    1  0.4489290E-013  0.5930194E+02  0.7816164E-02  0.1266605E+00
        -11   -1    0    0    0    0  0.00000000000E+00  0.00000000000E+00  0.45593999997E+02  0.45594000000E+02  0.51100000000E-03 0.  1.
         11   -1    0    0    0    0 -0.00000000000E+00 -0.00000000000E+00 -0.45593999997E+02  0.45594000000E+02  0.51100000000E-03 0. -1.
    9900012    2    1    2    0    0 -0.28233567273E+02 -0.14617070223E+02  0.24346379952E+01  0.59301944662E+02  0.50000001156E+02 0.  0.
         12    1    1    2    0    0  0.28233567273E+02  0.14617070223E+02 -0.24346379952E+01  0.31886055338E+02  0.00000000000E+00 0. -1.
         11    1    3    3    0    0  0.35928105352E+01  0.98765352297E+01  0.63904496084E+01  0.12300084640E+02  0.51100000000E-03 0. -1.
        -11    1    3    3    0    0 -0.31531903049E+02 -0.28383821437E+02 -0.16230642326E+01  0.42456290076E+02  0.51100000000E-03 0.  1.
        -12    1    3    3    0    0 -0.29447475921E+00  0.38902159847E+01 -0.23327473807E+01  0.45455699460E+01  0.00000000000E+00 0.  1.
</event>
<event>
 7    1  0.4489290E-013  0.5930192E+02  0.7816164E-02  0.1266605E+00
        -11   -1    0    0    0    0  0.00000000000E+00  0.00000000000E+00  0.45593999997E+02  0.45594000000E+02  0.51100000000E-03 0. -1.
         11   -1    0    0    0    0 -0.00000000000E+00 -0.00000000000E+00 -0.45593999997E+02  0.45594000000E+02  0.51100000000E-03 0.  1.
    9900012    2    1    2    0    0 -0.18604398986E+02 -0.78421024539E+01 -0.24679951906E+02  0.59301917478E+02  0.49999951580E+02 0.  0.
         12    1    1    2    0    0  0.18604398986E+02  0.78421024539E+01  0.24679951906E+02  0.31886082522E+02  0.00000000000E+00 0. -1.
         11    1    3    3    0    0 -0.23002809161E+02 -0.83341364066E+01 -0.32187029234E+02  0.40430086694E+02  0.51100000000E-03 0.  1.
        -11    1    3    3    0    0 -0.50712597827E+01 -0.43437491581E+01  0.26930495776E+01  0.71998853339E+01  0.51100000000E-03 0. -1.
         12    1    3    3    0    0  0.94696699570E+01  0.48357831108E+01  0.48140277513E+01  0.11671945450E+02  0.00000000000E+00 0. -1.
</event>
<event>
 7    1  0.4489290E-013  0.5930195E+02  0.7816164E-02  0.1266605E+00
        -11   -1    0    0    0    0  0.00000000000E+00  0.00000000000E+00  0.45593999997E+02  0.45594000000E+02  0.51100000000E-03 0.  1.
         11   -1    0    0    0    0 -0.00000000000E+00 -0.00000000000E+00 -0.45593999997E+02  0.45594000000E+02  0.51100000000E-03 0. -1.
    9900012    2    1    2    0    0 -0.85498192884E+01 -0.53250705031E+01  0.30253336796E+02  0.59301950182E+02  0.50000011223E+02 0.  0.
         12    1    1    2    0    0  0.85498192884E+01  0.53250705031E+01 -0.30253336796E+02  0.31886049818E+02  0.00000000000E+00 0. -1.
         11    1    3    3    0    0  0.13148652649E+02  0.14881781144E+02  0.14216322392E+02  0.24422495759E+02  0.51100000000E-03 0. -1.
        -11    1    3    3    0    0 -0.10327354776E+02 -0.57253539084E+01  0.26152011005E+01  0.12094346246E+02  0.51100000000E-03 0.  1.
         12    1    3    3    0    0 -0.11371117161E+02 -0.14481497739E+02  0.13421813304E+02  0.22785108177E+02  0.00000000000E+00 0. -1.
</event>
<event>
 7    1  0.4489290E-013  0.5930190E+02  0.7816164E-02  0.1266605E+00
        -11   -1    0    0    0    0  0.00000000000E+00  0.00000000000E+00  0.45593999997E+02  0.45594000000E+02  0.51100000000E-03 0.  1.
         11   -1    0    0    0    0 -0.00000000000E+00 -0.00000000000E+00 -0.45593999997E+02  0.45594000000E+02  0.51100000000E-03 0. -1.
    9900012    2    1    2    0    0 -0.23057171508E+02  0.24092593704E+01  0.21892590629E+02  0.59301902510E+02  0.49999924282E+02 0.  0.
         12    1    1    2    0    0  0.23057171508E+02 -0.24092593704E+01 -0.21892590629E+02  0.31886097490E+02  0.00000000000E+00 0. -1.
         11    1    3    3    0    0 -0.30967394951E+02 -0.44230302622E+01 -0.97198804030E+00  0.31296765133E+02  0.51100000000E-03 0. -1.
        -11    1    3    3    0    0  0.51052525423E+01 -0.29075710991E+01  0.10345743842E+02  0.11897562318E+02  0.51100000000E-03 0.  1.
         12    1    3    3    0    0  0.28049709006E+01  0.97398607317E+01  0.12518834828E+02  0.16107575059E+02  0.00000000000E+00 0. -1.
</event>
<event>
 7    1  0.4489290E-013  0.5930196E+02  0.7816164E-02  0.1266605E+00
        -11   -1    0    0    0    0  0.00000000000E+00  0.00000000000E+00  0.45593999997E+02  0.45594000000E+02  0.51100000000E-03 0. -1.
         11   -1    0    0    0    0 -0.00000000000E+00 -0.00000000000E+00 -0.45593999997E+02  0.45594000000E+02  0.51100000000E-03 0.  1.
    9900012    2    1    2    0    0 -0.26508126926E+02  0.61588715279E+01 -0.16616475388E+02  0.59301956879E+02  0.50000023437E+02 0.  0.
         12    1    1    2    0    0  0.26508126926E+02 -0.61588715279E+01  0.16616475388E+02  0.31886043121E+02  0.00000000000E+00 0. -1.
         11    1    3    3    0    0  0.37480567522E+01  0.64140842224E+00  0.58825884464E+01  0.70045828764E+01  0.51100000000E-03 0. -1.
        -11    1    3    3    0    0 -0.18174614079E+02  0.13959877304E+02 -0.28337073581E+02  0.36444265813E+02  0.51100000000E-03 0.  1.
        -12    1    3    3    0    0 -0.12081569599E+02 -0.84424141978E+01  0.58380097461E+01  0.15853108189E+02  0.00000000000E+00 0.  1.
</event>
<event>
 7    1  0.4489290E-013  0.5930194E+02  0.7816164E-02  0.1266605E+00
        -11   -1    0    0    0    0  0.00000000000E+00  0.00000000000E+00  0.45593999997E+02  0.45594000000E+02  0.51100000000E-03 0.  1.
         11   -1    0    0    0    0 -0.00000000000E+00 -0.00000000000E+00 -0.45593999997E+02  0.45594000000E+02  0.51100000000E-03 0. -1.
    9900012    2    1    2    0    0  0.25058815907E+02 -0.51016228628E+01  0.19045999842E+02  0.59301938461E+02  0.49999989848E+02 0.  0.
         12    1    1    2    0    0 -0.25058815907E+02  0.51016228628E+01 -0.19045999842E+02  0.31886061539E+02  0.00000000000E+00 0. -1.
         11    1    3    3    0    0  0.14879135050E+02  0.52667052274E+01  0.12089650109E+02  0.19881812891E+02  0.51100000000E-03 0. -1.
        -11    1    3    3    0    0 -0.11485363456E+02  0.40176069555E+01 -0.10401769708E+01  0.12212154100E+02  0.51100000000E-03 0.  1.
        -12    1    3    3    0    0  0.21665044313E+02 -0.14385935046E+02  0.79965267034E+01  0.27207971470E+02  0.00000000000E+00 0.  1.
</event>
<event>
 7    1  0.4489290E-013  0.5930195E+02  0.7816164E-02  0.1266605E+00
        -11   -1    0    0    0    0  0.00000000000E+00  0.00000000000E+00  0.45593999997E+02  0.45594000000E+02  0.51100000000E-03 0. -1.
         11   -1    0    0    0    0 -0.00000000000E+00 -0.00000000000E+00 -0.45593999997E+02  0.45594000000E+02  0.51100000000E-03 0.  1.
    9900012    2    1    2    0    0 -0.84847040639E+00 -0.81554682621E+01 -0.30813774093E+02  0.59301949155E+02  0.50000009352E+02 0.  0.
         12    1    1    2    0    0  0.84847040639E+00  0.81554682621E+01  0.30813774093E+02  0.31886050845E+02  0.00000000000E+00 0. -1.
         11    1    3    3    0    0  0.15647983686E+02  0.78307268591E+01 -0.58476273187E+01  0.18449239065E+02  0.51100000000E-03 0. -1.
        -11    1    3    3    0    0 -0.12547976424E+02 -0.15885171926E+02 -0.28895783747E+02  0.35281109932E+02  0.51100000000E-03 0.  1.
        -12    1    3    3    0    0 -0.39484776681E+01 -0.10102319561E+00  0.39296369727E+01  0.55716001578E+01  0.00000000000E+00 0.  1.
</event>
<event>
 7    1  0.4489290E-013  0.5930195E+02  0.7816164E-02  0.1266605E+00
        -11   -1    0    0    0    0  0.00000000000E+00  0.00000000000E+00  0.45593999997E+02  0.45594000000E+02  0.51100000000E-03 0. -1.
         11   -1    0    0    0    0 -0.00000000000E+00 -0.00000000000E+00 -0.45593999997E+02  0.45594000000E+02  0.51100000000E-03 0.  1.
    9900012    2    1    2    0    0  0.27431831768E+02 -0.15634244203E+02 -0.44480714889E+01  0.59301947784E+02  0.50000006851E+02 0.  0.
         12    1    1    2    0    0 -0.27431831768E+02  0.15634244203E+02  0.44480714889E+01  0.31886052216E+02  0.00000000000E+00 0. -1.
         11    1    3    3    0    0  0.55233729167E+01  0.61726473535E+01  0.19154698660E+01  0.85016615315E+01  0.51100000000E-03 0. -1.
        -11    1    3    3    0    0  0.10455799436E+02 -0.30167633630E+02  0.53932782715E+01  0.32380508202E+02  0.51100000000E-03 0.  1.
        -12    1    3    3    0    0  0.11452659415E+02  0.83607420734E+01 -0.11756819626E+02  0.18419778050E+02  0.00000000000E+00 0.  1.
</event>
<event>
 7    1  0.4489290E-013  0.5930194E+02  0.7816164E-02  0.1266605E+00
        -11   -1    0    0    0    0  0.00000000000E+00  0.00000000000E+00  0.45593999997E+02  0.45594000000E+02  0.51100000000E-03 0. -1.
         11   -1    0    0    0    0 -0.00000000000E+00 -0.00000000000E+00 -0.45593999997E+02  0.45594000000E+02  0.51100000000E-03 0.  1.
    9900012    2    1    2    0    0  0.18274424111E+02 -0.25424010732E+02  0.60320820424E+01  0.59301938593E+02  0.49999990088E+02 0.  0.
         12    1    1    2    0    0 -0.18274424111E+02  0.25424010732E+02 -0.60320820424E+01  0.31886061407E+02  0.00000000000E+00 0. -1.
         11    1    3    3    0    0  0.14413734048E+02  0.12478525228E+02  0.76050630456E+00  0.19080033836E+02  0.51100000000E-03 0. -1.
        -11    1    3    3    0    0 -0.90353546915E-01 -0.23502518913E+02  0.84125227626E+01  0.24962914464E+02  0.51100000000E-03 0.  1.
         12    1    3    3    0    0  0.39510436102E+01 -0.14400017047E+02 -0.31409470247E+01  0.15258990293E+02  0.00000000000E+00 0. -1.
</event>
<event>
 7    1  0.4489290E-013  0.5930195E+02  0.7816164E-02  0.1266605E+00
        -11   -1    0    0    0    0  0.00000000000E+00  0.00000000000E+00  0.45593999997E+02  0.45594000000E+02  0.51100000000E-03 0.  1.
         11   -1    0    0    0    0 -0.00000000000E+00 -0.00000000000E+00 -0.45593999997E+02  0.45594000000E+02  0.51100000000E-03 0. -1.
    9900012    2    1    2    0    0 -0.56261445949E+01 -0.13881004100E+02  0.28149328891E+02  0.59301945135E+02  0.50000002020E+02 0.  0.
         12    1    1    2    0    0  0.56261445949E+01  0.13881004100E+02 -0.28149328891E+02  0.31886054865E+02  0.00000000000E+00 0. -1.
         11    1    3    3    0    0  0.81109188927E+01  0.11169731408E+02  0.12786884667E+02  0.18816331331E+02  0.51100000000E-03 0. -1.
        -11    1    3    3    0    0 -0.14115103904E+02 -0.13554496170E+02  0.20093371932E+02  0.28048246300E+02  0.51100000000E-03 0.  1.
         12    1    3    3    0    0  0.37804041653E+00 -0.11496239338E+02 -0.47309277081E+01  0.12437367504E+02  0.00000000000E+00 0. -1.
</event>
<event>
 7    1  0.4489290E-013  0.5930195E+02  0.7816164E-02  0.1266605E+00
        -11   -1    0    0    0    0  0.00000000000E+00  0.00000000000E+00  0.45593999997E+02  0.45594000000E+02  0.51100000000E-03 0.  1.
         11   -1    0    0    0    0 -0.00000000000E+00 -0.00000000000E+00 -0.45593999997E+02  0.45594000000E+02  0.51100000000E-03 0. -1.
    9900012    2    1    2    0    0  0.11557399386E+01  0.88673881026E+01  0.30606434479E+02  0.59301950729E+02  0.50000012222E+02 0.  0.
         12    1    1    2    0    0 -0.11557399386E+01 -0.88673881026E+01 -0.30606434479E+02  0.31886049271E+02  0.00000000000E+00 0. -1.
         11    1    3    3    0    0 -0.13160053323E+02 -0.42251905782E+01  0.27390722338E+02  0.30680464621E+02  0.51100000000E-03 0. -1.
        -11    1    3    3    0    0  0.35488225284E+01  0.11342397237E+02  0.10206121963E+02  0.15665536767E+02  0.51100000000E-03 0.  1.
         12    1    3    3    0    0  0.10766970734E+02  0.17501814440E+01 -0.69904098214E+01  0.12955949341E+02  0.00000000000E+00 0. -1.
</event>
<event>
 7    1  0.4489290E-013  0.5930195E+02  0.7816164E-02  0.1266605E+00
        -11   -1    0    0    0    0  0.00000000000E+00  0.00000000000E+00  0.45593999997E+02  0.45594000000E+02  0.51100000000E-03 0.  1.
         11   -1    0    0    0    0 -0.00000000000E+00 -0.00000000000E+00 -0.45593999997E+02  0.45594000000E+02  0.51100000000E-03 0. -1.
    9900012    2    1    2    0    0 -0.14957699281E+01 -0.28591267973E+02 -0.14036460637E+02  0.59301950398E+02  0.50000011618E+02 0.  0.
         12    1    1    2    0    0  0.14957699281E+01  0.28591267973E+02  0.14036460637E+02  0.31886049602E+02  0.00000000000E+00 0. -1.
         11    1    3    3    0    0  0.72953514555E+01 -0.37867568005E+02 -0.13684588101E+02  0.40919956149E+02  0.51100000000E-03 0. -1.
        -11    1    3    3    0    0 -0.12042462616E+02  0.63966195382E+01  0.13813584154E+01  0.13705684905E+02  0.51100000000E-03 0.  1.
         12    1    3    3    0    0  0.32513412322E+01  0.28796804936E+01 -0.17332309513E+01  0.46763093443E+01  0.00000000000E+00 0. -1.
</event>
<event>
 7    1  0.4489290E-013  0.5930194E+02  0.7816164E-02  0.1266605E+00
        -11   -1    0    0    0    0  0.00000000000E+00  0.00000000000E+00  0.45593999997E+02  0.45594000000E+02  0.51100000000E-03 0. -1.
         11   -1    0    0    0    0 -0.00000000000E+00 -0.00000000000E+00 -0.45593999997E+02  0.45594000000E+02  0.51100000000E-03 0.  1.
    9900012    2    1    2    0    0 -0.22648333875E+01  0.56807017262E+01 -0.31294107421E+02  0.59301937188E+02  0.49999987525E+02 0.  0.
         12    1    1    2    0    0  0.22648333875E+01 -0.56807017262E+01  0.31294107421E+02  0.31886062812E+02  0.00000000000E+00 0. -1.
         11    1    3    3    0    0  0.96459040971E+01 -0.89498244466E+01  0.35942825069E+01  0.13640443192E+02  0.51100000000E-03 0. -1.
        -11    1    3    3    0    0 -0.92856255242E+01 -0.35175689734E+01 -0.18826971287E+02  0.21284994267E+02  0.51100000000E-03 0.  1.
         12    1    3    3    0    0 -0.26251119604E+01  0.18148095146E+02 -0.16061418641E+02  0.24376499728E+02  0.00000000000E+00 0. -1.
</event>
<event>
 7    1  0.4489290E-013  0.5930193E+02  0.7816164E-02  0.1266605E+00
        -11   -1    0    0    0    0  0.00000000000E+00  0.00000000000E+00  0.45593999997E+02  0.45594000000E+02  0.51100000000E-03 0.  1.
         11   -1    0    0    0    0 -0.00000000000E+00 -0.00000000000E+00 -0.45593999997E+02  0.45594000000E+02  0.51100000000E-03 0. -1.
    9900012    2    1    2    0    0 -0.22422931896E+01  0.26015544831E+02  0.18299856018E+02  0.59301934362E+02  0.49999982372E+02 0.  0.
         12    1    1    2    0    0  0.22422931896E+01 -0.26015544831E+02 -0.18299856018E+02  0.31886065638E+02  0.00000000000E+00 0. -1.
         11    1    3    3    0    0  0.50587891944E+01 -0.50356305224E+00 -0.42583582992E+01  0.66316317394E+01  0.51100000000E-03 0. -1.
        -11    1    3    3    0    0 -0.19716020557E+02  0.46195164612E+01  0.17986692828E+02  0.27084728503E+02  0.51100000000E-03 0.  1.
        -12    1    3    3    0    0  0.12414938173E+02  0.21899591422E+02  0.45715214894E+01  0.25585574119E+02  0.00000000000E+00 0.  1.
</event>
<event>
 7    1  0.4489290E-013  0.5930196E+02  0.7816164E-02  0.1266605E+00
        -11   -1    0    0    0    0  0.00000000000E+00  0.00000000000E+00  0.45593999997E+02  0.45594000000E+02  0.51100000000E-03 0.  1.
         11   -1    0    0    0    0 -0.00000000000E+00 -0.00000000000E+00 -0.45593999997E+02  0.45594000000E+02  0.51100000000E-03 0. -1.
    9900012    2    1    2    0    0  0.17416577796E+02 -0.25039104839E+02  0.92965391976E+01  0.59301959256E+02  0.50000027773E+02 0.  0.
         12    1    1    2    0    0 -0.17416577796E+02  0.25039104839E+02 -0.92965391976E+01  0.31886040744E+02  0.00000000000E+00 0. -1.
         11    1    3    3    0    0  0.41475003480E+01  0.10599822803E+02 -0.10133859650E+02  0.15239852829E+02  0.51100000000E-03 0. -1.
        -11    1    3    3    0    0  0.91596237176E+01 -0.11429902536E+02  0.44953470619E+01  0.15321537916E+02  0.51100000000E-03 0.  1.
         12    1    3    3    0    0  0.41094537305E+01 -0.24209025106E+02  0.14935051785E+02  0.28740568512E+02  0.00000000000E+00 0. -1.
</event>
<event>
 7    1  0.4489290E-013  0.5930194E+02  0.7816164E-02  0.1266605E+00
        -11   -1    0    0    0    0  0.00000000000E+00  0.00000000000E+00  0.45593999997E+02  0.45594000000E+02  0.51100000000E-03 0.  1.
         11   -1    0    0    0    0 -0.00000000000E+00 -0.00000000000E+00 -0.45593999997E+02  0.45594000000E+02  0.51100000000E-03 0. -1.
    9900012    2    1    2    0    0  0.78542208102E+01  0.20921504624E+00  0.30902881497E+02  0.59301942854E+02  0.49999997860E+02 0.  0.
         12    1    1    2    0    0 -0.78542208102E+01 -0.20921504624E+00 -0.30902881497E+02  0.31886057146E+02  0.00000000000E+00 0. -1.
         11    1    3    3    0    0  0.42797499457E+01  0.12694789421E+01 -0.12576650755E+02  0.13345410479E+02  0.51100000000E-03 0. -1.
        -11    1    3    3    0    0 -0.14178326535E+01 -0.53036133141E+01  0.33955398924E+02  0.34396332362E+02  0.51100000000E-03 0.  1.
         12    1    3    3    0    0  0.49923035180E+01  0.42433494182E+01  0.95241333281E+01  0.11560200013E+02  0.00000000000E+00 0. -1.
</event>
<event>
 7    1  0.4489290E-013  0.5930195E+02  0.7816164E-02  0.1266605E+00
        -11   -1    0    0    0    0  0.00000000000E+00  0.00000000000E+00  0.45593999997E+02  0.45594000000E+02  0.51100000000E-03 0.  1.
         11   -1    0    0    0    0 -0.00000000000E+00 -0.00000000000E+00 -0.45593999997E+02  0.45594000000E+02  0.51100000000E-03 0. -1.
    9900012    2    1    2    0    0 -0.12478461701E+02 -0.11492140556E+02  0.26998864980E+02  0.59301952719E+02  0.50000015850E+02 0.  0.
         12    1    1    2    0    0  0.12478461701E+02  0.11492140556E+02 -0.26998864980E+02  0.31886047281E+02  0.00000000000E+00 0. -1.
         11    1    3    3    0    0  0.93741083148E+01  0.49675181809E+01 -0.52784969019E+01  0.11849585367E+02  0.51100000000E-03 0. -1.
        -11    1    3    3    0    0 -0.16077973035E+02 -0.19463336321E+01  0.25972065645E+02  0.30607803346E+02  0.51100000000E-03 0.  1.
        -12    1    3    3    0    0 -0.57745969811E+01 -0.14513325105E+02  0.63052962375E+01  0.16844564006E+02  0.00000000000E+00 0.  1.
</event>
<event>
 7    1  0.4489290E-013  0.5930195E+02  0.7816164E-02  0.1266605E+00
        -11   -1    0    0    0    0  0.00000000000E+00  0.00000000000E+00  0.45593999997E+02  0.45594000000E+02  0.51100000000E-03 0.  1.
         11   -1    0    0    0    0 -0.00000000000E+00 -0.00000000000E+00 -0.45593999997E+02  0.45594000000E+02  0.51100000000E-03 0. -1.
    9900012    2    1    2    0    0 -0.23239642062E+02  0.20326098007E+02 -0.79679837225E+01  0.59301953083E+02  0.50000016515E+02 0.  0.
         12    1    1    2    0    0  0.23239642062E+02 -0.20326098007E+02  0.79679837225E+01  0.31886046917E+02  0.00000000000E+00 0. -1.
         11    1    3    3    0    0 -0.21722115122E+02  0.20340280285E+01 -0.70659764475E+01  0.22932849339E+02  0.51100000000E-03 0. -1.
        -11    1    3    3    0    0 -0.23366541646E+01  0.26691844188E+02  0.32019350819E+01  0.26984567578E+02  0.51100000000E-03 0.  1.
        -12    1    3    3    0    0  0.81912722475E+00 -0.83997742096E+01 -0.41039423569E+01  0.93845361660E+01  0.00000000000E+00 0.  1.
</event>
<event>
 7    1  0.4489290E-013  0.5930193E+02  0.7816164E-02  0.1266605E+00
        -11   -1    0    0    0    0  0.00000000000E+00  0.00000000000E+00  0.45593999997E+02  0.45594000000E+02  0.51100000000E-03 0.  1.
         11   -1    0    0    0    0 -0.00000000000E+00 -0.00000000000E+00 -0.45593999997E+02  0.45594000000E+02  0.51100000000E-03 0. -1.
    9900012    2    1    2    0    0 -0.95324692595E+01  0.29694594751E+02 -0.66396372968E+01  0.59301926064E+02  0.49999967238E+02 0.  0.
         12    1    1    2    0    0  0.95324692595E+01 -0.29694594751E+02  0.66396372968E+01  0.31886073936E+02  0.00000000000E+00 0. -1.
         11    1    3    3    0    0  0.69395639690E+01  0.21159625702E+02 -0.11547016832E+02  0.25084276069E+02  0.51100000000E-03 0. -1.
        -11    1    3    3    0    0 -0.20483729521E+02  0.98708365739E+01  0.12187820948E+02  0.25798441222E+02  0.51100000000E-03 0.  1.
        -12    1    3    3    0    0  0.40116962929E+01 -0.13358675240E+01 -0.72804414134E+01  0.84192087729E+01  0.00000000000E+00 0.  1.
</event>
<event>
 7    1  0.4489290E-013  0.5930197E+02  0.7816164E-02  0.1266605E+00
        -11   -1    0    0    0    0  0.00000000000E+00  0.00000000000E+00  0.45593999997E+02  0.45594000000E+02  0.51100000000E-03 0.  1.
         11   -1    0    0    0    0 -0.00000000000E+00 -0.00000000000E+00 -0.45593999997E+02  0.45594000000E+02  0.51100000000E-03 0. -1.
    9900012    2    1    2    0    0 -0.21189808801E+02  0.75602255547E+01  0.22595438542E+02  0.59301970922E+02  0.50000049049E+02 0.  0.
         12    1    1    2    0    0  0.21189808801E+02 -0.75602255547E+01 -0.22595438542E+02  0.31886029078E+02  0.00000000000E+00 0. -1.
         11    1    3    3    0    0  0.89285807474E+01  0.23565107619E+01  0.11842051591E+02  0.15016886604E+02  0.51100000000E-03 0. -1.
        -11    1    3    3    0    0 -0.31948626164E+02  0.79407697667E+01  0.17128384829E+02  0.37110000072E+02  0.51100000000E-03 0.  1.
        -12    1    3    3    0    0  0.18302366158E+01 -0.27370549738E+01 -0.63749978778E+01  0.71750842463E+01  0.00000000000E+00 0.  1.
</event>
<event>
 7    1  0.4489290E-013  0.5930192E+02  0.7816164E-02  0.1266605E+00
        -11   -1    0    0    0    0  0.00000000000E+00  0.00000000000E+00  0.45593999997E+02  0.45594000000E+02  0.51100000000E-03 0.  1.
         11   -1    0    0    0    0 -0.00000000000E+00 -0.00000000000E+00 -0.45593999997E+02  0.45594000000E+02  0.51100000000E-03 0. -1.
    9900012    2    1    2    0    0 -0.20695855705E+01  0.90689365335E+01  0.30499069912E+02  0.59301920595E+02  0.49999957265E+02 0.  0.
         12    1    1    2    0    0  0.20695855705E+01 -0.90689365335E+01 -0.30499069912E+02  0.31886079405E+02  0.00000000000E+00 0. -1.
         11    1    3    3    0    0  0.49011596691E+01 -0.37925471509E+01 -0.14800975329E+01  0.63714573656E+01  0.51100000000E-03 0. -1.
        -11    1    3    3    0    0 -0.18044465833E+02  0.16912100115E+02  0.76378344700E+01  0.25883554492E+02  0.51100000000E-03 0.  1.
        -12    1    3    3    0    0  0.11073720593E+02 -0.40506164307E+01  0.24341332975E+02  0.27046908738E+02  0.00000000000E+00 0.  1.
</event>
<event>
 7    1  0.4489290E-013  0.5930196E+02  0.7816164E-02  0.1266605E+00
        -11   -1    0    0    0    0  0.00000000000E+00  0.00000000000E+00  0.45593999997E+02  0.45594000000E+02  0.51100000000E-03 0.  1.
         11   -1    0    0    0    0 -0.00000000000E+00 -0.00000000000E+00 -0.45593999997E+02  0.45594000000E+02  0.51100000000E-03 0. -1.
    9900012    2    1    2    0    0 -0.16004734628E+02 -0.78379540314E+01 -0.26441155713E+02  0.59301956512E+02  0.50000022768E+02 0.  0.
         12    1    1    2    0    0  0.16004734628E+02  0.78379540314E+01  0.26441155713E+02  0.31886043488E+02  0.00000000000E+00 0. -1.
         11    1    3    3    0    0 -0.25455279830E+02  0.38624194085E+01 -0.14044059188E+02  0.29327890371E+02  0.51100000000E-03 0. -1.
        -11    1    3    3    0    0  0.11625920055E+01 -0.79959717581E+01  0.55904568387E+01  0.98254970589E+01  0.51100000000E-03 0.  1.
         12    1    3    3    0    0  0.82879531969E+01 -0.37044016818E+01 -0.17987553364E+02  0.20148569081E+02  0.00000000000E+00 0. -1.
</event>
<event>
 7    1  0.4489290E-013  0.5930195E+02  0.7816164E-02  0.1266605E+00
        -11   -1    0    0    0    0  0.00000000000E+00  0.00000000000E+00  0.45593999997E+02  0.45594000000E+02  0.51100000000E-03 0.  1.
         11   -1    0    0    0    0 -0.00000000000E+00 -0.00000000000E+00 -0.45593999997E+02  0.45594000000E+02  0.51100000000E-03 0. -1.
    9900012    2    1    2    0    0  0.56652668157E+01  0.16731505909E+02  0.26545844734E+02  0.59301946455E+02  0.50000004426E+02 0.  0.
         12    1    1    2    0    0 -0.56652668157E+01 -0.16731505909E+02 -0.26545844734E+02  0.31886053545E+02  0.00000000000E+00 0. -1.
         11    1    3    3    0    0 -0.83739458800E+01  0.24065287016E+01 -0.52389410673E+01  0.10166654010E+02  0.51100000000E-03 0. -1.
        -11    1    3    3    0    0  0.68101835452E+01  0.15711452548E+02  0.36552894146E+02  0.40365113796E+02  0.51100000000E-03 0.  1.
         12    1    3    3    0    0  0.72290291505E+01 -0.13864753403E+01 -0.47681083452E+01  0.87701786481E+01  0.00000000000E+00 0. -1.
</event>
<event>
 7    1  0.4489290E-013  0.5930194E+02  0.7816164E-02  0.1266605E+00
        -11   -1    0    0    0    0  0.00000000000E+00  0.00000000000E+00  0.45593999997E+02  0.45594000000E+02  0.51100000000E-03 0.  1.
         11   -1    0    0    0    0 -0.00000000000E+00 -0.00000000000E+00 -0.45593999997E+02  0.45594000000E+02  0.51100000000E-03 0. -1.
    9900012    2    1    2    0    0  0.11735160243E+02  0.16926784951E+02  0.24341132997E+02  0.59301940503E+02  0.49999993571E+02 0.  0.
         12    1    1    2    0    0 -0.11735160243E+02 -0.16926784951E+02 -0.24341132997E+02  0.31886059497E+02  0.00000000000E+00 0. -1.
         11    1    3    3    0    0  0.74500414965E+01  0.73385921692E+01 -0.91819009589E+01  0.13916370174E+02  0.51100000000E-03 0. -1.
        -11    1    3    3    0    0 -0.10014043513E+02 -0.38762226463E+01  0.14495629220E+02  0.18039662863E+02  0.51100000000E-03 0.  1.
        -12    1    3    3    0    0  0.14299162260E+02  0.13464415428E+02  0.19027404736E+02  0.27345907466E+02  0.00000000000E+00 0.  1.
</event>
<event>
 7    1  0.4489290E-013  0.5930196E+02  0.7816164E-02  0.1266605E+00
        -11   -1    0    0    0    0  0.00000000000E+00  0.00000000000E+00  0.45593999997E+02  0.45594000000E+02  0.51100000000E-03 0. -1.
         11   -1    0    0    0    0 -0.00000000000E+00 -0.00000000000E+00 -0.45593999997E+02  0.45594000000E+02  0.51100000000E-03 0.  1.
    9900012    2    1    2    0    0 -0.19414181189E+01 -0.10147754884E+02 -0.30165770140E+02  0.59301957260E+02  0.50000024132E+02 0.  0.
         12    1    1    2    0    0  0.19414181189E+01  0.10147754884E+02  0.30165770140E+02  0.31886042740E+02  0.00000000000E+00 0. -1.
         11    1    3    3    0    0  0.44422495749E+00  0.59423789289E+01 -0.86141486221E-01  0.59595825160E+01  0.51100000000E-03 0. -1.
        -11    1    3    3    0    0  0.94348093809E+01 -0.24903349760E+02 -0.27668246031E+02  0.38402139211E+02  0.51100000000E-03 0.  1.
        -12    1    3    3    0    0 -0.11820452457E+02  0.88132159469E+01 -0.24113826230E+01  0.14940235533E+02  0.00000000000E+00 0.  1.
</event>
<event>
 7    1  0.4489290E-013  0.5930194E+02  0.7816164E-02  0.1266605E+00
        -11   -1    0    0    0    0  0.00000000000E+00  0.00000000000E+00  0.45593999997E+02  0.45594000000E+02  0.51100000000E-03 0.  1.
         11   -1    0    0    0    0 -0.00000000000E+00 -0.00000000000E+00 -0.45593999997E+02  0.45594000000E+02  0.51100000000E-03 0. -1.
    9900012    2    1    2    0    0 -0.28158817072E+02 -0.30533310353E+01  0.14645093158E+02  0.59301944067E+02  0.50000000073E+02 0.  0.
         12    1    1    2    0    0  0.28158817072E+02  0.30533310353E+01 -0.14645093158E+02  0.31886055933E+02  0.00000000000E+00 0. -1.
         11    1    3    3    0    0 -0.85492563669E+00  0.30108933737E+01 -0.15455155968E+02  0.15768900501E+02  0.51100000000E-03 0. -1.
        -11    1    3    3    0    0 -0.11490553375E+02  0.34042584251E+01  0.17485383812E+02  0.21198123493E+02  0.51100000000E-03 0.  1.
         12    1    3    3    0    0 -0.15813338061E+02 -0.94684828341E+01  0.12614865314E+02  0.22334920073E+02  0.00000000000E+00 0. -1.
</event>
<event>
 7    1  0.4489290E-013  0.5930196E+02  0.7816164E-02  0.1266605E+00
        -11   -1    0    0    0    0  0.00000000000E+00  0.00000000000E+00  0.45593999997E+02  0.45594000000E+02  0.51100000000E-03 0.  1.
         11   -1    0    0    0    0 -0.00000000000E+00 -0.00000000000E+00 -0.45593999997E+02  0.45594000000E+02  0.51100000000E-03 0. -1.
    9900012    2    1    2    0    0 -0.24451942627E+02  0.24840489720E+01  0.20313827082E+02  0.59301959665E+02  0.50000028519E+02 0.  0.
         12    1    1    2    0    0  0.24451942627E+02 -0.24840489720E+01 -0.20313827082E+02  0.31886040335E+02  0.00000000000E+00 0. -1.
         11    1    3    3    0    0 -0.81205029388E+01 -0.93801515557E+01  0.25249496266E+01  0.12661168274E+02  0.51100000000E-03 0. -1.
        -11    1    3    3    0    0  0.21997204940E+01  0.21623310032E+02  0.12365196398E+02  0.25006087043E+02  0.51100000000E-03 0.  1.
        -12    1    3    3    0    0 -0.18531160182E+02 -0.97591095043E+01  0.54236810573E+01  0.21634704348E+02  0.00000000000E+00 0.  1.
</event>
<event>
 7    1  0.4489290E-013  0.5930194E+02  0.7816164E-02  0.1266605E+00
        -11   -1    0    0    0    0  0.00000000000E+00  0.00000000000E+00  0.45593999997E+02  0.45594000000E+02  0.51100000000E-03 0. -1.
         11   -1    0    0    0    0 -0.00000000000E+00 -0.00000000000E+00 -0.45593999997E+02  0.45594000000E+02  0.51100000000E-03 0.  1.
    9900012    2    1    2    0    0 -0.23627170957E+02  0.17025313265E+02 -0.12985228186E+02  0.59301942698E+02  0.49999997575E+02 0.  0.
         12    1    1    2    0    0  0.23627170957E+02 -0.17025313265E+02  0.12985228186E+02  0.31886057302E+02  0.00000000000E+00 0. -1.
         11    1    3    3    0    0 -0.36513431389E+01 -0.86812848532E+01  0.10212504828E+02  0.13892165725E+02  0.51100000000E-03 0. -1.
        -11    1    3    3    0    0 -0.22908628291E+02  0.20619536667E+02 -0.24526557304E+02  0.39389371104E+02  0.51100000000E-03 0.  1.
        -12    1    3    3    0    0  0.29328004726E+01  0.50870614513E+01  0.13288242903E+01  0.60204058680E+01  0.00000000000E+00 0.  1.
</event>
<event>
 7    1  0.4489290E-013  0.5930189E+02  0.7816164E-02  0.1266605E+00
        -11   -1    0    0    0    0  0.00000000000E+00  0.00000000000E+00  0.45593999997E+02  0.45594000000E+02  0.51100000000E-03 0.  1.
         11   -1    0    0    0    0 -0.00000000000E+00 -0.00000000000E+00 -0.45593999997E+02  0.45594000000E+02  0.51100000000E-03 0. -1.
    9900012    2    1    2    0    0  0.12080889435E+02 -0.21168934719E+02  0.20558503358E+02  0.59301894139E+02  0.49999909015E+02 0.  0.
         12    1    1    2    0    0 -0.12080889435E+02  0.21168934719E+02 -0.20558503358E+02  0.31886105861E+02  0.00000000000E+00 0. -1.
         11    1    3    3    0    0  0.89081323925E+01  0.10981564831E+00 -0.99803439910E+01  0.13378122015E+02  0.51100000000E-03 0. -1.
        -11    1    3    3    0    0 -0.89340928695E+01 -0.38094879821E+01  0.19926044811E+02  0.22167035800E+02  0.51100000000E-03 0.  1.
         12    1    3    3    0    0  0.12106849912E+02 -0.17469262385E+02  0.10612802538E+02  0.23756736325E+02  0.00000000000E+00 0. -1.
</event>
<event>
 7    1  0.4489290E-013  0.5930194E+02  0.7816164E-02  0.1266605E+00
        -11   -1    0    0    0    0  0.00000000000E+00  0.00000000000E+00  0.45593999997E+02  0.45594000000E+02  0.51100000000E-03 0.  1.
         11   -1    0    0    0    0 -0.00000000000E+00 -0.00000000000E+00 -0.45593999997E+02  0.45594000000E+02  0.51100000000E-03 0. -1.
    9900012    2    1    2    0    0  0.25526625278E+02  0.16299803472E+02  0.99714022784E+01  0.59301936356E+02  0.49999986008E+02 0.  0.
         12    1    1    2    0    0 -0.25526625278E+02 -0.16299803472E+02 -0.99714022784E+01  0.31886063644E+02  0.00000000000E+00 0. -1.
         11    1    3    3    0    0 -0.26255186049E+01 -0.10873836909E+02 -0.51201211247E+01  0.12302411050E+02  0.51100000000E-03 0. -1.
        -11    1    3    3    0    0  0.28458382821E+02  0.19139507600E+02  0.17638533042E+02  0.38565763990E+02  0.51100000000E-03 0.  1.
        -12    1    3    3    0    0 -0.30623893781E+00  0.80341327809E+01 -0.25470096389E+01  0.84337613156E+01  0.00000000000E+00 0.  1.
</event>
<event>
 7    1  0.4489290E-013  0.5930194E+02  0.7816164E-02  0.1266605E+00
        -11   -1    0    0    0    0  0.00000000000E+00  0.00000000000E+00  0.45593999997E+02  0.45594000000E+02  0.51100000000E-03 0.  1.
         11   -1    0    0    0    0 -0.00000000000E+00 -0.00000000000E+00 -0.45593999997E+02  0.45594000000E+02  0.51100000000E-03 0. -1.
    9900012    2    1    2    0    0  0.63688992034E+01  0.27501184680E+02  0.14827085922E+02  0.59301944853E+02  0.50000001505E+02 0.  0.
         12    1    1    2    0    0 -0.63688992034E+01 -0.27501184680E+02 -0.14827085922E+02  0.31886055147E+02  0.00000000000E+00 0. -1.
         11    1    3    3    0    0 -0.14805688617E+02  0.95520572030E+00  0.93121208471E+01  0.17516747081E+02  0.51100000000E-03 0. -1.
        -11    1    3    3    0    0  0.23236524216E+02  0.24419126605E+02  0.11078762977E+02  0.35481950217E+02  0.51100000000E-03 0.  1.
        -12    1    3    3    0    0 -0.20619363959E+01  0.21268523549E+01 -0.55637979025E+01  0.63032475551E+01  0.00000000000E+00 0.  1.
</event>
<event>
 7    1  0.4489290E-013  0.5930196E+02  0.7816164E-02  0.1266605E+00
        -11   -1    0    0    0    0  0.00000000000E+00  0.00000000000E+00  0.45593999997E+02  0.45594000000E+02  0.51100000000E-03 0.  1.
         11   -1    0    0    0    0 -0.00000000000E+00 -0.00000000000E+00 -0.45593999997E+02  0.45594000000E+02  0.51100000000E-03 0. -1.
    9900012    2    1    2    0    0 -0.18671558333E+02  0.62681088665E+01  0.25075945631E+02  0.59301963422E+02  0.50000035371E+02 0.  0.
         12    1    1    2    0    0  0.18671558333E+02 -0.62681088665E+01 -0.25075945631E+02  0.31886036578E+02  0.00000000000E+00 0. -1.
         11    1    3    3    0    0 -0.32390505844E+02 -0.38485513752E+01  0.93197505762E+01  0.33923649090E+02  0.51100000000E-03 0. -1.
        -11    1    3    3    0    0  0.34778466744E+00  0.94895610287E+00  0.67644510273E+01  0.68395372520E+01  0.51100000000E-03 0.  1.
         12    1    3    3    0    0  0.13371162844E+02  0.91677041388E+01  0.89917440279E+01  0.18538777080E+02  0.00000000000E+00 0. -1.
</event>
<event>
 7    1  0.4489290E-013  0.5930196E+02  0.7816164E-02  0.1266605E+00
        -11   -1    0    0    0    0  0.00000000000E+00  0.00000000000E+00  0.45593999997E+02  0.45594000000E+02  0.51100000000E-03 0.  1.
         11   -1    0    0    0    0 -0.00000000000E+00 -0.00000000000E+00 -0.45593999997E+02  0.45594000000E+02  0.51100000000E-03 0. -1.
    9900012    2    1    2    0    0 -0.40624845947E+01 -0.29019709616E+02  0.12572671032E+02  0.59301962551E+02  0.50000033783E+02 0.  0.
         12    1    1    2    0    0  0.40624845947E+01  0.29019709616E+02 -0.12572671032E+02  0.31886037449E+02  0.00000000000E+00 0. -1.
         11    1    3    3    0    0  0.12258153342E+02 -0.21541560280E+02  0.17217164432E+02  0.30178334845E+02  0.51100000000E-03 0. -1.
        -11    1    3    3    0    0 -0.36186520176E+01  0.77914996391E+01 -0.33450305303E+01  0.92190747128E+01  0.51100000000E-03 0.  1.
        -12    1    3    3    0    0 -0.12701985919E+02 -0.15269648975E+02 -0.12994628699E+01  0.19904552994E+02  0.00000000000E+00 0.  1.
</event>
<event>
 7    1  0.4489290E-013  0.5930197E+02  0.7816164E-02  0.1266605E+00
        -11   -1    0    0    0    0  0.00000000000E+00  0.00000000000E+00  0.45593999997E+02  0.45594000000E+02  0.51100000000E-03 0.  1.
         11   -1    0    0    0    0 -0.00000000000E+00 -0.00000000000E+00 -0.45593999997E+02  0.45594000000E+02  0.51100000000E-03 0. -1.
    9900012    2    1    2    0    0 -0.27516792591E+02  0.41931243229E+01  0.15555160375E+02  0.59301965747E+02  0.50000039611E+02 0.  0.
         12    1    1    2    0    0  0.27516792591E+02 -0.41931243229E+01 -0.15555160375E+02  0.31886034253E+02  0.00000000000E+00 0. -1.
         11    1    3    3    0    0 -0.33399898052E+02 -0.12334398305E+02  0.12519532340E+02  0.37741611806E+02  0.51100000000E-03 0. -1.
        -11    1    3    3    0    0  0.98874274556E+00  0.20463482308E+01  0.56157651133E+01  0.60582151965E+01  0.51100000000E-03 0.  1.
         12    1    3    3    0    0  0.48943627151E+01  0.14481174397E+02 -0.25801370788E+01  0.15502138744E+02  0.00000000000E+00 0. -1.
</event>
<event>
 7    1  0.4489290E-013  0.5930195E+02  0.7816164E-02  0.1266605E+00
        -11   -1    0    0    0    0  0.00000000000E+00  0.00000000000E+00  0.45593999997E+02  0.45594000000E+02  0.51100000000E-03 0.  1.
         11   -1    0    0    0    0 -0.00000000000E+00 -0.00000000000E+00 -0.45593999997E+02  0.45594000000E+02  0.51100000000E-03 0. -1.
    9900012    2    1    2    0    0  0.29962251993E+02  0.61784202241E+00  0.10890457093E+02  0.59301947737E+02  0.50000006764E+02 0.  0.
         12    1    1    2    0    0 -0.29962251993E+02 -0.61784202241E+00 -0.10890457093E+02  0.31886052263E+02  0.00000000000E+00 0. -1.
         11    1    3    3    0    0 -0.37811028057E+01  0.29757274441E+01 -0.50735411584E+01  0.69923180989E+01  0.51100000000E-03 0. -1.
        -11    1    3    3    0    0  0.37447113610E+02 -0.12833940716E+01  0.23228389262E+02  0.44085048327E+02  0.51100000000E-03 0.  1.
        -12    1    3    3    0    0 -0.37037588110E+01 -0.10744913501E+01 -0.72643910101E+01  0.82245813108E+01  0.00000000000E+00 0.  1.
</event>
<event>
 7    1  0.4489290E-013  0.5930195E+02  0.7816164E-02  0.1266605E+00
        -11   -1    0    0    0    0  0.00000000000E+00  0.00000000000E+00  0.45593999997E+02  0.45594000000E+02  0.51100000000E-03 0. -1.
         11   -1    0    0    0    0 -0.00000000000E+00 -0.00000000000E+00 -0.45593999997E+02  0.45594000000E+02  0.51100000000E-03 0.  1.
    9900012    2    1    2    0    0  0.10254178007E+02 -0.27950917847E+02 -0.11415694818E+02  0.59301951903E+02  0.50000014363E+02 0.  0.
         12    1    1    2    0    0 -0.10254178007E+02  0.27950917847E+02  0.11415694818E+02  0.31886048097E+02  0.00000000000E+00 0. -1.
         11    1    3    3    0    0  0.12825466911E+02  0.40331316904E+01  0.10644340498E+02  0.17148199253E+02  0.51100000000E-03 0. -1.
        -11    1    3    3    0    0 -0.43372880939E+01 -0.17487561874E+02 -0.31978285428E+01  0.18298988932E+02  0.51100000000E-03 0.  1.
         12    1    3    3    0    0  0.17659991889E+01 -0.14496487663E+02 -0.18862206773E+02  0.23854763718E+02  0.00000000000E+00 0. -1.
</event>
<event>
 7    1  0.4489290E-013  0.5930196E+02  0.7816164E-02  0.1266605E+00
        -11   -1    0    0    0    0  0.00000000000E+00  0.00000000000E+00  0.45593999997E+02  0.45594000000E+02  0.51100000000E-03 0. -1.
         11   -1    0    0    0    0 -0.00000000000E+00 -0.00000000000E+00 -0.45593999997E+02  0.45594000000E+02  0.51100000000E-03 0.  1.
    9900012    2    1    2    0    0 -0.31130099609E+02  0.38667838633E+00 -0.68910754222E+01  0.59301960072E+02  0.50000029261E+02 0.  0.
         12    1    1    2    0    0  0.31130099609E+02 -0.38667838633E+00  0.68910754222E+01  0.31886039928E+02  0.00000000000E+00 0. -1.
         11    1    3    3    0    0 -0.21234440639E+01  0.77450207851E+01  0.13750354377E+02  0.15923774911E+02  0.51100000000E-03 0. -1.
        -11    1    3    3    0    0 -0.31689152564E+02 -0.88938136518E+01 -0.13459248126E+02  0.35559157356E+02  0.51100000000E-03 0.  1.
        -12    1    3    3    0    0  0.26824970191E+01  0.15354712531E+01 -0.71821816733E+01  0.78190278050E+01  0.00000000000E+00 0.  1.
</event>
<event>
 7    1  0.4489290E-013  0.5930197E+02  0.7816164E-02  0.1266605E+00
        -11   -1    0    0    0    0  0.00000000000E+00  0.00000000000E+00  0.45593999997E+02  0.45594000000E+02  0.51100000000E-03 0.  1.
         11   -1    0    0    0    0 -0.00000000000E+00 -0.00000000000E+00 -0.45593999997E+02  0.45594000000E+02  0.51100000000E-03 0. -1.
    9900012    2    1    2    0    0  0.14755866353E+02 -0.22328535957E+02  0.17332616480E+02  0.59301973219E+02  0.50000053238E+02 0.  0.
         12    1    1    2    0    0 -0.14755866353E+02  0.22328535957E+02 -0.17332616480E+02  0.31886026781E+02  0.00000000000E+00 0. -1.
         11    1    3    3    0    0  0.58896547390E+00 -0.13130579131E+02 -0.12053104942E+02  0.17833573047E+02  0.51100000000E-03 0. -1.
        -11    1    3    3    0    0  0.87142641613E-01  0.74404589605E+01  0.67876062842E+01  0.10071723920E+02  0.51100000000E-03 0.  1.
         12    1    3    3    0    0  0.14079758238E+02 -0.16638415787E+02  0.22598115137E+02  0.31396676252E+02  0.00000000000E+00 0. -1.
</event>
<event>
 7    1  0.4489290E-013  0.5930195E+02  0.7816164E-02  0.1266605E+00
        -11   -1    0    0    0    0  0.00000000000E+00  0.00000000000E+00  0.45593999997E+02  0.45594000000E+02  0.51100000000E-03 0. -1.
         11   -1    0    0    0    0 -0.00000000000E+00 -0.00000000000E+00 -0.45593999997E+02  0.45594000000E+02  0.51100000000E-03 0.  1.
    9900012    2    1    2    0    0 -0.21418989661E+02 -0.20750820214E+02  0.11284977876E+02  0.59301946884E+02  0.50000005209E+02 0.  0.
         12    1    1    2    0    0  0.21418989661E+02  0.20750820214E+02 -0.11284977876E+02  0.31886053116E+02  0.00000000000E+00 0. -1.
         11    1    3    3    0    0 -0.12590188305E+01 -0.29209795779E+02  0.93669055935E+01  0.30700752736E+02  0.51100000000E-03 0.  1.
        -11    1    3    3    0    0 -0.21034761662E+02  0.91193424019E+01  0.65480497468E+01  0.23843249773E+02  0.51100000000E-03 0. -1.
        -12    1    3    3    0    0  0.87479083094E+00 -0.66036683695E+00 -0.46299774640E+01  0.47579443749E+01  0.00000000000E+00 0.  1.
</event>
<event>
 7    1  0.4489290E-013  0.5930194E+02  0.7816164E-02  0.1266605E+00
        -11   -1    0    0    0    0  0.00000000000E+00  0.00000000000E+00  0.45593999997E+02  0.45594000000E+02  0.51100000000E-03 0. -1.
         11   -1    0    0    0    0 -0.00000000000E+00 -0.00000000000E+00 -0.45593999997E+02  0.45594000000E+02  0.51100000000E-03 0.  1.
    9900012    2    1    2    0    0  0.11705722221E+02 -0.29478610873E+02  0.32723273664E+01  0.59301944143E+02  0.50000000210E+02 0.  0.
         12    1    1    2    0    0 -0.11705722221E+02  0.29478610873E+02 -0.32723273664E+01  0.31886055857E+02  0.00000000000E+00 0. -1.
         11    1    3    3    0    0  0.11459267871E+02 -0.12348541663E+02  0.14265378534E+02  0.22074925285E+02  0.51100000000E-03 0. -1.
        -11    1    3    3    0    0 -0.75327548532E+00 -0.23908630180E+02 -0.15967135702E+02  0.28760032056E+02  0.51100000000E-03 0.  1.
         12    1    3    3    0    0  0.99972983477E+00  0.67785609696E+01  0.49740845342E+01  0.84669868026E+01  0.00000000000E+00 0. -1.
</event>
<event>
 7    1  0.4489290E-013  0.5930196E+02  0.7816164E-02  0.1266605E+00
        -11   -1    0    0    0    0  0.00000000000E+00  0.00000000000E+00  0.45593999997E+02  0.45594000000E+02  0.51100000000E-03 0.  1.
         11   -1    0    0    0    0 -0.00000000000E+00 -0.00000000000E+00 -0.45593999997E+02  0.45594000000E+02  0.51100000000E-03 0. -1.
    9900012    2    1    2    0    0 -0.20581446936E+02 -0.22940487150E+02  0.81766532164E+01  0.59301959693E+02  0.50000028570E+02 0.  0.
         12    1    1    2    0    0  0.20581446936E+02  0.22940487150E+02 -0.81766532164E+01  0.31886040307E+02  0.00000000000E+00 0. -1.
         11    1    3    3    0    0 -0.26530293450E+02  0.33974684439E+00 -0.64412176752E+01  0.27303135056E+02  0.51100000000E-03 0.  1.
        -11    1    3    3    0    0  0.10135893597E+02 -0.21239595279E+02  0.10455561193E+02  0.25752194213E+02  0.51100000000E-03 0. -1.
         12    1    3    3    0    0 -0.41870470825E+01 -0.20406387148E+01  0.41623096985E+01  0.62466304247E+01  0.00000000000E+00 0. -1.
</event>
<event>
 7    1  0.4489290E-013  0.5930194E+02  0.7816164E-02  0.1266605E+00
        -11   -1    0    0    0    0  0.00000000000E+00  0.00000000000E+00  0.45593999997E+02  0.45594000000E+02  0.51100000000E-03 0.  1.
         11   -1    0    0    0    0 -0.00000000000E+00 -0.00000000000E+00 -0.45593999997E+02  0.45594000000E+02  0.51100000000E-03 0. -1.
    9900012    2    1    2    0    0  0.23793515279E+02 -0.81089503873E+01  0.19617189458E+02  0.59301943989E+02  0.49999999929E+02 0.  0.
         12    1    1    2    0    0 -0.23793515279E+02  0.81089503873E+01 -0.19617189458E+02  0.31886056011E+02  0.00000000000E+00 0. -1.
         11    1    3    3    0    0  0.28322975852E+01  0.16163653180E+01  0.35226071402E+01  0.48003445478E+01  0.51100000000E-03 0. -1.
        -11    1    3    3    0    0 -0.79566730427E+01  0.10619584181E+02 -0.39658898366E+01  0.13849638860E+02  0.51100000000E-03 0.  1.
        -12    1    3    3    0    0  0.28917890737E+02 -0.20344899887E+02  0.20060472154E+02  0.40651960581E+02  0.00000000000E+00 0.  1.
</event>
<event>
 7    1  0.4489290E-013  0.5930193E+02  0.7816164E-02  0.1266605E+00
        -11   -1    0    0    0    0  0.00000000000E+00  0.00000000000E+00  0.45593999997E+02  0.45594000000E+02  0.51100000000E-03 0. -1.
         11   -1    0    0    0    0 -0.00000000000E+00 -0.00000000000E+00 -0.45593999997E+02  0.45594000000E+02  0.51100000000E-03 0.  1.
    9900012    2    1    2    0    0 -0.28947922189E+02  0.57314780988E+01 -0.12078474740E+02  0.59301927926E+02  0.49999970634E+02 0.  0.
         12    1    1    2    0    0  0.28947922189E+02 -0.57314780988E+01  0.12078474740E+02  0.31886072074E+02  0.00000000000E+00 0. -1.
         11    1    3    3    0    0 -0.71358924530E+01 -0.98029093507E+01  0.84617908277E+01  0.14785800523E+02  0.51100000000E-03 0. -1.
        -11    1    3    3    0    0  0.82411598030E-01 -0.84171458545E+00 -0.16914381812E+02  0.16935512613E+02  0.51100000000E-03 0.  1.
         12    1    3    3    0    0 -0.21894441334E+02  0.16376102035E+02 -0.36258837558E+01  0.27580614790E+02  0.00000000000E+00 0. -1.
</event>
<event>
 7    1  0.4489290E-013  0.5930196E+02  0.7816164E-02  0.1266605E+00
        -11   -1    0    0    0    0  0.00000000000E+00  0.00000000000E+00  0.45593999997E+02  0.45594000000E+02  0.51100000000E-03 0.  1.
         11   -1    0    0    0    0 -0.00000000000E+00 -0.00000000000E+00 -0.45593999997E+02  0.45594000000E+02  0.51100000000E-03 0. -1.
    9900012    2    1    2    0    0 -0.31561490747E+02 -0.45251433710E+01 -0.33934745141E+00  0.59301956386E+02  0.50000022538E+02 0.  0.
         12    1    1    2    0    0  0.31561490747E+02  0.45251433710E+01  0.33934745141E+00  0.31886043614E+02  0.00000000000E+00 0. -1.
         11    1    3    3    0    0  0.20875463168E+00 -0.12475294386E+02 -0.10913618255E+02  0.16576598330E+02  0.51100000000E-03 0. -1.
        -11    1    3    3    0    0 -0.15428940638E+02  0.13763029746E+02  0.14100780500E+02  0.25026090545E+02  0.51100000000E-03 0.  1.
        -12    1    3    3    0    0 -0.16341304741E+02 -0.58128787317E+01 -0.35265096968E+01  0.17699267511E+02  0.00000000000E+00 0.  1.
</event>
<event>
 7    1  0.4489290E-013  0.5930194E+02  0.7816164E-02  0.1266605E+00
        -11   -1    0    0    0    0  0.00000000000E+00  0.00000000000E+00  0.45593999997E+02  0.45594000000E+02  0.51100000000E-03 0.  1.
         11   -1    0    0    0    0 -0.00000000000E+00 -0.00000000000E+00 -0.45593999997E+02  0.45594000000E+02  0.51100000000E-03 0. -1.
    9900012    2    1    2    0    0  0.53056912734E+01 -0.24308184894E+02  0.19941986747E+02  0.59301936459E+02  0.49999986197E+02 0.  0.
         12    1    1    2    0    0 -0.53056912734E+01  0.24308184894E+02 -0.19941986747E+02  0.31886063541E+02  0.00000000000E+00 0. -1.
         11    1    3    3    0    0 -0.44138762827E+01 -0.35647474300E+01 -0.92705001670E+01  0.10868850063E+02  0.51100000000E-03 0. -1.
        -11    1    3    3    0    0  0.18180259466E+02 -0.22521324995E+02  0.17319459287E+02  0.33729743314E+02  0.51100000000E-03 0.  1.
        -12    1    3    3    0    0 -0.84606919100E+01  0.17778875311E+01  0.11893027626E+02  0.14703343082E+02  0.00000000000E+00 0.  1.
</event>
<event>
 7    1  0.4489290E-013  0.5930192E+02  0.7816164E-02  0.1266605E+00
        -11   -1    0    0    0    0  0.00000000000E+00  0.00000000000E+00  0.45593999997E+02  0.45594000000E+02  0.51100000000E-03 0.  1.
         11   -1    0    0    0    0 -0.00000000000E+00 -0.00000000000E+00 -0.45593999997E+02  0.45594000000E+02  0.51100000000E-03 0. -1.
    9900012    2    1    2    0    0  0.12410316892E+02 -0.12187281806E+01  0.29346561202E+02  0.59301922817E+02  0.49999961317E+02 0.  0.
         12    1    1    2    0    0 -0.12410316892E+02  0.12187281806E+01 -0.29346561202E+02  0.31886077183E+02  0.00000000000E+00 0. -1.
         11    1    3    3    0    0  0.20956725194E+01  0.20927804873E+02  0.19219296019E+02  0.28491160029E+02  0.51100000000E-03 0. -1.
        -11    1    3    3    0    0 -0.28249503809E+01 -0.96936072028E+01  0.73661280435E+01  0.12498248192E+02  0.51100000000E-03 0.  1.
         12    1    3    3    0    0  0.13139594753E+02 -0.12452925850E+02  0.27611371400E+01  0.18312514596E+02  0.00000000000E+00 0. -1.
</event>
<event>
 7    1  0.4489290E-013  0.5930194E+02  0.7816164E-02  0.1266605E+00
        -11   -1    0    0    0    0  0.00000000000E+00  0.00000000000E+00  0.45593999997E+02  0.45594000000E+02  0.51100000000E-03 0.  1.
         11   -1    0    0    0    0 -0.00000000000E+00 -0.00000000000E+00 -0.45593999997E+02  0.45594000000E+02  0.51100000000E-03 0. -1.
    9900012    2    1    2    0    0 -0.98447205148E+01 -0.27317110714E+02  0.13174881797E+02  0.59301943955E+02  0.49999999867E+02 0.  0.
         12    1    1    2    0    0  0.98447205148E+01  0.27317110714E+02 -0.13174881797E+02  0.31886056045E+02  0.00000000000E+00 0. -1.
         11    1    3    3    0    0 -0.29743767840E+01 -0.23930161750E+02  0.11533055109E+02  0.26730337055E+02  0.51100000000E-03 0. -1.
        -11    1    3    3    0    0 -0.17262687316E+02  0.54748975135E+01  0.44028745273E+01  0.18637601254E+02  0.51100000000E-03 0.  1.
         12    1    3    3    0    0  0.10392343585E+02 -0.88618464768E+01 -0.27610478392E+01  0.13934005646E+02  0.00000000000E+00 0. -1.
</event>
<event>
 7    1  0.4489290E-013  0.5930191E+02  0.7816164E-02  0.1266605E+00
        -11   -1    0    0    0    0  0.00000000000E+00  0.00000000000E+00  0.45593999997E+02  0.45594000000E+02  0.51100000000E-03 0.  1.
         11   -1    0    0    0    0 -0.00000000000E+00 -0.00000000000E+00 -0.45593999997E+02  0.45594000000E+02  0.51100000000E-03 0. -1.
    9900012    2    1    2    0    0  0.26226754824E+02  0.16886777569E+02 -0.66118655480E+01  0.59301910693E+02  0.49999939205E+02 0.  0.
         12    1    1    2    0    0 -0.26226754824E+02 -0.16886777569E+02  0.66118655480E+01  0.31886089307E+02  0.00000000000E+00 0. -1.
         11    1    3    3    0    0  0.20672821997E+02  0.27300571258E+02 -0.56958608738E+00  0.34249250924E+02  0.51100000000E-03 0. -1.
        -11    1    3    3    0    0  0.95300753194E+00 -0.60092692974E+01  0.77545372785E+01  0.98565911709E+01  0.51100000000E-03 0.  1.
         12    1    3    3    0    0  0.46009252957E+01 -0.44045243910E+01 -0.13796816739E+02  0.15196068598E+02  0.00000000000E+00 0. -1.
</event>
<event>
 7    1  0.4489290E-013  0.5930195E+02  0.7816164E-02  0.1266605E+00
        -11   -1    0    0    0    0  0.00000000000E+00  0.00000000000E+00  0.45593999997E+02  0.45594000000E+02  0.51100000000E-03 0.  1.
         11   -1    0    0    0    0 -0.00000000000E+00 -0.00000000000E+00 -0.45593999997E+02  0.45594000000E+02  0.51100000000E-03 0. -1.
    9900012    2    1    2    0    0 -0.29052858546E+02  0.52396159202E+01 -0.12049819639E+02  0.59301947908E+02  0.50000007076E+02 0.  0.
         12    1    1    2    0    0  0.29052858546E+02 -0.52396159202E+01  0.12049819639E+02  0.31886052092E+02  0.00000000000E+00 0. -1.
         11    1    3    3    0    0 -0.33490692525E-01 -0.59599176536E+01 -0.12267674954E+02  0.13638826530E+02  0.51100000000E-03 0. -1.
        -11    1    3    3    0    0 -0.33415318712E+02 -0.19067587248E+00 -0.66172443609E+00  0.33422414057E+02  0.51100000000E-03 0.  1.
        -12    1    3    3    0    0  0.43959508580E+01  0.11390209446E+02  0.87957975119E+00  0.12240707321E+02  0.00000000000E+00 0.  1.
</event>
<event>
 7    1  0.4489290E-013  0.5930195E+02  0.7816164E-02  0.1266605E+00
        -11   -1    0    0    0    0  0.00000000000E+00  0.00000000000E+00  0.45593999997E+02  0.45594000000E+02  0.51100000000E-03 0. -1.
         11   -1    0    0    0    0 -0.00000000000E+00 -0.00000000000E+00 -0.45593999997E+02  0.45594000000E+02  0.51100000000E-03 0.  1.
    9900012    2    1    2    0    0 -0.15650234461E+02 -0.26303268030E+02 -0.89402559768E+01  0.59301954076E+02  0.50000018325E+02 0.  0.
         12    1    1    2    0    0  0.15650234461E+02  0.26303268030E+02  0.89402559768E+01  0.31886045924E+02  0.00000000000E+00 0. -1.
         11    1    3    3    0    0 -0.17395059053E+01 -0.16195279288E+00  0.10538596953E+02  0.10682421800E+02  0.51100000000E-03 0. -1.
        -11    1    3    3    0    0 -0.24570074666E+02 -0.19944743404E+02 -0.17405127399E+02  0.36116752603E+02  0.51100000000E-03 0.  1.
        -12    1    3    3    0    0  0.10659346110E+02 -0.61965718333E+01 -0.20737255312E+01  0.12502779673E+02  0.00000000000E+00 0.  1.
</event>
<event>
 7    1  0.4489290E-013  0.5930194E+02  0.7816164E-02  0.1266605E+00
        -11   -1    0    0    0    0  0.00000000000E+00  0.00000000000E+00  0.45593999997E+02  0.45594000000E+02  0.51100000000E-03 0. -1.
         11   -1    0    0    0    0 -0.00000000000E+00 -0.00000000000E+00 -0.45593999997E+02  0.45594000000E+02  0.51100000000E-03 0.  1.
    9900012    2    1    2    0    0  0.18003344084E+02 -0.16509219747E+02 -0.20495019497E+02  0.59301944129E+02  0.50000000184E+02 0.  0.
         12    1    1    2    0    0 -0.18003344084E+02  0.16509219747E+02  0.20495019497E+02  0.31886055871E+02  0.00000000000E+00 0. -1.
         11    1    3    3    0    0 -0.95069082623E+00  0.33331194537E+01  0.11015487545E+02  0.11547920352E+02  0.51100000000E-03 0. -1.
        -11    1    3    3    0    0  0.87351187219E+01 -0.17031653767E+02 -0.31839914324E+02  0.37150500314E+02  0.51100000000E-03 0.  1.
        -12    1    3    3    0    0  0.10218916189E+02 -0.28106854333E+01  0.32940728246E+00  0.10603523463E+02  0.00000000000E+00 0.  1.
</event>
<event>
 7    1  0.4489290E-013  0.5930194E+02  0.7816164E-02  0.1266605E+00
        -11   -1    0    0    0    0  0.00000000000E+00  0.00000000000E+00  0.45593999997E+02  0.45594000000E+02  0.51100000000E-03 0.  1.
         11   -1    0    0    0    0 -0.00000000000E+00 -0.00000000000E+00 -0.45593999997E+02  0.45594000000E+02  0.51100000000E-03 0. -1.
    9900012    2    1    2    0    0  0.88472474817E+01  0.20054746470E+02  0.23157163196E+02  0.59301939546E+02  0.49999991827E+02 0.  0.
         12    1    1    2    0    0 -0.88472474817E+01 -0.20054746470E+02 -0.23157163196E+02  0.31886060454E+02  0.00000000000E+00 0. -1.
         11    1    3    3    0    0  0.16868932720E+02 -0.74747466880E+01  0.88845730666E+01  0.20478485491E+02  0.51100000000E-03 0.  1.
        -11    1    3    3    0    0 -0.14871340437E+02  0.12443515717E+02  0.59537841585E+01  0.20284116838E+02  0.51100000000E-03 0. -1.
        -12    1    3    3    0    0  0.68496551988E+01  0.15085977440E+02  0.83188059714E+01  0.18539337217E+02  0.00000000000E+00 0.  1.
</event>
<event>
 7    1  0.4489290E-013  0.5930194E+02  0.7816164E-02  0.1266605E+00
        -11   -1    0    0    0    0  0.00000000000E+00  0.00000000000E+00  0.45593999997E+02  0.45594000000E+02  0.51100000000E-03 0. -1.
         11   -1    0    0    0    0 -0.00000000000E+00 -0.00000000000E+00 -0.45593999997E+02  0.45594000000E+02  0.51100000000E-03 0.  1.
    9900012    2    1    2    0    0  0.49956123730E+01 -0.17947926446E+02 -0.25877340088E+02  0.59301938206E+02  0.49999989382E+02 0.  0.
         12    1    1    2    0    0 -0.49956123730E+01  0.17947926446E+02  0.25877340088E+02  0.31886061794E+02  0.00000000000E+00 0. -1.
         11    1    3    3    0    0  0.17611815624E+02  0.11184491420E+02 -0.56135849694E+01  0.21605120559E+02  0.51100000000E-03 0. -1.
        -11    1    3    3    0    0 -0.94583817015E+01 -0.23137615732E+02 -0.15455869184E+02  0.29388673646E+02  0.51100000000E-03 0.  1.
         12    1    3    3    0    0 -0.31578215499E+01 -0.59948021343E+01 -0.48078859347E+01  0.83081440004E+01  0.00000000000E+00 0. -1.
</event>
<event>
 7    1  0.4489290E-013  0.5930194E+02  0.7816164E-02  0.1266605E+00
        -11   -1    0    0    0    0  0.00000000000E+00  0.00000000000E+00  0.45593999997E+02  0.45594000000E+02  0.51100000000E-03 0. -1.
         11   -1    0    0    0    0 -0.00000000000E+00 -0.00000000000E+00 -0.45593999997E+02  0.45594000000E+02  0.51100000000E-03 0.  1.
    9900012    2    1    2    0    0 -0.24109356713E+02  0.28776871112E+01 -0.20668294437E+02  0.59301944127E+02  0.50000000181E+02 0.  0.
         12    1    1    2    0    0  0.24109356713E+02 -0.28776871112E+01  0.20668294437E+02  0.31886055873E+02  0.00000000000E+00 0. -1.
         11    1    3    3    0    0  0.19379854998E+01  0.18242043868E+02 -0.11258994465E+02  0.21524240031E+02  0.51100000000E-03 0. -1.
        -11    1    3    3    0    0 -0.21140077102E+02 -0.87999154047E+01 -0.15426504095E+02  0.27610114087E+02  0.51100000000E-03 0.  1.
        -12    1    3    3    0    0 -0.49072651103E+01 -0.65644413525E+01  0.60172041232E+01  0.10167590009E+02  0.00000000000E+00 0.  1.
</event>
<event>
 7    1  0.4489290E-013  0.5930193E+02  0.7816164E-02  0.1266605E+00
        -11   -1    0    0    0    0  0.00000000000E+00  0.00000000000E+00  0.45593999997E+02  0.45594000000E+02  0.51100000000E-03 0. -1.
         11   -1    0    0    0    0 -0.00000000000E+00 -0.00000000000E+00 -0.45593999997E+02  0.45594000000E+02  0.51100000000E-03 0.  1.
    9900012    2    1    2    0    0  0.26305719224E+02 -0.13085436774E+02 -0.12389586069E+02  0.59301931531E+02  0.49999977209E+02 0.  0.
         12    1    1    2    0    0 -0.26305719224E+02  0.13085436774E+02  0.12389586069E+02  0.31886068469E+02  0.00000000000E+00 0. -1.
         11    1    3    3    0    0  0.97592212872E+01 -0.22010436602E+02  0.84281146681E+00  0.24091742381E+02  0.51100000000E-03 0. -1.
        -11    1    3    3    0    0  0.11614121537E+02 -0.50897487562E+00 -0.19612566288E+02  0.22799114701E+02  0.51100000000E-03 0.  1.
         12    1    3    3    0    0  0.49323763996E+01  0.94339747037E+01  0.63801687524E+01  0.12411074448E+02  0.00000000000E+00 0. -1.
</event>
<event>
 7    1  0.4489290E-013  0.5930193E+02  0.7816164E-02  0.1266605E+00
        -11   -1    0    0    0    0  0.00000000000E+00  0.00000000000E+00  0.45593999997E+02  0.45594000000E+02  0.51100000000E-03 0. -1.
         11   -1    0    0    0    0 -0.00000000000E+00 -0.00000000000E+00 -0.45593999997E+02  0.45594000000E+02  0.51100000000E-03 0.  1.
    9900012    2    1    2    0    0 -0.13346985845E+02 -0.20412236047E+02 -0.20540686264E+02  0.59301934018E+02  0.49999981744E+02 0.  0.
         12    1    1    2    0    0  0.13346985845E+02  0.20412236047E+02  0.20540686264E+02  0.31886065982E+02  0.00000000000E+00 0. -1.
         11    1    3    3    0    0 -0.12589958450E+02 -0.17819093607E+02  0.75709279515E+01  0.23094287195E+02  0.51100000000E-03 0. -1.
        -11    1    3    3    0    0  0.49826192785E+01 -0.77621274654E+01 -0.26838575439E+02  0.28379327856E+02  0.51100000000E-03 0.  1.
        -12    1    3    3    0    0 -0.57396466738E+01  0.51689850248E+01 -0.12730387765E+01  0.78283189673E+01  0.00000000000E+00 0.  1.
</event>
<event>
 7    1  0.4489290E-013  0.5930205E+02  0.7816164E-02  0.1266604E+00
        -11   -1    0    0    0    0  0.00000000000E+00  0.00000000000E+00  0.45593999997E+02  0.45594000000E+02  0.51100000000E-03 0. -1.
         11   -1    0    0    0    0 -0.00000000000E+00 -0.00000000000E+00 -0.45593999997E+02  0.45594000000E+02  0.51100000000E-03 0.  1.
    9900012    2    1    2    0    0  0.18929977923E+02  0.17714565187E+02 -0.18562433101E+02  0.59302050013E+02  0.50000193292E+02 0.  0.
         12    1    1    2    0    0 -0.18929977923E+02 -0.17714565187E+02  0.18562433101E+02  0.31885949987E+02  0.00000000000E+00 0. -1.
         11    1    3    3    0    0  0.78571708665E+01  0.77732519193E+00 -0.23332108218E+02  0.24631821749E+02  0.51100000000E-03 0.  1.
        -11    1    3    3    0    0 -0.59451589603E+01  0.12690864370E+02  0.89639432674E+01  0.16635962031E+02  0.51100000000E-03 0. -1.
         12    1    3    3    0    0  0.17017966017E+02  0.42463756252E+01 -0.41942681498E+01  0.18034266234E+02  0.00000000000E+00 0. -1.
</event>
<event>
 7    1  0.4489290E-013  0.5930195E+02  0.7816164E-02  0.1266605E+00
        -11   -1    0    0    0    0  0.00000000000E+00  0.00000000000E+00  0.45593999997E+02  0.45594000000E+02  0.51100000000E-03 0. -1.
         11   -1    0    0    0    0 -0.00000000000E+00 -0.00000000000E+00 -0.45593999997E+02  0.45594000000E+02  0.51100000000E-03 0.  1.
    9900012    2    1    2    0    0 -0.59583845624E+01 -0.28690979489E+02  0.12571618375E+02  0.59301949144E+02  0.50000009331E+02 0.  0.
         12    1    1    2    0    0  0.59583845624E+01  0.28690979489E+02 -0.12571618375E+02  0.31886050856E+02  0.00000000000E+00 0. -1.
         11    1    3    3    0    0 -0.10343667380E+02  0.62157988980E+01 -0.55094554111E+01  0.13265809813E+02  0.51100000000E-03 0. -1.
        -11    1    3    3    0    0  0.25362452297E+01 -0.35099188164E+02  0.22137034900E+02  0.41574437628E+02  0.51100000000E-03 0.  1.
        -12    1    3    3    0    0  0.18490375882E+01  0.19240977710E+00 -0.40559611140E+01  0.44617017026E+01  0.00000000000E+00 0.  1.
</event>
<event>
 7    1  0.4489290E-013  0.5930194E+02  0.7816164E-02  0.1266605E+00
        -11   -1    0    0    0    0  0.00000000000E+00  0.00000000000E+00  0.45593999997E+02  0.45594000000E+02  0.51100000000E-03 0.  1.
         11   -1    0    0    0    0 -0.00000000000E+00 -0.00000000000E+00 -0.45593999997E+02  0.45594000000E+02  0.51100000000E-03 0. -1.
    9900012    2    1    2    0    0  0.19182575615E+02 -0.25132635166E+02  0.41352533783E+01  0.59301939125E+02  0.49999991059E+02 0.  0.
         12    1    1    2    0    0 -0.19182575615E+02  0.25132635166E+02 -0.41352533783E+01  0.31886060875E+02  0.00000000000E+00 0. -1.
         11    1    3    3    0    0  0.26412757073E+02 -0.31139135454E+02 -0.50503323683E+01  0.41143472755E+02  0.51100000000E-03 0. -1.
        -11    1    3    3    0    0 -0.21129683233E+01  0.58923345046E+01 -0.13874385699E+01  0.64116477676E+01  0.51100000000E-03 0.  1.
         12    1    3    3    0    0 -0.51172131351E+01  0.11416578338E+00  0.10573024317E+02  0.11746818603E+02  0.00000000000E+00 0. -1.
</event>
<event>
 7    1  0.4489290E-013  0.5930198E+02  0.7816164E-02  0.1266605E+00
        -11   -1    0    0    0    0  0.00000000000E+00  0.00000000000E+00  0.45593999997E+02  0.45594000000E+02  0.51100000000E-03 0.  1.
         11   -1    0    0    0    0 -0.00000000000E+00 -0.00000000000E+00 -0.45593999997E+02  0.45594000000E+02  0.51100000000E-03 0. -1.
    9900012    2    1    2    0    0  0.31270374246E+02 -0.48296697677E+01  0.39441610913E+01  0.59301977634E+02  0.50000061291E+02 0.  0.
         12    1    1    2    0    0 -0.31270374246E+02  0.48296697677E+01 -0.39441610913E+01  0.31886022366E+02  0.00000000000E+00 0. -1.
         11    1    3    3    0    0  0.22023259926E+02  0.82969586296E+01  0.17668912269E+02  0.29428794765E+02  0.51100000000E-03 0.  1.
        -11    1    3    3    0    0  0.41066152809E+01 -0.12488971160E+02  0.20174153987E+01  0.13300701292E+02  0.51100000000E-03 0. -1.
         12    1    3    3    0    0  0.51404990396E+01 -0.63765723709E+00 -0.15742166576E+02  0.16572481578E+02  0.00000000000E+00 0. -1.
</event>
<event>
 7    1  0.4489290E-013  0.5930189E+02  0.7816164E-02  0.1266605E+00
        -11   -1    0    0    0    0  0.00000000000E+00  0.00000000000E+00  0.45593999997E+02  0.45594000000E+02  0.51100000000E-03 0.  1.
         11   -1    0    0    0    0 -0.00000000000E+00 -0.00000000000E+00 -0.45593999997E+02  0.45594000000E+02  0.51100000000E-03 0. -1.
    9900012    2    1    2    0    0  0.11671575868E+02 -0.18093462099E+02  0.23518612906E+02  0.59301886925E+02  0.49999895859E+02 0.  0.
         12    1    1    2    0    0 -0.11671575868E+02  0.18093462099E+02 -0.23518612906E+02  0.31886113075E+02  0.00000000000E+00 0. -1.
         11    1    3    3    0    0  0.15697009038E+02 -0.84673364802E+01  0.14994046315E+01  0.17898047220E+02  0.51100000000E-03 0. -1.
        -11    1    3    3    0    0 -0.15853264707E+02 -0.15165800015E+02  0.14994638861E+02  0.26573796996E+02  0.51100000000E-03 0.  1.
        -12    1    3    3    0    0  0.11827831538E+02  0.55396743960E+01  0.70245694142E+01  0.14830042709E+02  0.00000000000E+00 0.  1.
</event>
<event>
 7    1  0.4489290E-013  0.5930195E+02  0.7816164E-02  0.1266605E+00
        -11   -1    0    0    0    0  0.00000000000E+00  0.00000000000E+00  0.45593999997E+02  0.45594000000E+02  0.51100000000E-03 0.  1.
         11   -1    0    0    0    0 -0.00000000000E+00 -0.00000000000E+00 -0.45593999997E+02  0.45594000000E+02  0.51100000000E-03 0. -1.
    9900012    2    1    2    0    0  0.80329589909E+01  0.30547393274E+02 -0.43644945482E+01  0.59301945389E+02  0.50000002482E+02 0.  0.
         12    1    1    2    0    0 -0.80329589909E+01 -0.30547393274E+02  0.43644945482E+01  0.31886054611E+02  0.00000000000E+00 0. -1.
         11    1    3    3    0    0  0.26236357342E+02  0.18266065975E+02 -0.10142571706E+02  0.33539042530E+02  0.51100000000E-03 0. -1.
        -11    1    3    3    0    0 -0.10751903453E+02  0.24503746292E+01 -0.19607640410E+01  0.11200551753E+02  0.51100000000E-03 0.  1.
         12    1    3    3    0    0 -0.74514948977E+01  0.98309526702E+01  0.77388411991E+01  0.14562351106E+02  0.00000000000E+00 0. -1.
</event>
<event>
 7    1  0.4489290E-013  0.5930192E+02  0.7816164E-02  0.1266605E+00
        -11   -1    0    0    0    0  0.00000000000E+00  0.00000000000E+00  0.45593999997E+02  0.45594000000E+02  0.51100000000E-03 0.  1.
         11   -1    0    0    0    0 -0.00000000000E+00 -0.00000000000E+00 -0.45593999997E+02  0.45594000000E+02  0.51100000000E-03 0. -1.
    9900012    2    1    2    0    0  0.14114077031E+01  0.30871005324E+02  0.78556480722E+01  0.59301917643E+02  0.49999951881E+02 0.  0.
         12    1    1    2    0    0 -0.14114077031E+01 -0.30871005324E+02 -0.78556480722E+01  0.31886082357E+02  0.00000000000E+00 0. -1.
         11    1    3    3    0    0  0.11886732663E+02  0.11451759130E+02  0.20537787219E+02  0.26348394727E+02  0.51100000000E-03 0.  1.
        -11    1    3    3    0    0 -0.14150008770E+02  0.20994892843E+02 -0.13755681807E+02  0.28813660925E+02  0.51100000000E-03 0. -1.
        -12    1    3    3    0    0  0.36746838096E+01 -0.15756466491E+01  0.10735426604E+01  0.41398619913E+01  0.00000000000E+00 0.  1.
</event>
<event>
 7    1  0.4489290E-013  0.5930193E+02  0.7816164E-02  0.1266605E+00
        -11   -1    0    0    0    0  0.00000000000E+00  0.00000000000E+00  0.45593999997E+02  0.45594000000E+02  0.51100000000E-03 0. -1.
         11   -1    0    0    0    0 -0.00000000000E+00 -0.00000000000E+00 -0.45593999997E+02  0.45594000000E+02  0.51100000000E-03 0.  1.
    9900012    2    1    2    0    0  0.27917005625E+02 -0.15384084480E+02  0.83195496648E+00  0.59301930825E+02  0.49999975921E+02 0.  0.
         12    1    1    2    0    0 -0.27917005625E+02  0.15384084480E+02 -0.83195496648E+00  0.31886069175E+02  0.00000000000E+00 0. -1.
         11    1    3    3    0    0  0.24577925239E+02 -0.30530472404E+01  0.18626840741E+02  0.30989590233E+02  0.51100000000E-03 0. -1.
        -11    1    3    3    0    0  0.52794888023E+01 -0.48202819228E+01 -0.19146936980E+02  0.20438036007E+02  0.51100000000E-03 0.  1.
        -12    1    3    3    0    0 -0.19404084161E+01 -0.75107553167E+01  0.13520512052E+01  0.78743045858E+01  0.00000000000E+00 0.  1.
</event>
<event>
 7    1  0.4489290E-013  0.5930195E+02  0.7816164E-02  0.1266605E+00
        -11   -1    0    0    0    0  0.00000000000E+00  0.00000000000E+00  0.45593999997E+02  0.45594000000E+02  0.51100000000E-03 0. -1.
         11   -1    0    0    0    0 -0.00000000000E+00 -0.00000000000E+00 -0.45593999997E+02  0.45594000000E+02  0.51100000000E-03 0.  1.
    9900012    2    1    2    0    0 -0.22708897420E+02  0.18529808288E+02 -0.12556774307E+02  0.59301946651E+02  0.50000004783E+02 0.  0.
         12    1    1    2    0    0  0.22708897420E+02 -0.18529808288E+02  0.12556774307E+02  0.31886053349E+02  0.00000000000E+00 0. -1.
         11    1    3    3    0    0  0.11965573027E+02  0.17307930640E+01 -0.24952252751E+01  0.12344907125E+02  0.51100000000E-03 0. -1.
        -11    1    3    3    0    0 -0.17547452836E+02  0.20368350797E+02 -0.22336467566E+00  0.26885548297E+02  0.51100000000E-03 0.  1.
         12    1    3    3    0    0 -0.17127017612E+02 -0.35693355728E+01 -0.98381843558E+01  0.20071491228E+02  0.00000000000E+00 0. -1.
</event>
<event>
 7    1  0.4489290E-013  0.5930220E+02  0.7816164E-02  0.1266604E+00
        -11   -1    0    0    0    0  0.00000000000E+00  0.00000000000E+00  0.45593999997E+02  0.45594000000E+02  0.51100000000E-03 0.  1.
         11   -1    0    0    0    0 -0.00000000000E+00 -0.00000000000E+00 -0.45593999997E+02  0.45594000000E+02  0.51100000000E-03 0. -1.
    9900012    2    1    2    0    0 -0.13573607766E+02  0.19114607530E+02 -0.21612345223E+02  0.59302195716E+02  0.50000459017E+02 0.  0.
         12    1    1    2    0    0  0.13573607766E+02 -0.19114607530E+02  0.21612345223E+02  0.31885804284E+02  0.00000000000E+00 0. -1.
         11    1    3    3    0    0 -0.53417936481E+01 -0.96069344180E+01  0.54175006813E+01  0.12254683276E+02  0.51100000000E-03 0. -1.
        -11    1    3    3    0    0 -0.27611177088E+01  0.24748876967E+02 -0.69412786234E+01  0.25851731689E+02  0.51100000000E-03 0.  1.
         12    1    3    3    0    0 -0.54706964090E+01  0.39726649811E+01 -0.20088567281E+02  0.21195780751E+02  0.00000000000E+00 0. -1.
</event>
<event>
 7    1  0.4489290E-013  0.5930194E+02  0.7816164E-02  0.1266605E+00
        -11   -1    0    0    0    0  0.00000000000E+00  0.00000000000E+00  0.45593999997E+02  0.45594000000E+02  0.51100000000E-03 0.  1.
         11   -1    0    0    0    0 -0.00000000000E+00 -0.00000000000E+00 -0.45593999997E+02  0.45594000000E+02  0.51100000000E-03 0. -1.
    9900012    2    1    2    0    0  0.28886295299E+00 -0.16750215915E+02  0.27130571349E+02  0.59301936010E+02  0.49999985378E+02 0.  0.
         12    1    1    2    0    0 -0.28886295299E+00  0.16750215915E+02 -0.27130571349E+02  0.31886063990E+02  0.00000000000E+00 0. -1.
         11    1    3    3    0    0  0.14838933490E+02  0.14462883174E+01  0.13477334739E+02  0.20097866776E+02  0.51100000000E-03 0. -1.
        -11    1    3    3    0    0 -0.20712618696E+02 -0.99754629346E+01  0.11464218535E+01  0.23018182320E+02  0.51100000000E-03 0.  1.
         12    1    3    3    0    0  0.61625481590E+01 -0.82210412982E+01  0.12506814757E+02  0.16185886914E+02  0.00000000000E+00 0. -1.
</event>
<event>
 7    1  0.4489290E-013  0.5930195E+02  0.7816164E-02  0.1266605E+00
        -11   -1    0    0    0    0  0.00000000000E+00  0.00000000000E+00  0.45593999997E+02  0.45594000000E+02  0.51100000000E-03 0.  1.
         11   -1    0    0    0    0 -0.00000000000E+00 -0.00000000000E+00 -0.45593999997E+02  0.45594000000E+02  0.51100000000E-03 0. -1.
    9900012    2    1    2    0    0  0.63809015754E+01  0.21054228117E+02  0.23080811140E+02  0.59301948670E+02  0.50000008467E+02 0.  0.
         12    1    1    2    0    0 -0.63809015754E+01 -0.21054228117E+02 -0.23080811140E+02  0.31886051330E+02  0.00000000000E+00 0. -1.
         11    1    3    3    0    0  0.78999876375E-01  0.23435145730E+02  0.76649099779E+01  0.24656908598E+02  0.51100000000E-03 0. -1.
        -11    1    3    3    0    0 -0.11812744932E+02 -0.47782145678E+01  0.67911996148E+01  0.14439275250E+02  0.51100000000E-03 0.  1.
         12    1    3    3    0    0  0.18114646631E+02  0.23972969544E+01  0.86247015473E+01  0.20205764822E+02  0.00000000000E+00 0. -1.
</event>
<event>
 7    1  0.4489290E-013  0.5930193E+02  0.7816164E-02  0.1266605E+00
        -11   -1    0    0    0    0  0.00000000000E+00  0.00000000000E+00  0.45593999997E+02  0.45594000000E+02  0.51100000000E-03 0.  1.
         11   -1    0    0    0    0 -0.00000000000E+00 -0.00000000000E+00 -0.45593999997E+02  0.45594000000E+02  0.51100000000E-03 0. -1.
    9900012    2    1    2    0    0  0.45334621206E+01 -0.31345943286E+02 -0.36879376369E+01  0.59301932144E+02  0.49999978327E+02 0.  0.
         12    1    1    2    0    0 -0.45334621206E+01  0.31345943286E+02  0.36879376369E+01  0.31886067856E+02  0.00000000000E+00 0. -1.
         11    1    3    3    0    0  0.10985278333E+02 -0.18008092124E+02  0.13166513881E+02  0.24866137819E+02  0.51100000000E-03 0. -1.
        -11    1    3    3    0    0 -0.33172255141E+01  0.60254107556E+01  0.20666804696E+01  0.71819724525E+01  0.51100000000E-03 0.  1.
         12    1    3    3    0    0 -0.31345906987E+01 -0.19363261918E+02 -0.18921131987E+02  0.27253821872E+02  0.00000000000E+00 0. -1.
</event>
<event>
 7    1  0.4489290E-013  0.5930196E+02  0.7816164E-02  0.1266605E+00
        -11   -1    0    0    0    0  0.00000000000E+00  0.00000000000E+00  0.45593999997E+02  0.45594000000E+02  0.51100000000E-03 0.  1.
         11   -1    0    0    0    0 -0.00000000000E+00 -0.00000000000E+00 -0.45593999997E+02  0.45594000000E+02  0.51100000000E-03 0. -1.
    9900012    2    1    2    0    0 -0.26077145778E+02  0.43801479134E+01  0.17818984113E+02  0.59301961950E+02  0.50000032686E+02 0.  0.
         12    1    1    2    0    0  0.26077145778E+02 -0.43801479134E+01 -0.17818984113E+02  0.31886038050E+02  0.00000000000E+00 0. -1.
         11    1    3    3    0    0 -0.12911873921E+01 -0.41411844102E+01 -0.10684661161E+02  0.11531632911E+02  0.51100000000E-03 0. -1.
        -11    1    3    3    0    0 -0.41894628816E+01  0.10533159181E+02  0.24070703588E+02  0.26606349112E+02  0.51100000000E-03 0.  1.
        -12    1    3    3    0    0 -0.20596495505E+02 -0.20118268573E+01  0.44329416866E+01  0.21163979928E+02  0.00000000000E+00 0.  1.
</event>
<event>
 7    1  0.4489290E-013  0.5930193E+02  0.7816164E-02  0.1266605E+00
        -11   -1    0    0    0    0  0.00000000000E+00  0.00000000000E+00  0.45593999997E+02  0.45594000000E+02  0.51100000000E-03 0.  1.
         11   -1    0    0    0    0 -0.00000000000E+00 -0.00000000000E+00 -0.45593999997E+02  0.45594000000E+02  0.51100000000E-03 0. -1.
    9900012    2    1    2    0    0 -0.27934116336E+02 -0.51610866917E+01  0.14483437495E+02  0.59301927288E+02  0.49999969471E+02 0.  0.
         12    1    1    2    0    0  0.27934116336E+02  0.51610866917E+01 -0.14483437495E+02  0.31886072712E+02  0.00000000000E+00 0. -1.
         11    1    3    3    0    0 -0.31238709027E+01 -0.22177229791E+02  0.67926102986E-01  0.22396265421E+02  0.51100000000E-03 0. -1.
        -11    1    3    3    0    0 -0.22933817439E+02  0.14636831508E+02  0.17683915424E+02  0.32448693100E+02  0.51100000000E-03 0.  1.
         12    1    3    3    0    0 -0.18764279945E+01  0.23793115905E+01 -0.32684040325E+01  0.44569687662E+01  0.00000000000E+00 0. -1.
</event>
<event>
 7    1  0.4489290E-013  0.5930198E+02  0.7816164E-02  0.1266605E+00
        -11   -1    0    0    0    0  0.00000000000E+00  0.00000000000E+00  0.45593999997E+02  0.45594000000E+02  0.51100000000E-03 0.  1.
         11   -1    0    0    0    0 -0.00000000000E+00 -0.00000000000E+00 -0.45593999997E+02  0.45594000000E+02  0.51100000000E-03 0. -1.
    9900012    2    1    2    0    0  0.29265139350E+01  0.43118725091E+01  0.31457296849E+02  0.59301980283E+02  0.50000066122E+02 0.  0.
         12    1    1    2    0    0 -0.29265139350E+01 -0.43118725091E+01 -0.31457296849E+02  0.31886019717E+02  0.00000000000E+00 0. -1.
         11    1    3    3    0    0 -0.82032755054E+01 -0.66808109780E+01 -0.38343582505E+01  0.11252967066E+02  0.51100000000E-03 0.  1.
        -11    1    3    3    0    0  0.17902512481E+02 -0.51451339818E+00  0.13249664436E+02  0.22278202016E+02  0.51100000000E-03 0. -1.
         12    1    3    3    0    0 -0.67727230404E+01  0.11507196885E+02  0.22041990663E+02  0.25770811201E+02  0.00000000000E+00 0. -1.
</event>
<event>
 7    1  0.4489290E-013  0.5930195E+02  0.7816164E-02  0.1266605E+00
        -11   -1    0    0    0    0  0.00000000000E+00  0.00000000000E+00  0.45593999997E+02  0.45594000000E+02  0.51100000000E-03 0. -1.
         11   -1    0    0    0    0 -0.00000000000E+00 -0.00000000000E+00 -0.45593999997E+02  0.45594000000E+02  0.51100000000E-03 0.  1.
    9900012    2    1    2    0    0  0.31423698876E+02 -0.54034094480E+01 -0.27264841917E+00  0.59301952552E+02  0.50000015546E+02 0.  0.
         12    1    1    2    0    0 -0.31423698876E+02  0.54034094480E+01  0.27264841917E+00  0.31886047448E+02  0.00000000000E+00 0. -1.
         11    1    3    3    0    0  0.24104625259E+02 -0.13595817967E+01  0.16940786481E+02  0.29493586903E+02  0.51100000000E-03 0. -1.
        -11    1    3    3    0    0  0.12394925120E+02 -0.59323392885E+01 -0.19561370779E+02  0.23905523319E+02  0.51100000000E-03 0.  1.
         12    1    3    3    0    0 -0.50758515026E+01  0.18885116372E+01  0.23479358787E+01  0.59028423299E+01  0.00000000000E+00 0. -1.
</event>
<event>
 7    1  0.4489290E-013  0.5930194E+02  0.7816164E-02  0.1266605E+00
        -11   -1    0    0    0    0  0.00000000000E+00  0.00000000000E+00  0.45593999997E+02  0.45594000000E+02  0.51100000000E-03 0. -1.
         11   -1    0    0    0    0 -0.00000000000E+00 -0.00000000000E+00 -0.45593999997E+02  0.45594000000E+02  0.51100000000E-03 0.  1.
    9900012    2    1    2    0    0 -0.96628370151E+01  0.26777763250E+02 -0.14363218723E+02  0.59301936024E+02  0.49999985403E+02 0.  0.
         12    1    1    2    0    0  0.96628370151E+01 -0.26777763250E+02  0.14363218723E+02  0.31886063976E+02  0.00000000000E+00 0. -1.
         11    1    3    3    0    0 -0.58708761880E+01 -0.11110896909E+02  0.19991004752E+01  0.12724606882E+02  0.51100000000E-03 0. -1.
        -11    1    3    3    0    0 -0.20937416578E+01  0.19342280065E+02  0.30305249469E+01  0.19689886591E+02  0.51100000000E-03 0.  1.
         12    1    3    3    0    0 -0.16982191693E+01  0.18546380093E+02 -0.19392844145E+02  0.26887442551E+02  0.00000000000E+00 0. -1.
</event>
<event>
 7    1  0.4489290E-013  0.5930194E+02  0.7816164E-02  0.1266605E+00
        -11   -1    0    0    0    0  0.00000000000E+00  0.00000000000E+00  0.45593999997E+02  0.45594000000E+02  0.51100000000E-03 0.  1.
         11   -1    0    0    0    0 -0.00000000000E+00 -0.00000000000E+00 -0.45593999997E+02  0.45594000000E+02  0.51100000000E-03 0. -1.
    9900012    2    1    2    0    0  0.29228444980E+01  0.19705936927E+02  0.24896863844E+02  0.59301940360E+02  0.49999993310E+02 0.  0.
         12    1    1    2    0    0 -0.29228444980E+01 -0.19705936927E+02 -0.24896863844E+02  0.31886059640E+02  0.00000000000E+00 0. -1.
         11    1    3    3    0    0  0.14197371103E+02  0.86696437919E+01 -0.41673948136E+01  0.17149205507E+02  0.51100000000E-03 0. -1.
        -11    1    3    3    0    0 -0.13897693309E+02  0.12495654798E+02  0.32561542903E+02  0.37543858947E+02  0.51100000000E-03 0.  1.
        -12    1    3    3    0    0  0.26231667036E+01 -0.14593616626E+01 -0.34972842458E+01  0.46088759056E+01  0.00000000000E+00 0.  1.
</event>
<event>
 7    1  0.4489290E-013  0.5930197E+02  0.7816164E-02  0.1266605E+00
        -11   -1    0    0    0    0  0.00000000000E+00  0.00000000000E+00  0.45593999997E+02  0.45594000000E+02  0.51100000000E-03 0.  1.
         11   -1    0    0    0    0 -0.00000000000E+00 -0.00000000000E+00 -0.45593999997E+02  0.45594000000E+02  0.51100000000E-03 0. -1.
    9900012    2    1    2    0    0  0.26381703121E+01 -0.22175706858E+02 -0.22759543919E+02  0.59301972392E+02  0.50000051729E+02 0.  0.
         12    1    1    2    0    0 -0.26381703121E+01  0.22175706858E+02  0.22759543919E+02  0.31886027608E+02  0.00000000000E+00 0. -1.
         11    1    3    3    0    0 -0.39684568069E+01  0.47964908116E+01 -0.96635562964E+01  0.11495185692E+02  0.51100000000E-03 0. -1.
        -11    1    3    3    0    0  0.34192832671E+01 -0.36097737850E+02 -0.11263429819E+02  0.37968447789E+02  0.51100000000E-03 0.  1.
        -12    1    3    3    0    0  0.31873438519E+01  0.91255401808E+01 -0.18325578035E+01  0.98383389108E+01  0.00000000000E+00 0.  1.
</event>
<event>
 7    1  0.4489290E-013  0.5930195E+02  0.7816164E-02  0.1266605E+00
        -11   -1    0    0    0    0  0.00000000000E+00  0.00000000000E+00  0.45593999997E+02  0.45594000000E+02  0.51100000000E-03 0. -1.
         11   -1    0    0    0    0 -0.00000000000E+00 -0.00000000000E+00 -0.45593999997E+02  0.45594000000E+02  0.51100000000E-03 0.  1.
    9900012    2    1    2    0    0 -0.21098897692E+02  0.20705702476E+02 -0.11951174935E+02  0.59301950054E+02  0.50000010991E+02 0.  0.
         12    1    1    2    0    0  0.21098897692E+02 -0.20705702476E+02  0.11951174935E+02  0.31886049946E+02  0.00000000000E+00 0. -1.
         11    1    3    3    0    0 -0.21836324296E+02 -0.19783314193E+01 -0.11982821599E+02  0.24986533727E+02  0.51100000000E-03 0. -1.
        -11    1    3    3    0    0  0.77695192714E+01  0.14943158002E+02 -0.10195487205E+02  0.19687848039E+02  0.51100000000E-03 0.  1.
         12    1    3    3    0    0 -0.70320926673E+01  0.77408758924E+01  0.10227133869E+02  0.14627568289E+02  0.00000000000E+00 0. -1.
</event>
<event>
 7    1  0.4489290E-013  0.5930197E+02  0.7816164E-02  0.1266605E+00
        -11   -1    0    0    0    0  0.00000000000E+00  0.00000000000E+00  0.45593999997E+02  0.45594000000E+02  0.51100000000E-03 0. -1.
         11   -1    0    0    0    0 -0.00000000000E+00 -0.00000000000E+00 -0.45593999997E+02  0.45594000000E+02  0.51100000000E-03 0.  1.
    9900012    2    1    2    0    0  0.19645586424E+02 -0.22278078154E+02 -0.11595572333E+02  0.59301966539E+02  0.50000041055E+02 0.  0.
         12    1    1    2    0    0 -0.19645586424E+02  0.22278078154E+02  0.11595572333E+02  0.31886033461E+02  0.00000000000E+00 0. -1.
         11    1    3    3    0    0  0.46681663774E+01 -0.93789979062E+01  0.52263159310E+01  0.11707764839E+02  0.51100000000E-03 0. -1.
        -11    1    3    3    0    0  0.27177113338E+02 -0.13254435275E+02 -0.18231633797E+02  0.35308186232E+02  0.51100000000E-03 0.  1.
        -12    1    3    3    0    0 -0.12199693291E+02  0.35535502776E+00  0.14097455333E+01  0.12286015468E+02  0.00000000000E+00 0.  1.
</event>
<event>
 7    1  0.4489290E-013  0.5930195E+02  0.7816164E-02  0.1266605E+00
        -11   -1    0    0    0    0  0.00000000000E+00  0.00000000000E+00  0.45593999997E+02  0.45594000000E+02  0.51100000000E-03 0.  1.
         11   -1    0    0    0    0 -0.00000000000E+00 -0.00000000000E+00 -0.45593999997E+02  0.45594000000E+02  0.51100000000E-03 0. -1.
    9900012    2    1    2    0    0 -0.15341252837E+02  0.27902966324E+02 -0.16704693195E+01  0.59301952330E+02  0.50000015141E+02 0.  0.
         12    1    1    2    0    0  0.15341252837E+02 -0.27902966324E+02  0.16704693195E+01  0.31886047670E+02  0.00000000000E+00 0. -1.
         11    1    3    3    0    0 -0.15626574564E+02  0.30751095413E+02  0.82250384698E+01  0.35460836987E+02  0.51100000000E-03 0.  1.
        -11    1    3    3    0    0 -0.87216300379E+01 -0.11388816598E+01  0.18027789628E+01  0.89785240549E+01  0.51100000000E-03 0. -1.
         12    1    3    3    0    0  0.90069517647E+01 -0.17092474295E+01 -0.11698286752E+02  0.14862591288E+02  0.00000000000E+00 0. -1.
</event>
<event>
 7    1  0.4489290E-013  0.5930191E+02  0.7816164E-02  0.1266605E+00
        -11   -1    0    0    0    0  0.00000000000E+00  0.00000000000E+00  0.45593999997E+02  0.45594000000E+02  0.51100000000E-03 0.  1.
         11   -1    0    0    0    0 -0.00000000000E+00 -0.00000000000E+00 -0.45593999997E+02  0.45594000000E+02  0.51100000000E-03 0. -1.
    9900012    2    1    2    0    0 -0.75109748533E+01  0.57261364447E+01  0.30455207034E+02  0.59301905581E+02  0.49999929882E+02 0.  0.
         12    1    1    2    0    0  0.75109748533E+01 -0.57261364447E+01 -0.30455207034E+02  0.31886094419E+02  0.00000000000E+00 0. -1.
         11    1    3    3    0    0 -0.70577634400E+01 -0.48911235251E+01 -0.37189467895E+01  0.93576535305E+01  0.51100000000E-03 0. -1.
        -11    1    3    3    0    0  0.14367646984E+02  0.13666928278E+02  0.26145998143E+02  0.32815048797E+02  0.51100000000E-03 0.  1.
        -12    1    3    3    0    0 -0.14820858398E+02 -0.30496683083E+01  0.80281556808E+01  0.17129203253E+02  0.00000000000E+00 0.  1.
</event>
<event>
 7    1  0.4489290E-013  0.5930183E+02  0.7816164E-02  0.1266605E+00
        -11   -1    0    0    0    0  0.00000000000E+00  0.00000000000E+00  0.45593999997E+02  0.45594000000E+02  0.51100000000E-03 0.  1.
         11   -1    0    0    0    0 -0.00000000000E+00 -0.00000000000E+00 -0.45593999997E+02  0.45594000000E+02  0.51100000000E-03 0. -1.
    9900012    2    1    2    0    0  0.13420368281E+02 -0.72290206790E+01  0.28006479256E+02  0.59301828936E+02  0.49999790100E+02 0.  0.
         12    1    1    2    0    0 -0.13420368281E+02  0.72290206790E+01 -0.28006479256E+02  0.31886171064E+02  0.00000000000E+00 0. -1.
         11    1    3    3    0    0 -0.66904938226E+01  0.58038999869E+00  0.99729947225E+00  0.67892684907E+01  0.51100000000E-03 0. -1.
        -11    1    3    3    0    0  0.27983722611E+02 -0.97727044486E+01  0.31488011711E+02  0.43244529887E+02  0.51100000000E-03 0.  1.
        -12    1    3    3    0    0 -0.78728605073E+01  0.19632937709E+01 -0.44788319269E+01  0.92680305582E+01  0.00000000000E+00 0.  1.
</event>
<event>
 7    1  0.4489290E-013  0.5930194E+02  0.7816164E-02  0.1266605E+00
        -11   -1    0    0    0    0  0.00000000000E+00  0.00000000000E+00  0.45593999997E+02  0.45594000000E+02  0.51100000000E-03 0. -1.
         11   -1    0    0    0    0 -0.00000000000E+00 -0.00000000000E+00 -0.45593999997E+02  0.45594000000E+02  0.51100000000E-03 0.  1.
    9900012    2    1    2    0    0 -0.12978339712E+02 -0.23330332799E+02 -0.17434992047E+02  0.59301942265E+02  0.49999996786E+02 0.  0.
         12    1    1    2    0    0  0.12978339712E+02  0.23330332799E+02  0.17434992047E+02  0.31886057735E+02  0.00000000000E+00 0. -1.
         11    1    3    3    0    0  0.91090560015E+01 -0.20234258501E+02 -0.27110948068E+01  0.22355092342E+02  0.51100000000E-03 0. -1.
        -11    1    3    3    0    0 -0.23592583125E+02  0.53957940954E+01 -0.65686123437E+01  0.25077305294E+02  0.51100000000E-03 0.  1.
        -12    1    3    3    0    0  0.15051874115E+01 -0.84918683935E+01 -0.81552848967E+01  0.11869544629E+02  0.00000000000E+00 0.  1.
</event>
<event>
 7    1  0.4489290E-013  0.5930192E+02  0.7816164E-02  0.1266605E+00
        -11   -1    0    0    0    0  0.00000000000E+00  0.00000000000E+00  0.45593999997E+02  0.45594000000E+02  0.51100000000E-03 0.  1.
         11   -1    0    0    0    0 -0.00000000000E+00 -0.00000000000E+00 -0.45593999997E+02  0.45594000000E+02  0.51100000000E-03 0. -1.
    9900012    2    1    2    0    0  0.68425127645E+01  0.10170219345E+01  0.31126639359E+02  0.59301921653E+02  0.49999959194E+02 0.  0.
         12    1    1    2    0    0 -0.68425127645E+01 -0.10170219345E+01 -0.31126639359E+02  0.31886078347E+02  0.00000000000E+00 0. -1.
         11    1    3    3    0    0 -0.44944377194E+01 -0.19400656944E+02  0.10253344929E+02  0.22399029952E+02  0.51100000000E-03 0. -1.
        -11    1    3    3    0    0  0.10396890619E+02  0.35661557887E+01  0.15859823168E+02  0.19296289613E+02  0.51100000000E-03 0.  1.
         12    1    3    3    0    0  0.94005986495E+00  0.16851523090E+02  0.50134712625E+01  0.17606602089E+02  0.00000000000E+00 0. -1.
</event>
<event>
 7    1  0.4489290E-013  0.5930196E+02  0.7816164E-02  0.1266605E+00
        -11   -1    0    0    0    0  0.00000000000E+00  0.00000000000E+00  0.45593999997E+02  0.45594000000E+02  0.51100000000E-03 0. -1.
         11   -1    0    0    0    0 -0.00000000000E+00 -0.00000000000E+00 -0.45593999997E+02  0.45594000000E+02  0.51100000000E-03 0.  1.
    9900012    2    1    2    0    0  0.25691956560E+02  0.18883642560E+02 -0.22545184683E+00  0.59301962041E+02  0.50000032851E+02 0.  0.
         12    1    1    2    0    0 -0.25691956560E+02 -0.18883642560E+02  0.22545184683E+00  0.31886037959E+02  0.00000000000E+00 0. -1.
         11    1    3    3    0    0  0.17123575288E+02  0.18240588115E+02  0.19006560770E+02  0.31419504102E+02  0.51100000000E-03 0. -1.
        -11    1    3    3    0    0  0.64278787208E+01  0.89351987853E+01 -0.14139643161E+02  0.17918842350E+02  0.51100000000E-03 0.  1.
        -12    1    3    3    0    0  0.21405025508E+01 -0.82921443398E+01 -0.50923694560E+01  0.99636155886E+01  0.00000000000E+00 0.  1.
</event>
<event>
 7    1  0.4489290E-013  0.5930195E+02  0.7816164E-02  0.1266605E+00
        -11   -1    0    0    0    0  0.00000000000E+00  0.00000000000E+00  0.45593999997E+02  0.45594000000E+02  0.51100000000E-03 0.  1.
         11   -1    0    0    0    0 -0.00000000000E+00 -0.00000000000E+00 -0.45593999997E+02  0.45594000000E+02  0.51100000000E-03 0. -1.
    9900012    2    1    2    0    0  0.15580921666E+02  0.85386655455E+01  0.26477274375E+02  0.59301953089E+02  0.50000016526E+02 0.  0.
         12    1    1    2    0    0 -0.15580921666E+02 -0.85386655455E+01 -0.26477274375E+02  0.31886046911E+02  0.00000000000E+00 0. -1.
         11    1    3    3    0    0  0.95432231143E+01 -0.16119343872E+02  0.19078404110E+02  0.26737461696E+02  0.51100000000E-03 0. -1.
        -11    1    3    3    0    0  0.12487960547E+02  0.14384586293E+02  0.73947530235E+01  0.20433987716E+02  0.51100000000E-03 0.  1.
         12    1    3    3    0    0 -0.64502619954E+01  0.10273423125E+02  0.41172413028E-02  0.12130503678E+02  0.00000000000E+00 0. -1.
</event>
<event>
 7    1  0.4489290E-013  0.5930197E+02  0.7816164E-02  0.1266605E+00
        -11   -1    0    0    0    0  0.00000000000E+00  0.00000000000E+00  0.45593999997E+02  0.45594000000E+02  0.51100000000E-03 0. -1.
         11   -1    0    0    0    0 -0.00000000000E+00 -0.00000000000E+00 -0.45593999997E+02  0.45594000000E+02  0.51100000000E-03 0.  1.
    9900012    2    1    2    0    0 -0.30719150520E+02 -0.84544341121E+01 -0.12550810684E+01  0.59301970249E+02  0.50000047821E+02 0.  0.
         12    1    1    2    0    0  0.30719150520E+02  0.84544341121E+01  0.12550810684E+01  0.31886029751E+02  0.00000000000E+00 0. -1.
         11    1    3    3    0    0 -0.43337380537E+02 -0.66887087708E+01  0.60534316218E+01  0.44266368854E+02  0.51100000000E-03 0. -1.
        -11    1    3    3    0    0  0.44162991152E+01 -0.16868269119E+01 -0.14122123829E+01  0.49339058545E+01  0.51100000000E-03 0.  1.
         12    1    3    3    0    0  0.82019309020E+01 -0.78898429388E-01 -0.58963003073E+01  0.10101695541E+02  0.00000000000E+00 0. -1.
</event>
<event>
 7    1  0.4489290E-013  0.5930191E+02  0.7816164E-02  0.1266605E+00
        -11   -1    0    0    0    0  0.00000000000E+00  0.00000000000E+00  0.45593999997E+02  0.45594000000E+02  0.51100000000E-03 0.  1.
         11   -1    0    0    0    0 -0.00000000000E+00 -0.00000000000E+00 -0.45593999997E+02  0.45594000000E+02  0.51100000000E-03 0. -1.
    9900012    2    1    2    0    0  0.25711179744E+02 -0.18612586293E+02 -0.30380233035E+01  0.59301910275E+02  0.49999938443E+02 0.  0.
         12    1    1    2    0    0 -0.25711179744E+02  0.18612586293E+02  0.30380233035E+01  0.31886089725E+02  0.00000000000E+00 0. -1.
         11    1    3    3    0    0 -0.70884460648E+01 -0.11737369698E+02 -0.15103288347E+01  0.13794673193E+02  0.51100000000E-03 0. -1.
        -11    1    3    3    0    0 -0.22827011786E+01  0.61584474063E+01  0.39788599544E+01  0.76790966868E+01  0.51100000000E-03 0.  1.
         12    1    3    3    0    0  0.35082326988E+02 -0.13033664002E+02 -0.55065544232E+01  0.37828140396E+02  0.00000000000E+00 0. -1.
</event>
<event>
 7    1  0.4489290E-013  0.5930193E+02  0.7816164E-02  0.1266605E+00
        -11   -1    0    0    0    0  0.00000000000E+00  0.00000000000E+00  0.45593999997E+02  0.45594000000E+02  0.51100000000E-03 0.  1.
         11   -1    0    0    0    0 -0.00000000000E+00 -0.00000000000E+00 -0.45593999997E+02  0.45594000000E+02  0.51100000000E-03 0. -1.
    9900012    2    1    2    0    0  0.21884818999E+02 -0.33022310361E+01  0.22953683805E+02  0.59301927293E+02  0.49999969481E+02 0.  0.
         12    1    1    2    0    0 -0.21884818999E+02  0.33022310361E+01 -0.22953683805E+02  0.31886072707E+02  0.00000000000E+00 0. -1.
         11    1    3    3    0    0  0.22269786483E+01 -0.16519930929E+02  0.61805195534E+01  0.17778255652E+02  0.51100000000E-03 0. -1.
        -11    1    3    3    0    0  0.29507710801E+01  0.16957914251E+02 -0.47748355711E+00  0.17219346577E+02  0.51100000000E-03 0.  1.
         12    1    3    3    0    0  0.16707069271E+02 -0.37402143582E+01  0.17250647808E+02  0.24304325065E+02  0.00000000000E+00 0. -1.
</event>
<event>
 7    1  0.4489290E-013  0.5930195E+02  0.7816164E-02  0.1266605E+00
        -11   -1    0    0    0    0  0.00000000000E+00  0.00000000000E+00  0.45593999997E+02  0.45594000000E+02  0.51100000000E-03 0. -1.
         11   -1    0    0    0    0 -0.00000000000E+00 -0.00000000000E+00 -0.45593999997E+02  0.45594000000E+02  0.51100000000E-03 0.  1.
    9900012    2    1    2    0    0 -0.12809782301E+02 -0.28108319005E+02 -0.79089854521E+01  0.59301950217E+02  0.50000011287E+02 0.  0.
         12    1    1    2    0    0  0.12809782301E+02  0.28108319005E+02  0.79089854521E+01  0.31886049783E+02  0.00000000000E+00 0. -1.
         11    1    3    3    0    0 -0.19302622898E+02 -0.30373675746E+02 -0.27050252212E+01  0.36089729714E+02  0.51100000000E-03 0. -1.
        -11    1    3    3    0    0 -0.14723856784E+01 -0.10778399387E+01 -0.12051609304E+02  0.12188968193E+02  0.51100000000E-03 0.  1.
         12    1    3    3    0    0  0.79652262760E+01  0.33431966795E+01  0.68476490734E+01  0.11023252310E+02  0.00000000000E+00 0. -1.
</event>
<event>
 7    1  0.4489290E-013  0.5930194E+02  0.7816164E-02  0.1266605E+00
        -11   -1    0    0    0    0  0.00000000000E+00  0.00000000000E+00  0.45593999997E+02  0.45594000000E+02  0.51100000000E-03 0. -1.
         11   -1    0    0    0    0 -0.00000000000E+00 -0.00000000000E+00 -0.45593999997E+02  0.45594000000E+02  0.51100000000E-03 0.  1.
    9900012    2    1    2    0    0  0.46034729092E+01 -0.11479582853E+02 -0.29389589042E+02  0.59301941458E+02  0.49999995314E+02 0.  0.
         12    1    1    2    0    0 -0.46034729092E+01  0.11479582853E+02  0.29389589042E+02  0.31886058542E+02  0.00000000000E+00 0. -1.
         11    1    3    3    0    0 -0.11199573903E+02  0.40764774474E+01 -0.87480898353E+00  0.11950456686E+02  0.51100000000E-03 0. -1.
        -11    1    3    3    0    0  0.20924584888E+02 -0.28335811084E+01 -0.25854044473E+02  0.33381118173E+02  0.51100000000E-03 0.  1.
        -12    1    3    3    0    0 -0.51215380756E+01 -0.12722479192E+02 -0.26607355853E+01  0.13970366599E+02  0.00000000000E+00 0.  1.
</event>
<event>
 7    1  0.4489290E-013  0.5930192E+02  0.7816164E-02  0.1266605E+00
        -11   -1    0    0    0    0  0.00000000000E+00  0.00000000000E+00  0.45593999997E+02  0.45594000000E+02  0.51100000000E-03 0.  1.
         11   -1    0    0    0    0 -0.00000000000E+00 -0.00000000000E+00 -0.45593999997E+02  0.45594000000E+02  0.51100000000E-03 0. -1.
    9900012    2    1    2    0    0 -0.82620677452E+01 -0.20564192606E+02  0.22925404432E+02  0.59301922328E+02  0.49999960424E+02 0.  0.
         12    1    1    2    0    0  0.82620677452E+01  0.20564192606E+02 -0.22925404432E+02  0.31886077672E+02  0.00000000000E+00 0. -1.
         11    1    3    3    0    0 -0.21326282120E+02  0.16827431735E+01  0.13492575829E+02  0.25292123999E+02  0.51100000000E-03 0. -1.
        -11    1    3    3    0    0  0.18180943138E+02 -0.20026923388E+02  0.71065369745E+01  0.27966537537E+02  0.51100000000E-03 0.  1.
         12    1    3    3    0    0 -0.51167287631E+01 -0.22200123912E+01  0.23262916286E+01  0.60432607914E+01  0.00000000000E+00 0. -1.
</event>
<event>
 7    1  0.4489290E-013  0.5930198E+02  0.7816164E-02  0.1266605E+00
        -11   -1    0    0    0    0  0.00000000000E+00  0.00000000000E+00  0.45593999997E+02  0.45594000000E+02  0.51100000000E-03 0.  1.
         11   -1    0    0    0    0 -0.00000000000E+00 -0.00000000000E+00 -0.45593999997E+02  0.45594000000E+02  0.51100000000E-03 0. -1.
    9900012    2    1    2    0    0  0.52389890195E+01 -0.13917859894E+02  0.28205749814E+02  0.59301981865E+02  0.50000069006E+02 0.  0.
         12    1    1    2    0    0 -0.52389890195E+01  0.13917859894E+02 -0.28205749814E+02  0.31886018135E+02  0.00000000000E+00 0. -1.
         11    1    3    3    0    0 -0.88682110513E+01  0.33371870429E+01 -0.15249408152E+01  0.95972615553E+01  0.51100000000E-03 0. -1.
        -11    1    3    3    0    0  0.18911055288E+02  0.28380895579E+01  0.13042847487E+02  0.23147324581E+02  0.51100000000E-03 0.  1.
        -12    1    3    3    0    0 -0.48038552170E+01 -0.20093136495E+02  0.16687843141E+02  0.26557395728E+02  0.00000000000E+00 0.  1.
</event>
<event>
 7    1  0.4489290E-013  0.5930191E+02  0.7816164E-02  0.1266605E+00
        -11   -1    0    0    0    0  0.00000000000E+00  0.00000000000E+00  0.45593999997E+02  0.45594000000E+02  0.51100000000E-03 0.  1.
         11   -1    0    0    0    0 -0.00000000000E+00 -0.00000000000E+00 -0.45593999997E+02  0.45594000000E+02  0.51100000000E-03 0. -1.
    9900012    2    1    2    0    0 -0.28624470480E+02 -0.12117486349E+02  0.71083699968E+01  0.59301910404E+02  0.49999938679E+02 0.  0.
         12    1    1    2    0    0  0.28624470480E+02  0.12117486349E+02 -0.71083699968E+01  0.31886089596E+02  0.00000000000E+00 0. -1.
         11    1    3    3    0    0 -0.13894275289E+02  0.13396616734E+02  0.12534861396E+02  0.23013973499E+02  0.51100000000E-03 0. -1.
        -11    1    3    3    0    0 -0.11010317691E+02 -0.15370035321E+02  0.66884193165E+01  0.20054925446E+02  0.51100000000E-03 0.  1.
         12    1    3    3    0    0 -0.37198775002E+01 -0.10144067763E+02 -0.12114910716E+02  0.16233011459E+02  0.00000000000E+00 0. -1.
</event>
<event>
 7    1  0.4489290E-013  0.5930196E+02  0.7816164E-02  0.1266605E+00
        -11   -1    0    0    0    0  0.00000000000E+00  0.00000000000E+00  0.45593999997E+02  0.45594000000E+02  0.51100000000E-03 0. -1.
         11   -1    0    0    0    0 -0.00000000000E+00 -0.00000000000E+00 -0.45593999997E+02  0.45594000000E+02  0.51100000000E-03 0.  1.
    9900012    2    1    2    0    0  0.12159396201E+02 -0.28603475184E+02  0.71210976809E+01  0.59301956960E+02  0.50000023586E+02 0.  0.
         12    1    1    2    0    0 -0.12159396201E+02  0.28603475184E+02 -0.71210976809E+01  0.31886043040E+02  0.00000000000E+00 0. -1.
         11    1    3    3    0    0  0.24544052203E+02 -0.74312379355E+01  0.10671680762E+02  0.27776223039E+02  0.51100000000E-03 0. -1.
        -11    1    3    3    0    0 -0.17397602093E+02 -0.13085820369E+02 -0.17236168323E+01  0.21837722147E+02  0.51100000000E-03 0.  1.
        -12    1    3    3    0    0  0.50129460909E+01 -0.80864168797E+01 -0.18269662489E+01  0.96880117742E+01  0.00000000000E+00 0.  1.
</event>
<event>
 7    1  0.4489290E-013  0.5930196E+02  0.7816164E-02  0.1266605E+00
        -11   -1    0    0    0    0  0.00000000000E+00  0.00000000000E+00  0.45593999997E+02  0.45594000000E+02  0.51100000000E-03 0.  1.
         11   -1    0    0    0    0 -0.00000000000E+00 -0.00000000000E+00 -0.45593999997E+02  0.45594000000E+02  0.51100000000E-03 0. -1.
    9900012    2    1    2    0    0 -0.12784229238E+02 -0.11891483164E+02  0.26680994683E+02  0.59301962832E+02  0.50000034294E+02 0.  0.
         12    1    1    2    0    0  0.12784229238E+02  0.11891483164E+02 -0.26680994683E+02  0.31886037168E+02  0.00000000000E+00 0. -1.
         11    1    3    3    0    0  0.16636312522E+02 -0.34158278527E+01  0.15578078040E+02  0.23045851903E+02  0.51100000000E-03 0. -1.
        -11    1    3    3    0    0 -0.16962157350E+02 -0.12046872375E+02  0.31274924926E+01  0.21038610351E+02  0.51100000000E-03 0.  1.
         12    1    3    3    0    0 -0.12458384411E+02  0.35712170635E+01  0.79754241498E+01  0.15217500577E+02  0.00000000000E+00 0. -1.
</event>
<event>
 7    1  0.4489290E-013  0.5930198E+02  0.7816164E-02  0.1266605E+00
        -11   -1    0    0    0    0  0.00000000000E+00  0.00000000000E+00  0.45593999997E+02  0.45594000000E+02  0.51100000000E-03 0. -1.
         11   -1    0    0    0    0 -0.00000000000E+00 -0.00000000000E+00 -0.45593999997E+02  0.45594000000E+02  0.51100000000E-03 0.  1.
    9900012    2    1    2    0    0 -0.30006120707E+02 -0.61587130077E+01 -0.88555680153E+01  0.59301982521E+02  0.50000070202E+02 0.  0.
         12    1    1    2    0    0  0.30006120707E+02  0.61587130077E+01  0.88555680153E+01  0.31886017479E+02  0.00000000000E+00 0. -1.
         11    1    3    3    0    0 -0.79221283527E+01 -0.18944021666E+01  0.13249188304E+02  0.15552809013E+02  0.51100000000E-03 0. -1.
        -11    1    3    3    0    0 -0.21001179448E+02 -0.12145455085E+02 -0.25412773937E+02  0.35133612067E+02  0.51100000000E-03 0.  1.
        -12    1    3    3    0    0 -0.10828129065E+01  0.78811442443E+01  0.33080176172E+01  0.86155614411E+01  0.00000000000E+00 0.  1.
</event>
<event>
 7    1  0.4489290E-013  0.5930196E+02  0.7816164E-02  0.1266605E+00
        -11   -1    0    0    0    0  0.00000000000E+00  0.00000000000E+00  0.45593999997E+02  0.45594000000E+02  0.51100000000E-03 0. -1.
         11   -1    0    0    0    0 -0.00000000000E+00 -0.00000000000E+00 -0.45593999997E+02  0.45594000000E+02  0.51100000000E-03 0.  1.
    9900012    2    1    2    0    0  0.12022844572E+02  0.23908759393E+01 -0.29435594304E+02  0.59301964006E+02  0.50000036436E+02 0.  0.
         12    1    1    2    0    0 -0.12022844572E+02 -0.23908759393E+01  0.29435594304E+02  0.31886035994E+02  0.00000000000E+00 0. -1.
         11    1    3    3    0    0  0.82407803354E+00  0.10169900604E+01  0.12447955161E+02  0.12516587447E+02  0.51100000000E-03 0. -1.
        -11    1    3    3    0    0 -0.25198722613E+01  0.46170402168E+01 -0.48308901886E+01  0.71417306622E+01  0.51100000000E-03 0.  1.
         12    1    3    3    0    0  0.13718638800E+02 -0.32431543379E+01 -0.37052659276E+02  0.39643645897E+02  0.00000000000E+00 0. -1.
</event>
<event>
 7    1  0.4489290E-013  0.5930176E+02  0.7816164E-02  0.1266605E+00
        -11   -1    0    0    0    0  0.00000000000E+00  0.00000000000E+00  0.45593999997E+02  0.45594000000E+02  0.51100000000E-03 0. -1.
         11   -1    0    0    0    0 -0.00000000000E+00 -0.00000000000E+00 -0.45593999997E+02  0.45594000000E+02  0.51100000000E-03 0.  1.
    9900012    2    1    2    0    0  0.15905810753E+02  0.22194917756E+02 -0.16465821810E+02  0.59301757233E+02  0.49999659330E+02 0.  0.
         12    1    1    2    0    0 -0.15905810753E+02 -0.22194917756E+02  0.16465821810E+02  0.31886242767E+02  0.00000000000E+00 0. -1.
         11    1    3    3    0    0  0.13704632437E+02 -0.40679423876E+01  0.10636979278E+01  0.14335151169E+02  0.51100000000E-03 0. -1.
        -11    1    3    3    0    0  0.83533234207E+01  0.31931578267E+02 -0.14742938347E+02  0.36149106962E+02  0.51100000000E-03 0.  1.
        -12    1    3    3    0    0 -0.61521451047E+01 -0.56687181231E+01 -0.27865813913E+01  0.88174991012E+01  0.00000000000E+00 0.  1.
</event>
<event>
 7    1  0.4489290E-013  0.5930201E+02  0.7816164E-02  0.1266605E+00
        -11   -1    0    0    0    0  0.00000000000E+00  0.00000000000E+00  0.45593999997E+02  0.45594000000E+02  0.51100000000E-03 0.  1.
         11   -1    0    0    0    0 -0.00000000000E+00 -0.00000000000E+00 -0.45593999997E+02  0.45594000000E+02  0.51100000000E-03 0. -1.
    9900012    2    1    2    0    0  0.18285522538E+02  0.25591450805E+02 -0.52377420520E+01  0.59302005730E+02  0.50000112530E+02 0.  0.
         12    1    1    2    0    0 -0.18285522538E+02 -0.25591450805E+02  0.52377420520E+01  0.31885994270E+02  0.00000000000E+00 0. -1.
         11    1    3    3    0    0  0.32906850586E+01  0.23321730262E+02 -0.22184504482E+02  0.32355586070E+02  0.51100000000E-03 0. -1.
        -11    1    3    3    0    0  0.16680201356E+02 -0.76464023905E+00  0.10795947257E+02  0.19883819286E+02  0.51100000000E-03 0.  1.
         12    1    3    3    0    0 -0.16853638764E+01  0.30343607818E+01  0.61508151728E+01  0.70626003738E+01  0.00000000000E+00 0. -1.
</event>
<event>
 7    1  0.4489290E-013  0.5930195E+02  0.7816164E-02  0.1266605E+00
        -11   -1    0    0    0    0  0.00000000000E+00  0.00000000000E+00  0.45593999997E+02  0.45594000000E+02  0.51100000000E-03 0.  1.
         11   -1    0    0    0    0 -0.00000000000E+00 -0.00000000000E+00 -0.45593999997E+02  0.45594000000E+02  0.51100000000E-03 0. -1.
    9900012    2    1    2    0    0  0.19773691547E+02  0.14380593223E+02  0.20467533951E+02  0.59301948427E+02  0.50000008024E+02 0.  0.
         12    1    1    2    0    0 -0.19773691547E+02 -0.14380593223E+02 -0.20467533951E+02  0.31886051573E+02  0.00000000000E+00 0. -1.
         11    1    3    3    0    0 -0.83250195559E+01  0.41380720799E+01 -0.64085159365E+01  0.11291530805E+02  0.51100000000E-03 0. -1.
        -11    1    3    3    0    0  0.30699486042E+02  0.22553763868E+01  0.24320094978E+02  0.39230245805E+02  0.51100000000E-03 0.  1.
        -12    1    3    3    0    0 -0.26007749395E+01  0.79871447566E+01  0.25559549102E+01  0.87801718179E+01  0.00000000000E+00 0.  1.
</event>
<event>
 7    1  0.4489290E-013  0.5930194E+02  0.7816164E-02  0.1266605E+00
        -11   -1    0    0    0    0  0.00000000000E+00  0.00000000000E+00  0.45593999997E+02  0.45594000000E+02  0.51100000000E-03 0.  1.
         11   -1    0    0    0    0 -0.00000000000E+00 -0.00000000000E+00 -0.45593999997E+02  0.45594000000E+02  0.51100000000E-03 0. -1.
    9900012    2    1    2    0    0 -0.13658074638E+02  0.23332306832E+02  0.16905071632E+02  0.59301937343E+02  0.49999987808E+02 0.  0.
         12    1    1    2    0    0  0.13658074638E+02 -0.23332306832E+02 -0.16905071632E+02  0.31886062657E+02  0.00000000000E+00 0. -1.
         11    1    3    3    0    0 -0.49695732942E+01  0.82949528878E+01 -0.72435764860E+01  0.12081899797E+02  0.51100000000E-03 0. -1.
        -11    1    3    3    0    0 -0.54405173880E+01 -0.47333585250E+01  0.26110917310E+02  0.27088446160E+02  0.51100000000E-03 0.  1.
        -12    1    3    3    0    0 -0.32479839557E+01  0.19770712469E+02 -0.19622691915E+01  0.20131591385E+02  0.00000000000E+00 0.  1.
</event>
<event>
 7    1  0.4489290E-013  0.5930194E+02  0.7816164E-02  0.1266605E+00
        -11   -1    0    0    0    0  0.00000000000E+00  0.00000000000E+00  0.45593999997E+02  0.45594000000E+02  0.51100000000E-03 0.  1.
         11   -1    0    0    0    0 -0.00000000000E+00 -0.00000000000E+00 -0.45593999997E+02  0.45594000000E+02  0.51100000000E-03 0. -1.
    9900012    2    1    2    0    0  0.19314340215E+02 -0.37563042329E+01  0.25091178258E+02  0.59301940573E+02  0.49999993699E+02 0.  0.
         12    1    1    2    0    0 -0.19314340215E+02  0.37563042329E+01 -0.25091178258E+02  0.31886059427E+02  0.00000000000E+00 0. -1.
         11    1    3    3    0    0 -0.80593187874E+01 -0.27045173017E+01 -0.38801085028E+01  0.93446388591E+01  0.51100000000E-03 0. -1.
        -11    1    3    3    0    0  0.20616834148E+02  0.12558632540E+02  0.23815968018E+02  0.33911258226E+02  0.51100000000E-03 0.  1.
        -12    1    3    3    0    0  0.67568248539E+01 -0.13610419471E+02  0.51553187421E+01  0.16046043488E+02  0.00000000000E+00 0.  1.
</event>
<event>
 7    1  0.4489290E-013  0.5930192E+02  0.7816164E-02  0.1266605E+00
        -11   -1    0    0    0    0  0.00000000000E+00  0.00000000000E+00  0.45593999997E+02  0.45594000000E+02  0.51100000000E-03 0.  1.
         11   -1    0    0    0    0 -0.00000000000E+00 -0.00000000000E+00 -0.45593999997E+02  0.45594000000E+02  0.51100000000E-03 0. -1.
    9900012    2    1    2    0    0 -0.17694580224E+02  0.18379606275E+02  0.19126263425E+02  0.59301920769E+02  0.49999957582E+02 0.  0.
         12    1    1    2    0    0  0.17694580224E+02 -0.18379606275E+02 -0.19126263425E+02  0.31886079231E+02  0.00000000000E+00 0. -1.
         11    1    3    3    0    0 -0.12728179918E+02  0.10212661705E+02  0.27150626830E+02  0.31677461399E+02  0.51100000000E-03 0.  1.
        -11    1    3    3    0    0  0.53269560317E+01 -0.62477271945E+01 -0.77295198417E-01  0.82107569973E+01  0.51100000000E-03 0. -1.
         12    1    3    3    0    0 -0.10293356338E+02  0.14414671764E+02 -0.79470682071E+01  0.19413702373E+02  0.00000000000E+00 0. -1.
</event>
<event>
 7    1  0.4489290E-013  0.5930193E+02  0.7816164E-02  0.1266605E+00
        -11   -1    0    0    0    0  0.00000000000E+00  0.00000000000E+00  0.45593999997E+02  0.45594000000E+02  0.51100000000E-03 0.  1.
         11   -1    0    0    0    0 -0.00000000000E+00 -0.00000000000E+00 -0.45593999997E+02  0.45594000000E+02  0.51100000000E-03 0. -1.
    9900012    2    1    2    0    0 -0.17880600438E+02  0.19110258472E+02  0.18215473276E+02  0.59301932234E+02  0.49999978491E+02 0.  0.
         12    1    1    2    0    0  0.17880600438E+02 -0.19110258472E+02 -0.18215473276E+02  0.31886067766E+02  0.00000000000E+00 0. -1.
         11    1    3    3    0    0 -0.12550145001E+02  0.81229295439E+01 -0.19973980450E+01  0.15082364640E+02  0.51100000000E-03 0. -1.
        -11    1    3    3    0    0  0.63767118863E+01 -0.11254104232E+02  0.17943126429E+01  0.13058976785E+02  0.51100000000E-03 0.  1.
        -12    1    3    3    0    0 -0.11707167323E+02  0.22241433161E+02  0.18418558678E+02  0.31160590809E+02  0.00000000000E+00 0.  1.
</event>
<event>
 7    1  0.4489290E-013  0.5930183E+02  0.7816164E-02  0.1266605E+00
        -11   -1    0    0    0    0  0.00000000000E+00  0.00000000000E+00  0.45593999997E+02  0.45594000000E+02  0.51100000000E-03 0.  1.
         11   -1    0    0    0    0 -0.00000000000E+00 -0.00000000000E+00 -0.45593999997E+02  0.45594000000E+02  0.51100000000E-03 0. -1.
    9900012    2    1    2    0    0 -0.10929049209E+02 -0.59769499494E+01  0.29352337208E+02  0.59301831417E+02  0.49999794625E+02 0.  0.
         12    1    1    2    0    0  0.10929049209E+02  0.59769499494E+01 -0.29352337208E+02  0.31886168583E+02  0.00000000000E+00 0. -1.
         11    1    3    3    0    0 -0.22798043891E+02  0.41837289188E+01  0.49228510683E+00  0.23183975884E+02  0.51100000000E-03 0. -1.
        -11    1    3    3    0    0 -0.49836480645E+00 -0.57946428049E+01  0.18534545545E+02  0.19425643658E+02  0.51100000000E-03 0.  1.
         12    1    3    3    0    0  0.12367359488E+02 -0.43660360633E+01  0.10325506556E+02  0.16692211874E+02  0.00000000000E+00 0. -1.
</event>
<event>
 7    1  0.4489290E-013  0.5930195E+02  0.7816164E-02  0.1266605E+00
        -11   -1    0    0    0    0  0.00000000000E+00  0.00000000000E+00  0.45593999997E+02  0.45594000000E+02  0.51100000000E-03 0. -1.
         11   -1    0    0    0    0 -0.00000000000E+00 -0.00000000000E+00 -0.45593999997E+02  0.45594000000E+02  0.51100000000E-03 0.  1.
    9900012    2    1    2    0    0  0.24045660771E+02  0.43903167918E+01 -0.20475631042E+02  0.59301950542E+02  0.50000011880E+02 0.  0.
         12    1    1    2    0    0 -0.24045660771E+02 -0.43903167918E+01  0.20475631042E+02  0.31886049458E+02  0.00000000000E+00 0. -1.
         11    1    3    3    0    0  0.19085468005E+02 -0.13768508247E+02  0.10246215628E+01  0.23555822166E+02  0.51100000000E-03 0. -1.
        -11    1    3    3    0    0 -0.69014779725E+01  0.12654561920E+02 -0.64009261117E+01  0.15771499325E+02  0.51100000000E-03 0.  1.
         12    1    3    3    0    0  0.11861670739E+02  0.55042631182E+01 -0.15099326494E+02  0.19974629052E+02  0.00000000000E+00 0. -1.
</event>
<event>
 7    1  0.4489290E-013  0.5930194E+02  0.7816164E-02  0.1266605E+00
        -11   -1    0    0    0    0  0.00000000000E+00  0.00000000000E+00  0.45593999997E+02  0.45594000000E+02  0.51100000000E-03 0. -1.
         11   -1    0    0    0    0 -0.00000000000E+00 -0.00000000000E+00 -0.45593999997E+02  0.45594000000E+02  0.51100000000E-03 0.  1.
    9900012    2    1    2    0    0 -0.57588677742E+01 -0.12030538477E+02 -0.28962435471E+02  0.59301935920E+02  0.49999985214E+02 0.  0.
         12    1    1    2    0    0  0.57588677742E+01  0.12030538477E+02  0.28962435471E+02  0.31886064080E+02  0.00000000000E+00 0. -1.
         11    1    3    3    0    0  0.13093445343E+02 -0.18074346598E+01 -0.30637924434E+02  0.33367462368E+02  0.51100000000E-03 0. -1.
        -11    1    3    3    0    0 -0.17205035386E+01 -0.57304958074E+01 -0.41594786030E+01  0.72869731120E+01  0.51100000000E-03 0.  1.
         12    1    3    3    0    0 -0.17131809579E+02 -0.44926080095E+01  0.58349675663E+01  0.18647500440E+02  0.00000000000E+00 0. -1.
</event>
<event>
 7    1  0.4489290E-013  0.5930191E+02  0.7816164E-02  0.1266605E+00
        -11   -1    0    0    0    0  0.00000000000E+00  0.00000000000E+00  0.45593999997E+02  0.45594000000E+02  0.51100000000E-03 0.  1.
         11   -1    0    0    0    0 -0.00000000000E+00 -0.00000000000E+00 -0.45593999997E+02  0.45594000000E+02  0.51100000000E-03 0. -1.
    9900012    2    1    2    0    0 -0.18503610582E+02  0.12091845883E+02 -0.22981000551E+02  0.59301910121E+02  0.49999938163E+02 0.  0.
         12    1    1    2    0    0  0.18503610582E+02 -0.12091845883E+02  0.22981000551E+02  0.31886089879E+02  0.00000000000E+00 0. -1.
         11    1    3    3    0    0  0.76045392315E+01  0.35073140554E+01  0.10950234938E+02  0.13785423979E+02  0.51100000000E-03 0. -1.
        -11    1    3    3    0    0 -0.16875818970E+02 -0.11509530864E+01 -0.18455475140E+02  0.25034426733E+02  0.51100000000E-03 0.  1.
        -12    1    3    3    0    0 -0.92323308428E+01  0.97354849136E+01 -0.15475760349E+02  0.20482059410E+02  0.00000000000E+00 0.  1.
</event>
<event>
 7    1  0.4489290E-013  0.5930198E+02  0.7816164E-02  0.1266605E+00
        -11   -1    0    0    0    0  0.00000000000E+00  0.00000000000E+00  0.45593999997E+02  0.45594000000E+02  0.51100000000E-03 0.  1.
         11   -1    0    0    0    0 -0.00000000000E+00 -0.00000000000E+00 -0.45593999997E+02  0.45594000000E+02  0.51100000000E-03 0. -1.
    9900012    2    1    2    0    0 -0.19332327885E+01 -0.29581873612E+02  0.11742804423E+02  0.59301982827E+02  0.50000070761E+02 0.  0.
         12    1    1    2    0    0  0.19332327885E+01  0.29581873612E+02 -0.11742804423E+02  0.31886017173E+02  0.00000000000E+00 0. -1.
         11    1    3    3    0    0 -0.17885448377E+02 -0.32977324423E+02  0.45927097488E+01  0.37795319457E+02  0.51100000000E-03 0.  1.
        -11    1    3    3    0    0  0.68378381819E+01  0.68929488920E+01  0.65776475417E+01  0.11727498577E+02  0.51100000000E-03 0. -1.
        -12    1    3    3    0    0  0.91143774069E+01 -0.34974980814E+01  0.57244713286E+00  0.97791647938E+01  0.00000000000E+00 0.  1.
</event>
<event>
 7    1  0.4489290E-013  0.5930198E+02  0.7816164E-02  0.1266605E+00
        -11   -1    0    0    0    0  0.00000000000E+00  0.00000000000E+00  0.45593999997E+02  0.45594000000E+02  0.51100000000E-03 0. -1.
         11   -1    0    0    0    0 -0.00000000000E+00 -0.00000000000E+00 -0.45593999997E+02  0.45594000000E+02  0.51100000000E-03 0.  1.
    9900012    2    1    2    0    0  0.16922039730E+02  0.19081091456E+02  0.19138311443E+02  0.59301977284E+02  0.50000060651E+02 0.  0.
         12    1    1    2    0    0 -0.16922039730E+02 -0.19081091456E+02 -0.19138311443E+02  0.31886022716E+02  0.00000000000E+00 0. -1.
         11    1    3    3    0    0  0.14467599940E+02 -0.13922824242E+02  0.82215810252E+01  0.21696794180E+02  0.51100000000E-03 0. -1.
        -11    1    3    3    0    0  0.87959081497E+00  0.38747040090E+01 -0.32894084424E+01  0.51582186190E+01  0.51100000000E-03 0.  1.
         12    1    3    3    0    0  0.15748489751E+01  0.29129211690E+02  0.14206138860E+02  0.32446964484E+02  0.00000000000E+00 0. -1.
</event>
<event>
 7    1  0.4489290E-013  0.5930195E+02  0.7816164E-02  0.1266605E+00
        -11   -1    0    0    0    0  0.00000000000E+00  0.00000000000E+00  0.45593999997E+02  0.45594000000E+02  0.51100000000E-03 0.  1.
         11   -1    0    0    0    0 -0.00000000000E+00 -0.00000000000E+00 -0.45593999997E+02  0.45594000000E+02  0.51100000000E-03 0. -1.
    9900012    2    1    2    0    0  0.27593995676E+02 -0.46885959848E+01  0.15274448715E+02  0.59301947983E+02  0.50000007214E+02 0.  0.
         12    1    1    2    0    0 -0.27593995676E+02  0.46885959848E+01 -0.15274448715E+02  0.31886052017E+02  0.00000000000E+00 0. -1.
         11    1    3    3    0    0  0.17643069961E+02  0.25004059485E+01 -0.11957931928E+02  0.21459778280E+02  0.51100000000E-03 0. -1.
        -11    1    3    3    0    0  0.12926572746E+02  0.48976822092E+01  0.13956765153E+02  0.19643697915E+02  0.51100000000E-03 0.  1.
         12    1    3    3    0    0 -0.29756470311E+01 -0.12086684142E+02  0.13275615490E+02  0.18198471789E+02  0.00000000000E+00 0. -1.
</event>
<event>
 7    1  0.4489290E-013  0.5930193E+02  0.7816164E-02  0.1266605E+00
        -11   -1    0    0    0    0  0.00000000000E+00  0.00000000000E+00  0.45593999997E+02  0.45594000000E+02  0.51100000000E-03 0.  1.
         11   -1    0    0    0    0 -0.00000000000E+00 -0.00000000000E+00 -0.45593999997E+02  0.45594000000E+02  0.51100000000E-03 0. -1.
    9900012    2    1    2    0    0  0.26588521573E+01  0.26528901817E+02  0.17489113184E+02  0.59301933978E+02  0.49999981671E+02 0.  0.
         12    1    1    2    0    0 -0.26588521573E+01 -0.26528901817E+02 -0.17489113184E+02  0.31886066022E+02  0.00000000000E+00 0. -1.
         11    1    3    3    0    0  0.18485224698E+02 -0.61194354852E+01  0.71666965353E+01  0.20748796646E+02  0.51100000000E-03 0. -1.
        -11    1    3    3    0    0 -0.92168011699E+01  0.21453696885E+02  0.10379465366E+02  0.25552765709E+02  0.51100000000E-03 0.  1.
         12    1    3    3    0    0 -0.66095713705E+01  0.11194640417E+02 -0.57048716830E-01  0.13000371622E+02  0.00000000000E+00 0. -1.
</event>
<event>
 7    1  0.4489290E-013  0.5930197E+02  0.7816164E-02  0.1266605E+00
        -11   -1    0    0    0    0  0.00000000000E+00  0.00000000000E+00  0.45593999997E+02  0.45594000000E+02  0.51100000000E-03 0.  1.
         11   -1    0    0    0    0 -0.00000000000E+00 -0.00000000000E+00 -0.45593999997E+02  0.45594000000E+02  0.51100000000E-03 0. -1.
    9900012    2    1    2    0    0 -0.30133222457E+02 -0.10415088836E+02 -0.48339820827E+00  0.59301971007E+02  0.50000049204E+02 0.  0.
         12    1    1    2    0    0  0.30133222457E+02  0.10415088836E+02  0.48339820827E+00  0.31886028993E+02  0.00000000000E+00 0. -1.
         11    1    3    3    0    0 -0.16538182680E+02 -0.91602984930E+01 -0.23259008549E+01  0.19048159226E+02  0.51100000000E-03 0. -1.
        -11    1    3    3    0    0  0.74123716253E+01 -0.31599169974E+01  0.13819488056E+02  0.15997080326E+02  0.51100000000E-03 0.  1.
        -12    1    3    3    0    0 -0.21007411402E+02  0.19051266547E+01 -0.11976985410E+02  0.24256731455E+02  0.00000000000E+00 0.  1.
</event>
<event>
 7    1  0.4489290E-013  0.5930196E+02  0.7816164E-02  0.1266605E+00
        -11   -1    0    0    0    0  0.00000000000E+00  0.00000000000E+00  0.45593999997E+02  0.45594000000E+02  0.51100000000E-03 0.  1.
         11   -1    0    0    0    0 -0.00000000000E+00 -0.00000000000E+00 -0.45593999997E+02  0.45594000000E+02  0.51100000000E-03 0. -1.
    9900012    2    1    2    0    0  0.17504511310E+01  0.10237795424E+02  0.30147024138E+02  0.59301959188E+02  0.50000027649E+02 0.  0.
         12    1    1    2    0    0 -0.17504511310E+01 -0.10237795424E+02 -0.30147024138E+02  0.31886040812E+02  0.00000000000E+00 0. -1.
         11    1    3    3    0    0  0.10321553257E+02  0.24712074364E+02  0.25817626234E+02  0.37199071301E+02  0.51100000000E-03 0. -1.
        -11    1    3    3    0    0 -0.10156201482E+02 -0.81510353389E+01  0.73110193064E+01  0.14934483894E+02  0.51100000000E-03 0.  1.
         12    1    3    3    0    0  0.15850993560E+01 -0.63232436021E+01 -0.29816214025E+01  0.71684039930E+01  0.00000000000E+00 0. -1.
</event>
<event>
 7    1  0.4489290E-013  0.5930197E+02  0.7816164E-02  0.1266605E+00
        -11   -1    0    0    0    0  0.00000000000E+00  0.00000000000E+00  0.45593999997E+02  0.45594000000E+02  0.51100000000E-03 0.  1.
         11   -1    0    0    0    0 -0.00000000000E+00 -0.00000000000E+00 -0.45593999997E+02  0.45594000000E+02  0.51100000000E-03 0. -1.
    9900012    2    1    2    0    0  0.13174691841E+02 -0.12575823510E+02  0.26172415024E+02  0.59301966220E+02  0.50000040473E+02 0.  0.
         12    1    1    2    0    0 -0.13174691841E+02  0.12575823510E+02 -0.26172415024E+02  0.31886033780E+02  0.00000000000E+00 0. -1.
         11    1    3    3    0    0  0.14176046240E+02  0.38961819768E+01  0.61562862248E+01  0.15938644275E+02  0.51100000000E-03 0. -1.
        -11    1    3    3    0    0 -0.13797628887E+02 -0.96354961894E+01  0.23051669341E+02  0.28541142398E+02  0.51100000000E-03 0.  1.
        -12    1    3    3    0    0  0.12796274488E+02 -0.68365092974E+01 -0.30355405415E+01  0.14822179547E+02  0.00000000000E+00 0.  1.
</event>
<event>
 7    1  0.4489290E-013  0.5930214E+02  0.7816164E-02  0.1266604E+00
        -11   -1    0    0    0    0  0.00000000000E+00  0.00000000000E+00  0.45593999997E+02  0.45594000000E+02  0.51100000000E-03 0.  1.
         11   -1    0    0    0    0 -0.00000000000E+00 -0.00000000000E+00 -0.45593999997E+02  0.45594000000E+02  0.51100000000E-03 0. -1.
    9900012    2    1    2    0    0  0.12867962112E+02 -0.22676595085E+02  0.18354713807E+02  0.59302142124E+02  0.50000361279E+02 0.  0.
         12    1    1    2    0    0 -0.12867962112E+02  0.22676595085E+02 -0.18354713807E+02  0.31885857876E+02  0.00000000000E+00 0. -1.
         11    1    3    3    0    0 -0.10420610739E+02 -0.65210874244E+01  0.13254738033E+02  0.18077659969E+02  0.51100000000E-03 0. -1.
        -11    1    3    3    0    0  0.17024161752E+02 -0.14602174082E+02 -0.10184873547E+02  0.24632848408E+02  0.51100000000E-03 0.  1.
        -12    1    3    3    0    0  0.62644110990E+01 -0.15533335784E+01  0.15284849321E+02  0.16591633747E+02  0.00000000000E+00 0.  1.
</event>
<event>
 7    1  0.4489290E-013  0.5930195E+02  0.7816164E-02  0.1266605E+00
        -11   -1    0    0    0    0  0.00000000000E+00  0.00000000000E+00  0.45593999997E+02  0.45594000000E+02  0.51100000000E-03 0.  1.
         11   -1    0    0    0    0 -0.00000000000E+00 -0.00000000000E+00 -0.45593999997E+02  0.45594000000E+02  0.51100000000E-03 0. -1.
    9900012    2    1    2    0    0  0.99422865959E+01  0.30296272148E+02 -0.85299084546E-01  0.59301945920E+02  0.50000003452E+02 0.  0.
         12    1    1    2    0    0 -0.99422865959E+01 -0.30296272148E+02  0.85299084546E-01  0.31886054080E+02  0.00000000000E+00 0. -1.
         11    1    3    3    0    0  0.14048614202E+02  0.22758982096E+02 -0.74617064848E+00  0.26756150657E+02  0.51100000000E-03 0.  1.
        -11    1    3    3    0    0  0.95267155153E+01 -0.13484090198E+01 -0.93693069416E+01  0.13429833514E+02  0.51100000000E-03 0. -1.
        -12    1    3    3    0    0 -0.13633043122E+02  0.88856990718E+01  0.10030178506E+02  0.19115961749E+02  0.00000000000E+00 0.  1.
</event>
<event>
 7    1  0.4489290E-013  0.5930195E+02  0.7816164E-02  0.1266605E+00
        -11   -1    0    0    0    0  0.00000000000E+00  0.00000000000E+00  0.45593999997E+02  0.45594000000E+02  0.51100000000E-03 0.  1.
         11   -1    0    0    0    0 -0.00000000000E+00 -0.00000000000E+00 -0.45593999997E+02  0.45594000000E+02  0.51100000000E-03 0. -1.
    9900012    2    1    2    0    0  0.12273815740E+02 -0.29192968371E+02 -0.37207550982E+01  0.59301953308E+02  0.50000016925E+02 0.  0.
         12    1    1    2    0    0 -0.12273815740E+02  0.29192968371E+02  0.37207550982E+01  0.31886046692E+02  0.00000000000E+00 0. -1.
         11    1    3    3    0    0  0.82875936648E+01 -0.15906647207E+02 -0.38855510902E+01  0.18352197188E+02  0.51100000000E-03 0. -1.
        -11    1    3    3    0    0 -0.10982780883E+02 -0.72102694834E+00 -0.13264921581E+02  0.17236574503E+02  0.51100000000E-03 0.  1.
        -12    1    3    3    0    0  0.14969002958E+02 -0.12565294216E+02  0.13429717573E+02  0.23713181617E+02  0.00000000000E+00 0.  1.
</event>
<event>
 7    1  0.4489290E-013  0.5930214E+02  0.7816164E-02  0.1266604E+00
        -11   -1    0    0    0    0  0.00000000000E+00  0.00000000000E+00  0.45593999997E+02  0.45594000000E+02  0.51100000000E-03 0. -1.
         11   -1    0    0    0    0 -0.00000000000E+00 -0.00000000000E+00 -0.45593999997E+02  0.45594000000E+02  0.51100000000E-03 0.  1.
    9900012    2    1    2    0    0  0.52736383603E+01  0.14117342347E+02 -0.28099772190E+02  0.59302143988E+02  0.50000364678E+02 0.  0.
         12    1    1    2    0    0 -0.52736383603E+01 -0.14117342347E+02  0.28099772190E+02  0.31885856012E+02  0.00000000000E+00 0. -1.
         11    1    3    3    0    0 -0.17191834537E+02 -0.34550867422E+01 -0.17656593799E+02  0.24884776551E+02  0.51100000000E-03 0. -1.
        -11    1    3    3    0    0  0.80425230344E+01  0.14218385610E+02 -0.10838953122E+02  0.19604274308E+02  0.51100000000E-03 0.  1.
         12    1    3    3    0    0  0.14422949863E+02  0.33540434796E+01  0.39577473093E+00  0.14813093129E+02  0.00000000000E+00 0. -1.
</event>
<event>
 7    1  0.4489290E-013  0.5930196E+02  0.7816164E-02  0.1266605E+00
        -11   -1    0    0    0    0  0.00000000000E+00  0.00000000000E+00  0.45593999997E+02  0.45594000000E+02  0.51100000000E-03 0.  1.
         11   -1    0    0    0    0 -0.00000000000E+00 -0.00000000000E+00 -0.45593999997E+02  0.45594000000E+02  0.51100000000E-03 0. -1.
    9900012    2    1    2    0    0  0.20531843207E+01 -0.91125591473E+01  0.30487137182E+02  0.59301955504E+02  0.50000020930E+02 0.  0.
         12    1    1    2    0    0 -0.20531843207E+01  0.91125591473E+01 -0.30487137182E+02  0.31886044496E+02  0.00000000000E+00 0. -1.
         11    1    3    3    0    0  0.41999086590E+01 -0.13567596318E+02 -0.55180915852E+01  0.15237067881E+02  0.51100000000E-03 0. -1.
        -11    1    3    3    0    0 -0.17277525845E+01 -0.72142627066E+01  0.30059744066E+02  0.30961571811E+02  0.51100000000E-03 0.  1.
         12    1    3    3    0    0 -0.41897175376E+00  0.11669299877E+02  0.59454847007E+01  0.13103315813E+02  0.00000000000E+00 0. -1.
</event>
<event>
 7    1  0.4489290E-013  0.5930195E+02  0.7816164E-02  0.1266605E+00
        -11   -1    0    0    0    0  0.00000000000E+00  0.00000000000E+00  0.45593999997E+02  0.45594000000E+02  0.51100000000E-03 0.  1.
         11   -1    0    0    0    0 -0.00000000000E+00 -0.00000000000E+00 -0.45593999997E+02  0.45594000000E+02  0.51100000000E-03 0. -1.
    9900012    2    1    2    0    0 -0.12898452620E+02 -0.20996102417E+02  0.20236443810E+02  0.59301952036E+02  0.50000014605E+02 0.  0.
         12    1    1    2    0    0  0.12898452620E+02  0.20996102417E+02 -0.20236443810E+02  0.31886047964E+02  0.00000000000E+00 0. -1.
         11    1    3    3    0    0 -0.20300167587E+02  0.56701752123E+00 -0.50254534501E+01  0.20920647590E+02  0.51100000000E-03 0. -1.
        -11    1    3    3    0    0  0.86341233944E+01 -0.13766845285E+02  0.25776647139E+02  0.30471456380E+02  0.51100000000E-03 0.  1.
        -12    1    3    3    0    0 -0.12324084272E+01 -0.77962746536E+01 -0.51474987932E+00  0.79098480670E+01  0.00000000000E+00 0.  1.
</event>
<event>
 7    1  0.4489290E-013  0.5930196E+02  0.7816164E-02  0.1266605E+00
        -11   -1    0    0    0    0  0.00000000000E+00  0.00000000000E+00  0.45593999997E+02  0.45594000000E+02  0.51100000000E-03 0.  1.
         11   -1    0    0    0    0 -0.00000000000E+00 -0.00000000000E+00 -0.45593999997E+02  0.45594000000E+02  0.51100000000E-03 0. -1.
    9900012    2    1    2    0    0 -0.43364139504E+01  0.30796012873E+01  0.31439321628E+02  0.59301962704E+02  0.50000034061E+02 0.  0.
         12    1    1    2    0    0  0.43364139504E+01 -0.30796012873E+01 -0.31439321628E+02  0.31886037296E+02  0.00000000000E+00 0. -1.
         11    1    3    3    0    0  0.49562250283E+01 -0.17135816803E+01  0.24876738670E+01  0.58042269283E+01  0.51100000000E-03 0. -1.
        -11    1    3    3    0    0 -0.19278230996E+02 -0.13710490865E+02  0.18416579989E+02  0.29979962789E+02  0.51100000000E-03 0.  1.
        -12    1    3    3    0    0  0.99855920178E+01  0.18503673833E+02  0.10535067772E+02  0.23517772986E+02  0.00000000000E+00 0.  1.
</event>
<event>
 7    1  0.4489290E-013  0.5930191E+02  0.7816164E-02  0.1266605E+00
        -11   -1    0    0    0    0  0.00000000000E+00  0.00000000000E+00  0.45593999997E+02  0.45594000000E+02  0.51100000000E-03 0.  1.
         11   -1    0    0    0    0 -0.00000000000E+00 -0.00000000000E+00 -0.45593999997E+02  0.45594000000E+02  0.51100000000E-03 0. -1.
    9900012    2    1    2    0    0  0.25786788424E+02 -0.18612199806E+02  0.23130926572E+01  0.59301908416E+02  0.49999935053E+02 0.  0.
         12    1    1    2    0    0 -0.25786788424E+02  0.18612199806E+02 -0.23130926572E+01  0.31886091584E+02  0.00000000000E+00 0. -1.
         11    1    3    3    0    0  0.32582828700E+00 -0.42413909019E+01  0.99540569472E+01  0.10824916204E+02  0.51100000000E-03 0. -1.
        -11    1    3    3    0    0  0.16365171913E+02  0.86567621523E+01 -0.13647080284E+02  0.23000025723E+02  0.51100000000E-03 0.  1.
        -12    1    3    3    0    0  0.90957882237E+01 -0.23027571057E+02  0.60061159938E+01  0.25476966490E+02  0.00000000000E+00 0.  1.
</event>
<event>
 7    1  0.4489290E-013  0.5930192E+02  0.7816164E-02  0.1266605E+00
        -11   -1    0    0    0    0  0.00000000000E+00  0.00000000000E+00  0.45593999997E+02  0.45594000000E+02  0.51100000000E-03 0. -1.
         11   -1    0    0    0    0 -0.00000000000E+00 -0.00000000000E+00 -0.45593999997E+02  0.45594000000E+02  0.51100000000E-03 0.  1.
    9900012    2    1    2    0    0  0.12757298076E+02  0.21127877002E+02 -0.20188758919E+02  0.59301924238E+02  0.49999963908E+02 0.  0.
         12    1    1    2    0    0 -0.12757298076E+02 -0.21127877002E+02  0.20188758919E+02  0.31886075762E+02  0.00000000000E+00 0. -1.
         11    1    3    3    0    0  0.11455571837E+02 -0.14453940946E+02 -0.47731489107E+01  0.19050708274E+02  0.51100000000E-03 0. -1.
        -11    1    3    3    0    0 -0.16844066956E+01  0.73439555213E+01  0.75818587448E+00  0.75726979800E+01  0.51100000000E-03 0.  1.
         12    1    3    3    0    0  0.29861329353E+01  0.28237862427E+02 -0.16173795883E+02  0.32678517983E+02  0.00000000000E+00 0. -1.
</event>
<event>
 7    1  0.4489290E-013  0.5930193E+02  0.7816164E-02  0.1266605E+00
        -11   -1    0    0    0    0  0.00000000000E+00  0.00000000000E+00  0.45593999997E+02  0.45594000000E+02  0.51100000000E-03 0.  1.
         11   -1    0    0    0    0 -0.00000000000E+00 -0.00000000000E+00 -0.45593999997E+02  0.45594000000E+02  0.51100000000E-03 0. -1.
    9900012    2    1    2    0    0 -0.28303285284E+01 -0.92781087670E+01  0.30374783008E+02  0.59301929300E+02  0.49999973140E+02 0.  0.
         12    1    1    2    0    0  0.28303285284E+01  0.92781087670E+01 -0.30374783008E+02  0.31886070700E+02  0.00000000000E+00 0. -1.
         11    1    3    3    0    0  0.18204481111E+02 -0.12865968335E+02  0.30414273251E+02  0.37708941796E+02  0.51100000000E-03 0.  1.
        -11    1    3    3    0    0 -0.19557937200E+02  0.41729248781E+01 -0.17240647283E+00  0.19998898315E+02  0.51100000000E-03 0. -1.
        -12    1    3    3    0    0 -0.14768724393E+01 -0.58506531037E+00  0.13291622982E+00  0.15940891893E+01  0.00000000000E+00 0.  1.
</event>
<event>
 7    1  0.4489290E-013  0.5930195E+02  0.7816164E-02  0.1266605E+00
        -11   -1    0    0    0    0  0.00000000000E+00  0.00000000000E+00  0.45593999997E+02  0.45594000000E+02  0.51100000000E-03 0.  1.
         11   -1    0    0    0    0 -0.00000000000E+00 -0.00000000000E+00 -0.45593999997E+02  0.45594000000E+02  0.51100000000E-03 0. -1.
    9900012    2    1    2    0    0  0.30132210005E+02 -0.10358015064E+02 -0.12171413297E+01  0.59301953069E+02  0.50000016490E+02 0.  0.
         12    1    1    2    0    0 -0.30132210005E+02  0.10358015064E+02  0.12171413297E+01  0.31886046931E+02  0.00000000000E+00 0. -1.
         11    1    3    3    0    0 -0.68912965517E+01 -0.59324568137E+01 -0.59317602431E+00  0.91124019921E+01  0.51100000000E-03 0. -1.
        -11    1    3    3    0    0  0.28971395411E+02 -0.18126799951E+02  0.11806157699E+01  0.34195269884E+02  0.51100000000E-03 0.  1.
        -12    1    3    3    0    0  0.80521111452E+01  0.13701241701E+02 -0.18045810753E+01  0.15994281194E+02  0.00000000000E+00 0.  1.
</event>
<event>
 7    1  0.4489290E-013  0.5930194E+02  0.7816164E-02  0.1266605E+00
        -11   -1    0    0    0    0  0.00000000000E+00  0.00000000000E+00  0.45593999997E+02  0.45594000000E+02  0.51100000000E-03 0.  1.
         11   -1    0    0    0    0 -0.00000000000E+00 -0.00000000000E+00 -0.45593999997E+02  0.45594000000E+02  0.51100000000E-03 0. -1.
    9900012    2    1    2    0    0 -0.13897080986E+02 -0.40001545880E+01  0.28418137717E+02  0.59301942734E+02  0.49999997640E+02 0.  0.
         12    1    1    2    0    0  0.13897080986E+02  0.40001545880E+01 -0.28418137717E+02  0.31886057266E+02  0.00000000000E+00 0. -1.
         11    1    3    3    0    0 -0.81812453888E+01 -0.10735911251E+02  0.11190564179E+02  0.17533433589E+02  0.51100000000E-03 0. -1.
        -11    1    3    3    0    0 -0.17962138343E+02  0.12100812820E+02  0.23799883247E+01  0.21788355363E+02  0.51100000000E-03 0.  1.
        -12    1    3    3    0    0  0.12246302745E+02 -0.53650561569E+01  0.14847585213E+02  0.19980153782E+02  0.00000000000E+00 0.  1.
</event>
<event>
 7    1  0.4489290E-013  0.5930193E+02  0.7816164E-02  0.1266605E+00
        -11   -1    0    0    0    0  0.00000000000E+00  0.00000000000E+00  0.45593999997E+02  0.45594000000E+02  0.51100000000E-03 0. -1.
         11   -1    0    0    0    0 -0.00000000000E+00 -0.00000000000E+00 -0.45593999997E+02  0.45594000000E+02  0.51100000000E-03 0.  1.
    9900012    2    1    2    0    0 -0.19983674999E+02 -0.10858770809E+02 -0.22348626619E+02  0.59301932797E+02  0.49999979518E+02 0.  0.
         12    1    1    2    0    0  0.19983674999E+02  0.10858770809E+02  0.22348626619E+02  0.31886067203E+02  0.00000000000E+00 0. -1.
         11    1    3    3    0    0  0.96862465106E+01 -0.34024314571E+01  0.56938911545E+01  0.11739689435E+02  0.51100000000E-03 0. -1.
        -11    1    3    3    0    0 -0.16205254054E+02  0.72811477186E+00 -0.27339287073E+02  0.31789574203E+02  0.51100000000E-03 0.  1.
        -12    1    3    3    0    0 -0.13464667455E+02 -0.81844541233E+01 -0.70323069985E+00  0.15772669159E+02  0.00000000000E+00 0.  1.
</event>
<event>
 7    1  0.4489290E-013  0.5930195E+02  0.7816164E-02  0.1266605E+00
        -11   -1    0    0    0    0  0.00000000000E+00  0.00000000000E+00  0.45593999997E+02  0.45594000000E+02  0.51100000000E-03 0. -1.
         11   -1    0    0    0    0 -0.00000000000E+00 -0.00000000000E+00 -0.45593999997E+02  0.45594000000E+02  0.51100000000E-03 0.  1.
    9900012    2    1    2    0    0  0.29093396775E+02 -0.11556450278E+02  0.60615719262E+01  0.59301953943E+02  0.50000018083E+02 0.  0.
         12    1    1    2    0    0 -0.29093396775E+02  0.11556450278E+02 -0.60615719262E+01  0.31886046057E+02  0.00000000000E+00 0. -1.
         11    1    3    3    0    0 -0.10705865171E+02 -0.67284392601E+01 -0.86714377751E+01  0.15332360461E+02  0.51100000000E-03 0. -1.
        -11    1    3    3    0    0  0.31655266168E+02  0.76552219771E-01  0.13380215982E+02  0.34367017858E+02  0.51100000000E-03 0.  1.
         12    1    3    3    0    0  0.81439957779E+01 -0.49045632377E+01  0.13527937190E+01  0.96025756248E+01  0.00000000000E+00 0. -1.
</event>
<event>
 7    1  0.4489290E-013  0.5930195E+02  0.7816164E-02  0.1266605E+00
        -11   -1    0    0    0    0  0.00000000000E+00  0.00000000000E+00  0.45593999997E+02  0.45594000000E+02  0.51100000000E-03 0.  1.
         11   -1    0    0    0    0 -0.00000000000E+00 -0.00000000000E+00 -0.45593999997E+02  0.45594000000E+02  0.51100000000E-03 0. -1.
    9900012    2    1    2    0    0  0.48412100159E+00 -0.31444892109E+02 -0.52634959290E+01  0.59301952859E+02  0.50000016107E+02 0.  0.
         12    1    1    2    0    0 -0.48412100159E+00  0.31444892109E+02  0.52634959290E+01  0.31886047141E+02  0.00000000000E+00 0. -1.
         11    1    3    3    0    0 -0.11460776012E+02 -0.56631304037E+01  0.55822873607E+01  0.13949278304E+02  0.51100000000E-03 0. -1.
        -11    1    3    3    0    0  0.21670206125E+02 -0.68326976527E+01 -0.62057175068E+01  0.23554076521E+02  0.51100000000E-03 0.  1.
        -12    1    3    3    0    0 -0.97253091112E+01 -0.18949064052E+02 -0.46400657829E+01  0.21798598034E+02  0.00000000000E+00 0.  1.
</event>
<event>
 7    1  0.4489290E-013  0.5930197E+02  0.7816164E-02  0.1266605E+00
        -11   -1    0    0    0    0  0.00000000000E+00  0.00000000000E+00  0.45593999997E+02  0.45594000000E+02  0.51100000000E-03 0.  1.
         11   -1    0    0    0    0 -0.00000000000E+00 -0.00000000000E+00 -0.45593999997E+02  0.45594000000E+02  0.51100000000E-03 0. -1.
    9900012    2    1    2    0    0 -0.27811754624E+02  0.13308327360E+02  0.81310402309E+01  0.59301967201E+02  0.50000042263E+02 0.  0.
         12    1    1    2    0    0  0.27811754624E+02 -0.13308327360E+02 -0.81310402309E+01  0.31886032799E+02  0.00000000000E+00 0. -1.
         11    1    3    3    0    0 -0.10204999694E+02  0.43430996914E+01 -0.14009581265E+02  0.17868209232E+02  0.51100000000E-03 0. -1.
        -11    1    3    3    0    0 -0.12585572787E+02 -0.82290722783E+01  0.17212527144E+02  0.22855751221E+02  0.51100000000E-03 0.  1.
        -12    1    3    3    0    0 -0.50211821433E+01  0.17194299947E+02  0.49280943525E+01  0.18578006748E+02  0.00000000000E+00 0.  1.
</event>
<event>
 7    1  0.4489290E-013  0.5930194E+02  0.7816164E-02  0.1266605E+00
        -11   -1    0    0    0    0  0.00000000000E+00  0.00000000000E+00  0.45593999997E+02  0.45594000000E+02  0.51100000000E-03 0.  1.
         11   -1    0    0    0    0 -0.00000000000E+00 -0.00000000000E+00 -0.45593999997E+02  0.45594000000E+02  0.51100000000E-03 0. -1.
    9900012    2    1    2    0    0 -0.36788359765E+01 -0.27784186379E+02  0.15206120552E+02  0.59301938012E+02  0.49999989028E+02 0.  0.
         12    1    1    2    0    0  0.36788359765E+01  0.27784186379E+02 -0.15206120552E+02  0.31886061988E+02  0.00000000000E+00 0. -1.
         11    1    3    3    0    0 -0.37659899630E+01 -0.13016835612E+02 -0.13829995767E+02  0.19362062724E+02  0.51100000000E-03 0. -1.
        -11    1    3    3    0    0 -0.93890089317E+01 -0.13217674091E+02  0.24354045302E+02  0.29257134514E+02  0.51100000000E-03 0.  1.
         12    1    3    3    0    0  0.94761629182E+01 -0.15496766751E+01  0.46820710158E+01  0.10682740774E+02  0.00000000000E+00 0. -1.
</event>
<event>
 7    1  0.4489290E-013  0.5930185E+02  0.7816164E-02  0.1266605E+00
        -11   -1    0    0    0    0  0.00000000000E+00  0.00000000000E+00  0.45593999997E+02  0.45594000000E+02  0.51100000000E-03 0. -1.
         11   -1    0    0    0    0 -0.00000000000E+00 -0.00000000000E+00 -0.45593999997E+02  0.45594000000E+02  0.51100000000E-03 0.  1.
    9900012    2    1    2    0    0 -0.21865537154E+02  0.10187166042E+02 -0.20852972343E+02  0.59301850616E+02  0.49999829640E+02 0.  0.
         12    1    1    2    0    0  0.21865537154E+02 -0.10187166042E+02  0.20852972343E+02  0.31886149384E+02  0.00000000000E+00 0. -1.
         11    1    3    3    0    0 -0.23945087510E+02 -0.39214120393E+01  0.77210862303E+01  0.25462911481E+02  0.51100000000E-03 0. -1.
        -11    1    3    3    0    0 -0.32150657371E+01  0.11229441257E+02 -0.22079528990E+02  0.24978843034E+02  0.51100000000E-03 0.  1.
         12    1    3    3    0    0  0.52946160933E+01  0.28791368246E+01 -0.64945295831E+01  0.88600961020E+01  0.00000000000E+00 0. -1.
</event>
<event>
 7    1  0.4489290E-013  0.5930195E+02  0.7816164E-02  0.1266605E+00
        -11   -1    0    0    0    0  0.00000000000E+00  0.00000000000E+00  0.45593999997E+02  0.45594000000E+02  0.51100000000E-03 0. -1.
         11   -1    0    0    0    0 -0.00000000000E+00 -0.00000000000E+00 -0.45593999997E+02  0.45594000000E+02  0.51100000000E-03 0.  1.
    9900012    2    1    2    0    0  0.55693655168E+01 -0.21449373499E+02  0.22926550456E+02  0.59301950204E+02  0.50000011264E+02 0.  0.
         12    1    1    2    0    0 -0.55693655168E+01  0.21449373499E+02 -0.22926550456E+02  0.31886049796E+02  0.00000000000E+00 0. -1.
         11    1    3    3    0    0  0.24105752746E+02 -0.59668115732E+01  0.18412990955E+02  0.30914857139E+02  0.51100000000E-03 0. -1.
        -11    1    3    3    0    0 -0.17097966914E+02 -0.55387346752E+01  0.31750778497E+01  0.18251004739E+02  0.51100000000E-03 0.  1.
        -12    1    3    3    0    0 -0.14384203154E+01 -0.99438272508E+01  0.13384816521E+01  0.10136088325E+02  0.00000000000E+00 0.  1.
</event>
<event>
 7    1  0.4489290E-013  0.5930195E+02  0.7816164E-02  0.1266605E+00
        -11   -1    0    0    0    0  0.00000000000E+00  0.00000000000E+00  0.45593999997E+02  0.45594000000E+02  0.51100000000E-03 0.  1.
         11   -1    0    0    0    0 -0.00000000000E+00 -0.00000000000E+00 -0.45593999997E+02  0.45594000000E+02  0.51100000000E-03 0. -1.
    9900012    2    1    2    0    0  0.52339783067E+01  0.25752098805E+02  0.18059764263E+02  0.59301949649E+02  0.50000010252E+02 0.  0.
         12    1    1    2    0    0 -0.52339783067E+01 -0.25752098805E+02 -0.18059764263E+02  0.31886050351E+02  0.00000000000E+00 0. -1.
         11    1    3    3    0    0 -0.36292919603E+01 -0.45221520181E+01 -0.12336466385E+02  0.13631214991E+02  0.51100000000E-03 0. -1.
        -11    1    3    3    0    0  0.82599803187E+01  0.22472474204E+02  0.14600677291E+02  0.28043165823E+02  0.51100000000E-03 0.  1.
         12    1    3    3    0    0  0.60328994824E+00  0.78017766183E+01  0.15795553357E+02  0.17627568835E+02  0.00000000000E+00 0. -1.
</event>
<event>
 7    1  0.4489290E-013  0.5930195E+02  0.7816164E-02  0.1266605E+00
        -11   -1    0    0    0    0  0.00000000000E+00  0.00000000000E+00  0.45593999997E+02  0.45594000000E+02  0.51100000000E-03 0.  1.
         11   -1    0    0    0    0 -0.00000000000E+00 -0.00000000000E+00 -0.45593999997E+02  0.45594000000E+02  0.51100000000E-03 0. -1.
    9900012    2    1    2    0    0 -0.48879583969E+01  0.31508740799E+02  0.16541794819E+00  0.59301949020E+02  0.50000009104E+02 0.  0.
         12    1    1    2    0    0  0.48879583969E+01 -0.31508740799E+02 -0.16541794819E+00  0.31886050980E+02  0.00000000000E+00 0. -1.
         11    1    3    3    0    0  0.80374098108E+01  0.91887680279E+01 -0.88705360170E+01  0.15090388458E+02  0.51100000000E-03 0. -1.
        -11    1    3    3    0    0 -0.89816331473E+00  0.22105945120E+02  0.18552351323E+02  0.28873331066E+02  0.51100000000E-03 0.  1.
        -12    1    3    3    0    0 -0.12027204893E+02  0.21402765145E+00 -0.95163973579E+01  0.15338229495E+02  0.00000000000E+00 0.  1.
</event>
<event>
 7    1  0.4489290E-013  0.5930194E+02  0.7816164E-02  0.1266605E+00
        -11   -1    0    0    0    0  0.00000000000E+00  0.00000000000E+00  0.45593999997E+02  0.45594000000E+02  0.51100000000E-03 0.  1.
         11   -1    0    0    0    0 -0.00000000000E+00 -0.00000000000E+00 -0.45593999997E+02  0.45594000000E+02  0.51100000000E-03 0. -1.
    9900012    2    1    2    0    0 -0.88135266953E+01  0.28820254275E+02 -0.10413250795E+02  0.59301935624E+02  0.49999984673E+02 0.  0.
         12    1    1    2    0    0  0.88135266953E+01 -0.28820254275E+02  0.10413250795E+02  0.31886064376E+02  0.00000000000E+00 0. -1.
         11    1    3    3    0    0  0.66027493769E+01  0.29697140226E+02 -0.23928984910E+02  0.38705461579E+02  0.51100000000E-03 0. -1.
        -11    1    3    3    0    0 -0.31511306537E+01  0.39891725139E+00  0.33354314488E+01  0.46058509074E+01  0.51100000000E-03 0.  1.
         12    1    3    3    0    0 -0.12265145418E+02 -0.12758032023E+01  0.10180302667E+02  0.15990623138E+02  0.00000000000E+00 0. -1.
</event>
<event>
 7    1  0.4489290E-013  0.5930196E+02  0.7816164E-02  0.1266605E+00
        -11   -1    0    0    0    0  0.00000000000E+00  0.00000000000E+00  0.45593999997E+02  0.45594000000E+02  0.51100000000E-03 0.  1.
         11   -1    0    0    0    0 -0.00000000000E+00 -0.00000000000E+00 -0.45593999997E+02  0.45594000000E+02  0.51100000000E-03 0. -1.
    9900012    2    1    2    0    0  0.59534513066E+01 -0.57674382826E+01  0.30789817689E+02  0.59301956029E+02  0.50000021887E+02 0.  0.
         12    1    1    2    0    0 -0.59534513066E+01  0.57674382826E+01 -0.30789817689E+02  0.31886043971E+02  0.00000000000E+00 0. -1.
         11    1    3    3    0    0  0.13847863408E+01 -0.15768273645E+02 -0.60778780158E+01  0.16955727304E+02  0.51100000000E-03 0. -1.
        -11    1    3    3    0    0  0.54097496777E+01  0.12293295153E+02  0.37492569429E+02  0.39825660822E+02  0.51100000000E-03 0.  1.
        -12    1    3    3    0    0 -0.84108471188E+00 -0.22924597903E+01 -0.62487372364E+00  0.25205679029E+01  0.00000000000E+00 0.  1.
</event>
<event>
 7    1  0.4489290E-013  0.5930188E+02  0.7816164E-02  0.1266605E+00
        -11   -1    0    0    0    0  0.00000000000E+00  0.00000000000E+00  0.45593999997E+02  0.45594000000E+02  0.51100000000E-03 0. -1.
         11   -1    0    0    0    0 -0.00000000000E+00 -0.00000000000E+00 -0.45593999997E+02  0.45594000000E+02  0.51100000000E-03 0.  1.
    9900012    2    1    2    0    0  0.52692126140E+01  0.27191917177E+02 -0.15797455143E+02  0.59301881541E+02  0.49999886040E+02 0.  0.
         12    1    1    2    0    0 -0.52692126140E+01 -0.27191917177E+02  0.15797455143E+02  0.31886118459E+02  0.00000000000E+00 0. -1.
         11    1    3    3    0    0 -0.20987975420E+02  0.19338536877E+02 -0.12902756930E+02  0.31320205258E+02  0.51100000000E-03 0. -1.
        -11    1    3    3    0    0  0.18931421278E+02  0.45872160924E+01 -0.39978721320E+01  0.19885277090E+02  0.51100000000E-03 0.  1.
         12    1    3    3    0    0  0.73257667559E+01  0.32661642082E+01  0.11031739187E+01  0.80963991930E+01  0.00000000000E+00 0. -1.
</event>
<event>
 7    1  0.4489290E-013  0.5930194E+02  0.7816164E-02  0.1266605E+00
        -11   -1    0    0    0    0  0.00000000000E+00  0.00000000000E+00  0.45593999997E+02  0.45594000000E+02  0.51100000000E-03 0.  1.
         11   -1    0    0    0    0 -0.00000000000E+00 -0.00000000000E+00 -0.45593999997E+02  0.45594000000E+02  0.51100000000E-03 0. -1.
    9900012    2    1    2    0    0 -0.26191331756E+02 -0.12616819879E+02  0.13097735589E+02  0.59301942222E+02  0.49999996708E+02 0.  0.
         12    1    1    2    0    0  0.26191331756E+02  0.12616819879E+02 -0.13097735589E+02  0.31886057778E+02  0.00000000000E+00 0. -1.
         11    1    3    3    0    0 -0.26524105989E+02 -0.25251563669E+02  0.45663862662E+01  0.36905576137E+02  0.51100000000E-03 0. -1.
        -11    1    3    3    0    0  0.57216499239E+01  0.86377959394E+01  0.11125627480E+02  0.15202907078E+02  0.51100000000E-03 0.  1.
        -12    1    3    3    0    0 -0.53888756915E+01  0.39969478506E+01 -0.25942781563E+01  0.71934590074E+01  0.00000000000E+00 0.  1.
</event>
<event>
 7    1  0.4489290E-013  0.5930194E+02  0.7816164E-02  0.1266605E+00
        -11   -1    0    0    0    0  0.00000000000E+00  0.00000000000E+00  0.45593999997E+02  0.45594000000E+02  0.51100000000E-03 0.  1.
         11   -1    0    0    0    0 -0.00000000000E+00 -0.00000000000E+00 -0.45593999997E+02  0.45594000000E+02  0.51100000000E-03 0. -1.
    9900012    2    1    2    0    0 -0.22120567942E+02  0.22074072163E+02  0.63353501722E+01  0.59301939570E+02  0.49999991870E+02 0.  0.
         12    1    1    2    0    0  0.22120567942E+02 -0.22074072163E+02 -0.63353501722E+01  0.31886060430E+02  0.00000000000E+00 0. -1.
         11    1    3    3    0    0 -0.28809328917E+02  0.29395247593E+02  0.44772179320E+01  0.41401732988E+02  0.51100000000E-03 0. -1.
        -11    1    3    3    0    0  0.33799743188E+01  0.28804651793E+01  0.50361221721E+01  0.67144495559E+01  0.51100000000E-03 0.  1.
         12    1    3    3    0    0  0.33087866567E+01 -0.10201640609E+02 -0.31779899319E+01  0.11185757027E+02  0.00000000000E+00 0. -1.
</event>
<event>
 7    1  0.4489290E-013  0.5930192E+02  0.7816164E-02  0.1266605E+00
        -11   -1    0    0    0    0  0.00000000000E+00  0.00000000000E+00  0.45593999997E+02  0.45594000000E+02  0.51100000000E-03 0. -1.
         11   -1    0    0    0    0 -0.00000000000E+00 -0.00000000000E+00 -0.45593999997E+02  0.45594000000E+02  0.51100000000E-03 0.  1.
    9900012    2    1    2    0    0  0.55987739373E+01 -0.28590024825E+02 -0.12960960819E+02  0.59301916916E+02  0.49999950554E+02 0.  0.
         12    1    1    2    0    0 -0.55987739373E+01  0.28590024825E+02  0.12960960819E+02  0.31886083084E+02  0.00000000000E+00 0. -1.
         11    1    3    3    0    0  0.19710354649E+00 -0.28106270827E+01  0.13773952552E+02  0.14059169377E+02  0.51100000000E-03 0. -1.
        -11    1    3    3    0    0 -0.59185004835E+01 -0.21007245561E+02 -0.88635441683E+01  0.23556218489E+02  0.51100000000E-03 0.  1.
         12    1    3    3    0    0  0.11320170874E+02 -0.47721521815E+01 -0.17871369203E+02  0.21686529050E+02  0.00000000000E+00 0. -1.
</event>
<event>
 7    1  0.4489290E-013  0.5930197E+02  0.7816164E-02  0.1266605E+00
        -11   -1    0    0    0    0  0.00000000000E+00  0.00000000000E+00  0.45593999997E+02  0.45594000000E+02  0.51100000000E-03 0.  1.
         11   -1    0    0    0    0 -0.00000000000E+00 -0.00000000000E+00 -0.45593999997E+02  0.45594000000E+02  0.51100000000E-03 0. -1.
    9900012    2    1    2    0    0  0.10094927065E+02 -0.30245562668E+02  0.13145184421E+00  0.59301970251E+02  0.50000047825E+02 0.  0.
         12    1    1    2    0    0 -0.10094927065E+02  0.30245562668E+02 -0.13145184421E+00  0.31886029749E+02  0.00000000000E+00 0. -1.
         11    1    3    3    0    0  0.88986286667E+01  0.11686885168E+02  0.65011474343E+01  0.16063430371E+02  0.51100000000E-03 0. -1.
        -11    1    3    3    0    0  0.14418724624E+01 -0.35981367621E+02 -0.83428836860E+01  0.36964057143E+02  0.51100000000E-03 0.  1.
         12    1    3    3    0    0 -0.24557406419E+00 -0.59510802152E+01  0.19731880959E+01  0.62744827365E+01  0.00000000000E+00 0. -1.
</event>
<event>
 7    1  0.4489290E-013  0.5930195E+02  0.7816164E-02  0.1266605E+00
        -11   -1    0    0    0    0  0.00000000000E+00  0.00000000000E+00  0.45593999997E+02  0.45594000000E+02  0.51100000000E-03 0.  1.
         11   -1    0    0    0    0 -0.00000000000E+00 -0.00000000000E+00 -0.45593999997E+02  0.45594000000E+02  0.51100000000E-03 0. -1.
    9900012    2    1    2    0    0  0.15544508724E+02  0.16258885207E+02  0.22599493670E+02  0.59301949542E+02  0.50000010057E+02 0.  0.
         12    1    1    2    0    0 -0.15544508724E+02 -0.16258885207E+02 -0.22599493670E+02  0.31886050458E+02  0.00000000000E+00 0. -1.
         11    1    3    3    0    0  0.21769467914E+02  0.40883418621E+01  0.25539375479E+00  0.22151512334E+02  0.51100000000E-03 0. -1.
        -11    1    3    3    0    0 -0.12044622359E+02  0.13322783331E+02  0.47423348639E+01  0.18575769801E+02  0.51100000000E-03 0.  1.
         12    1    3    3    0    0  0.58196631693E+01 -0.11522399860E+01  0.17601765051E+02  0.18574667408E+02  0.00000000000E+00 0. -1.
</event>
<event>
 7    1  0.4489290E-013  0.5930194E+02  0.7816164E-02  0.1266605E+00
        -11   -1    0    0    0    0  0.00000000000E+00  0.00000000000E+00  0.45593999997E+02  0.45594000000E+02  0.51100000000E-03 0.  1.
         11   -1    0    0    0    0 -0.00000000000E+00 -0.00000000000E+00 -0.45593999997E+02  0.45594000000E+02  0.51100000000E-03 0. -1.
    9900012    2    1    2    0    0  0.31830405665E+02 -0.15454707912E+01 -0.10760225151E+01  0.59301936756E+02  0.49999986738E+02 0.  0.
         12    1    1    2    0    0 -0.31830405665E+02  0.15454707912E+01  0.10760225151E+01  0.31886063244E+02  0.00000000000E+00 0. -1.
         11    1    3    3    0    0  0.20094701354E+02 -0.16803441298E+02 -0.17186220268E+01  0.26250834728E+02  0.51100000000E-03 0. -1.
        -11    1    3    3    0    0 -0.83136731009E+01  0.32738786397E+01 -0.29692325127E+01  0.94155076206E+01  0.51100000000E-03 0.  1.
         12    1    3    3    0    0  0.20049377411E+02  0.11984091867E+02  0.36118320244E+01  0.23635594408E+02  0.00000000000E+00 0. -1.
</event>
<event>
 7    1  0.4489290E-013  0.5930195E+02  0.7816164E-02  0.1266605E+00
        -11   -1    0    0    0    0  0.00000000000E+00  0.00000000000E+00  0.45593999997E+02  0.45594000000E+02  0.51100000000E-03 0.  1.
         11   -1    0    0    0    0 -0.00000000000E+00 -0.00000000000E+00 -0.45593999997E+02  0.45594000000E+02  0.51100000000E-03 0. -1.
    9900012    2    1    2    0    0  0.20329250629E+01  0.97638865110E+01  0.30286200619E+02  0.59301949570E+02  0.50000010108E+02 0.  0.
         12    1    1    2    0    0 -0.20329250629E+01 -0.97638865110E+01 -0.30286200619E+02  0.31886050430E+02  0.00000000000E+00 0. -1.
         11    1    3    3    0    0 -0.88396809021E+01 -0.64686742387E+01 -0.50494977306E+00  0.10965339912E+02  0.51100000000E-03 0. -1.
        -11    1    3    3    0    0  0.13701875963E+02  0.20904421631E+02  0.10136341525E+02  0.26971868093E+02  0.51100000000E-03 0.  1.
        -12    1    3    3    0    0 -0.28292699980E+01 -0.46718608816E+01  0.20654808867E+02  0.21364741565E+02  0.00000000000E+00 0.  1.
</event>
<event>
 7    1  0.4489290E-013  0.5930192E+02  0.7816164E-02  0.1266605E+00
        -11   -1    0    0    0    0  0.00000000000E+00  0.00000000000E+00  0.45593999997E+02  0.45594000000E+02  0.51100000000E-03 0.  1.
         11   -1    0    0    0    0 -0.00000000000E+00 -0.00000000000E+00 -0.45593999997E+02  0.45594000000E+02  0.51100000000E-03 0. -1.
    9900012    2    1    2    0    0  0.79226576599E+01 -0.30846959358E+02  0.15551258615E+01  0.59301924317E+02  0.49999964053E+02 0.  0.
         12    1    1    2    0    0 -0.79226576599E+01  0.30846959358E+02 -0.15551258615E+01  0.31886075683E+02  0.00000000000E+00 0. -1.
         11    1    3    3    0    0  0.28479722536E+01 -0.16509461700E+02 -0.23419968491E+02  0.28795280793E+02  0.51100000000E-03 0. -1.
        -11    1    3    3    0    0  0.59014252775E+01 -0.15182132254E+02  0.22655902946E+02  0.27903653858E+02  0.51100000000E-03 0.  1.
         12    1    3    3    0    0 -0.82673987127E+00  0.84463459615E+00  0.23191914071E+01  0.26029896655E+01  0.00000000000E+00 0. -1.
</event>
<event>
 7    1  0.4489290E-013  0.5930197E+02  0.7816164E-02  0.1266605E+00
        -11   -1    0    0    0    0  0.00000000000E+00  0.00000000000E+00  0.45593999997E+02  0.45594000000E+02  0.51100000000E-03 0.  1.
         11   -1    0    0    0    0 -0.00000000000E+00 -0.00000000000E+00 -0.45593999997E+02  0.45594000000E+02  0.51100000000E-03 0. -1.
    9900012    2    1    2    0    0 -0.19799443345E+02 -0.93448166598E+01  0.23181351385E+02  0.59301974735E+02  0.50000056002E+02 0.  0.
         12    1    1    2    0    0  0.19799443345E+02  0.93448166598E+01 -0.23181351385E+02  0.31886025265E+02  0.00000000000E+00 0. -1.
         11    1    3    3    0    0  0.55040871799E+01  0.13301710007E+01 -0.58058904920E+01  0.81100366979E+01  0.51100000000E-03 0. -1.
        -11    1    3    3    0    0 -0.23607647859E+02 -0.14505859148E+02  0.34511878389E+02  0.44258453851E+02  0.51100000000E-03 0.  1.
        -12    1    3    3    0    0 -0.16958826662E+01  0.38308714875E+01 -0.55246365119E+01  0.69334841861E+01  0.00000000000E+00 0.  1.
</event>
<event>
 7    1  0.4489290E-013  0.5930195E+02  0.7816164E-02  0.1266605E+00
        -11   -1    0    0    0    0  0.00000000000E+00  0.00000000000E+00  0.45593999997E+02  0.45594000000E+02  0.51100000000E-03 0.  1.
         11   -1    0    0    0    0 -0.00000000000E+00 -0.00000000000E+00 -0.45593999997E+02  0.45594000000E+02  0.51100000000E-03 0. -1.
    9900012    2    1    2    0    0 -0.27168693081E+02  0.86502281942E+01  0.14274300481E+02  0.59301953118E+02  0.50000016579E+02 0.  0.
         12    1    1    2    0    0  0.27168693081E+02 -0.86502281942E+01 -0.14274300481E+02  0.31886046882E+02  0.00000000000E+00 0. -1.
         11    1    3    3    0    0  0.16850652173E+01 -0.76089819325E+01  0.73435688645E+01  0.10708130311E+02  0.51100000000E-03 0. -1.
        -11    1    3    3    0    0 -0.15724791239E+02  0.25478601500E+02  0.11242895502E+02  0.31981727493E+02  0.51100000000E-03 0.  1.
        -12    1    3    3    0    0 -0.13128967059E+02 -0.92193913734E+01 -0.43121638857E+01  0.16612095314E+02  0.00000000000E+00 0.  1.
</event>
<event>
 7    1  0.4489290E-013  0.5930194E+02  0.7816164E-02  0.1266605E+00
        -11   -1    0    0    0    0  0.00000000000E+00  0.00000000000E+00  0.45593999997E+02  0.45594000000E+02  0.51100000000E-03 0.  1.
         11   -1    0    0    0    0 -0.00000000000E+00 -0.00000000000E+00 -0.45593999997E+02  0.45594000000E+02  0.51100000000E-03 0. -1.
    9900012    2    1    2    0    0 -0.12714587174E+01 -0.99812810780E+00  0.31845060251E+02  0.59301941457E+02  0.49999995312E+02 0.  0.
         12    1    1    2    0    0  0.12714587174E+01  0.99812810780E+00 -0.31845060251E+02  0.31886058543E+02  0.00000000000E+00 0. -1.
         11    1    3    3    0    0  0.19824994822E+02  0.85319535112E+01  0.18817261976E+02  0.28634140444E+02  0.51100000000E-03 0. -1.
        -11    1    3    3    0    0 -0.14010359947E+02  0.13445911884E+01  0.10204187833E+02  0.17384578249E+02  0.51100000000E-03 0.  1.
         12    1    3    3    0    0 -0.70860935929E+01 -0.10874672807E+02  0.28236104423E+01  0.13283222764E+02  0.00000000000E+00 0. -1.
</event>
<event>
 7    1  0.4489290E-013  0.5930194E+02  0.7816164E-02  0.1266605E+00
        -11   -1    0    0    0    0  0.00000000000E+00  0.00000000000E+00  0.45593999997E+02  0.45594000000E+02  0.51100000000E-03 0.  1.
         11   -1    0    0    0    0 -0.00000000000E+00 -0.00000000000E+00 -0.45593999997E+02  0.45594000000E+02  0.51100000000E-03 0. -1.
    9900012    2    1    2    0    0  0.25916195807E+02  0.17162870112E+02 -0.71068631368E+01  0.59301940048E+02  0.49999992743E+02 0.  0.
         12    1    1    2    0    0 -0.25916195807E+02 -0.17162870112E+02  0.71068631368E+01  0.31886059952E+02  0.00000000000E+00 0. -1.
         11    1    3    3    0    0 -0.99931014479E+01 -0.92640922895E+01 -0.47276185138E+01  0.14423448255E+02  0.51100000000E-03 0. -1.
        -11    1    3    3    0    0  0.99426454521E+01  0.48929162934E+01 -0.60428389095E+00  0.11097837074E+02  0.51100000000E-03 0.  1.
         12    1    3    3    0    0  0.25966651803E+02  0.21534046108E+02 -0.17749607321E+01  0.33780654719E+02  0.00000000000E+00 0. -1.
</event>
<event>
 7    1  0.4489290E-013  0.5930195E+02  0.7816164E-02  0.1266605E+00
        -11   -1    0    0    0    0  0.00000000000E+00  0.00000000000E+00  0.45593999997E+02  0.45594000000E+02  0.51100000000E-03 0.  1.
         11   -1    0    0    0    0 -0.00000000000E+00 -0.00000000000E+00 -0.45593999997E+02  0.45594000000E+02  0.51100000000E-03 0. -1.
    9900012    2    1    2    0    0  0.17544293536E+02  0.21741113891E+02 -0.15370172478E+02  0.59301945510E+02  0.50000002704E+02 0.  0.
         12    1    1    2    0    0 -0.17544293536E+02 -0.21741113891E+02  0.15370172478E+02  0.31886054490E+02  0.00000000000E+00 0. -1.
         11    1    3    3    0    0  0.40071720807E+01 -0.80522157416E+01 -0.21373040774E+02  0.23188412594E+02  0.51100000000E-03 0. -1.
        -11    1    3    3    0    0  0.53026159475E+01  0.15954711223E+02  0.99461753752E+01  0.19534506673E+02  0.51100000000E-03 0.  1.
         12    1    3    3    0    0  0.82345055079E+01  0.13838618410E+02 -0.39433070790E+01  0.16579026243E+02  0.00000000000E+00 0. -1.
</event>
<event>
 7    1  0.4489290E-013  0.5930193E+02  0.7816164E-02  0.1266605E+00
        -11   -1    0    0    0    0  0.00000000000E+00  0.00000000000E+00  0.45593999997E+02  0.45594000000E+02  0.51100000000E-03 0. -1.
         11   -1    0    0    0    0 -0.00000000000E+00 -0.00000000000E+00 -0.45593999997E+02  0.45594000000E+02  0.51100000000E-03 0.  1.
    9900012    2    1    2    0    0  0.88706549724E+01 -0.29855124102E+02 -0.68340551711E+01  0.59301933060E+02  0.49999979998E+02 0.  0.
         12    1    1    2    0    0 -0.88706549724E+01  0.29855124102E+02  0.68340551711E+01  0.31886066940E+02  0.00000000000E+00 0. -1.
         11    1    3    3    0    0 -0.62690340236E+01 -0.22320130048E+02  0.79480720639E+00  0.23197428989E+02  0.51100000000E-03 0. -1.
        -11    1    3    3    0    0  0.15022194974E+02  0.95633933221E+01 -0.12400132450E+01  0.17851119482E+02  0.51100000000E-03 0.  1.
        -12    1    3    3    0    0  0.11749402214E+00 -0.17098387376E+02 -0.63888491325E+01  0.18253384589E+02  0.00000000000E+00 0.  1.
</event>
<event>
 7    1  0.4489290E-013  0.5930200E+02  0.7816164E-02  0.1266605E+00
        -11   -1    0    0    0    0  0.00000000000E+00  0.00000000000E+00  0.45593999997E+02  0.45594000000E+02  0.51100000000E-03 0.  1.
         11   -1    0    0    0    0 -0.00000000000E+00 -0.00000000000E+00 -0.45593999997E+02  0.45594000000E+02  0.51100000000E-03 0. -1.
    9900012    2    1    2    0    0 -0.27852499942E+02 -0.10446790931E+02  0.11481279328E+02  0.59302000427E+02  0.50000102858E+02 0.  0.
         12    1    1    2    0    0  0.27852499942E+02  0.10446790931E+02 -0.11481279328E+02  0.31885999573E+02  0.00000000000E+00 0. -1.
         11    1    3    3    0    0  0.91727795688E+00 -0.10886593791E+02  0.23785110258E+01  0.11181083945E+02  0.51100000000E-03 0. -1.
        -11    1    3    3    0    0 -0.35369108691E+02  0.89058577123E+01  0.79056456153E+01  0.37320066775E+02  0.51100000000E-03 0.  1.
         12    1    3    3    0    0  0.65993307927E+01 -0.84660548521E+01  0.11971226871E+01  0.10800849707E+02  0.00000000000E+00 0. -1.
</event>
<event>
 7    1  0.4489290E-013  0.5930170E+02  0.7816164E-02  0.1266606E+00
        -11   -1    0    0    0    0  0.00000000000E+00  0.00000000000E+00  0.45593999997E+02  0.45594000000E+02  0.51100000000E-03 0. -1.
         11   -1    0    0    0    0 -0.00000000000E+00 -0.00000000000E+00 -0.45593999997E+02  0.45594000000E+02  0.51100000000E-03 0.  1.
    9900012    2    1    2    0    0  0.91861558528E+01 -0.58811840999E+01 -0.29962684421E+02  0.59301698184E+02  0.49999551638E+02 0.  0.
         12    1    1    2    0    0 -0.91861558528E+01  0.58811840999E+01  0.29962684421E+02  0.31886301816E+02  0.00000000000E+00 0. -1.
         11    1    3    3    0    0 -0.24811520486E+01  0.11998355277E+01  0.11575834212E+02  0.11899397411E+02  0.51100000000E-03 0. -1.
        -11    1    3    3    0    0 -0.46276562811E+01 -0.41958187015E+01 -0.10135246569E+02  0.11905600384E+02  0.51100000000E-03 0.  1.
         12    1    3    3    0    0  0.16294964182E+02 -0.28852009261E+01 -0.31403272064E+02  0.35496700388E+02  0.00000000000E+00 0. -1.
</event>
<event>
 7    1  0.4489290E-013  0.5930185E+02  0.7816164E-02  0.1266605E+00
        -11   -1    0    0    0    0  0.00000000000E+00  0.00000000000E+00  0.45593999997E+02  0.45594000000E+02  0.51100000000E-03 0.  1.
         11   -1    0    0    0    0 -0.00000000000E+00 -0.00000000000E+00 -0.45593999997E+02  0.45594000000E+02  0.51100000000E-03 0. -1.
    9900012    2    1    2    0    0 -0.62574373771E+01 -0.14321057521E+02  0.27793492955E+02  0.59301851571E+02  0.49999831380E+02 0.  0.
         12    1    1    2    0    0  0.62574373771E+01  0.14321057521E+02 -0.27793492955E+02  0.31886148429E+02  0.00000000000E+00 0. -1.
         11    1    3    3    0    0  0.34928927251E+01  0.70483530943E+01 -0.97092306510E+00  0.79260502642E+01  0.51100000000E-03 0. -1.
        -11    1    3    3    0    0 -0.10612308602E+02 -0.93571710701E+01  0.35045080803E+02  0.37793325245E+02  0.51100000000E-03 0.  1.
        -12    1    3    3    0    0  0.86197850027E+00 -0.12012239545E+02 -0.62806647838E+01  0.13582476061E+02  0.00000000000E+00 0.  1.
</event>
<event>
 7    1  0.4489290E-013  0.5930198E+02  0.7816164E-02  0.1266605E+00
        -11   -1    0    0    0    0  0.00000000000E+00  0.00000000000E+00  0.45593999997E+02  0.45594000000E+02  0.51100000000E-03 0.  1.
         11   -1    0    0    0    0 -0.00000000000E+00 -0.00000000000E+00 -0.45593999997E+02  0.45594000000E+02  0.51100000000E-03 0. -1.
    9900012    2    1    2    0    0 -0.13158043613E+02  0.21497134910E+02  0.19530927797E+02  0.59301983290E+02  0.50000071604E+02 0.  0.
         12    1    1    2    0    0  0.13158043613E+02 -0.21497134910E+02 -0.19530927797E+02  0.31886016710E+02  0.00000000000E+00 0. -1.
         11    1    3    3    0    0 -0.10498570365E+02  0.33341251608E+02  0.59865183676E+01  0.35464030241E+02  0.51100000000E-03 0. -1.
        -11    1    3    3    0    0 -0.72350303083E+01 -0.29020922488E+01  0.10989286796E+02  0.13473389608E+02  0.51100000000E-03 0.  1.
         12    1    3    3    0    0  0.45755570606E+01 -0.89420244488E+01  0.25551226333E+01  0.10364563441E+02  0.00000000000E+00 0. -1.
</event>
<event>
 7    1  0.4489290E-013  0.5930195E+02  0.7816164E-02  0.1266605E+00
        -11   -1    0    0    0    0  0.00000000000E+00  0.00000000000E+00  0.45593999997E+02  0.45594000000E+02  0.51100000000E-03 0. -1.
         11   -1    0    0    0    0 -0.00000000000E+00 -0.00000000000E+00 -0.45593999997E+02  0.45594000000E+02  0.51100000000E-03 0.  1.
    9900012    2    1    2    0    0  0.22716960159E+02  0.96361102755E+01 -0.20194193545E+02  0.59301947358E+02  0.50000006074E+02 0.  0.
         12    1    1    2    0    0 -0.22716960159E+02 -0.96361102755E+01  0.20194193545E+02  0.31886052642E+02  0.00000000000E+00 0. -1.
         11    1    3    3    0    0 -0.20018209417E+01  0.76641609426E+01  0.17545149760E+01  0.81132590923E+01  0.51100000000E-03 0. -1.
        -11    1    3    3    0    0  0.33195247307E+02  0.62958140933E+00 -0.69690036588E+01  0.33924737711E+02  0.51100000000E-03 0.  1.
        -12    1    3    3    0    0 -0.84764662063E+01  0.13423679236E+01 -0.14979704862E+02  0.17263950555E+02  0.00000000000E+00 0.  1.
</event>
<event>
 7    1  0.4489290E-013  0.5930194E+02  0.7816164E-02  0.1266605E+00
        -11   -1    0    0    0    0  0.00000000000E+00  0.00000000000E+00  0.45593999997E+02  0.45594000000E+02  0.51100000000E-03 0. -1.
         11   -1    0    0    0    0 -0.00000000000E+00 -0.00000000000E+00 -0.45593999997E+02  0.45594000000E+02  0.51100000000E-03 0.  1.
    9900012    2    1    2    0    0  0.20283643410E+02  0.24387245260E+02 -0.32491003188E+01  0.59301943890E+02  0.49999999749E+02 0.  0.
         12    1    1    2    0    0 -0.20283643410E+02 -0.24387245260E+02  0.32491003188E+01  0.31886056110E+02  0.00000000000E+00 0. -1.
         11    1    3    3    0    0  0.10044399343E+02  0.16206288572E+02 -0.45500335084E+01  0.19601952776E+02  0.51100000000E-03 0. -1.
        -11    1    3    3    0    0  0.17181011808E+02 -0.84195330701E+01 -0.63332004260E+01  0.20154035123E+02  0.51100000000E-03 0.  1.
        -12    1    3    3    0    0 -0.69417677400E+01  0.16600489757E+02  0.76341336156E+01  0.19545955991E+02  0.00000000000E+00 0.  1.
</event>
<event>
 7    1  0.4489290E-013  0.5930227E+02  0.7816164E-02  0.1266604E+00
        -11   -1    0    0    0    0  0.00000000000E+00  0.00000000000E+00  0.45593999997E+02  0.45594000000E+02  0.51100000000E-03 0. -1.
         11   -1    0    0    0    0 -0.00000000000E+00 -0.00000000000E+00 -0.45593999997E+02  0.45594000000E+02  0.51100000000E-03 0.  1.
    9900012    2    1    2    0    0 -0.12852315861E+02  0.23461885195E+02  0.17351008028E+02  0.59302273421E+02  0.50000600731E+02 0.  0.
         12    1    1    2    0    0  0.12852315861E+02 -0.23461885195E+02 -0.17351008028E+02  0.31885726579E+02  0.00000000000E+00 0. -1.
         11    1    3    3    0    0 -0.30997347542E+01  0.10080112821E+02 -0.17526436515E+02  0.20454657347E+02  0.51100000000E-03 0. -1.
        -11    1    3    3    0    0 -0.68723703276E+01  0.60334151157E+01  0.16949110400E+02  0.19258865893E+02  0.51100000000E-03 0.  1.
         12    1    3    3    0    0 -0.28802107789E+01  0.73483572579E+01  0.17928334143E+02  0.19588750181E+02  0.00000000000E+00 0. -1.
</event>
<event>
 7    1  0.4489290E-013  0.5930194E+02  0.7816164E-02  0.1266605E+00
        -11   -1    0    0    0    0  0.00000000000E+00  0.00000000000E+00  0.45593999997E+02  0.45594000000E+02  0.51100000000E-03 0. -1.
         11   -1    0    0    0    0 -0.00000000000E+00 -0.00000000000E+00 -0.45593999997E+02  0.45594000000E+02  0.51100000000E-03 0.  1.
    9900012    2    1    2    0    0  0.10807674238E+01  0.31345664691E+02 -0.57447172861E+01  0.59301944587E+02  0.50000001019E+02 0.  0.
         12    1    1    2    0    0 -0.10807674238E+01 -0.31345664691E+02  0.57447172861E+01  0.31886055413E+02  0.00000000000E+00 0. -1.
         11    1    3    3    0    0  0.15772047620E+02 -0.19496606782E+01  0.49698854757E+01  0.16651078788E+02  0.51100000000E-03 0. -1.
        -11    1    3    3    0    0 -0.14879847215E+02  0.15495909239E+02  0.71792331621E+00  0.21495312755E+02  0.51100000000E-03 0.  1.
        -12    1    3    3    0    0  0.18856701866E+00  0.17799416130E+02 -0.11432526078E+02  0.21155553045E+02  0.00000000000E+00 0.  1.
</event>
<event>
 7    1  0.4489290E-013  0.5930194E+02  0.7816164E-02  0.1266605E+00
        -11   -1    0    0    0    0  0.00000000000E+00  0.00000000000E+00  0.45593999997E+02  0.45594000000E+02  0.51100000000E-03 0. -1.
         11   -1    0    0    0    0 -0.00000000000E+00 -0.00000000000E+00 -0.45593999997E+02  0.45594000000E+02  0.51100000000E-03 0.  1.
    9900012    2    1    2    0    0  0.18403113574E+02 -0.19826091785E+02 -0.16881114752E+02  0.59301944428E+02  0.50000000730E+02 0.  0.
         12    1    1    2    0    0 -0.18403113574E+02  0.19826091785E+02  0.16881114752E+02  0.31886055572E+02  0.00000000000E+00 0. -1.
         11    1    3    3    0    0  0.12599851250E+02  0.11386589568E+02  0.27230010318E+01  0.17199575820E+02  0.51100000000E-03 0. -1.
        -11    1    3    3    0    0 -0.27532438821E+01 -0.26698455282E+02 -0.10508990983E+02  0.28824065606E+02  0.51100000000E-03 0.  1.
        -12    1    3    3    0    0  0.85565062062E+01 -0.45142260715E+01 -0.90951248008E+01  0.13278303002E+02  0.00000000000E+00 0.  1.
</event>
<event>
 7    1  0.4489290E-013  0.5930195E+02  0.7816164E-02  0.1266605E+00
        -11   -1    0    0    0    0  0.00000000000E+00  0.00000000000E+00  0.45593999997E+02  0.45594000000E+02  0.51100000000E-03 0. -1.
         11   -1    0    0    0    0 -0.00000000000E+00 -0.00000000000E+00 -0.45593999997E+02  0.45594000000E+02  0.51100000000E-03 0.  1.
    9900012    2    1    2    0    0  0.19261791915E+02  0.24875481691E+02  0.51878945964E+01  0.59301945564E+02  0.50000002803E+02 0.  0.
         12    1    1    2    0    0 -0.19261791915E+02 -0.24875481691E+02 -0.51878945964E+01  0.31886054436E+02  0.00000000000E+00 0. -1.
         11    1    3    3    0    0  0.27739337631E+02  0.17744310226E+02 -0.75306592222E+01  0.33779316544E+02  0.51100000000E-03 0. -1.
        -11    1    3    3    0    0 -0.92698706065E+01  0.36301924039E+01 -0.21855049923E+01  0.10192410426E+02  0.51100000000E-03 0.  1.
         12    1    3    3    0    0  0.79232488991E+00  0.35009790613E+01  0.14904058811E+02  0.15330218595E+02  0.00000000000E+00 0. -1.
</event>
<event>
 7    1  0.4489290E-013  0.5930193E+02  0.7816164E-02  0.1266605E+00
        -11   -1    0    0    0    0  0.00000000000E+00  0.00000000000E+00  0.45593999997E+02  0.45594000000E+02  0.51100000000E-03 0.  1.
         11   -1    0    0    0    0 -0.00000000000E+00 -0.00000000000E+00 -0.45593999997E+02  0.45594000000E+02  0.51100000000E-03 0. -1.
    9900012    2    1    2    0    0  0.12823230505E+02  0.96329820509E+01  0.27558881286E+02  0.59301929036E+02  0.49999972659E+02 0.  0.
         12    1    1    2    0    0 -0.12823230505E+02 -0.96329820509E+01 -0.27558881286E+02  0.31886070964E+02  0.00000000000E+00 0. -1.
         11    1    3    3    0    0  0.89084267684E+01 -0.14720293789E+02  0.11534887996E+02  0.20714747357E+02  0.51100000000E-03 0.  1.
        -11    1    3    3    0    0  0.31072395156E+01  0.15528974823E+02 -0.43044809991E+01  0.16411354405E+02  0.51100000000E-03 0. -1.
         12    1    3    3    0    0  0.80756422056E+00  0.88243010163E+01  0.20328474289E+02  0.22175827275E+02  0.00000000000E+00 0. -1.
</event>
<event>
 7    1  0.4489290E-013  0.5930200E+02  0.7816164E-02  0.1266605E+00
        -11   -1    0    0    0    0  0.00000000000E+00  0.00000000000E+00  0.45593999997E+02  0.45594000000E+02  0.51100000000E-03 0.  1.
         11   -1    0    0    0    0 -0.00000000000E+00 -0.00000000000E+00 -0.45593999997E+02  0.45594000000E+02  0.51100000000E-03 0. -1.
    9900012    2    1    2    0    0  0.27078054859E+02  0.95325166409E+00  0.16810330881E+02  0.59302000439E+02  0.50000102881E+02 0.  0.
         12    1    1    2    0    0 -0.27078054859E+02 -0.95325166409E+00 -0.16810330881E+02  0.31885999561E+02  0.00000000000E+00 0. -1.
         11    1    3    3    0    0  0.90461566548E+00 -0.97854638840E+01  0.51555798483E+01  0.11097460825E+02  0.51100000000E-03 0. -1.
        -11    1    3    3    0    0  0.18378912272E+02  0.14550580082E+02  0.23716419053E+02  0.33346249114E+02  0.51100000000E-03 0.  1.
        -12    1    3    3    0    0  0.77945269215E+01 -0.38118645339E+01 -0.12061668020E+02  0.14858290500E+02  0.00000000000E+00 0.  1.
</event>
<event>
 7    1  0.4489290E-013  0.5930194E+02  0.7816164E-02  0.1266605E+00
        -11   -1    0    0    0    0  0.00000000000E+00  0.00000000000E+00  0.45593999997E+02  0.45594000000E+02  0.51100000000E-03 0. -1.
         11   -1    0    0    0    0 -0.00000000000E+00 -0.00000000000E+00 -0.45593999997E+02  0.45594000000E+02  0.51100000000E-03 0.  1.
    9900012    2    1    2    0    0  0.28935417692E+00 -0.28246219361E+02 -0.14791488877E+02  0.59301940707E+02  0.49999993945E+02 0.  0.
         12    1    1    2    0    0 -0.28935417692E+00  0.28246219361E+02  0.14791488877E+02  0.31886059293E+02  0.00000000000E+00 0. -1.
         11    1    3    3    0    0  0.27496305923E+01 -0.33413268390E+02 -0.15272164040E+02  0.36840819313E+02  0.51100000000E-03 0.  1.
        -11    1    3    3    0    0  0.24477861311E+01 -0.44072821610E+01  0.79144599788E+01  0.93837343317E+01  0.51100000000E-03 0. -1.
         12    1    3    3    0    0 -0.49080625465E+01  0.95743311907E+01 -0.74337848157E+01  0.13077387063E+02  0.00000000000E+00 0. -1.
</event>
<event>
 7    1  0.4489290E-013  0.5930194E+02  0.7816164E-02  0.1266605E+00
        -11   -1    0    0    0    0  0.00000000000E+00  0.00000000000E+00  0.45593999997E+02  0.45594000000E+02  0.51100000000E-03 0. -1.
         11   -1    0    0    0    0 -0.00000000000E+00 -0.00000000000E+00 -0.45593999997E+02  0.45594000000E+02  0.51100000000E-03 0.  1.
    9900012    2    1    2    0    0 -0.41225663114E+01  0.89488837536E+01 -0.30325607070E+02  0.59301944778E+02  0.50000001369E+02 0.  0.
         12    1    1    2    0    0  0.41225663114E+01 -0.89488837536E+01  0.30325607070E+02  0.31886055222E+02  0.00000000000E+00 0. -1.
         11    1    3    3    0    0  0.97330935569E+01 -0.41282759980E+01  0.31926676238E+01  0.11043953084E+02  0.51100000000E-03 0. -1.
        -11    1    3    3    0    0 -0.43657532838E+01  0.19372085667E+02 -0.30639476466E+02  0.36511847710E+02  0.51100000000E-03 0.  1.
        -12    1    3    3    0    0 -0.94899065845E+01 -0.62949259153E+01 -0.28787982279E+01  0.11746143984E+02  0.00000000000E+00 0.  1.
</event>
<event>
 7    1  0.4489290E-013  0.5930193E+02  0.7816164E-02  0.1266605E+00
        -11   -1    0    0    0    0  0.00000000000E+00  0.00000000000E+00  0.45593999997E+02  0.45594000000E+02  0.51100000000E-03 0. -1.
         11   -1    0    0    0    0 -0.00000000000E+00 -0.00000000000E+00 -0.45593999997E+02  0.45594000000E+02  0.51100000000E-03 0.  1.
    9900012    2    1    2    0    0 -0.18954121045E+02 -0.20485635622E+02  0.15420811710E+02  0.59301930860E+02  0.49999975985E+02 0.  0.
         12    1    1    2    0    0  0.18954121045E+02  0.20485635622E+02 -0.15420811710E+02  0.31886069140E+02  0.00000000000E+00 0. -1.
         11    1    3    3    0    0  0.12211039889E+02 -0.18981856552E+02  0.15543509395E+01  0.22623801194E+02  0.51100000000E-03 0.  1.
        -11    1    3    3    0    0 -0.30922564847E+02 -0.32458643059E+01  0.10390806600E+02  0.32782762451E+02  0.51100000000E-03 0. -1.
         12    1    3    3    0    0 -0.24259608761E+00  0.17420852365E+01  0.34756541699E+01  0.38953672153E+01  0.00000000000E+00 0. -1.
</event>
<event>
 7    1  0.4489290E-013  0.5930193E+02  0.7816164E-02  0.1266605E+00
        -11   -1    0    0    0    0  0.00000000000E+00  0.00000000000E+00  0.45593999997E+02  0.45594000000E+02  0.51100000000E-03 0.  1.
         11   -1    0    0    0    0 -0.00000000000E+00 -0.00000000000E+00 -0.45593999997E+02  0.45594000000E+02  0.51100000000E-03 0. -1.
    9900012    2    1    2    0    0 -0.52300536429E+01  0.28865888770E+02  0.12495144064E+02  0.59301927480E+02  0.49999969820E+02 0.  0.
         12    1    1    2    0    0  0.52300536429E+01 -0.28865888770E+02 -0.12495144064E+02  0.31886072520E+02  0.00000000000E+00 0. -1.
         11    1    3    3    0    0  0.42111061992E+01  0.15123394264E+02  0.61442806464E+01  0.16858311138E+02  0.51100000000E-03 0. -1.
        -11    1    3    3    0    0 -0.70970351888E+01 -0.18880164237E+01 -0.14515217657E+02  0.16267269543E+02  0.51100000000E-03 0.  1.
        -12    1    3    3    0    0 -0.23441246533E+01  0.15630510930E+02  0.20866081075E+02  0.26176346799E+02  0.00000000000E+00 0.  1.
</event>
<event>
 7    1  0.4489290E-013  0.5930196E+02  0.7816164E-02  0.1266605E+00
        -11   -1    0    0    0    0  0.00000000000E+00  0.00000000000E+00  0.45593999997E+02  0.45594000000E+02  0.51100000000E-03 0.  1.
         11   -1    0    0    0    0 -0.00000000000E+00 -0.00000000000E+00 -0.45593999997E+02  0.45594000000E+02  0.51100000000E-03 0. -1.
    9900012    2    1    2    0    0 -0.14369150120E+02 -0.32130118467E+01  0.28282920010E+02  0.59301960977E+02  0.50000030911E+02 0.  0.
         12    1    1    2    0    0  0.14369150120E+02  0.32130118467E+01 -0.28282920010E+02  0.31886039023E+02  0.00000000000E+00 0. -1.
         11    1    3    3    0    0  0.18320895881E+01  0.19540353239E+02  0.48454586362E+01  0.20215351261E+02  0.51100000000E-03 0. -1.
        -11    1    3    3    0    0 -0.17165519326E+02 -0.21748867528E+02  0.24765961926E+02  0.37162093091E+02  0.51100000000E-03 0.  1.
        -12    1    3    3    0    0  0.96427961760E+00 -0.10044975568E+01 -0.13285005521E+01  0.19245166249E+01  0.00000000000E+00 0.  1.
</event>
<event>
 7    1  0.4489290E-013  0.5930192E+02  0.7816164E-02  0.1266605E+00
        -11   -1    0    0    0    0  0.00000000000E+00  0.00000000000E+00  0.45593999997E+02  0.45594000000E+02  0.51100000000E-03 0.  1.
         11   -1    0    0    0    0 -0.00000000000E+00 -0.00000000000E+00 -0.45593999997E+02  0.45594000000E+02  0.51100000000E-03 0. -1.
    9900012    2    1    2    0    0 -0.26624639435E+02 -0.13514255579E+02 -0.11189979682E+02  0.59301918802E+02  0.49999953994E+02 0.  0.
         12    1    1    2    0    0  0.26624639435E+02  0.13514255579E+02  0.11189979682E+02  0.31886081198E+02  0.00000000000E+00 0. -1.
         11    1    3    3    0    0  0.10928586725E+01  0.50124711768E+01 -0.13478950845E+02  0.14422250987E+02  0.51100000000E-03 0. -1.
        -11    1    3    3    0    0 -0.26084545092E+02 -0.20143702420E+01  0.79568559260E+01  0.27345433561E+02  0.51100000000E-03 0.  1.
        -12    1    3    3    0    0 -0.16329530151E+01 -0.16512356514E+02 -0.56678847629E+01  0.17534234254E+02  0.00000000000E+00 0.  1.
</event>
<event>
 7    1  0.4489290E-013  0.5930197E+02  0.7816164E-02  0.1266605E+00
        -11   -1    0    0    0    0  0.00000000000E+00  0.00000000000E+00  0.45593999997E+02  0.45594000000E+02  0.51100000000E-03 0.  1.
         11   -1    0    0    0    0 -0.00000000000E+00 -0.00000000000E+00 -0.45593999997E+02  0.45594000000E+02  0.51100000000E-03 0. -1.
    9900012    2    1    2    0    0  0.11425361776E+02  0.14042208163E+00  0.29768447553E+02  0.59301967324E+02  0.50000042488E+02 0.  0.
         12    1    1    2    0    0 -0.11425361776E+02 -0.14042208163E+00 -0.29768447553E+02  0.31886032676E+02  0.00000000000E+00 0. -1.
         11    1    3    3    0    0  0.11636533248E+02 -0.70549246156E+01 -0.10219829205E+02  0.17018395242E+02  0.51100000000E-03 0. -1.
        -11    1    3    3    0    0  0.12107941921E+01  0.17177691224E+01  0.33923558166E+02  0.33988594443E+02  0.51100000000E-03 0.  1.
         12    1    3    3    0    0 -0.14219656637E+01  0.54775775748E+01  0.60647185928E+01  0.82949776399E+01  0.00000000000E+00 0. -1.
</event>
<event>
 7    1  0.4489290E-013  0.5930194E+02  0.7816164E-02  0.1266605E+00
        -11   -1    0    0    0    0  0.00000000000E+00  0.00000000000E+00  0.45593999997E+02  0.45594000000E+02  0.51100000000E-03 0.  1.
         11   -1    0    0    0    0 -0.00000000000E+00 -0.00000000000E+00 -0.45593999997E+02  0.45594000000E+02  0.51100000000E-03 0. -1.
    9900012    2    1    2    0    0  0.37683728930E+01  0.55766527421E+01  0.31167625976E+02  0.59301943501E+02  0.49999999039E+02 0.  0.
         12    1    1    2    0    0 -0.37683728930E+01 -0.55766527421E+01 -0.31167625976E+02  0.31886056499E+02  0.00000000000E+00 0. -1.
         11    1    3    3    0    0 -0.96932174774E+01  0.51974842215E+01 -0.93561923308E+01  0.14439897593E+02  0.51100000000E-03 0.  1.
        -11    1    3    3    0    0  0.11719914263E+02  0.56099299479E+01  0.33509623242E+02  0.35940541933E+02  0.51100000000E-03 0. -1.
        -12    1    3    3    0    0  0.17416761079E+01 -0.52307614273E+01  0.70141950653E+01  0.89215039756E+01  0.00000000000E+00 0.  1.
</event>
<event>
 7    1  0.4489290E-013  0.5930196E+02  0.7816164E-02  0.1266605E+00
        -11   -1    0    0    0    0  0.00000000000E+00  0.00000000000E+00  0.45593999997E+02  0.45594000000E+02  0.51100000000E-03 0.  1.
         11   -1    0    0    0    0 -0.00000000000E+00 -0.00000000000E+00 -0.45593999997E+02  0.45594000000E+02  0.51100000000E-03 0. -1.
    9900012    2    1    2    0    0 -0.31196214590E+02 -0.52433771227E+01 -0.40028808584E+01  0.59301955034E+02  0.50000020073E+02 0.  0.
         12    1    1    2    0    0  0.31196214590E+02  0.52433771227E+01  0.40028808584E+01  0.31886044966E+02  0.00000000000E+00 0. -1.
         11    1    3    3    0    0  0.74766634052E+01 -0.34386425435E+01  0.40070197319E+01  0.91531942845E+01  0.51100000000E-03 0. -1.
        -11    1    3    3    0    0 -0.31263652162E+02  0.12275643336E+02 -0.50456505655E+01  0.33964186369E+02  0.51100000000E-03 0.  1.
        -12    1    3    3    0    0 -0.74092258330E+01 -0.14080377915E+02 -0.29642500247E+01  0.16184574381E+02  0.00000000000E+00 0.  1.
</event>
<event>
 7    1  0.4489290E-013  0.5930198E+02  0.7816164E-02  0.1266605E+00
        -11   -1    0    0    0    0  0.00000000000E+00  0.00000000000E+00  0.45593999997E+02  0.45594000000E+02  0.51100000000E-03 0.  1.
         11   -1    0    0    0    0 -0.00000000000E+00 -0.00000000000E+00 -0.45593999997E+02  0.45594000000E+02  0.51100000000E-03 0. -1.
    9900012    2    1    2    0    0 -0.23118791902E+02 -0.21618674519E+02  0.38564759556E+01  0.59301983727E+02  0.50000072402E+02 0.  0.
         12    1    1    2    0    0  0.23118791902E+02  0.21618674519E+02 -0.38564759556E+01  0.31886016273E+02  0.00000000000E+00 0. -1.
         11    1    3    3    0    0 -0.20906165712E+02  0.14631085269E+01 -0.14721030275E+02  0.25610880187E+02  0.51100000000E-03 0. -1.
        -11    1    3    3    0    0  0.44114075927E+01 -0.37664435673E+00  0.34823507515E+01  0.56328629433E+01  0.51100000000E-03 0.  1.
         12    1    3    3    0    0 -0.66240337824E+01 -0.22705138689E+02  0.15095155479E+02  0.28058240597E+02  0.00000000000E+00 0. -1.
</event>
<event>
 7    1  0.4489290E-013  0.5930197E+02  0.7816164E-02  0.1266605E+00
        -11   -1    0    0    0    0  0.00000000000E+00  0.00000000000E+00  0.45593999997E+02  0.45594000000E+02  0.51100000000E-03 0.  1.
         11   -1    0    0    0    0 -0.00000000000E+00 -0.00000000000E+00 -0.45593999997E+02  0.45594000000E+02  0.51100000000E-03 0. -1.
    9900012    2    1    2    0    0  0.95475851544E+01 -0.29355142283E+02  0.79898664289E+01  0.59301972868E+02  0.50000052598E+02 0.  0.
         12    1    1    2    0    0 -0.95475851544E+01  0.29355142283E+02 -0.79898664289E+01  0.31886027132E+02  0.00000000000E+00 0. -1.
         11    1    3    3    0    0 -0.58771512569E+01 -0.14742642711E+02 -0.15409927426E+02  0.22121308382E+02  0.51100000000E-03 0. -1.
        -11    1    3    3    0    0  0.16020415946E+02 -0.63244565008E+01  0.66123356843E+01  0.18449267210E+02  0.51100000000E-03 0.  1.
         12    1    3    3    0    0 -0.59567953508E+00 -0.82880430713E+01  0.16787458171E+02  0.18731397276E+02  0.00000000000E+00 0. -1.
</event>
<event>
 7    1  0.4489290E-013  0.5930197E+02  0.7816164E-02  0.1266605E+00
        -11   -1    0    0    0    0  0.00000000000E+00  0.00000000000E+00  0.45593999997E+02  0.45594000000E+02  0.51100000000E-03 0. -1.
         11   -1    0    0    0    0 -0.00000000000E+00 -0.00000000000E+00 -0.45593999997E+02  0.45594000000E+02  0.51100000000E-03 0.  1.
    9900012    2    1    2    0    0  0.12646540216E+02  0.10928857186E+01 -0.29250458242E+02  0.59301973499E+02  0.50000053749E+02 0.  0.
         12    1    1    2    0    0 -0.12646540216E+02 -0.10928857186E+01  0.29250458242E+02  0.31886026501E+02  0.00000000000E+00 0. -1.
         11    1    3    3    0    0 -0.26734629891E+01  0.13164571933E+02  0.44685936472E+01  0.14157036695E+02  0.51100000000E-03 0. -1.
        -11    1    3    3    0    0  0.25991789983E+01 -0.75013450917E+01 -0.30131807300E+02  0.31160098219E+02  0.51100000000E-03 0.  1.
         12    1    3    3    0    0  0.12720824207E+02 -0.45703411232E+01 -0.35872445899E+01  0.13984838584E+02  0.00000000000E+00 0. -1.
</event>
<event>
 7    1  0.4489290E-013  0.5930191E+02  0.7816164E-02  0.1266605E+00
        -11   -1    0    0    0    0  0.00000000000E+00  0.00000000000E+00  0.45593999997E+02  0.45594000000E+02  0.51100000000E-03 0.  1.
         11   -1    0    0    0    0 -0.00000000000E+00 -0.00000000000E+00 -0.45593999997E+02  0.45594000000E+02  0.51100000000E-03 0. -1.
    9900012    2    1    2    0    0 -0.13568951030E+02  0.12733820725E+02  0.25893162073E+02  0.59301914250E+02  0.49999945692E+02 0.  0.
         12    1    1    2    0    0  0.13568951030E+02 -0.12733820725E+02 -0.25893162073E+02  0.31886085750E+02  0.00000000000E+00 0. -1.
         11    1    3    3    0    0 -0.79191174112E+01  0.36347698460E+01 -0.74292923650E+01  0.11450692456E+02  0.51100000000E-03 0. -1.
        -11    1    3    3    0    0  0.10005491595E+02  0.12650652504E+02  0.25046056269E+02  0.29790162902E+02  0.51100000000E-03 0.  1.
         12    1    3    3    0    0 -0.15655325214E+02 -0.35516016252E+01  0.82763981690E+01  0.18061058892E+02  0.00000000000E+00 0. -1.
</event>
<event>
 7    1  0.4489290E-013  0.5930191E+02  0.7816164E-02  0.1266605E+00
        -11   -1    0    0    0    0  0.00000000000E+00  0.00000000000E+00  0.45593999997E+02  0.45594000000E+02  0.51100000000E-03 0.  1.
         11   -1    0    0    0    0 -0.00000000000E+00 -0.00000000000E+00 -0.45593999997E+02  0.45594000000E+02  0.51100000000E-03 0. -1.
    9900012    2    1    2    0    0 -0.11213295678E+02  0.97737544420E+01  0.28203868752E+02  0.59301913874E+02  0.49999945007E+02 0.  0.
         12    1    1    2    0    0  0.11213295678E+02 -0.97737544420E+01 -0.28203868752E+02  0.31886086126E+02  0.00000000000E+00 0. -1.
         11    1    3    3    0    0 -0.38477917110E+01  0.22272857986E+02  0.32377284298E+02  0.39486380471E+02  0.51100000000E-03 0. -1.
        -11    1    3    3    0    0 -0.40418990621E+01 -0.11232664554E+02  0.25520689297E+01  0.12207487747E+02  0.51100000000E-03 0.  1.
         12    1    3    3    0    0 -0.33236049047E+01 -0.12664389895E+01 -0.67254844753E+01  0.76080456560E+01  0.00000000000E+00 0. -1.
</event>
<event>
 7    1  0.4489290E-013  0.5930193E+02  0.7816164E-02  0.1266605E+00
        -11   -1    0    0    0    0  0.00000000000E+00  0.00000000000E+00  0.45593999997E+02  0.45594000000E+02  0.51100000000E-03 0.  1.
         11   -1    0    0    0    0 -0.00000000000E+00 -0.00000000000E+00 -0.45593999997E+02  0.45594000000E+02  0.51100000000E-03 0. -1.
    9900012    2    1    2    0    0 -0.14013798911E+02 -0.20362715147E+02  0.20141868739E+02  0.59301927737E+02  0.49999970290E+02 0.  0.
         12    1    1    2    0    0  0.14013798911E+02  0.20362715147E+02 -0.20141868739E+02  0.31886072263E+02  0.00000000000E+00 0. -1.
         11    1    3    3    0    0 -0.10162457802E+01 -0.20691473174E+01 -0.13948525301E+02  0.14137732648E+02  0.51100000000E-03 0. -1.
        -11    1    3    3    0    0  0.11646041519E+01 -0.10122436808E+02  0.23684812883E+02  0.25783529458E+02  0.51100000000E-03 0.  1.
         12    1    3    3    0    0 -0.14162157282E+02 -0.81711310218E+01  0.10405581156E+02  0.19380665630E+02  0.00000000000E+00 0. -1.
</event>
<event>
 7    1  0.4489290E-013  0.5930199E+02  0.7816164E-02  0.1266605E+00
        -11   -1    0    0    0    0  0.00000000000E+00  0.00000000000E+00  0.45593999997E+02  0.45594000000E+02  0.51100000000E-03 0.  1.
         11   -1    0    0    0    0 -0.00000000000E+00 -0.00000000000E+00 -0.45593999997E+02  0.45594000000E+02  0.51100000000E-03 0. -1.
    9900012    2    1    2    0    0  0.25389297552E+02 -0.10648606858E+02  0.16084413060E+02  0.59301990502E+02  0.50000084758E+02 0.  0.
         12    1    1    2    0    0 -0.25389297552E+02  0.10648606858E+02 -0.16084413060E+02  0.31886009498E+02  0.00000000000E+00 0. -1.
         11    1    3    3    0    0  0.11452325876E+02  0.26198050211E+00 -0.17275419917E+02  0.20728351003E+02  0.51100000000E-03 0. -1.
        -11    1    3    3    0    0  0.61232250879E+01 -0.95136463765E+01  0.21634001315E+02  0.24413794584E+02  0.51100000000E-03 0.  1.
         12    1    3    3    0    0  0.78137465877E+01 -0.13969409840E+01  0.11725831661E+02  0.14159844915E+02  0.00000000000E+00 0. -1.
</event>
<event>
 7    1  0.4489290E-013  0.5930199E+02  0.7816164E-02  0.1266605E+00
        -11   -1    0    0    0    0  0.00000000000E+00  0.00000000000E+00  0.45593999997E+02  0.45594000000E+02  0.51100000000E-03 0. -1.
         11   -1    0    0    0    0 -0.00000000000E+00 -0.00000000000E+00 -0.45593999997E+02  0.45594000000E+02  0.51100000000E-03 0.  1.
    9900012    2    1    2    0    0  0.18549213248E+02  0.17109896725E+02 -0.19490914257E+02  0.59301990268E+02  0.50000084331E+02 0.  0.
         12    1    1    2    0    0 -0.18549213248E+02 -0.17109896725E+02  0.19490914257E+02  0.31886009732E+02  0.00000000000E+00 0. -1.
         11    1    3    3    0    0 -0.96967036269E+01  0.55430566788E+01  0.82646142867E+01  0.13894437309E+02  0.51100000000E-03 0. -1.
        -11    1    3    3    0    0  0.16304195056E+02  0.13311036554E+02 -0.25610828345E+02  0.33150037698E+02  0.51100000000E-03 0.  1.
         12    1    3    3    0    0  0.11941721818E+02 -0.17441965078E+01 -0.21447001988E+01  0.12257515261E+02  0.00000000000E+00 0. -1.
</event>
<event>
 7    1  0.4489290E-013  0.5930194E+02  0.7816164E-02  0.1266605E+00
        -11   -1    0    0    0    0  0.00000000000E+00  0.00000000000E+00  0.45593999997E+02  0.45594000000E+02  0.51100000000E-03 0. -1.
         11   -1    0    0    0    0 -0.00000000000E+00 -0.00000000000E+00 -0.45593999997E+02  0.45594000000E+02  0.51100000000E-03 0.  1.
    9900012    2    1    2    0    0  0.24752220138E+02  0.94814464901E+01  0.17724297311E+02  0.59301938084E+02  0.49999989161E+02 0.  0.
         12    1    1    2    0    0 -0.24752220138E+02 -0.94814464901E+01 -0.17724297311E+02  0.31886061916E+02  0.00000000000E+00 0. -1.
         11    1    3    3    0    0  0.26793960173E+02 -0.71250779599E+01  0.11208627681E+02  0.29905122847E+02  0.51100000000E-03 0.  1.
        -11    1    3    3    0    0 -0.10949112395E+02  0.16346438285E+02  0.54940362552E+01  0.20427274451E+02  0.51100000000E-03 0. -1.
         12    1    3    3    0    0  0.89073723601E+01  0.26008616478E+00  0.10216333748E+01  0.89695407869E+01  0.00000000000E+00 0. -1.
</event>
<event>
 7    1  0.4489290E-013  0.5930194E+02  0.7816164E-02  0.1266605E+00
        -11   -1    0    0    0    0  0.00000000000E+00  0.00000000000E+00  0.45593999997E+02  0.45594000000E+02  0.51100000000E-03 0.  1.
         11   -1    0    0    0    0 -0.00000000000E+00 -0.00000000000E+00 -0.45593999997E+02  0.45594000000E+02  0.51100000000E-03 0. -1.
    9900012    2    1    2    0    0 -0.70620814914E+01 -0.80626756274E+01  0.30030666544E+02  0.59301942446E+02  0.49999997116E+02 0.  0.
         12    1    1    2    0    0  0.70620814914E+01  0.80626756274E+01 -0.30030666544E+02  0.31886057554E+02  0.00000000000E+00 0. -1.
         11    1    3    3    0    0 -0.68947243923E+01 -0.88030912732E+01 -0.79515749621E+01  0.13720757452E+02  0.51100000000E-03 0. -1.
        -11    1    3    3    0    0 -0.11500210478E+02  0.31712172500E+01  0.27408654665E+02  0.29892236629E+02  0.51100000000E-03 0.  1.
         12    1    3    3    0    0  0.11332853379E+02 -0.24308016041E+01  0.10573586841E+02  0.15688948365E+02  0.00000000000E+00 0. -1.
</event>
<event>
 7    1  0.4489290E-013  0.5930193E+02  0.7816164E-02  0.1266605E+00
        -11   -1    0    0    0    0  0.00000000000E+00  0.00000000000E+00  0.45593999997E+02  0.45594000000E+02  0.51100000000E-03 0.  1.
         11   -1    0    0    0    0 -0.00000000000E+00 -0.00000000000E+00 -0.45593999997E+02  0.45594000000E+02  0.51100000000E-03 0. -1.
    9900012    2    1    2    0    0  0.45928965721E+01  0.31311287719E+02  0.39025314175E+01  0.59301934250E+02  0.49999982168E+02 0.  0.
         12    1    1    2    0    0 -0.45928965721E+01 -0.31311287719E+02 -0.39025314175E+01  0.31886065750E+02  0.00000000000E+00 0. -1.
         11    1    3    3    0    0 -0.68432416784E+01  0.31567699016E+02 -0.13550527668E+02  0.35028079853E+02  0.51100000000E-03 0. -1.
        -11    1    3    3    0    0  0.10495162721E+02 -0.49159497014E+01  0.93992837581E+01  0.14921847655E+02  0.51100000000E-03 0.  1.
        -12    1    3    3    0    0  0.94097552922E+00  0.46595384044E+01  0.80537753272E+01  0.93520067424E+01  0.00000000000E+00 0.  1.
</event>
<event>
 7    1  0.4489290E-013  0.5930198E+02  0.7816164E-02  0.1266605E+00
        -11   -1    0    0    0    0  0.00000000000E+00  0.00000000000E+00  0.45593999997E+02  0.45594000000E+02  0.51100000000E-03 0. -1.
         11   -1    0    0    0    0 -0.00000000000E+00 -0.00000000000E+00 -0.45593999997E+02  0.45594000000E+02  0.51100000000E-03 0.  1.
    9900012    2    1    2    0    0  0.29369255631E+02  0.10520765822E+02 -0.65938169919E+01  0.59301982495E+02  0.50000070155E+02 0.  0.
         12    1    1    2    0    0 -0.29369255631E+02 -0.10520765822E+02  0.65938169919E+01  0.31886017505E+02  0.00000000000E+00 0. -1.
         11    1    3    3    0    0  0.27926398257E+02 -0.14883788610E+01  0.14050657170E+02  0.31297283563E+02  0.51100000000E-03 0. -1.
        -11    1    3    3    0    0  0.71875406612E+01  0.79085147042E+01 -0.74054980247E+01  0.13001797831E+02  0.51100000000E-03 0.  1.
         12    1    3    3    0    0 -0.57446832865E+01  0.41006299792E+01 -0.13238976137E+02  0.15002901101E+02  0.00000000000E+00 0. -1.
</event>
<event>
 7    1  0.4489290E-013  0.5930196E+02  0.7816164E-02  0.1266605E+00
        -11   -1    0    0    0    0  0.00000000000E+00  0.00000000000E+00  0.45593999997E+02  0.45594000000E+02  0.51100000000E-03 0.  1.
         11   -1    0    0    0    0 -0.00000000000E+00 -0.00000000000E+00 -0.45593999997E+02  0.45594000000E+02  0.51100000000E-03 0. -1.
    9900012    2    1    2    0    0  0.28162260776E+02 -0.90114863507E+01  0.11933122872E+02  0.59301964817E+02  0.50000037914E+02 0.  0.
         12    1    1    2    0    0 -0.28162260776E+02  0.90114863507E+01 -0.11933122872E+02  0.31886035183E+02  0.00000000000E+00 0. -1.
         11    1    3    3    0    0 -0.67708065940E+00  0.15111051192E+01 -0.21853323521E+01  0.27418159404E+01  0.51100000000E-03 0. -1.
        -11    1    3    3    0    0  0.33158776565E+02  0.90093764651E+01  0.12208317903E+02  0.36465276002E+02  0.51100000000E-03 0.  1.
        -12    1    3    3    0    0 -0.43194351303E+01 -0.19531967935E+02  0.19101373214E+01  0.20094872875E+02  0.00000000000E+00 0.  1.
</event>
<event>
 7    1  0.4489290E-013  0.5930196E+02  0.7816164E-02  0.1266605E+00
        -11   -1    0    0    0    0  0.00000000000E+00  0.00000000000E+00  0.45593999997E+02  0.45594000000E+02  0.51100000000E-03 0.  1.
         11   -1    0    0    0    0 -0.00000000000E+00 -0.00000000000E+00 -0.45593999997E+02  0.45594000000E+02  0.51100000000E-03 0. -1.
    9900012    2    1    2    0    0  0.16552488729E+02 -0.12577286140E+02  0.24177391086E+02  0.59301964663E+02  0.50000037634E+02 0.  0.
         12    1    1    2    0    0 -0.16552488729E+02  0.12577286140E+02 -0.24177391086E+02  0.31886035337E+02  0.00000000000E+00 0. -1.
         11    1    3    3    0    0 -0.14587465999E+02 -0.92345739898E+01  0.65853811580E+01  0.18478061758E+02  0.51100000000E-03 0. -1.
        -11    1    3    3    0    0  0.22044555322E+02  0.54298790066E+01  0.16645804826E+02  0.28151888462E+02  0.51100000000E-03 0.  1.
         12    1    3    3    0    0  0.90953994063E+01 -0.87725911571E+01  0.94620510209E+00  0.12672014444E+02  0.00000000000E+00 0. -1.
</event>
<event>
 7    1  0.4489290E-013  0.5930195E+02  0.7816164E-02  0.1266605E+00
        -11   -1    0    0    0    0  0.00000000000E+00  0.00000000000E+00  0.45593999997E+02  0.45594000000E+02  0.51100000000E-03 0.  1.
         11   -1    0    0    0    0 -0.00000000000E+00 -0.00000000000E+00 -0.45593999997E+02  0.45594000000E+02  0.51100000000E-03 0. -1.
    9900012    2    1    2    0    0 -0.53431635053E+01 -0.28662278949E+02 -0.12909084154E+02  0.59301951570E+02  0.50000013755E+02 0.  0.
         12    1    1    2    0    0  0.53431635053E+01  0.28662278949E+02  0.12909084154E+02  0.31886048430E+02  0.00000000000E+00 0. -1.
         11    1    3    3    0    0  0.76447974633E+01 -0.14039179544E+02 -0.76928621139E+01  0.17740395100E+02  0.51100000000E-03 0. -1.
        -11    1    3    3    0    0 -0.11559960853E+02  0.10673043895E+02 -0.20849963481E+00  0.15734993907E+02  0.51100000000E-03 0.  1.
        -12    1    3    3    0    0 -0.14280001157E+01 -0.25296143299E+02 -0.50077224050E+01  0.25826562563E+02  0.00000000000E+00 0.  1.
</event>
<event>
 7    1  0.4489290E-013  0.5930199E+02  0.7816164E-02  0.1266605E+00
        -11   -1    0    0    0    0  0.00000000000E+00  0.00000000000E+00  0.45593999997E+02  0.45594000000E+02  0.51100000000E-03 0. -1.
         11   -1    0    0    0    0 -0.00000000000E+00 -0.00000000000E+00 -0.45593999997E+02  0.45594000000E+02  0.51100000000E-03 0.  1.
    9900012    2    1    2    0    0  0.15215049607E+02  0.14688411805E+02 -0.23863585076E+02  0.59301986317E+02  0.50000077126E+02 0.  0.
         12    1    1    2    0    0 -0.15215049607E+02 -0.14688411805E+02  0.23863585076E+02  0.31886013683E+02  0.00000000000E+00 0. -1.
         11    1    3    3    0    0 -0.51528649287E+01  0.64915918293E+01 -0.20470206138E+02  0.22084431644E+02  0.51100000000E-03 0. -1.
        -11    1    3    3    0    0  0.18773679756E+02  0.10970712741E+02  0.96487187855E+01  0.23788765501E+02  0.51100000000E-03 0.  1.
        -12    1    3    3    0    0  0.15942347799E+01 -0.27738927646E+01 -0.13042097723E+02  0.13428789172E+02  0.00000000000E+00 0.  1.
</event>
<event>
 7    1  0.4489290E-013  0.5930193E+02  0.7816164E-02  0.1266605E+00
        -11   -1    0    0    0    0  0.00000000000E+00  0.00000000000E+00  0.45593999997E+02  0.45594000000E+02  0.51100000000E-03 0.  1.
         11   -1    0    0    0    0 -0.00000000000E+00 -0.00000000000E+00 -0.45593999997E+02  0.45594000000E+02  0.51100000000E-03 0. -1.
    9900012    2    1    2    0    0 -0.35314285001E+01  0.30309327772E+02  0.92517476396E+01  0.59301934522E+02  0.49999982664E+02 0.  0.
         12    1    1    2    0    0  0.35314285001E+01 -0.30309327772E+02 -0.92517476396E+01  0.31886065478E+02  0.00000000000E+00 0. -1.
         11    1    3    3    0    0  0.49531887824E+01 -0.10491757000E+02  0.10667998159E+02  0.15761257216E+02  0.51100000000E-03 0. -1.
        -11    1    3    3    0    0 -0.83999458393E+01  0.39667370920E+02 -0.39743627228E+01  0.40741317665E+02  0.51100000000E-03 0.  1.
         12    1    3    3    0    0 -0.84671443143E-01  0.11337138525E+01  0.25581122034E+01  0.27993596407E+01  0.00000000000E+00 0. -1.
</event>
<event>
 7    1  0.4489290E-013  0.5930197E+02  0.7816164E-02  0.1266605E+00
        -11   -1    0    0    0    0  0.00000000000E+00  0.00000000000E+00  0.45593999997E+02  0.45594000000E+02  0.51100000000E-03 0.  1.
         11   -1    0    0    0    0 -0.00000000000E+00 -0.00000000000E+00 -0.45593999997E+02  0.45594000000E+02  0.51100000000E-03 0. -1.
    9900012    2    1    2    0    0 -0.64054748968E+01  0.30609595812E+02  0.62242855317E+01  0.59301965521E+02  0.50000039199E+02 0.  0.
         12    1    1    2    0    0  0.64054748968E+01 -0.30609595812E+02 -0.62242855317E+01  0.31886034479E+02  0.00000000000E+00 0. -1.
         11    1    3    3    0    0 -0.11126613063E+02 -0.60780339321E+01  0.94552222080E+01  0.15815980589E+02  0.51100000000E-03 0. -1.
        -11    1    3    3    0    0  0.10847508602E+02  0.28423339601E+02  0.43154869507E+01  0.30727481264E+02  0.51100000000E-03 0.  1.
         12    1    3    3    0    0 -0.61263704359E+01  0.82642901424E+01 -0.75464236270E+01  0.12758503668E+02  0.00000000000E+00 0. -1.
</event>
<event>
 7    1  0.4489290E-013  0.5930194E+02  0.7816164E-02  0.1266605E+00
        -11   -1    0    0    0    0  0.00000000000E+00  0.00000000000E+00  0.45593999997E+02  0.45594000000E+02  0.51100000000E-03 0. -1.
         11   -1    0    0    0    0 -0.00000000000E+00 -0.00000000000E+00 -0.45593999997E+02  0.45594000000E+02  0.51100000000E-03 0.  1.
    9900012    2    1    2    0    0  0.19214265037E+02  0.13982548923E+01 -0.25408216742E+02  0.59301943867E+02  0.49999999708E+02 0.  0.
         12    1    1    2    0    0 -0.19214265037E+02 -0.13982548923E+01  0.25408216742E+02  0.31886056133E+02  0.00000000000E+00 0. -1.
         11    1    3    3    0    0 -0.96794564591E+00 -0.14639183280E+02 -0.40069685653E+00  0.14676619642E+02  0.51100000000E-03 0. -1.
        -11    1    3    3    0    0  0.24691717327E+02  0.16345264784E+02 -0.26628271314E+02  0.39823528458E+02  0.51100000000E-03 0.  1.
        -12    1    3    3    0    0 -0.45095066440E+01 -0.30782661112E+00  0.16207514286E+01  0.48017957670E+01  0.00000000000E+00 0.  1.
</event>
<event>
 7    1  0.4489290E-013  0.5930191E+02  0.7816164E-02  0.1266605E+00
        -11   -1    0    0    0    0  0.00000000000E+00  0.00000000000E+00  0.45593999997E+02  0.45594000000E+02  0.51100000000E-03 0. -1.
         11   -1    0    0    0    0 -0.00000000000E+00 -0.00000000000E+00 -0.45593999997E+02  0.45594000000E+02  0.51100000000E-03 0.  1.
    9900012    2    1    2    0    0 -0.13201835972E+02 -0.23779697507E+02 -0.16642116678E+02  0.59301913158E+02  0.49999943702E+02 0.  0.
         12    1    1    2    0    0  0.13201835972E+02  0.23779697507E+02  0.16642116678E+02  0.31886086842E+02  0.00000000000E+00 0. -1.
         11    1    3    3    0    0 -0.12877548957E+02 -0.11298892312E+02  0.10805129129E+02  0.20254556287E+02  0.51100000000E-03 0. -1.
        -11    1    3    3    0    0  0.31674770265E+01  0.70636081694E+01 -0.97622807105E+01  0.12459116984E+02  0.51100000000E-03 0.  1.
        -12    1    3    3    0    0 -0.34917640410E+01 -0.19544413364E+02 -0.17684965097E+02  0.26588239888E+02  0.00000000000E+00 0.  1.
</event>
<event>
 7    1  0.4489290E-013  0.5930194E+02  0.7816164E-02  0.1266605E+00
        -11   -1    0    0    0    0  0.00000000000E+00  0.00000000000E+00  0.45593999997E+02  0.45594000000E+02  0.51100000000E-03 0. -1.
         11   -1    0    0    0    0 -0.00000000000E+00 -0.00000000000E+00 -0.45593999997E+02  0.45594000000E+02  0.51100000000E-03 0.  1.
    9900012    2    1    2    0    0  0.23883722982E+02 -0.60315851490E+01 -0.20246194011E+02  0.59301943253E+02  0.49999998588E+02 0.  0.
         12    1    1    2    0    0 -0.23883722982E+02  0.60315851490E+01  0.20246194011E+02  0.31886056747E+02  0.00000000000E+00 0. -1.
         11    1    3    3    0    0 -0.25604465929E+01  0.12573511362E+02 -0.10233026943E+02  0.16412309874E+02  0.51100000000E-03 0. -1.
        -11    1    3    3    0    0  0.27482370540E+02 -0.18337173204E+02 -0.22115271404E+00  0.33039090792E+02  0.51100000000E-03 0.  1.
        -12    1    3    3    0    0 -0.10382009646E+01 -0.26792330741E+00 -0.97920143542E+01  0.98505425868E+01  0.00000000000E+00 0.  1.
</event>
<event>
 7    1  0.4489290E-013  0.5930194E+02  0.7816164E-02  0.1266605E+00
        -11   -1    0    0    0    0  0.00000000000E+00  0.00000000000E+00  0.45593999997E+02  0.45594000000E+02  0.51100000000E-03 0.  1.
         11   -1    0    0    0    0 -0.00000000000E+00 -0.00000000000E+00 -0.45593999997E+02  0.45594000000E+02  0.51100000000E-03 0. -1.
    9900012    2    1    2    0    0  0.22188322724E+02 -0.22603499873E+02  0.36716194583E+01  0.59301942526E+02  0.49999997262E+02 0.  0.
         12    1    1    2    0    0 -0.22188322724E+02  0.22603499873E+02 -0.36716194583E+01  0.31886057474E+02  0.00000000000E+00 0. -1.
         11    1    3    3    0    0 -0.98695655023E-01  0.82278336813E+01 -0.11573142777E+02  0.14200162743E+02  0.51100000000E-03 0. -1.
        -11    1    3    3    0    0  0.13031882953E+02 -0.30225060911E+02  0.97819220172E+01  0.34337592795E+02  0.51100000000E-03 0.  1.
         12    1    3    3    0    0  0.92551354260E+01 -0.60627264301E+00  0.54628402183E+01  0.10764186988E+02  0.00000000000E+00 0. -1.
</event>
<event>
 7    1  0.4489290E-013  0.5930191E+02  0.7816164E-02  0.1266605E+00
        -11   -1    0    0    0    0  0.00000000000E+00  0.00000000000E+00  0.45593999997E+02  0.45594000000E+02  0.51100000000E-03 0. -1.
         11   -1    0    0    0    0 -0.00000000000E+00 -0.00000000000E+00 -0.45593999997E+02  0.45594000000E+02  0.51100000000E-03 0.  1.
    9900012    2    1    2    0    0 -0.27679591875E+02  0.52597532415E+01 -0.14929761287E+02  0.59301912397E+02  0.49999942313E+02 0.  0.
         12    1    1    2    0    0  0.27679591875E+02 -0.52597532415E+01  0.14929761287E+02  0.31886087603E+02  0.00000000000E+00 0. -1.
         11    1    3    3    0    0  0.11083342056E+02  0.10019375030E+01  0.42961618942E+01  0.11929013252E+02  0.51100000000E-03 0. -1.
        -11    1    3    3    0    0 -0.17530378401E+02  0.10850267854E+02 -0.12650859604E+02  0.24188566067E+02  0.51100000000E-03 0.  1.
        -12    1    3    3    0    0 -0.21232555530E+02 -0.65924521151E+01 -0.65750635771E+01  0.23184333078E+02  0.00000000000E+00 0.  1.
</event>
<event>
 7    1  0.4489290E-013  0.5930192E+02  0.7816164E-02  0.1266605E+00
        -11   -1    0    0    0    0  0.00000000000E+00  0.00000000000E+00  0.45593999997E+02  0.45594000000E+02  0.51100000000E-03 0.  1.
         11   -1    0    0    0    0 -0.00000000000E+00 -0.00000000000E+00 -0.45593999997E+02  0.45594000000E+02  0.51100000000E-03 0. -1.
    9900012    2    1    2    0    0  0.15805934653E+02 -0.18943221714E+02  0.20200222604E+02  0.59301918202E+02  0.49999952901E+02 0.  0.
         12    1    1    2    0    0 -0.15805934653E+02  0.18943221714E+02 -0.20200222604E+02  0.31886081798E+02  0.00000000000E+00 0. -1.
         11    1    3    3    0    0  0.59850157528E+00 -0.96521589682E+01 -0.15513221516E+02  0.18280656961E+02  0.51100000000E-03 0. -1.
        -11    1    3    3    0    0  0.35714046429E+01 -0.26089813581E+01  0.19402984884E+02  0.19900691885E+02  0.51100000000E-03 0.  1.
         12    1    3    3    0    0  0.11636028435E+02 -0.66820813873E+01  0.16310459236E+02  0.21120569356E+02  0.00000000000E+00 0. -1.
</event>
<event>
 7    1  0.4489290E-013  0.5930194E+02  0.7816164E-02  0.1266605E+00
        -11   -1    0    0    0    0  0.00000000000E+00  0.00000000000E+00  0.45593999997E+02  0.45594000000E+02  0.51100000000E-03 0.  1.
         11   -1    0    0    0    0 -0.00000000000E+00 -0.00000000000E+00 -0.45593999997E+02  0.45594000000E+02  0.51100000000E-03 0. -1.
    9900012    2    1    2    0    0  0.83619544468E+00  0.14432244531E+02  0.28420623542E+02  0.59301941173E+02  0.49999994794E+02 0.  0.
         12    1    1    2    0    0 -0.83619544468E+00 -0.14432244531E+02 -0.28420623542E+02  0.31886058827E+02  0.00000000000E+00 0. -1.
         11    1    3    3    0    0 -0.12210671710E+01 -0.11895112441E+02 -0.25623421482E+01  0.12229076113E+02  0.51100000000E-03 0. -1.
        -11    1    3    3    0    0 -0.44765756251E+01  0.25072432011E+02  0.31371361126E+02  0.40408277314E+02  0.51100000000E-03 0.  1.
         12    1    3    3    0    0  0.65338382407E+01  0.12549249610E+01 -0.38839543662E+00  0.66645877464E+01  0.00000000000E+00 0. -1.
</event>
<event>
 7    1  0.4489290E-013  0.5930195E+02  0.7816164E-02  0.1266605E+00
        -11   -1    0    0    0    0  0.00000000000E+00  0.00000000000E+00  0.45593999997E+02  0.45594000000E+02  0.51100000000E-03 0.  1.
         11   -1    0    0    0    0 -0.00000000000E+00 -0.00000000000E+00 -0.45593999997E+02  0.45594000000E+02  0.51100000000E-03 0. -1.
    9900012    2    1    2    0    0  0.76921244347E+01 -0.40737223015E+01  0.30675008266E+02  0.59301950953E+02  0.50000012630E+02 0.  0.
         12    1    1    2    0    0 -0.76921244347E+01  0.40737223015E+01 -0.30675008266E+02  0.31886049047E+02  0.00000000000E+00 0. -1.
         11    1    3    3    0    0 -0.14322410034E+02 -0.76975194443E+01  0.32611889865E+02  0.36440617388E+02  0.51100000000E-03 0. -1.
        -11    1    3    3    0    0  0.15288555794E+02  0.58334620284E+00 -0.30958040576E+00  0.15302812531E+02  0.51100000000E-03 0.  1.
         12    1    3    3    0    0  0.67259786746E+01  0.30404509399E+01 -0.16273011930E+01  0.75585210341E+01  0.00000000000E+00 0. -1.
</event>
<event>
 7    1  0.4489290E-013  0.5930196E+02  0.7816164E-02  0.1266605E+00
        -11   -1    0    0    0    0  0.00000000000E+00  0.00000000000E+00  0.45593999997E+02  0.45594000000E+02  0.51100000000E-03 0. -1.
         11   -1    0    0    0    0 -0.00000000000E+00 -0.00000000000E+00 -0.45593999997E+02  0.45594000000E+02  0.51100000000E-03 0.  1.
    9900012    2    1    2    0    0 -0.10935037842E+02  0.29917732744E+02  0.14401485682E+01  0.59301955826E+02  0.50000021518E+02 0.  0.
         12    1    1    2    0    0  0.10935037842E+02 -0.29917732744E+02 -0.14401485682E+01  0.31886044174E+02  0.00000000000E+00 0. -1.
         11    1    3    3    0    0 -0.20986770372E+02  0.66386050125E+01  0.48145770235E+01  0.22532105080E+02  0.51100000000E-03 0. -1.
        -11    1    3    3    0    0  0.14312412929E+02  0.29360939131E+01 -0.60507249237E+01  0.15813825713E+02  0.51100000000E-03 0.  1.
        -12    1    3    3    0    0 -0.42606803993E+01  0.20343033818E+02  0.26762964684E+01  0.20956025033E+02  0.00000000000E+00 0.  1.
</event>
<event>
 7    1  0.4489290E-013  0.5930189E+02  0.7816164E-02  0.1266605E+00
        -11   -1    0    0    0    0  0.00000000000E+00  0.00000000000E+00  0.45593999997E+02  0.45594000000E+02  0.51100000000E-03 0. -1.
         11   -1    0    0    0    0 -0.00000000000E+00 -0.00000000000E+00 -0.45593999997E+02  0.45594000000E+02  0.51100000000E-03 0.  1.
    9900012    2    1    2    0    0  0.29192734581E+02  0.12826053676E+02 -0.17149235255E-01  0.59301894886E+02  0.49999910378E+02 0.  0.
         12    1    1    2    0    0 -0.29192734581E+02 -0.12826053676E+02  0.17149235255E-01  0.31886105114E+02  0.00000000000E+00 0. -1.
         11    1    3    3    0    0  0.26839500395E+02  0.11386829926E+01 -0.24375030628E+01  0.26974002333E+02  0.51100000000E-03 0. -1.
        -11    1    3    3    0    0 -0.60613381274E+01 -0.65655483245E+01 -0.57562691781E+01  0.10629246437E+02  0.51100000000E-03 0.  1.
         12    1    3    3    0    0  0.84145723133E+01  0.18252919008E+02  0.81766230056E+01  0.21698646116E+02  0.00000000000E+00 0. -1.
</event>
<event>
 7    1  0.4489290E-013  0.5930194E+02  0.7816164E-02  0.1266605E+00
        -11   -1    0    0    0    0  0.00000000000E+00  0.00000000000E+00  0.45593999997E+02  0.45594000000E+02  0.51100000000E-03 0.  1.
         11   -1    0    0    0    0 -0.00000000000E+00 -0.00000000000E+00 -0.45593999997E+02  0.45594000000E+02  0.51100000000E-03 0. -1.
    9900012    2    1    2    0    0  0.29980911806E+02 -0.67193470187E+01 -0.85273593495E+01  0.59301944199E+02  0.50000000312E+02 0.  0.
         12    1    1    2    0    0 -0.29980911806E+02  0.67193470187E+01  0.85273593495E+01  0.31886055801E+02  0.00000000000E+00 0. -1.
         11    1    3    3    0    0  0.19407603856E+02 -0.17797092871E+01 -0.29142483177E+02  0.35058619177E+02  0.51100000000E-03 0. -1.
        -11    1    3    3    0    0  0.25160811290E+00 -0.18871190828E+01  0.21648747322E+01  0.28829165687E+01  0.51100000000E-03 0.  1.
         12    1    3    3    0    0  0.10321699837E+02 -0.30525186487E+01  0.18450249095E+02  0.21360408453E+02  0.00000000000E+00 0. -1.
</event>
<event>
 7    1  0.4489290E-013  0.5930196E+02  0.7816164E-02  0.1266605E+00
        -11   -1    0    0    0    0  0.00000000000E+00  0.00000000000E+00  0.45593999997E+02  0.45594000000E+02  0.51100000000E-03 0.  1.
         11   -1    0    0    0    0 -0.00000000000E+00 -0.00000000000E+00 -0.45593999997E+02  0.45594000000E+02  0.51100000000E-03 0. -1.
    9900012    2    1    2    0    0 -0.90991972471E+01 -0.30408504506E+02 -0.30409247774E+01  0.59301956653E+02  0.50000023025E+02 0.  0.
         12    1    1    2    0    0  0.90991972471E+01  0.30408504506E+02  0.30409247774E+01  0.31886043347E+02  0.00000000000E+00 0. -1.
         11    1    3    3    0    0  0.69547024538E+00 -0.58917003688E+01 -0.10518381882E+02  0.12076099112E+02  0.51100000000E-03 0. -1.
        -11    1    3    3    0    0 -0.94517988885E+01 -0.25433226805E+02  0.20600066159E+02  0.34066820426E+02  0.51100000000E-03 0.  1.
         12    1    3    3    0    0 -0.34286860397E+00  0.91642266740E+00 -0.13122609055E+02  0.13159037115E+02  0.00000000000E+00 0. -1.
</event>
<event>
 7    1  0.4489290E-013  0.5930190E+02  0.7816164E-02  0.1266605E+00
        -11   -1    0    0    0    0  0.00000000000E+00  0.00000000000E+00  0.45593999997E+02  0.45594000000E+02  0.51100000000E-03 0. -1.
         11   -1    0    0    0    0 -0.00000000000E+00 -0.00000000000E+00 -0.45593999997E+02  0.45594000000E+02  0.51100000000E-03 0.  1.
    9900012    2    1    2    0    0  0.14134697035E+02  0.24153539868E+02 -0.15282028108E+02  0.59301897518E+02  0.49999915177E+02 0.  0.
         12    1    1    2    0    0 -0.14134697035E+02 -0.24153539868E+02  0.15282028108E+02  0.31886102482E+02  0.00000000000E+00 0. -1.
         11    1    3    3    0    0  0.25388858697E+01 -0.68620116588E+00 -0.27040043464E+01  0.37720622034E+01  0.51100000000E-03 0. -1.
        -11    1    3    3    0    0  0.18484291188E+01  0.26269875248E+02  0.12082478774E+02  0.28974287383E+02  0.51100000000E-03 0.  1.
        -12    1    3    3    0    0  0.97473820462E+01 -0.14301342147E+01 -0.24660502536E+02  0.26555547931E+02  0.00000000000E+00 0.  1.
</event>
<event>
 7    1  0.5143775E-013  0.5930194E+02  0.7816164E-02  0.1266605E+00
        -11   -1    0    0    0    0  0.00000000000E+00  0.00000000000E+00  0.45593999997E+02  0.45594000000E+02  0.51100000000E-03 0. -1.
         11   -1    0    0    0    0 -0.00000000000E+00 -0.00000000000E+00 -0.45593999997E+02  0.45594000000E+02  0.51100000000E-03 0.  1.
    9900012    2    1    2    0    0 -0.54933374450E+01 -0.19191775619E+02 -0.24864023906E+02  0.59301942036E+02  0.49999996367E+02 0.  0.
         12    1    1    2    0    0  0.54933374450E+01  0.19191775619E+02  0.24864023906E+02  0.31886057964E+02  0.00000000000E+00 0. -1.
         11    1    3    3    0    0  0.10390994906E+02  0.60722152540E+01  0.44641024939E+01  0.12836385183E+02  0.51100000000E-03 0. -1.
        -11    1    3    3    0    0 -0.22920935391E+01 -0.53601276907E+01 -0.19643830736E+02  0.20490601452E+02  0.51100000000E-03 0.  1.
         12    1    3    3    0    0 -0.13592238812E+02 -0.19903863182E+02 -0.96842956643E+01  0.25974955400E+02  0.00000000000E+00 0. -1.
</event>
<event>
 7    1  0.4489290E-013  0.5930193E+02  0.7816164E-02  0.1266605E+00
        -11   -1    0    0    0    0  0.00000000000E+00  0.00000000000E+00  0.45593999997E+02  0.45594000000E+02  0.51100000000E-03 0.  1.
         11   -1    0    0    0    0 -0.00000000000E+00 -0.00000000000E+00 -0.45593999997E+02  0.45594000000E+02  0.51100000000E-03 0. -1.
    9900012    2    1    2    0    0 -0.35020491881E+01 -0.18274308904E+02  0.25894147898E+02  0.59301927651E+02  0.49999970133E+02 0.  0.
         12    1    1    2    0    0  0.35020491881E+01  0.18274308904E+02 -0.25894147898E+02  0.31886072349E+02  0.00000000000E+00 0. -1.
         11    1    3    3    0    0  0.48696061367E+01  0.68964194356E+01 -0.95308481059E+01  0.12732271236E+02  0.51100000000E-03 0. -1.
        -11    1    3    3    0    0 -0.10841122850E+02 -0.10993985598E+02  0.14551975379E+02  0.21216918996E+02  0.51100000000E-03 0.  1.
         12    1    3    3    0    0  0.24694675250E+01 -0.14176742742E+02  0.20873020625E+02  0.25352737419E+02  0.00000000000E+00 0. -1.
</event>
<event>
 7    1  0.4489290E-013  0.5930191E+02  0.7816164E-02  0.1266605E+00
        -11   -1    0    0    0    0  0.00000000000E+00  0.00000000000E+00  0.45593999997E+02  0.45594000000E+02  0.51100000000E-03 0. -1.
         11   -1    0    0    0    0 -0.00000000000E+00 -0.00000000000E+00 -0.45593999997E+02  0.45594000000E+02  0.51100000000E-03 0.  1.
    9900012    2    1    2    0    0 -0.29646724527E+02 -0.10901195343E+02  0.43541128406E+01  0.59301911596E+02  0.49999940852E+02 0.  0.
         12    1    1    2    0    0  0.29646724527E+02  0.10901195343E+02 -0.43541128406E+01  0.31886088404E+02  0.00000000000E+00 0. -1.
         11    1    3    3    0    0 -0.24883517737E+02 -0.27128433827E+02  0.16138707654E+01  0.36847604481E+02  0.51100000000E-03 0. -1.
        -11    1    3    3    0    0 -0.10644193412E+01  0.14485682923E+02 -0.35499573022E+01  0.14952263889E+02  0.51100000000E-03 0.  1.
        -12    1    3    3    0    0 -0.36987874488E+01  0.17415555608E+01  0.62901993774E+01  0.75020432264E+01  0.00000000000E+00 0.  1.
</event>
<event>
 7    1  0.4489290E-013  0.5930194E+02  0.7816164E-02  0.1266605E+00
        -11   -1    0    0    0    0  0.00000000000E+00  0.00000000000E+00  0.45593999997E+02  0.45594000000E+02  0.51100000000E-03 0. -1.
         11   -1    0    0    0    0 -0.00000000000E+00 -0.00000000000E+00 -0.45593999997E+02  0.45594000000E+02  0.51100000000E-03 0.  1.
    9900012    2    1    2    0    0  0.27971245715E+02  0.14747449365E+02  0.41040305922E+01  0.59301938519E+02  0.49999989954E+02 0.  0.
         12    1    1    2    0    0 -0.27971245715E+02 -0.14747449365E+02 -0.41040305922E+01  0.31886061481E+02  0.00000000000E+00 0. -1.
         11    1    3    3    0    0 -0.95394315353E+01  0.47836385012E+01  0.12233502479E+02  0.16233993177E+02  0.51100000000E-03 0. -1.
        -11    1    3    3    0    0  0.78113351733E+01  0.49906300932E+01 -0.90311545522E+01  0.12941603406E+02  0.51100000000E-03 0.  1.
         12    1    3    3    0    0  0.29699342077E+02  0.49731807708E+01  0.90168266582E+00  0.30126341936E+02  0.00000000000E+00 0. -1.
</event>
<event>
 7    1  0.4489290E-013  0.5930199E+02  0.7816164E-02  0.1266605E+00
        -11   -1    0    0    0    0  0.00000000000E+00  0.00000000000E+00  0.45593999997E+02  0.45594000000E+02  0.51100000000E-03 0. -1.
         11   -1    0    0    0    0 -0.00000000000E+00 -0.00000000000E+00 -0.45593999997E+02  0.45594000000E+02  0.51100000000E-03 0.  1.
    9900012    2    1    2    0    0  0.11540782471E+01  0.34036464124E+01 -0.31682818072E+02  0.59301989486E+02  0.50000082905E+02 0.  0.
         12    1    1    2    0    0 -0.11540782471E+01 -0.34036464124E+01  0.31682818072E+02  0.31886010514E+02  0.00000000000E+00 0. -1.
         11    1    3    3    0    0 -0.26765614707E+01 -0.18652518544E+02 -0.47438790460E+01  0.19431541833E+02  0.51100000000E-03 0. -1.
        -11    1    3    3    0    0  0.14952362077E+00  0.15705465510E+02 -0.28336487370E+02  0.32398156134E+02  0.51100000000E-03 0.  1.
         12    1    3    3    0    0  0.36811160970E+01  0.63506994463E+01  0.13975483433E+01  0.74722915193E+01  0.00000000000E+00 0. -1.
</event>
<event>
 7    1  0.4489290E-013  0.5930193E+02  0.7816164E-02  0.1266605E+00
        -11   -1    0    0    0    0  0.00000000000E+00  0.00000000000E+00  0.45593999997E+02  0.45594000000E+02  0.51100000000E-03 0.  1.
         11   -1    0    0    0    0 -0.00000000000E+00 -0.00000000000E+00 -0.45593999997E+02  0.45594000000E+02  0.51100000000E-03 0. -1.
    9900012    2    1    2    0    0  0.19387313362E+02 -0.24936005238E+01  0.25191970355E+02  0.59301931986E+02  0.49999978039E+02 0.  0.
         12    1    1    2    0    0 -0.19387313362E+02  0.24936005238E+01 -0.25191970355E+02  0.31886068014E+02  0.00000000000E+00 0. -1.
         11    1    3    3    0    0 -0.53169922714E+01 -0.14773176057E+02  0.10682520126E+02  0.18990349500E+02  0.51100000000E-03 0.  1.
        -11    1    3    3    0    0  0.24494664894E+02  0.15426717267E+02  0.19144113508E+02  0.34705464932E+02  0.51100000000E-03 0. -1.
         12    1    3    3    0    0  0.20964073989E+00 -0.31471417334E+01 -0.46346632780E+01  0.56061175541E+01  0.00000000000E+00 0. -1.
</event>
<event>
 7    1  0.4489290E-013  0.5930195E+02  0.7816164E-02  0.1266605E+00
        -11   -1    0    0    0    0  0.00000000000E+00  0.00000000000E+00  0.45593999997E+02  0.45594000000E+02  0.51100000000E-03 0.  1.
         11   -1    0    0    0    0 -0.00000000000E+00 -0.00000000000E+00 -0.45593999997E+02  0.45594000000E+02  0.51100000000E-03 0. -1.
    9900012    2    1    2    0    0  0.60199927541E+01 -0.70648724082E+01  0.30505202853E+02  0.59301950762E+02  0.50000012282E+02 0.  0.
         12    1    1    2    0    0 -0.60199927541E+01  0.70648724082E+01 -0.30505202853E+02  0.31886049238E+02  0.00000000000E+00 0. -1.
         11    1    3    3    0    0 -0.71207132250E+01  0.11974132459E+02  0.19699566055E+02  0.24127936257E+02  0.51100000000E-03 0. -1.
        -11    1    3    3    0    0  0.66306883994E+01 -0.11183535366E+02 -0.69152213709E+01  0.14726091770E+02  0.51100000000E-03 0.  1.
         12    1    3    3    0    0  0.65100175797E+01 -0.78554695013E+01  0.17720858169E+02  0.20447922736E+02  0.00000000000E+00 0. -1.
</event>
<event>
 7    1  0.4489290E-013  0.5930195E+02  0.7816164E-02  0.1266605E+00
        -11   -1    0    0    0    0  0.00000000000E+00  0.00000000000E+00  0.45593999997E+02  0.45594000000E+02  0.51100000000E-03 0.  1.
         11   -1    0    0    0    0 -0.00000000000E+00 -0.00000000000E+00 -0.45593999997E+02  0.45594000000E+02  0.51100000000E-03 0. -1.
    9900012    2    1    2    0    0 -0.10068012884E+02 -0.45030258788E+01  0.29917854365E+02  0.59301950773E+02  0.50000012303E+02 0.  0.
         12    1    1    2    0    0  0.10068012884E+02  0.45030258788E+01 -0.29917854365E+02  0.31886049227E+02  0.00000000000E+00 0. -1.
         11    1    3    3    0    0 -0.10481047531E+02 -0.93538598375E+01  0.69713493841E+01  0.15682689939E+02  0.51100000000E-03 0. -1.
        -11    1    3    3    0    0  0.76330548240E+01  0.17803239641E+02  0.21153313824E+02  0.28682425868E+02  0.51100000000E-03 0.  1.
        -12    1    3    3    0    0 -0.72200201767E+01 -0.12952405682E+02  0.17931911560E+01  0.14936834967E+02  0.00000000000E+00 0.  1.
</event>
<event>
 7    1  0.4489290E-013  0.5930194E+02  0.7816164E-02  0.1266605E+00
        -11   -1    0    0    0    0  0.00000000000E+00  0.00000000000E+00  0.45593999997E+02  0.45594000000E+02  0.51100000000E-03 0. -1.
         11   -1    0    0    0    0 -0.00000000000E+00 -0.00000000000E+00 -0.45593999997E+02  0.45594000000E+02  0.51100000000E-03 0.  1.
    9900012    2    1    2    0    0 -0.20736077322E+02  0.20075905059E+02 -0.13553382681E+02  0.59301936450E+02  0.49999986180E+02 0.  0.
         12    1    1    2    0    0  0.20736077322E+02 -0.20075905059E+02  0.13553382681E+02  0.31886063550E+02  0.00000000000E+00 0. -1.
         11    1    3    3    0    0 -0.26549158550E+02  0.96742445999E+01 -0.25392065696E+02  0.37989548942E+02  0.51100000000E-03 0.  1.
        -11    1    3    3    0    0  0.87134468497E+01  0.58118813027E+01  0.29237979686E+01  0.10874314466E+02  0.51100000000E-03 0. -1.
         12    1    3    3    0    0 -0.29003656216E+01  0.45897791564E+01  0.89148850460E+01  0.10438073042E+02  0.00000000000E+00 0. -1.
</event>
<event>
 7    1  0.4489290E-013  0.5930197E+02  0.7816164E-02  0.1266605E+00
        -11   -1    0    0    0    0  0.00000000000E+00  0.00000000000E+00  0.45593999997E+02  0.45594000000E+02  0.51100000000E-03 0.  1.
         11   -1    0    0    0    0 -0.00000000000E+00 -0.00000000000E+00 -0.45593999997E+02  0.45594000000E+02  0.51100000000E-03 0. -1.
    9900012    2    1    2    0    0 -0.16747141975E+02  0.65927677934E+01  0.26320857059E+02  0.59301970648E+02  0.50000048549E+02 0.  0.
         12    1    1    2    0    0  0.16747141975E+02 -0.65927677934E+01 -0.26320857059E+02  0.31886029352E+02  0.00000000000E+00 0. -1.
         11    1    3    3    0    0 -0.44354316564E+01 -0.18726652850E+02  0.66481459561E+01  0.20360707892E+02  0.51100000000E-03 0. -1.
        -11    1    3    3    0    0 -0.15767728233E+02  0.25473782704E+02  0.18814861470E+02  0.35377024624E+02  0.51100000000E-03 0.  1.
         12    1    3    3    0    0  0.34560179137E+01 -0.15436206117E+00  0.85784963355E+00  0.35642381317E+01  0.00000000000E+00 0. -1.
</event>
<event>
 7    1  0.4489290E-013  0.5930195E+02  0.7816164E-02  0.1266605E+00
        -11   -1    0    0    0    0  0.00000000000E+00  0.00000000000E+00  0.45593999997E+02  0.45594000000E+02  0.51100000000E-03 0.  1.
         11   -1    0    0    0    0 -0.00000000000E+00 -0.00000000000E+00 -0.45593999997E+02  0.45594000000E+02  0.51100000000E-03 0. -1.
    9900012    2    1    2    0    0  0.12883758190E+01  0.31793963655E+02  0.20503442107E+01  0.59301953702E+02  0.50000017644E+02 0.  0.
         12    1    1    2    0    0 -0.12883758190E+01 -0.31793963655E+02 -0.20503442107E+01  0.31886046298E+02  0.00000000000E+00 0. -1.
         11    1    3    3    0    0  0.74219788513E+00  0.99704554848E+01 -0.13937033762E+02  0.17152310358E+02  0.51100000000E-03 0. -1.
        -11    1    3    3    0    0  0.48556025093E+01  0.81852250158E+01  0.23955646832E+02  0.25776884988E+02  0.51100000000E-03 0.  1.
        -12    1    3    3    0    0 -0.43094245754E+01  0.13638283154E+02 -0.79682688600E+01  0.16372758356E+02  0.00000000000E+00 0.  1.
</event>
<event>
 7    1  0.4489290E-013  0.5930195E+02  0.7816164E-02  0.1266605E+00
        -11   -1    0    0    0    0  0.00000000000E+00  0.00000000000E+00  0.45593999997E+02  0.45594000000E+02  0.51100000000E-03 0. -1.
         11   -1    0    0    0    0 -0.00000000000E+00 -0.00000000000E+00 -0.45593999997E+02  0.45594000000E+02  0.51100000000E-03 0.  1.
    9900012    2    1    2    0    0 -0.14605066601E+02 -0.21151207200E+02 -0.18868991094E+02  0.59301947229E+02  0.50000005838E+02 0.  0.
         12    1    1    2    0    0  0.14605066601E+02  0.21151207200E+02  0.18868991094E+02  0.31886052771E+02  0.00000000000E+00 0. -1.
         11    1    3    3    0    0  0.49659562878E+01 -0.96446835076E+01 -0.61466418518E+00  0.10865470728E+02  0.51100000000E-03 0. -1.
        -11    1    3    3    0    0 -0.30478696300E+02 -0.68262444992E+01 -0.68498138463E+01  0.31976061235E+02  0.51100000000E-03 0.  1.
        -12    1    3    3    0    0  0.10907673410E+02 -0.46802791932E+01 -0.11404513062E+02  0.16460415266E+02  0.00000000000E+00 0.  1.
</event>
<event>
 7    1  0.4489290E-013  0.5930194E+02  0.7816164E-02  0.1266605E+00
        -11   -1    0    0    0    0  0.00000000000E+00  0.00000000000E+00  0.45593999997E+02  0.45594000000E+02  0.51100000000E-03 0. -1.
         11   -1    0    0    0    0 -0.00000000000E+00 -0.00000000000E+00 -0.45593999997E+02  0.45594000000E+02  0.51100000000E-03 0.  1.
    9900012    2    1    2    0    0 -0.34210181418E+01  0.24873125752E+02 -0.19655661044E+02  0.59301940964E+02  0.49999994412E+02 0.  0.
         12    1    1    2    0    0  0.34210181418E+01 -0.24873125752E+02  0.19655661044E+02  0.31886059036E+02  0.00000000000E+00 0. -1.
         11    1    3    3    0    0  0.14406378372E+02  0.10757906793E+02  0.31496511095E+01  0.18253673568E+02  0.51100000000E-03 0. -1.
        -11    1    3    3    0    0 -0.47296266646E+01 -0.74587276465E+01 -0.48656613282E+01  0.10083483868E+02  0.51100000000E-03 0.  1.
         12    1    3    3    0    0 -0.13097769849E+02  0.21573946606E+02 -0.17939650825E+02  0.30964783528E+02  0.00000000000E+00 0. -1.
</event>
<event>
 7    1  0.4489290E-013  0.5930201E+02  0.7816164E-02  0.1266605E+00
        -11   -1    0    0    0    0  0.00000000000E+00  0.00000000000E+00  0.45593999997E+02  0.45594000000E+02  0.51100000000E-03 0. -1.
         11   -1    0    0    0    0 -0.00000000000E+00 -0.00000000000E+00 -0.45593999997E+02  0.45594000000E+02  0.51100000000E-03 0.  1.
    9900012    2    1    2    0    0 -0.31441167521E+02 -0.38598935457E+01  0.36429038250E+01  0.59302007127E+02  0.50000115077E+02 0.  0.
         12    1    1    2    0    0  0.31441167521E+02  0.38598935457E+01 -0.36429038250E+01  0.31885992873E+02  0.00000000000E+00 0. -1.
         11    1    3    3    0    0 -0.19757730099E+02 -0.19029398424E+02 -0.11411838060E+02  0.29710536030E+02  0.51100000000E-03 0. -1.
        -11    1    3    3    0    0 -0.14621189121E+02  0.66419927281E+01  0.70738273835E+01  0.17548056099E+02  0.51100000000E-03 0.  1.
         12    1    3    3    0    0  0.29377516994E+01  0.85275121504E+01  0.79809145017E+01  0.12043414998E+02  0.00000000000E+00 0. -1.
</event>
<event>
 7    1  0.4489290E-013  0.5930194E+02  0.7816164E-02  0.1266605E+00
        -11   -1    0    0    0    0  0.00000000000E+00  0.00000000000E+00  0.45593999997E+02  0.45594000000E+02  0.51100000000E-03 0.  1.
         11   -1    0    0    0    0 -0.00000000000E+00 -0.00000000000E+00 -0.45593999997E+02  0.45594000000E+02  0.51100000000E-03 0. -1.
    9900012    2    1    2    0    0 -0.21285120615E+02 -0.98155715138E+01  0.21617566963E+02  0.59301937133E+02  0.49999987427E+02 0.  0.
         12    1    1    2    0    0  0.21285120615E+02  0.98155715138E+01 -0.21617566963E+02  0.31886062867E+02  0.00000000000E+00 0. -1.
         11    1    3    3    0    0 -0.66532576014E+01  0.89908615112E+01 -0.50862520879E+01  0.12287041466E+02  0.51100000000E-03 0. -1.
        -11    1    3    3    0    0 -0.48003369764E+01 -0.13059168932E+02  0.31669604764E+02  0.34591169313E+02  0.51100000000E-03 0.  1.
        -12    1    3    3    0    0 -0.98315260368E+01 -0.57472640932E+01 -0.49657857133E+01  0.12423726354E+02  0.00000000000E+00 0.  1.
</event>
<event>
 7    1  0.4489290E-013  0.5930198E+02  0.7816164E-02  0.1266605E+00
        -11   -1    0    0    0    0  0.00000000000E+00  0.00000000000E+00  0.45593999997E+02  0.45594000000E+02  0.51100000000E-03 0.  1.
         11   -1    0    0    0    0 -0.00000000000E+00 -0.00000000000E+00 -0.45593999997E+02  0.45594000000E+02  0.51100000000E-03 0. -1.
    9900012    2    1    2    0    0 -0.31692175485E+02 -0.15809139976E+00  0.35070542913E+01  0.59301977833E+02  0.50000061653E+02 0.  0.
         12    1    1    2    0    0  0.31692175485E+02  0.15809139976E+00 -0.35070542913E+01  0.31886022167E+02  0.00000000000E+00 0. -1.
         11    1    3    3    0    0  0.34876015534E+01  0.43480173421E+01 -0.91575170858E+01  0.10720482211E+02  0.51100000000E-03 0. -1.
        -11    1    3    3    0    0 -0.39765845471E+02 -0.72630426691E+01  0.74394479507E+01  0.41102550297E+02  0.51100000000E-03 0.  1.
        -12    1    3    3    0    0  0.45860684331E+01  0.27569339272E+01  0.52251234264E+01  0.74789453249E+01  0.00000000000E+00 0.  1.
</event>
<event>
 7    1  0.4489290E-013  0.5930195E+02  0.7816164E-02  0.1266605E+00
        -11   -1    0    0    0    0  0.00000000000E+00  0.00000000000E+00  0.45593999997E+02  0.45594000000E+02  0.51100000000E-03 0. -1.
         11   -1    0    0    0    0 -0.00000000000E+00 -0.00000000000E+00 -0.45593999997E+02  0.45594000000E+02  0.51100000000E-03 0.  1.
    9900012    2    1    2    0    0 -0.39171612598E+01 -0.30826314834E+02 -0.71494506988E+01  0.59301945307E+02  0.50000002333E+02 0.  0.
         12    1    1    2    0    0  0.39171612598E+01  0.30826314834E+02  0.71494506988E+01  0.31886054693E+02  0.00000000000E+00 0. -1.
         11    1    3    3    0    0  0.35684911445E+01  0.62184815579E+01 -0.36949614767E+01  0.80657536851E+01  0.51100000000E-03 0. -1.
        -11    1    3    3    0    0  0.95960705481E+01 -0.30629278074E+02 -0.64673027696E+01  0.32742376986E+02  0.51100000000E-03 0.  1.
        -12    1    3    3    0    0 -0.17081722952E+02 -0.64155183181E+01  0.30128135474E+01  0.18493814636E+02  0.00000000000E+00 0.  1.
</event>
<event>
 7    1  0.4489290E-013  0.5930198E+02  0.7816164E-02  0.1266605E+00
        -11   -1    0    0    0    0  0.00000000000E+00  0.00000000000E+00  0.45593999997E+02  0.45594000000E+02  0.51100000000E-03 0.  1.
         11   -1    0    0    0    0 -0.00000000000E+00 -0.00000000000E+00 -0.45593999997E+02  0.45594000000E+02  0.51100000000E-03 0. -1.
    9900012    2    1    2    0    0 -0.31393250668E+02 -0.25300060086E+01  0.49780382007E+01  0.59301984535E+02  0.50000073875E+02 0.  0.
         12    1    1    2    0    0  0.31393250668E+02  0.25300060086E+01 -0.49780382007E+01  0.31886015465E+02  0.00000000000E+00 0. -1.
         11    1    3    3    0    0  0.48913622503E+01  0.14781786770E+02 -0.42146793914E+01  0.16130411260E+02  0.51100000000E-03 0.  1.
        -11    1    3    3    0    0 -0.31571313353E+02 -0.19173117825E+02  0.67612122530E+01  0.37550902324E+02  0.51100000000E-03 0. -1.
        -12    1    3    3    0    0 -0.47132995654E+01  0.18613250469E+01  0.24315053391E+01  0.56206709509E+01  0.00000000000E+00 0.  1.
</event>
<event>
 7    1  0.4489290E-013  0.5930193E+02  0.7816164E-02  0.1266605E+00
        -11   -1    0    0    0    0  0.00000000000E+00  0.00000000000E+00  0.45593999997E+02  0.45594000000E+02  0.51100000000E-03 0. -1.
         11   -1    0    0    0    0 -0.00000000000E+00 -0.00000000000E+00 -0.45593999997E+02  0.45594000000E+02  0.51100000000E-03 0.  1.
    9900012    2    1    2    0    0  0.10820859190E+02 -0.29531616892E+02  0.52454079189E+01  0.59301926329E+02  0.49999967723E+02 0.  0.
         12    1    1    2    0    0 -0.10820859190E+02  0.29531616892E+02 -0.52454079189E+01  0.31886073671E+02  0.00000000000E+00 0. -1.
         11    1    3    3    0    0  0.15428579664E+02  0.34298544637E+01  0.10729367259E+02  0.19102991759E+02  0.51100000000E-03 0. -1.
        -11    1    3    3    0    0 -0.64118407175E+01 -0.15454979857E+02  0.74922815650E+01  0.18333095404E+02  0.51100000000E-03 0.  1.
        -12    1    3    3    0    0  0.18041202431E+01 -0.17506491499E+02 -0.12976240905E+02  0.21865839167E+02  0.00000000000E+00 0.  1.
</event>
<event>
 7    1  0.4489290E-013  0.5930199E+02  0.7816164E-02  0.1266605E+00
        -11   -1    0    0    0    0  0.00000000000E+00  0.00000000000E+00  0.45593999997E+02  0.45594000000E+02  0.51100000000E-03 0. -1.
         11   -1    0    0    0    0 -0.00000000000E+00 -0.00000000000E+00 -0.45593999997E+02  0.45594000000E+02  0.51100000000E-03 0.  1.
    9900012    2    1    2    0    0 -0.18830212442E+02  0.28449927562E+01 -0.25574338139E+02  0.59301989656E+02  0.50000083215E+02 0.  0.
         12    1    1    2    0    0  0.18830212442E+02 -0.28449927562E+01  0.25574338139E+02  0.31886010344E+02  0.00000000000E+00 0. -1.
         11    1    3    3    0    0 -0.43809806027E+00 -0.14091818886E+02 -0.34888807352E+01  0.14523896808E+02  0.51100000000E-03 0. -1.
        -11    1    3    3    0    0 -0.20761514316E+02  0.18357511717E+02 -0.27284472946E+02  0.38890630971E+02  0.51100000000E-03 0.  1.
        -12    1    3    3    0    0  0.23693999342E+01 -0.14207000747E+01  0.51990155419E+01  0.58874618772E+01  0.00000000000E+00 0.  1.
</event>
<event>
 7    1  0.4489290E-013  0.5930172E+02  0.7816164E-02  0.1266606E+00
        -11   -1    0    0    0    0  0.00000000000E+00  0.00000000000E+00  0.45593999997E+02  0.45594000000E+02  0.51100000000E-03 0.  1.
         11   -1    0    0    0    0 -0.00000000000E+00 -0.00000000000E+00 -0.45593999997E+02  0.45594000000E+02  0.51100000000E-03 0. -1.
    9900012    2    1    2    0    0  0.30257138605E+02  0.84759110619E+01  0.54221317340E+01  0.59301717409E+02  0.49999586700E+02 0.  0.
         12    1    1    2    0    0 -0.30257138605E+02 -0.84759110619E+01 -0.54221317340E+01  0.31886282591E+02  0.00000000000E+00 0. -1.
         11    1    3    3    0    0 -0.11962629852E+02  0.79714136684E+01  0.65420212848E+01  0.15793859301E+02  0.51100000000E-03 0. -1.
        -11    1    3    3    0    0  0.20125949680E+02  0.47675335190E+01  0.20502881494E+01  0.20784294747E+02  0.51100000000E-03 0.  1.
         12    1    3    3    0    0  0.22093818778E+02 -0.42630361256E+01 -0.31701777002E+01  0.22723563362E+02  0.00000000000E+00 0. -1.
</event>
<event>
 7    1  0.4489290E-013  0.5930193E+02  0.7816164E-02  0.1266605E+00
        -11   -1    0    0    0    0  0.00000000000E+00  0.00000000000E+00  0.45593999997E+02  0.45594000000E+02  0.51100000000E-03 0.  1.
         11   -1    0    0    0    0 -0.00000000000E+00 -0.00000000000E+00 -0.45593999997E+02  0.45594000000E+02  0.51100000000E-03 0. -1.
    9900012    2    1    2    0    0 -0.83874109538E+01 -0.17887955799E+01  0.30711123771E+02  0.59301928191E+02  0.49999971118E+02 0.  0.
         12    1    1    2    0    0  0.83874109538E+01  0.17887955799E+01 -0.30711123771E+02  0.31886071809E+02  0.00000000000E+00 0. -1.
         11    1    3    3    0    0  0.66109211130E+01  0.10443734469E+01 -0.10823597786E+01  0.67798596453E+01  0.51100000000E-03 0. -1.
        -11    1    3    3    0    0 -0.17866182116E+02 -0.63499818306E+01  0.39365721832E+02  0.43694196276E+02  0.51100000000E-03 0.  1.
        -12    1    3    3    0    0  0.28678500493E+01  0.35168128038E+01 -0.75722382823E+01  0.88278722694E+01  0.00000000000E+00 0.  1.
</event>
<event>
 7    1  0.4489290E-013  0.5930194E+02  0.7816164E-02  0.1266605E+00
        -11   -1    0    0    0    0  0.00000000000E+00  0.00000000000E+00  0.45593999997E+02  0.45594000000E+02  0.51100000000E-03 0.  1.
         11   -1    0    0    0    0 -0.00000000000E+00 -0.00000000000E+00 -0.45593999997E+02  0.45594000000E+02  0.51100000000E-03 0. -1.
    9900012    2    1    2    0    0  0.17825545703E+01  0.77007323452E+01  0.30890810361E+02  0.59301938088E+02  0.49999989168E+02 0.  0.
         12    1    1    2    0    0 -0.17825545703E+01 -0.77007323452E+01 -0.30890810361E+02  0.31886061912E+02  0.00000000000E+00 0. -1.
         11    1    3    3    0    0  0.21488668706E+02 -0.12121907580E+01  0.24341152317E+02  0.32491906462E+02  0.51100000000E-03 0. -1.
        -11    1    3    3    0    0 -0.92300394212E+01  0.10016160494E+02 -0.12864174143E+01  0.13681080688E+02  0.51100000000E-03 0.  1.
         12    1    3    3    0    0 -0.10476074714E+02 -0.11032373906E+01  0.78360754586E+01  0.13128950939E+02  0.00000000000E+00 0. -1.
</event>
<event>
 7    1  0.4489290E-013  0.5930194E+02  0.7816164E-02  0.1266605E+00
        -11   -1    0    0    0    0  0.00000000000E+00  0.00000000000E+00  0.45593999997E+02  0.45594000000E+02  0.51100000000E-03 0.  1.
         11   -1    0    0    0    0 -0.00000000000E+00 -0.00000000000E+00 -0.45593999997E+02  0.45594000000E+02  0.51100000000E-03 0. -1.
    9900012    2    1    2    0    0  0.80833182362E+01  0.10485508754E+02  0.29007494220E+02  0.59301942727E+02  0.49999997627E+02 0.  0.
         12    1    1    2    0    0 -0.80833182362E+01 -0.10485508754E+02 -0.29007494220E+02  0.31886057273E+02  0.00000000000E+00 0. -1.
         11    1    3    3    0    0  0.14873246463E+02 -0.10386368630E+02  0.17610216820E+02  0.25282599755E+02  0.51100000000E-03 0. -1.
        -11    1    3    3    0    0 -0.22812744418E+01  0.23963122894E+02  0.33682189620E+01  0.24305973981E+02  0.51100000000E-03 0.  1.
        -12    1    3    3    0    0 -0.45086537849E+01 -0.30912455109E+01  0.80290584380E+01  0.97133689914E+01  0.00000000000E+00 0.  1.
</event>
<event>
 7    1  0.4489290E-013  0.5930206E+02  0.7816164E-02  0.1266604E+00
        -11   -1    0    0    0    0  0.00000000000E+00  0.00000000000E+00  0.45593999997E+02  0.45594000000E+02  0.51100000000E-03 0.  1.
         11   -1    0    0    0    0 -0.00000000000E+00 -0.00000000000E+00 -0.45593999997E+02  0.45594000000E+02  0.51100000000E-03 0. -1.
    9900012    2    1    2    0    0  0.14421658847E+02 -0.16814742236E+02  0.22934541912E+02  0.59302062456E+02  0.50000215984E+02 0.  0.
         12    1    1    2    0    0 -0.14421658847E+02  0.16814742236E+02 -0.22934541912E+02  0.31885937544E+02  0.00000000000E+00 0. -1.
         11    1    3    3    0    0  0.18884057843E+02 -0.22078271835E+02  0.13332844361E+02  0.31965957937E+02  0.51100000000E-03 0. -1.
        -11    1    3    3    0    0  0.54626509710E+01  0.46060259344E+01 -0.56625116430E+01  0.91170208351E+01  0.51100000000E-03 0.  1.
         12    1    3    3    0    0 -0.99250499671E+01  0.65750366490E+00  0.15264209194E+02  0.18219083683E+02  0.00000000000E+00 0. -1.
</event>
<event>
 7    1  0.4489290E-013  0.5930195E+02  0.7816164E-02  0.1266605E+00
        -11   -1    0    0    0    0  0.00000000000E+00  0.00000000000E+00  0.45593999997E+02  0.45594000000E+02  0.51100000000E-03 0.  1.
         11   -1    0    0    0    0 -0.00000000000E+00 -0.00000000000E+00 -0.45593999997E+02  0.45594000000E+02  0.51100000000E-03 0. -1.
    9900012    2    1    2    0    0  0.19699632874E+02 -0.13084711551E+02  0.21387730223E+02  0.59301949510E+02  0.50000009999E+02 0.  0.
         12    1    1    2    0    0 -0.19699632874E+02  0.13084711551E+02 -0.21387730223E+02  0.31886050490E+02  0.00000000000E+00 0. -1.
         11    1    3    3    0    0  0.35361121807E+02 -0.40313873804E+01  0.11572992678E+02  0.37424526443E+02  0.51100000000E-03 0. -1.
        -11    1    3    3    0    0 -0.77177496513E+01 -0.30931056983E+01  0.61044220220E+00  0.83368820601E+01  0.51100000000E-03 0.  1.
         12    1    3    3    0    0 -0.79437392822E+01 -0.59602184725E+01  0.92042953427E+01  0.13540541008E+02  0.00000000000E+00 0. -1.
</event>
<event>
 7    1  0.4489290E-013  0.5930197E+02  0.7816164E-02  0.1266605E+00
        -11   -1    0    0    0    0  0.00000000000E+00  0.00000000000E+00  0.45593999997E+02  0.45594000000E+02  0.51100000000E-03 0. -1.
         11   -1    0    0    0    0 -0.00000000000E+00 -0.00000000000E+00 -0.45593999997E+02  0.45594000000E+02  0.51100000000E-03 0.  1.
    9900012    2    1    2    0    0 -0.88374255627E+01 -0.29075255906E+02 -0.96565105219E+01  0.59301971837E+02  0.50000050717E+02 0.  0.
         12    1    1    2    0    0  0.88374255627E+01  0.29075255906E+02  0.96565105219E+01  0.31886028163E+02  0.00000000000E+00 0. -1.
         11    1    3    3    0    0  0.51365070222E+01 -0.14703096486E+02  0.13836953072E+02  0.20833291177E+02  0.51100000000E-03 0. -1.
        -11    1    3    3    0    0 -0.11146321755E+02  0.27928667396E+01 -0.15574469834E+02  0.19354707545E+02  0.51100000000E-03 0.  1.
        -12    1    3    3    0    0 -0.28276108304E+01 -0.17165026160E+02 -0.79189937605E+01  0.19113973115E+02  0.00000000000E+00 0.  1.
</event>
<event>
 7    1  0.4489290E-013  0.5930193E+02  0.7816164E-02  0.1266605E+00
        -11   -1    0    0    0    0  0.00000000000E+00  0.00000000000E+00  0.45593999997E+02  0.45594000000E+02  0.51100000000E-03 0.  1.
         11   -1    0    0    0    0 -0.00000000000E+00 -0.00000000000E+00 -0.45593999997E+02  0.45594000000E+02  0.51100000000E-03 0. -1.
    9900012    2    1    2    0    0 -0.23053851697E+02  0.15608032420E+02  0.15544480162E+02  0.59301927529E+02  0.49999969911E+02 0.  0.
         12    1    1    2    0    0  0.23053851697E+02 -0.15608032420E+02 -0.15544480162E+02  0.31886072471E+02  0.00000000000E+00 0. -1.
         11    1    3    3    0    0 -0.19365268443E+02 -0.38861689164E+01  0.16861688781E+02  0.25969837880E+02  0.51100000000E-03 0. -1.
        -11    1    3    3    0    0  0.91519511852E+01  0.16581115224E+02 -0.51349883358E+01  0.19622938059E+02  0.51100000000E-03 0.  1.
        -12    1    3    3    0    0 -0.12840534439E+02  0.29130861125E+01  0.38177797174E+01  0.13709151591E+02  0.00000000000E+00 0.  1.
</event>
<event>
 7    1  0.4489290E-013  0.5930184E+02  0.7816164E-02  0.1266605E+00
        -11   -1    0    0    0    0  0.00000000000E+00  0.00000000000E+00  0.45593999997E+02  0.45594000000E+02  0.51100000000E-03 0. -1.
         11   -1    0    0    0    0 -0.00000000000E+00 -0.00000000000E+00 -0.45593999997E+02  0.45594000000E+02  0.51100000000E-03 0.  1.
    9900012    2    1    2    0    0 -0.14896667935E+02 -0.15636565532E+02 -0.23458782390E+02  0.59301837352E+02  0.49999805448E+02 0.  0.
         12    1    1    2    0    0  0.14896667935E+02  0.15636565532E+02  0.23458782390E+02  0.31886162648E+02  0.00000000000E+00 0. -1.
         11    1    3    3    0    0 -0.19991849115E+02  0.79417935356E+01 -0.60036315151E+00  0.21519910589E+02  0.51100000000E-03 0. -1.
        -11    1    3    3    0    0  0.72143453907E+01 -0.38882935744E+01 -0.95145207394E+00  0.82505071145E+01  0.51100000000E-03 0.  1.
         12    1    3    3    0    0 -0.21191642112E+01 -0.19690065494E+02 -0.21906967164E+02  0.29531419648E+02  0.00000000000E+00 0. -1.
</event>
<event>
 7    1  0.4489290E-013  0.5930195E+02  0.7816164E-02  0.1266605E+00
        -11   -1    0    0    0    0  0.00000000000E+00  0.00000000000E+00  0.45593999997E+02  0.45594000000E+02  0.51100000000E-03 0. -1.
         11   -1    0    0    0    0 -0.00000000000E+00 -0.00000000000E+00 -0.45593999997E+02  0.45594000000E+02  0.51100000000E-03 0.  1.
    9900012    2    1    2    0    0  0.29965567952E+02  0.24404703410E+01 -0.10622115470E+02  0.59301945129E+02  0.50000002009E+02 0.  0.
         12    1    1    2    0    0 -0.29965567952E+02 -0.24404703410E+01  0.10622115470E+02  0.31886054871E+02  0.00000000000E+00 0. -1.
         11    1    3    3    0    0  0.31473571250E+02  0.85669749422E+01  0.38759844563E+01  0.32848165895E+02  0.51100000000E-03 0. -1.
        -11    1    3    3    0    0 -0.48350036615E+01 -0.11169045784E+02 -0.16834724454E+01  0.12286534250E+02  0.51100000000E-03 0.  1.
        -12    1    3    3    0    0  0.33270003636E+01  0.50425411828E+01 -0.12814627480E+02  0.14167244985E+02  0.00000000000E+00 0.  1.
</event>
<event>
 7    1  0.4489290E-013  0.5930192E+02  0.7816164E-02  0.1266605E+00
        -11   -1    0    0    0    0  0.00000000000E+00  0.00000000000E+00  0.45593999997E+02  0.45594000000E+02  0.51100000000E-03 0. -1.
         11   -1    0    0    0    0 -0.00000000000E+00 -0.00000000000E+00 -0.45593999997E+02  0.45594000000E+02  0.51100000000E-03 0.  1.
    9900012    2    1    2    0    0  0.61500687920E+01 -0.19466573964E+02 -0.24493900639E+02  0.59301921273E+02  0.49999958501E+02 0.  0.
         12    1    1    2    0    0 -0.61500687920E+01  0.19466573964E+02  0.24493900639E+02  0.31886078727E+02  0.00000000000E+00 0. -1.
         11    1    3    3    0    0  0.83937953866E+01 -0.21060406931E+02  0.73950966526E+01  0.23847096173E+02  0.51100000000E-03 0. -1.
        -11    1    3    3    0    0  0.17930710722E+01 -0.36873351402E+01 -0.26724155681E+02  0.27036864489E+02  0.51100000000E-03 0.  1.
         12    1    3    3    0    0 -0.40367976667E+01  0.52811681075E+01 -0.51648416114E+01  0.84179606112E+01  0.00000000000E+00 0. -1.
</event>
<event>
 7    1  0.4489290E-013  0.5930195E+02  0.7816164E-02  0.1266605E+00
        -11   -1    0    0    0    0  0.00000000000E+00  0.00000000000E+00  0.45593999997E+02  0.45594000000E+02  0.51100000000E-03 0. -1.
         11   -1    0    0    0    0 -0.00000000000E+00 -0.00000000000E+00 -0.45593999997E+02  0.45594000000E+02  0.51100000000E-03 0.  1.
    9900012    2    1    2    0    0 -0.72081508247E+01 -0.23532577877E+02 -0.20272648092E+02  0.59301954141E+02  0.50000018444E+02 0.  0.
         12    1    1    2    0    0  0.72081508247E+01  0.23532577877E+02  0.20272648092E+02  0.31886045859E+02  0.00000000000E+00 0. -1.
         11    1    3    3    0    0 -0.34192122713E+01 -0.16855357971E+02  0.12811126571E+02  0.21445723796E+02  0.51100000000E-03 0. -1.
        -11    1    3    3    0    0  0.36109006430E+01  0.39942668918E+01 -0.87452299536E+01  0.10269947354E+02  0.51100000000E-03 0.  1.
         12    1    3    3    0    0 -0.73998391964E+01 -0.10671486798E+02 -0.24338544710E+02  0.27586282990E+02  0.00000000000E+00 0. -1.
</event>
<event>
 7    1  0.4489290E-013  0.5930199E+02  0.7816164E-02  0.1266605E+00
        -11   -1    0    0    0    0  0.00000000000E+00  0.00000000000E+00  0.45593999997E+02  0.45594000000E+02  0.51100000000E-03 0.  1.
         11   -1    0    0    0    0 -0.00000000000E+00 -0.00000000000E+00 -0.45593999997E+02  0.45594000000E+02  0.51100000000E-03 0. -1.
    9900012    2    1    2    0    0 -0.10600245963E+02 -0.21516968087E+01  0.29995380640E+02  0.59301986242E+02  0.50000076989E+02 0.  0.
         12    1    1    2    0    0  0.10600245963E+02  0.21516968087E+01 -0.29995380640E+02  0.31886013758E+02  0.00000000000E+00 0. -1.
         11    1    3    3    0    0  0.77717844782E+01  0.12801550722E+02  0.28496984601E+02  0.32192521903E+02  0.51100000000E-03 0. -1.
        -11    1    3    3    0    0 -0.80117546798E+01 -0.36209462314E+01  0.65299662797E+01  0.10951708750E+02  0.51100000000E-03 0.  1.
         12    1    3    3    0    0 -0.10360275762E+02 -0.11332301299E+02 -0.50315702409E+01  0.16157755589E+02  0.00000000000E+00 0. -1.
</event>
<event>
 7    1  0.4489290E-013  0.5930193E+02  0.7816164E-02  0.1266605E+00
        -11   -1    0    0    0    0  0.00000000000E+00  0.00000000000E+00  0.45593999997E+02  0.45594000000E+02  0.51100000000E-03 0. -1.
         11   -1    0    0    0    0 -0.00000000000E+00 -0.00000000000E+00 -0.45593999997E+02  0.45594000000E+02  0.51100000000E-03 0.  1.
    9900012    2    1    2    0    0 -0.31612979292E+02  0.19841101758E+01  0.36611728960E+01  0.59301931884E+02  0.49999977852E+02 0.  0.
         12    1    1    2    0    0  0.31612979292E+02 -0.19841101758E+01 -0.36611728960E+01  0.31886068116E+02  0.00000000000E+00 0. -1.
         11    1    3    3    0    0  0.69181037265E+00 -0.68621828629E+01 -0.12373815570E+02  0.14166138050E+02  0.51100000000E-03 0. -1.
        -11    1    3    3    0    0 -0.25724446014E+02  0.14036647438E+02  0.27573177969E+01  0.29434289455E+02  0.51100000000E-03 0.  1.
         12    1    3    3    0    0 -0.65803436513E+01 -0.51903543994E+01  0.13277670669E+02  0.15701504379E+02  0.00000000000E+00 0. -1.
</event>
<event>
 7    1  0.4489290E-013  0.5930201E+02  0.7816164E-02  0.1266605E+00
        -11   -1    0    0    0    0  0.00000000000E+00  0.00000000000E+00  0.45593999997E+02  0.45594000000E+02  0.51100000000E-03 0.  1.
         11   -1    0    0    0    0 -0.00000000000E+00 -0.00000000000E+00 -0.45593999997E+02  0.45594000000E+02  0.51100000000E-03 0. -1.
    9900012    2    1    2    0    0  0.31810404179E+01 -0.69768755764E+01  0.30950289806E+02  0.59302011698E+02  0.50000123414E+02 0.  0.
         12    1    1    2    0    0 -0.31810404179E+01  0.69768755764E+01 -0.30950289806E+02  0.31885988302E+02  0.00000000000E+00 0. -1.
         11    1    3    3    0    0 -0.10748416786E+01  0.11425572719E+02  0.63094713804E+01  0.13096122554E+02  0.51100000000E-03 0. -1.
        -11    1    3    3    0    0 -0.63807703531E+01 -0.14127888308E+02 -0.34367238246E+01  0.15878366706E+02  0.51100000000E-03 0.  1.
        -12    1    3    3    0    0  0.10636652450E+02 -0.42745599873E+01  0.28077542250E+02  0.30327522438E+02  0.00000000000E+00 0.  1.
</event>
<event>
 7    1  0.4489290E-013  0.5930188E+02  0.7816164E-02  0.1266605E+00
        -11   -1    0    0    0    0  0.00000000000E+00  0.00000000000E+00  0.45593999997E+02  0.45594000000E+02  0.51100000000E-03 0. -1.
         11   -1    0    0    0    0 -0.00000000000E+00 -0.00000000000E+00 -0.45593999997E+02  0.45594000000E+02  0.51100000000E-03 0.  1.
    9900012    2    1    2    0    0 -0.83866361958E+01 -0.24420334839E+02 -0.18709261751E+02  0.59301876128E+02  0.49999876167E+02 0.  0.
         12    1    1    2    0    0  0.83866361958E+01  0.24420334839E+02  0.18709261751E+02  0.31886123872E+02  0.00000000000E+00 0. -1.
         11    1    3    3    0    0 -0.11893289453E+02  0.76946198516E+01 -0.94315177920E+01  0.17017962181E+02  0.51100000000E-03 0. -1.
        -11    1    3    3    0    0  0.91965056103E+01 -0.26997434356E+02 -0.15464139816E+02  0.32443439981E+02  0.51100000000E-03 0.  1.
         12    1    3    3    0    0 -0.56898523530E+01 -0.51175203342E+01  0.61863958574E+01  0.98404739660E+01  0.00000000000E+00 0. -1.
</event>
<event>
 7    1  0.4489290E-013  0.5930194E+02  0.7816164E-02  0.1266605E+00
        -11   -1    0    0    0    0  0.00000000000E+00  0.00000000000E+00  0.45593999997E+02  0.45594000000E+02  0.51100000000E-03 0.  1.
         11   -1    0    0    0    0 -0.00000000000E+00 -0.00000000000E+00 -0.45593999997E+02  0.45594000000E+02  0.51100000000E-03 0. -1.
    9900012    2    1    2    0    0 -0.13243365020E+02  0.13299645465E+02  0.25777002362E+02  0.59301935061E+02  0.49999983647E+02 0.  0.
         12    1    1    2    0    0  0.13243365020E+02 -0.13299645465E+02 -0.25777002362E+02  0.31886064939E+02  0.00000000000E+00 0. -1.
         11    1    3    3    0    0 -0.18396453402E+02  0.24819990859E+02  0.21138552601E+01  0.30966592133E+02  0.51100000000E-03 0. -1.
        -11    1    3    3    0    0  0.17379195742E+01  0.10686755044E+01  0.62754450001E+01  0.65987606405E+01  0.51100000000E-03 0.  1.
         12    1    3    3    0    0  0.34151688081E+01 -0.12589020898E+02  0.17387702102E+02  0.21736582288E+02  0.00000000000E+00 0. -1.
</event>
<event>
 7    1  0.4489290E-013  0.5930196E+02  0.7816164E-02  0.1266605E+00
        -11   -1    0    0    0    0  0.00000000000E+00  0.00000000000E+00  0.45593999997E+02  0.45594000000E+02  0.51100000000E-03 0. -1.
         11   -1    0    0    0    0 -0.00000000000E+00 -0.00000000000E+00 -0.45593999997E+02  0.45594000000E+02  0.51100000000E-03 0.  1.
    9900012    2    1    2    0    0 -0.23007923504E+01  0.21258819204E+02 -0.23653506797E+02  0.59301961940E+02  0.50000032668E+02 0.  0.
         12    1    1    2    0    0  0.23007923504E+01 -0.21258819204E+02  0.23653506797E+02  0.31886038060E+02  0.00000000000E+00 0. -1.
         11    1    3    3    0    0  0.15806006262E+02  0.59428869053E+01 -0.11076798943E+02  0.20195128468E+02  0.51100000000E-03 0. -1.
        -11    1    3    3    0    0 -0.20114502419E+02  0.21196466290E+02 -0.55801630699E+01  0.29749312780E+02  0.51100000000E-03 0.  1.
        -12    1    3    3    0    0  0.20077038065E+01 -0.58805339914E+01 -0.69965447837E+01  0.93575206924E+01  0.00000000000E+00 0.  1.
</event>
<event>
 7    1  0.4489290E-013  0.5930196E+02  0.7816164E-02  0.1266605E+00
        -11   -1    0    0    0    0  0.00000000000E+00  0.00000000000E+00  0.45593999997E+02  0.45594000000E+02  0.51100000000E-03 0.  1.
         11   -1    0    0    0    0 -0.00000000000E+00 -0.00000000000E+00 -0.45593999997E+02  0.45594000000E+02  0.51100000000E-03 0. -1.
    9900012    2    1    2    0    0 -0.20874570123E+02  0.23718581318E+02  0.42896019110E+01  0.59301961329E+02  0.50000031554E+02 0.  0.
         12    1    1    2    0    0  0.20874570123E+02 -0.23718581318E+02 -0.42896019110E+01  0.31886038671E+02  0.00000000000E+00 0. -1.
         11    1    3    3    0    0  0.14869254254E+01  0.24580869801E+02  0.16356652781E+02  0.29562986958E+02  0.51100000000E-03 0. -1.
        -11    1    3    3    0    0 -0.23789319896E+02 -0.51246208678E+00 -0.75117887413E+01  0.24952381226E+02  0.51100000000E-03 0.  1.
         12    1    3    3    0    0  0.14278243472E+01 -0.34982639711E+00 -0.45552621289E+01  0.47865931452E+01  0.00000000000E+00 0. -1.
</event>
<event>
 7    1  0.4489290E-013  0.5930199E+02  0.7816164E-02  0.1266605E+00
        -11   -1    0    0    0    0  0.00000000000E+00  0.00000000000E+00  0.45593999997E+02  0.45594000000E+02  0.51100000000E-03 0. -1.
         11   -1    0    0    0    0 -0.00000000000E+00 -0.00000000000E+00 -0.45593999997E+02  0.45594000000E+02  0.51100000000E-03 0.  1.
    9900012    2    1    2    0    0 -0.21150429995E+02 -0.23236675382E+02 -0.54252918718E+01  0.59301991099E+02  0.50000085846E+02 0.  0.
         12    1    1    2    0    0  0.21150429995E+02  0.23236675382E+02  0.54252918718E+01  0.31886008901E+02  0.00000000000E+00 0. -1.
         11    1    3    3    0    0  0.91560387356E+01  0.22690671766E+01  0.56321547717E+01  0.10986486190E+02  0.51100000000E-03 0. -1.
        -11    1    3    3    0    0 -0.24505751125E+02 -0.52776277038E+01 -0.12496338517E+01  0.25098740554E+02  0.51100000000E-03 0.  1.
        -12    1    3    3    0    0 -0.58007176051E+01 -0.20228114855E+02 -0.98078127918E+01  0.23216764354E+02  0.00000000000E+00 0.  1.
</event>
<event>
 7    1  0.4489290E-013  0.5930195E+02  0.7816164E-02  0.1266605E+00
        -11   -1    0    0    0    0  0.00000000000E+00  0.00000000000E+00  0.45593999997E+02  0.45594000000E+02  0.51100000000E-03 0. -1.
         11   -1    0    0    0    0 -0.00000000000E+00 -0.00000000000E+00 -0.45593999997E+02  0.45594000000E+02  0.51100000000E-03 0.  1.
    9900012    2    1    2    0    0 -0.14524689306E+02 -0.15271114457E+02 -0.23927948812E+02  0.59301948653E+02  0.50000008435E+02 0.  0.
         12    1    1    2    0    0  0.14524689306E+02  0.15271114457E+02  0.23927948812E+02  0.31886051347E+02  0.00000000000E+00 0. -1.
         11    1    3    3    0    0 -0.17356131958E+02  0.32644567020E+01 -0.13457330377E+02  0.22203417197E+02  0.51100000000E-03 0. -1.
        -11    1    3    3    0    0  0.87189936675E+01 -0.18836926826E+02 -0.18042432017E+02  0.27502363829E+02  0.51100000000E-03 0.  1.
         12    1    3    3    0    0 -0.58875510150E+01  0.30135566740E+00  0.75718135823E+01  0.95961676266E+01  0.00000000000E+00 0. -1.
</event>
<event>
 7    1  0.4489290E-013  0.5930194E+02  0.7816164E-02  0.1266605E+00
        -11   -1    0    0    0    0  0.00000000000E+00  0.00000000000E+00  0.45593999997E+02  0.45594000000E+02  0.51100000000E-03 0.  1.
         11   -1    0    0    0    0 -0.00000000000E+00 -0.00000000000E+00 -0.45593999997E+02  0.45594000000E+02  0.51100000000E-03 0. -1.
    9900012    2    1    2    0    0 -0.10069593835E+02  0.89885124254E+01  0.28888248230E+02  0.59301937819E+02  0.49999988677E+02 0.  0.
         12    1    1    2    0    0  0.10069593835E+02 -0.89885124254E+01 -0.28888248230E+02  0.31886062181E+02  0.00000000000E+00 0. -1.
         11    1    3    3    0    0 -0.16568361539E+02  0.25175746311E+01  0.38456204063E+02  0.41949117003E+02  0.51100000000E-03 0.  1.
        -11    1    3    3    0    0  0.92484949192E+01  0.35312241547E+01 -0.88195944127E+01  0.13258561316E+02  0.51100000000E-03 0. -1.
        -12    1    3    3    0    0 -0.27497272146E+01  0.29397136396E+01 -0.74836142076E+00  0.40942595000E+01  0.00000000000E+00 0.  1.
</event>
<event>
 7    1  0.4489290E-013  0.5930194E+02  0.7816164E-02  0.1266605E+00
        -11   -1    0    0    0    0  0.00000000000E+00  0.00000000000E+00  0.45593999997E+02  0.45594000000E+02  0.51100000000E-03 0.  1.
         11   -1    0    0    0    0 -0.00000000000E+00 -0.00000000000E+00 -0.45593999997E+02  0.45594000000E+02  0.51100000000E-03 0. -1.
    9900012    2    1    2    0    0 -0.29755795429E+02 -0.25965641592E+01  0.11161150540E+02  0.59301940531E+02  0.49999993623E+02 0.  0.
         12    1    1    2    0    0  0.29755795429E+02  0.25965641592E+01 -0.11161150540E+02  0.31886059469E+02  0.00000000000E+00 0. -1.
         11    1    3    3    0    0 -0.27384434674E+01 -0.15855377189E+02  0.93270144085E+01  0.18597990657E+02  0.51100000000E-03 0. -1.
        -11    1    3    3    0    0 -0.26615278704E+02  0.92266622688E+00 -0.42080410486E+01  0.26961676194E+02  0.51100000000E-03 0.  1.
         12    1    3    3    0    0 -0.40207325817E+00  0.12336146803E+02  0.60421771801E+01  0.13742273681E+02  0.00000000000E+00 0. -1.
</event>
<event>
 7    1  0.4489290E-013  0.5930194E+02  0.7816164E-02  0.1266605E+00
        -11   -1    0    0    0    0  0.00000000000E+00  0.00000000000E+00  0.45593999997E+02  0.45594000000E+02  0.51100000000E-03 0.  1.
         11   -1    0    0    0    0 -0.00000000000E+00 -0.00000000000E+00 -0.45593999997E+02  0.45594000000E+02  0.51100000000E-03 0. -1.
    9900012    2    1    2    0    0 -0.17739376478E+01 -0.30194100399E+02  0.10094080185E+02  0.59301937082E+02  0.49999987332E+02 0.  0.
         12    1    1    2    0    0  0.17739376478E+01  0.30194100399E+02 -0.10094080185E+02  0.31886062918E+02  0.00000000000E+00 0. -1.
         11    1    3    3    0    0  0.68774206828E+00 -0.12634891877E+02 -0.17630473385E+02  0.21701315027E+02  0.51100000000E-03 0. -1.
        -11    1    3    3    0    0 -0.99989656035E+01 -0.62391150319E+01  0.12244491014E+02  0.16995100175E+02  0.51100000000E-03 0.  1.
         12    1    3    3    0    0  0.75372858875E+01 -0.11320093490E+02  0.15480062556E+02  0.20605521879E+02  0.00000000000E+00 0. -1.
</event>
<event>
 7    1  0.4489290E-013  0.5930195E+02  0.7816164E-02  0.1266605E+00
        -11   -1    0    0    0    0  0.00000000000E+00  0.00000000000E+00  0.45593999997E+02  0.45594000000E+02  0.51100000000E-03 0.  1.
         11   -1    0    0    0    0 -0.00000000000E+00 -0.00000000000E+00 -0.45593999997E+02  0.45594000000E+02  0.51100000000E-03 0. -1.
    9900012    2    1    2    0    0  0.71095046092E+00 -0.28013171149E+02  0.15214366417E+02  0.59301950483E+02  0.50000011772E+02 0.  0.
         12    1    1    2    0    0 -0.71095046092E+00  0.28013171149E+02 -0.15214366417E+02  0.31886049517E+02  0.00000000000E+00 0. -1.
         11    1    3    3    0    0 -0.24082132298E+01  0.72011988967E+01  0.15887185370E+02  0.17608504075E+02  0.51100000000E-03 0.  1.
        -11    1    3    3    0    0  0.70441472277E+01 -0.21723192302E+02 -0.98933183629E+01  0.24887644373E+02  0.51100000000E-03 0. -1.
        -12    1    3    3    0    0 -0.39249835370E+01 -0.13491177743E+02  0.92204994095E+01  0.16805802035E+02  0.00000000000E+00 0.  1.
</event>
<event>
 7    1  0.4489290E-013  0.5930195E+02  0.7816164E-02  0.1266605E+00
        -11   -1    0    0    0    0  0.00000000000E+00  0.00000000000E+00  0.45593999997E+02  0.45594000000E+02  0.51100000000E-03 0. -1.
         11   -1    0    0    0    0 -0.00000000000E+00 -0.00000000000E+00 -0.45593999997E+02  0.45594000000E+02  0.51100000000E-03 0.  1.
    9900012    2    1    2    0    0  0.11787686888E+02 -0.19566268557E+02 -0.22247067442E+02  0.59301946039E+02  0.50000003668E+02 0.  0.
         12    1    1    2    0    0 -0.11787686888E+02  0.19566268557E+02  0.22247067442E+02  0.31886053961E+02  0.00000000000E+00 0. -1.
         11    1    3    3    0    0  0.14686188659E+02 -0.47084894244E+01  0.79506588964E+01  0.17351282002E+02  0.51100000000E-03 0. -1.
        -11    1    3    3    0    0  0.13816809797E+01 -0.39865632180E+01 -0.29969430224E+02  0.30264971119E+02  0.51100000000E-03 0.  1.
         12    1    3    3    0    0 -0.42801827502E+01 -0.10871215915E+02 -0.22829611479E+00  0.11685692917E+02  0.00000000000E+00 0. -1.
</event>
<event>
 7    1  0.4489290E-013  0.5930194E+02  0.7816164E-02  0.1266605E+00
        -11   -1    0    0    0    0  0.00000000000E+00  0.00000000000E+00  0.45593999997E+02  0.45594000000E+02  0.51100000000E-03 0.  1.
         11   -1    0    0    0    0 -0.00000000000E+00 -0.00000000000E+00 -0.45593999997E+02  0.45594000000E+02  0.51100000000E-03 0. -1.
    9900012    2    1    2    0    0  0.68083548311E+01  0.95462965208E+00  0.31136082168E+02  0.59301943078E+02  0.49999998267E+02 0.  0.
         12    1    1    2    0    0 -0.68083548311E+01 -0.95462965208E+00 -0.31136082168E+02  0.31886056922E+02  0.00000000000E+00 0. -1.
         11    1    3    3    0    0 -0.28690966085E+01 -0.15507225432E+02  0.60180887435E+00  0.15781886140E+02  0.51100000000E-03 0. -1.
        -11    1    3    3    0    0  0.17463721956E+02  0.78622779171E+01  0.16238175698E+02  0.25109268186E+02  0.51100000000E-03 0.  1.
         12    1    3    3    0    0 -0.77862705162E+01  0.85995771668E+01  0.14296097595E+02  0.18410788752E+02  0.00000000000E+00 0. -1.
</event>
<event>
 7    1  0.4489290E-013  0.5930193E+02  0.7816164E-02  0.1266605E+00
        -11   -1    0    0    0    0  0.00000000000E+00  0.00000000000E+00  0.45593999997E+02  0.45594000000E+02  0.51100000000E-03 0.  1.
         11   -1    0    0    0    0 -0.00000000000E+00 -0.00000000000E+00 -0.45593999997E+02  0.45594000000E+02  0.51100000000E-03 0. -1.
    9900012    2    1    2    0    0  0.77361187220E+01  0.20002238831E+02  0.23596274999E+02  0.59301932745E+02  0.49999979424E+02 0.  0.
         12    1    1    2    0    0 -0.77361187220E+01 -0.20002238831E+02 -0.23596274999E+02  0.31886067255E+02  0.00000000000E+00 0. -1.
         11    1    3    3    0    0 -0.13627499658E+02  0.15673703116E+02  0.73573895613E+01  0.22034175676E+02  0.51100000000E-03 0. -1.
        -11    1    3    3    0    0  0.16877795333E+02 -0.78813749785E+01  0.15510587051E+02  0.24239520577E+02  0.51100000000E-03 0.  1.
         12    1    3    3    0    0  0.44858230471E+01  0.12209910694E+02  0.72829838605E+00  0.13028236493E+02  0.00000000000E+00 0. -1.
</event>
<event>
 7    1  0.4489290E-013  0.5930195E+02  0.7816164E-02  0.1266605E+00
        -11   -1    0    0    0    0  0.00000000000E+00  0.00000000000E+00  0.45593999997E+02  0.45594000000E+02  0.51100000000E-03 0.  1.
         11   -1    0    0    0    0 -0.00000000000E+00 -0.00000000000E+00 -0.45593999997E+02  0.45594000000E+02  0.51100000000E-03 0. -1.
    9900012    2    1    2    0    0  0.13836302674E+02 -0.27138660246E+02  0.94217932953E+01  0.59301947555E+02  0.50000006432E+02 0.  0.
         12    1    1    2    0    0 -0.13836302674E+02  0.27138660246E+02 -0.94217932953E+01  0.31886052445E+02  0.00000000000E+00 0. -1.
         11    1    3    3    0    0 -0.10093570247E+01  0.50234887901E+01  0.90307652394E+01  0.10383109472E+02  0.51100000000E-03 0. -1.
        -11    1    3    3    0    0 -0.50146237811E+01 -0.28117758543E+02  0.16734345507E+01  0.28610403364E+02  0.51100000000E-03 0.  1.
        -12    1    3    3    0    0  0.19860283479E+02 -0.40443904932E+01 -0.12824064949E+01  0.20308434720E+02  0.00000000000E+00 0.  1.
</event>
<event>
 7    1  0.4489290E-013  0.5930196E+02  0.7816164E-02  0.1266605E+00
        -11   -1    0    0    0    0  0.00000000000E+00  0.00000000000E+00  0.45593999997E+02  0.45594000000E+02  0.51100000000E-03 0.  1.
         11   -1    0    0    0    0 -0.00000000000E+00 -0.00000000000E+00 -0.45593999997E+02  0.45594000000E+02  0.51100000000E-03 0. -1.
    9900012    2    1    2    0    0  0.28361469814E+01  0.71883985181E+00  0.31751520687E+02  0.59301960322E+02  0.50000029716E+02 0.  0.
         12    1    1    2    0    0 -0.28361469814E+01 -0.71883985181E+00 -0.31751520687E+02  0.31886039678E+02  0.00000000000E+00 0. -1.
         11    1    3    3    0    0 -0.16980077449E+02  0.14577709590E+02  0.22023077097E+02  0.31398225622E+02  0.51100000000E-03 0. -1.
        -11    1    3    3    0    0  0.45917413922E+01 -0.18538462069E+01  0.66211426274E+01  0.82680326998E+01  0.51100000000E-03 0.  1.
         12    1    3    3    0    0  0.15224483038E+02 -0.12005023531E+02  0.31073009621E+01  0.19635702000E+02  0.00000000000E+00 0. -1.
</event>
<event>
 7    1  0.4489290E-013  0.5930190E+02  0.7816164E-02  0.1266605E+00
        -11   -1    0    0    0    0  0.00000000000E+00  0.00000000000E+00  0.45593999997E+02  0.45594000000E+02  0.51100000000E-03 0. -1.
         11   -1    0    0    0    0 -0.00000000000E+00 -0.00000000000E+00 -0.45593999997E+02  0.45594000000E+02  0.51100000000E-03 0.  1.
    9900012    2    1    2    0    0  0.29033478991E+02  0.88757037039E+01 -0.97469082080E+01  0.59301902118E+02  0.49999923566E+02 0.  0.
         12    1    1    2    0    0 -0.29033478991E+02 -0.88757037039E+01  0.97469082080E+01  0.31886097882E+02  0.00000000000E+00 0. -1.
         11    1    3    3    0    0 -0.72510895966E+01 -0.76982681586E+01  0.44771258913E+01  0.11484175612E+02  0.51100000000E-03 0. -1.
        -11    1    3    3    0    0  0.32769420618E+02  0.56039994230E+01 -0.14559348424E+02  0.36293447948E+02  0.51100000000E-03 0.  1.
        -12    1    3    3    0    0  0.35151479692E+01  0.10969972440E+02  0.33531432481E+00  0.11524278557E+02  0.00000000000E+00 0.  1.
</event>
<event>
 7    1  0.4489290E-013  0.5930193E+02  0.7816164E-02  0.1266605E+00
        -11   -1    0    0    0    0  0.00000000000E+00  0.00000000000E+00  0.45593999997E+02  0.45594000000E+02  0.51100000000E-03 0.  1.
         11   -1    0    0    0    0 -0.00000000000E+00 -0.00000000000E+00 -0.45593999997E+02  0.45594000000E+02  0.51100000000E-03 0. -1.
    9900012    2    1    2    0    0  0.20975245363E+02 -0.22764494712E+02  0.76510480806E+01  0.59301926640E+02  0.49999968290E+02 0.  0.
         12    1    1    2    0    0 -0.20975245363E+02  0.22764494712E+02 -0.76510480806E+01  0.31886073360E+02  0.00000000000E+00 0. -1.
         11    1    3    3    0    0  0.13296272542E+02 -0.53746475630E+01  0.22541529649E+00  0.14343239252E+02  0.51100000000E-03 0. -1.
        -11    1    3    3    0    0  0.27371951796E+01 -0.30316484572E+02  0.39956713928E+01  0.30700926117E+02  0.51100000000E-03 0.  1.
        -12    1    3    3    0    0  0.49417776419E+01  0.12926637423E+02  0.34299613913E+01  0.14257761271E+02  0.00000000000E+00 0.  1.
</event>
<event>
 7    1  0.4489290E-013  0.5930194E+02  0.7816164E-02  0.1266605E+00
        -11   -1    0    0    0    0  0.00000000000E+00  0.00000000000E+00  0.45593999997E+02  0.45594000000E+02  0.51100000000E-03 0.  1.
         11   -1    0    0    0    0 -0.00000000000E+00 -0.00000000000E+00 -0.45593999997E+02  0.45594000000E+02  0.51100000000E-03 0. -1.
    9900012    2    1    2    0    0  0.26454352014E+02 -0.17628878832E+02  0.24719283043E+01  0.59301944444E+02  0.50000000760E+02 0.  0.
         12    1    1    2    0    0 -0.26454352014E+02  0.17628878832E+02 -0.24719283043E+01  0.31886055556E+02  0.00000000000E+00 0. -1.
         11    1    3    3    0    0 -0.34939244518E+01 -0.66715207156E+01 -0.11165205414E+02  0.13467683874E+02  0.51100000000E-03 0. -1.
        -11    1    3    3    0    0  0.17086717800E+02 -0.20769891122E+00  0.21380251276E+02  0.27369950839E+02  0.51100000000E-03 0.  1.
        -12    1    3    3    0    0  0.12861558666E+02 -0.10749659205E+02 -0.77431175579E+01  0.18464309731E+02  0.00000000000E+00 0.  1.
</event>
<event>
 7    1  0.4489290E-013  0.5930190E+02  0.7816164E-02  0.1266605E+00
        -11   -1    0    0    0    0  0.00000000000E+00  0.00000000000E+00  0.45593999997E+02  0.45594000000E+02  0.51100000000E-03 0. -1.
         11   -1    0    0    0    0 -0.00000000000E+00 -0.00000000000E+00 -0.45593999997E+02  0.45594000000E+02  0.51100000000E-03 0.  1.
    9900012    2    1    2    0    0 -0.26038966774E+02 -0.16226284581E+02  0.86835020593E+01  0.59301900992E+02  0.49999921512E+02 0.  0.
         12    1    1    2    0    0  0.26038966774E+02  0.16226284581E+02 -0.86835020593E+01  0.31886099008E+02  0.00000000000E+00 0. -1.
         11    1    3    3    0    0 -0.18836603431E+02  0.48413603599E+01  0.21064098151E+02  0.28669716254E+02  0.51100000000E-03 0.  1.
        -11    1    3    3    0    0 -0.79121382428E+01 -0.21833936906E+02 -0.57563557738E+01  0.23926102157E+02  0.51100000000E-03 0. -1.
         12    1    3    3    0    0  0.70977489935E+00  0.76629196560E+00 -0.66242403175E+01  0.67060825799E+01  0.00000000000E+00 0. -1.
</event>
<event>
 7    1  0.4489290E-013  0.5930196E+02  0.7816164E-02  0.1266605E+00
        -11   -1    0    0    0    0  0.00000000000E+00  0.00000000000E+00  0.45593999997E+02  0.45594000000E+02  0.51100000000E-03 0.  1.
         11   -1    0    0    0    0 -0.00000000000E+00 -0.00000000000E+00 -0.45593999997E+02  0.45594000000E+02  0.51100000000E-03 0. -1.
    9900012    2    1    2    0    0  0.41169025293E+01 -0.31579029218E+02 -0.15923210847E+01  0.59301961374E+02  0.50000031636E+02 0.  0.
         12    1    1    2    0    0 -0.41169025293E+01  0.31579029218E+02  0.15923210847E+01  0.31886038626E+02  0.00000000000E+00 0. -1.
         11    1    3    3    0    0 -0.40115314626E+01 -0.14699702166E+02 -0.54605302088E+01  0.16186136626E+02  0.51100000000E-03 0. -1.
        -11    1    3    3    0    0 -0.98264698044E+00  0.11842463416E+02  0.51617412012E+01  0.12955813650E+02  0.51100000000E-03 0.  1.
        -12    1    3    3    0    0  0.91110809723E+01 -0.28721790468E+02 -0.12935320772E+01  0.30160011098E+02  0.00000000000E+00 0.  1.
</event>
<event>
 7    1  0.4489290E-013  0.5930195E+02  0.7816164E-02  0.1266605E+00
        -11   -1    0    0    0    0  0.00000000000E+00  0.00000000000E+00  0.45593999997E+02  0.45594000000E+02  0.51100000000E-03 0.  1.
         11   -1    0    0    0    0 -0.00000000000E+00 -0.00000000000E+00 -0.45593999997E+02  0.45594000000E+02  0.51100000000E-03 0. -1.
    9900012    2    1    2    0    0 -0.15792921217E+02 -0.15412773714E+02  0.23016307396E+02  0.59301947246E+02  0.50000005869E+02 0.  0.
         12    1    1    2    0    0  0.15792921217E+02  0.15412773714E+02 -0.23016307396E+02  0.31886052754E+02  0.00000000000E+00 0. -1.
         11    1    3    3    0    0  0.15467407463E+01 -0.19061888933E+00  0.29148854685E+01  0.33053441656E+01  0.51100000000E-03 0. -1.
        -11    1    3    3    0    0 -0.23160986817E+02 -0.27934546748E+02  0.21105521041E+02  0.41978723551E+02  0.51100000000E-03 0.  1.
        -12    1    3    3    0    0  0.58213248531E+01  0.12712391923E+02 -0.10040991136E+01  0.14017879529E+02  0.00000000000E+00 0.  1.
</event>
<event>
 7    1  0.4489290E-013  0.5930198E+02  0.7816164E-02  0.1266605E+00
        -11   -1    0    0    0    0  0.00000000000E+00  0.00000000000E+00  0.45593999997E+02  0.45594000000E+02  0.51100000000E-03 0.  1.
         11   -1    0    0    0    0 -0.00000000000E+00 -0.00000000000E+00 -0.45593999997E+02  0.45594000000E+02  0.51100000000E-03 0. -1.
    9900012    2    1    2    0    0 -0.27713669633E+02 -0.75883362505E+01  0.13823457246E+02  0.59301979524E+02  0.50000064737E+02 0.  0.
         12    1    1    2    0    0  0.27713669633E+02  0.75883362505E+01 -0.13823457246E+02  0.31886020476E+02  0.00000000000E+00 0. -1.
         11    1    3    3    0    0  0.40564911767E+01 -0.48365543518E+01  0.11081343902E+01  0.64090046616E+01  0.51100000000E-03 0. -1.
        -11    1    3    3    0    0 -0.31997554554E+02  0.60311151996E+01  0.22624667294E+02  0.39649633270E+02  0.51100000000E-03 0.  1.
        -12    1    3    3    0    0  0.22739374458E+00 -0.87828970982E+01 -0.99093444379E+01  0.13243341593E+02  0.00000000000E+00 0.  1.
</event>
<event>
 7    1  0.4489290E-013  0.5930194E+02  0.7816164E-02  0.1266605E+00
        -11   -1    0    0    0    0  0.00000000000E+00  0.00000000000E+00  0.45593999997E+02  0.45594000000E+02  0.51100000000E-03 0.  1.
         11   -1    0    0    0    0 -0.00000000000E+00 -0.00000000000E+00 -0.45593999997E+02  0.45594000000E+02  0.51100000000E-03 0. -1.
    9900012    2    1    2    0    0 -0.11765676745E+02 -0.28723687655E+02 -0.72965403382E+01  0.59301939054E+02  0.49999990929E+02 0.  0.
         12    1    1    2    0    0  0.11765676745E+02  0.28723687655E+02  0.72965403382E+01  0.31886060946E+02  0.00000000000E+00 0. -1.
         11    1    3    3    0    0 -0.19915235690E+02 -0.14408408866E+02 -0.50248930687E+01  0.25089209020E+02  0.51100000000E-03 0. -1.
        -11    1    3    3    0    0  0.15353548885E+02 -0.65667190038E+01 -0.11416336282E+02  0.20228346353E+02  0.51100000000E-03 0.  1.
         12    1    3    3    0    0 -0.72039899395E+01 -0.77485597848E+01  0.91446890121E+01  0.13984383680E+02  0.00000000000E+00 0. -1.
</event>
<event>
 7    1  0.4489290E-013  0.5930196E+02  0.7816164E-02  0.1266605E+00
        -11   -1    0    0    0    0  0.00000000000E+00  0.00000000000E+00  0.45593999997E+02  0.45594000000E+02  0.51100000000E-03 0. -1.
         11   -1    0    0    0    0 -0.00000000000E+00 -0.00000000000E+00 -0.45593999997E+02  0.45594000000E+02  0.51100000000E-03 0.  1.
    9900012    2    1    2    0    0 -0.18825813241E+02  0.25192220620E+02  0.52593080842E+01  0.59301960022E+02  0.50000029170E+02 0.  0.
         12    1    1    2    0    0  0.18825813241E+02 -0.25192220620E+02 -0.52593080842E+01  0.31886039978E+02  0.00000000000E+00 0. -1.
         11    1    3    3    0    0  0.95367086217E+01 -0.11554905173E+01  0.12518326571E+02  0.15779495241E+02  0.51100000000E-03 0. -1.
        -11    1    3    3    0    0 -0.27324270918E+01  0.13473077477E+02 -0.54342667222E+01  0.14782463583E+02  0.51100000000E-03 0.  1.
         12    1    3    3    0    0 -0.25630094771E+02  0.12874633660E+02 -0.18247517641E+01  0.28740001198E+02  0.00000000000E+00 0. -1.
</event>
<event>
 7    1  0.4489290E-013  0.5930191E+02  0.7816164E-02  0.1266605E+00
        -11   -1    0    0    0    0  0.00000000000E+00  0.00000000000E+00  0.45593999997E+02  0.45594000000E+02  0.51100000000E-03 0.  1.
         11   -1    0    0    0    0 -0.00000000000E+00 -0.00000000000E+00 -0.45593999997E+02  0.45594000000E+02  0.51100000000E-03 0. -1.
    9900012    2    1    2    0    0 -0.15190500409E+02  0.83645365488E+01  0.26758285213E+02  0.59301912095E+02  0.49999941763E+02 0.  0.
         12    1    1    2    0    0  0.15190500409E+02 -0.83645365488E+01 -0.26758285213E+02  0.31886087905E+02  0.00000000000E+00 0. -1.
         11    1    3    3    0    0 -0.51339967388E+01 -0.86667327610E+00  0.26233795638E+01  0.58301943087E+01  0.51100000000E-03 0. -1.
        -11    1    3    3    0    0  0.14881860822E+02  0.10840734629E+02 -0.44779828888E+00  0.18417161356E+02  0.51100000000E-03 0.  1.
        -12    1    3    3    0    0 -0.24938364493E+02 -0.16095248045E+01  0.24582703938E+02  0.35054556431E+02  0.00000000000E+00 0.  1.
</event>
<event>
 7    1  0.4489290E-013  0.5930195E+02  0.7816164E-02  0.1266605E+00
        -11   -1    0    0    0    0  0.00000000000E+00  0.00000000000E+00  0.45593999997E+02  0.45594000000E+02  0.51100000000E-03 0.  1.
         11   -1    0    0    0    0 -0.00000000000E+00 -0.00000000000E+00 -0.45593999997E+02  0.45594000000E+02  0.51100000000E-03 0. -1.
    9900012    2    1    2    0    0 -0.34726646668E+01 -0.91970073386E+01  0.30332747502E+02  0.59301954229E+02  0.50000018605E+02 0.  0.
         12    1    1    2    0    0  0.34726646668E+01  0.91970073386E+01 -0.30332747502E+02  0.31886045771E+02  0.00000000000E+00 0. -1.
         11    1    3    3    0    0 -0.56882449768E-01  0.95108393491E+00 -0.14224747655E+01  0.17120838134E+01  0.51100000000E-03 0. -1.
        -11    1    3    3    0    0  0.13468518327E+02 -0.21666056178E+02  0.91198118714E+01  0.27092248800E+02  0.51100000000E-03 0.  1.
        -12    1    3    3    0    0 -0.16884300544E+02  0.11517964904E+02  0.22635410396E+02  0.30497621616E+02  0.00000000000E+00 0.  1.
</event>
<event>
 7    1  0.4489290E-013  0.5930193E+02  0.7816164E-02  0.1266605E+00
        -11   -1    0    0    0    0  0.00000000000E+00  0.00000000000E+00  0.45593999997E+02  0.45594000000E+02  0.51100000000E-03 0.  1.
         11   -1    0    0    0    0 -0.00000000000E+00 -0.00000000000E+00 -0.45593999997E+02  0.45594000000E+02  0.51100000000E-03 0. -1.
    9900012    2    1    2    0    0 -0.30732009618E+01 -0.23499563507E+02  0.21331843070E+02  0.59301928151E+02  0.49999971045E+02 0.  0.
         12    1    1    2    0    0  0.30732009618E+01  0.23499563507E+02 -0.21331843070E+02  0.31886071849E+02  0.00000000000E+00 0. -1.
         11    1    3    3    0    0 -0.44669896355E+01 -0.71888679673E+01 -0.11055917161E+02  0.13923617475E+02  0.51100000000E-03 0. -1.
        -11    1    3    3    0    0  0.11533149468E+02 -0.15938304031E+02  0.28239759574E+02  0.34416959382E+02  0.51100000000E-03 0.  1.
        -12    1    3    3    0    0 -0.10139360795E+02 -0.37239150872E+00  0.41480006571E+01  0.10961351295E+02  0.00000000000E+00 0.  1.
</event>
<event>
 7    1  0.4489290E-013  0.5930195E+02  0.7816164E-02  0.1266605E+00
        -11   -1    0    0    0    0  0.00000000000E+00  0.00000000000E+00  0.45593999997E+02  0.45594000000E+02  0.51100000000E-03 0. -1.
         11   -1    0    0    0    0 -0.00000000000E+00 -0.00000000000E+00 -0.45593999997E+02  0.45594000000E+02  0.51100000000E-03 0.  1.
    9900012    2    1    2    0    0 -0.27891330424E+02 -0.11891016121E+02 -0.98690131621E+01  0.59301952926E+02  0.50000016228E+02 0.  0.
         12    1    1    2    0    0  0.27891330424E+02  0.11891016121E+02  0.98690131621E+01  0.31886047074E+02  0.00000000000E+00 0. -1.
         11    1    3    3    0    0 -0.24830669051E+01 -0.23855588038E+02  0.17597265825E+01  0.24048936355E+02  0.51100000000E-03 0. -1.
        -11    1    3    3    0    0 -0.92124599001E+01  0.14063965329E+02 -0.43069535084E+01  0.17355529003E+02  0.51100000000E-03 0.  1.
        -12    1    3    3    0    0 -0.16195803619E+02 -0.20993934123E+01 -0.73217862362E+01  0.17897487568E+02  0.00000000000E+00 0.  1.
</event>
<event>
 7    1  0.4489290E-013  0.5930193E+02  0.7816164E-02  0.1266605E+00
        -11   -1    0    0    0    0  0.00000000000E+00  0.00000000000E+00  0.45593999997E+02  0.45594000000E+02  0.51100000000E-03 0.  1.
         11   -1    0    0    0    0 -0.00000000000E+00 -0.00000000000E+00 -0.45593999997E+02  0.45594000000E+02  0.51100000000E-03 0. -1.
    9900012    2    1    2    0    0 -0.14384742863E+02  0.28139631591E+02  0.42381232387E+01  0.59301931225E+02  0.49999976651E+02 0.  0.
         12    1    1    2    0    0  0.14384742863E+02 -0.28139631591E+02 -0.42381232387E+01  0.31886068775E+02  0.00000000000E+00 0. -1.
         11    1    3    3    0    0 -0.19351330756E+02  0.19716728687E+02 -0.14677492099E+02  0.31283416801E+02  0.51100000000E-03 0. -1.
        -11    1    3    3    0    0  0.93016554346E+01  0.10763211233E+02  0.86947231326E+01  0.16672303994E+02  0.51100000000E-03 0.  1.
         12    1    3    3    0    0 -0.43350675411E+01 -0.23403083283E+01  0.10220892205E+02  0.11346210430E+02  0.00000000000E+00 0. -1.
</event>
<event>
 7    1  0.4489290E-013  0.5930210E+02  0.7816164E-02  0.1266604E+00
        -11   -1    0    0    0    0  0.00000000000E+00  0.00000000000E+00  0.45593999997E+02  0.45594000000E+02  0.51100000000E-03 0. -1.
         11   -1    0    0    0    0 -0.00000000000E+00 -0.00000000000E+00 -0.45593999997E+02  0.45594000000E+02  0.51100000000E-03 0.  1.
    9900012    2    1    2    0    0 -0.21467229487E+02  0.23338899285E+02  0.33413480900E+01  0.59302097649E+02  0.50000280168E+02 0.  0.
         12    1    1    2    0    0  0.21467229487E+02 -0.23338899285E+02 -0.33413480900E+01  0.31885902351E+02  0.00000000000E+00 0. -1.
         11    1    3    3    0    0 -0.12971580619E+02  0.32181452181E+02  0.10015727641E+02  0.36114021773E+02  0.51100000000E-03 0. -1.
        -11    1    3    3    0    0 -0.81086534094E+01 -0.24060948579E+01  0.50186785548E+01  0.98349726627E+01  0.51100000000E-03 0.  1.
         12    1    3    3    0    0 -0.38699545908E+00 -0.64364580381E+01 -0.11693058105E+02  0.13353103213E+02  0.00000000000E+00 0. -1.
</event>
<event>
 7    1  0.4489290E-013  0.5930194E+02  0.7816164E-02  0.1266605E+00
        -11   -1    0    0    0    0  0.00000000000E+00  0.00000000000E+00  0.45593999997E+02  0.45594000000E+02  0.51100000000E-03 0.  1.
         11   -1    0    0    0    0 -0.00000000000E+00 -0.00000000000E+00 -0.45593999997E+02  0.45594000000E+02  0.51100000000E-03 0. -1.
    9900012    2    1    2    0    0 -0.20816080112E+02  0.19904922385E+02  0.13682303851E+02  0.59301944034E+02  0.50000000012E+02 0.  0.
         12    1    1    2    0    0  0.20816080112E+02 -0.19904922385E+02 -0.13682303851E+02  0.31886055966E+02  0.00000000000E+00 0. -1.
         11    1    3    3    0    0  0.21614262147E+01 -0.83173885361E+01 -0.78696490192E+01  0.11652557285E+02  0.51100000000E-03 0. -1.
        -11    1    3    3    0    0 -0.19588454941E+02  0.28446350818E+02  0.10517885324E+02  0.36104409063E+02  0.51100000000E-03 0.  1.
        -12    1    3    3    0    0 -0.33890513860E+01 -0.22403989663E+00  0.11034067546E+02  0.11544977686E+02  0.00000000000E+00 0.  1.
</event>
<event>
 7    1  0.4489290E-013  0.5930193E+02  0.7816164E-02  0.1266605E+00
        -11   -1    0    0    0    0  0.00000000000E+00  0.00000000000E+00  0.45593999997E+02  0.45594000000E+02  0.51100000000E-03 0.  1.
         11   -1    0    0    0    0 -0.00000000000E+00 -0.00000000000E+00 -0.45593999997E+02  0.45594000000E+02  0.51100000000E-03 0. -1.
    9900012    2    1    2    0    0 -0.65659624060E+01  0.72364217515E+01  0.30351995051E+02  0.59301933048E+02  0.49999979976E+02 0.  0.
         12    1    1    2    0    0  0.65659624060E+01 -0.72364217515E+01 -0.30351995051E+02  0.31886066952E+02  0.00000000000E+00 0. -1.
         11    1    3    3    0    0 -0.76483888376E+01  0.19959368896E+02  0.51679243878E+00  0.21380863715E+02  0.51100000000E-03 0. -1.
        -11    1    3    3    0    0  0.10200480891E+02 -0.47208886518E+01  0.15388808127E+02  0.19056547848E+02  0.51100000000E-03 0.  1.
         12    1    3    3    0    0 -0.91180544590E+01 -0.80020584922E+01  0.14446394485E+02  0.18864521485E+02  0.00000000000E+00 0. -1.
</event>
<event>
 7    1  0.4489290E-013  0.5930188E+02  0.7816164E-02  0.1266605E+00
        -11   -1    0    0    0    0  0.00000000000E+00  0.00000000000E+00  0.45593999997E+02  0.45594000000E+02  0.51100000000E-03 0. -1.
         11   -1    0    0    0    0 -0.00000000000E+00 -0.00000000000E+00 -0.45593999997E+02  0.45594000000E+02  0.51100000000E-03 0.  1.
    9900012    2    1    2    0    0 -0.21398519251E+02  0.51102341703E+01 -0.23080590977E+02  0.59301877638E+02  0.49999878922E+02 0.  0.
         12    1    1    2    0    0  0.21398519251E+02 -0.51102341703E+01  0.23080590977E+02  0.31886122362E+02  0.00000000000E+00 0. -1.
         11    1    3    3    0    0 -0.74068496138E+01  0.76586172817E+01  0.40869585452E+01  0.11411357074E+02  0.51100000000E-03 0. -1.
        -11    1    3    3    0    0 -0.15346462829E+02  0.56461189208E+01 -0.33611508599E+02  0.37378149912E+02  0.51100000000E-03 0.  1.
        -12    1    3    3    0    0  0.13547931921E+01 -0.81945020322E+01  0.64439590768E+01  0.10512370652E+02  0.00000000000E+00 0.  1.
</event>
<event>
 7    1  0.4489290E-013  0.5930193E+02  0.7816164E-02  0.1266605E+00
        -11   -1    0    0    0    0  0.00000000000E+00  0.00000000000E+00  0.45593999997E+02  0.45594000000E+02  0.51100000000E-03 0.  1.
         11   -1    0    0    0    0 -0.00000000000E+00 -0.00000000000E+00 -0.45593999997E+02  0.45594000000E+02  0.51100000000E-03 0. -1.
    9900012    2    1    2    0    0 -0.79851907018E+01 -0.19787339672E+02  0.23694284384E+02  0.59301934167E+02  0.49999982016E+02 0.  0.
         12    1    1    2    0    0  0.79851907018E+01  0.19787339672E+02 -0.23694284384E+02  0.31886065833E+02  0.00000000000E+00 0. -1.
         11    1    3    3    0    0  0.16998531696E+02 -0.45630604112E+01  0.21194550707E+02  0.27549602176E+02  0.51100000000E-03 0.  1.
        -11    1    3    3    0    0 -0.19788250766E+02 -0.14718996295E+02  0.61071706899E+01  0.25407110312E+02  0.51100000000E-03 0. -1.
        -12    1    3    3    0    0 -0.51954716316E+01 -0.50528296506E+00 -0.36074370128E+01  0.63452216786E+01  0.00000000000E+00 0.  1.
</event>
<event>
 7    1  0.4489290E-013  0.5930194E+02  0.7816164E-02  0.1266605E+00
        -11   -1    0    0    0    0  0.00000000000E+00  0.00000000000E+00  0.45593999997E+02  0.45594000000E+02  0.51100000000E-03 0.  1.
         11   -1    0    0    0    0 -0.00000000000E+00 -0.00000000000E+00 -0.45593999997E+02  0.45594000000E+02  0.51100000000E-03 0. -1.
    9900012    2    1    2    0    0  0.60216608632E+00 -0.17515486541E+02  0.26637682961E+02  0.59301936802E+02  0.49999986822E+02 0.  0.
         12    1    1    2    0    0 -0.60216608632E+00  0.17515486541E+02 -0.26637682961E+02  0.31886063198E+02  0.00000000000E+00 0. -1.
         11    1    3    3    0    0  0.16669754162E+02 -0.10917966437E+02 -0.18118705658E+01  0.20009137167E+02  0.51100000000E-03 0.  1.
        -11    1    3    3    0    0 -0.11160842431E+02  0.55155979139E+01  0.20534768831E+02  0.24013807598E+02  0.51100000000E-03 0. -1.
        -12    1    3    3    0    0 -0.49067456442E+01 -0.12113118017E+02  0.79147846949E+01  0.15278992038E+02  0.00000000000E+00 0.  1.
</event>
<event>
 7    1  0.4489290E-013  0.5930194E+02  0.7816164E-02  0.1266605E+00
        -11   -1    0    0    0    0  0.00000000000E+00  0.00000000000E+00  0.45593999997E+02  0.45594000000E+02  0.51100000000E-03 0.  1.
         11   -1    0    0    0    0 -0.00000000000E+00 -0.00000000000E+00 -0.45593999997E+02  0.45594000000E+02  0.51100000000E-03 0. -1.
    9900012    2    1    2    0    0  0.27825695304E+02 -0.31415813130E+01  0.15250635574E+02  0.59301941327E+02  0.49999995074E+02 0.  0.
         12    1    1    2    0    0 -0.27825695304E+02  0.31415813130E+01 -0.15250635574E+02  0.31886058673E+02  0.00000000000E+00 0. -1.
         11    1    3    3    0    0 -0.12252971352E+02  0.37123652772E+01  0.18715899077E+01  0.12939080800E+02  0.51100000000E-03 0. -1.
        -11    1    3    3    0    0  0.31696560168E+02 -0.10896543332E+02  0.15326509219E+02  0.36855236645E+02  0.51100000000E-03 0.  1.
         12    1    3    3    0    0  0.83821064879E+01  0.40425967422E+01 -0.19474635524E+01  0.95076238820E+01  0.00000000000E+00 0. -1.
</event>
<event>
 7    1  0.4489290E-013  0.5930193E+02  0.7816164E-02  0.1266605E+00
        -11   -1    0    0    0    0  0.00000000000E+00  0.00000000000E+00  0.45593999997E+02  0.45594000000E+02  0.51100000000E-03 0. -1.
         11   -1    0    0    0    0 -0.00000000000E+00 -0.00000000000E+00 -0.45593999997E+02  0.45594000000E+02  0.51100000000E-03 0.  1.
    9900012    2    1    2    0    0  0.22427343793E+02  0.13058673535E+02 -0.18525846397E+02  0.59301926412E+02  0.49999967873E+02 0.  0.
         12    1    1    2    0    0 -0.22427343793E+02 -0.13058673535E+02  0.18525846397E+02  0.31886073588E+02  0.00000000000E+00 0. -1.
         11    1    3    3    0    0  0.10999347283E+02  0.16849147038E+02  0.64909997141E+01  0.21142669512E+02  0.51100000000E-03 0. -1.
        -11    1    3    3    0    0 -0.68486149309E+01 -0.64150021764E+01 -0.13350079125E+02  0.16318100144E+02  0.51100000000E-03 0.  1.
        -12    1    3    3    0    0  0.18276611441E+02  0.26245286737E+01 -0.11666766986E+02  0.21841156756E+02  0.00000000000E+00 0.  1.
</event>
<event>
 7    1  0.4489290E-013  0.5930194E+02  0.7816164E-02  0.1266605E+00
        -11   -1    0    0    0    0  0.00000000000E+00  0.00000000000E+00  0.45593999997E+02  0.45594000000E+02  0.51100000000E-03 0. -1.
         11   -1    0    0    0    0 -0.00000000000E+00 -0.00000000000E+00 -0.45593999997E+02  0.45594000000E+02  0.51100000000E-03 0.  1.
    9900012    2    1    2    0    0  0.12407887897E+02  0.28941822797E+02  0.50135895916E+01  0.59301939261E+02  0.49999991306E+02 0.  0.
         12    1    1    2    0    0 -0.12407887897E+02 -0.28941822797E+02 -0.50135895916E+01  0.31886060739E+02  0.00000000000E+00 0. -1.
         11    1    3    3    0    0  0.45531192365E+01 -0.88915670703E+01 -0.90234581416E+01  0.13461562199E+02  0.51100000000E-03 0. -1.
        -11    1    3    3    0    0  0.39787995054E+01  0.18789762752E+02 -0.36646225496E+01  0.19552889517E+02  0.51100000000E-03 0.  1.
         12    1    3    3    0    0  0.38759691555E+01  0.19043627115E+02  0.17701670283E+02  0.26287487544E+02  0.00000000000E+00 0. -1.
</event>
<event>
 7    1  0.4489290E-013  0.5930194E+02  0.7816164E-02  0.1266605E+00
        -11   -1    0    0    0    0  0.00000000000E+00  0.00000000000E+00  0.45593999997E+02  0.45594000000E+02  0.51100000000E-03 0.  1.
         11   -1    0    0    0    0 -0.00000000000E+00 -0.00000000000E+00 -0.45593999997E+02  0.45594000000E+02  0.51100000000E-03 0. -1.
    9900012    2    1    2    0    0  0.18948842415E+02 -0.24275967243E+02  0.82667810793E+01  0.59301939035E+02  0.49999990894E+02 0.  0.
         12    1    1    2    0    0 -0.18948842415E+02  0.24275967243E+02 -0.82667810793E+01  0.31886060965E+02  0.00000000000E+00 0. -1.
         11    1    3    3    0    0  0.14621460453E+02  0.81599640855E+01  0.12056889575E+02  0.20633485071E+02  0.51100000000E-03 0. -1.
        -11    1    3    3    0    0  0.81054303357E+01 -0.24357788919E+02  0.49924288390E+01  0.26151945012E+02  0.51100000000E-03 0.  1.
         12    1    3    3    0    0 -0.37780483744E+01 -0.80781424102E+01 -0.87825373348E+01  0.12516508952E+02  0.00000000000E+00 0. -1.
</event>
<event>
 7    1  0.4489290E-013  0.5930199E+02  0.7816164E-02  0.1266605E+00
        -11   -1    0    0    0    0  0.00000000000E+00  0.00000000000E+00  0.45593999997E+02  0.45594000000E+02  0.51100000000E-03 0.  1.
         11   -1    0    0    0    0 -0.00000000000E+00 -0.00000000000E+00 -0.45593999997E+02  0.45594000000E+02  0.51100000000E-03 0. -1.
    9900012    2    1    2    0    0 -0.14207029363E+02 -0.27324123229E+01  0.28414990335E+02  0.59301993098E+02  0.50000089492E+02 0.  0.
         12    1    1    2    0    0  0.14207029363E+02  0.27324123229E+01 -0.28414990335E+02  0.31886006902E+02  0.00000000000E+00 0. -1.
         11    1    3    3    0    0  0.15476835012E+02 -0.87323891814E+01  0.58904690057E+01  0.18721235755E+02  0.51100000000E-03 0. -1.
        -11    1    3    3    0    0 -0.25050628201E+02  0.48377211793E+01  0.10404583503E+02  0.27553454912E+02  0.51100000000E-03 0.  1.
         12    1    3    3    0    0 -0.46332361745E+01  0.11622556792E+01  0.12119937826E+02  0.13027302431E+02  0.00000000000E+00 0. -1.
</event>
<event>
 7    1  0.4489290E-013  0.5930194E+02  0.7816164E-02  0.1266605E+00
        -11   -1    0    0    0    0  0.00000000000E+00  0.00000000000E+00  0.45593999997E+02  0.45594000000E+02  0.51100000000E-03 0. -1.
         11   -1    0    0    0    0 -0.00000000000E+00 -0.00000000000E+00 -0.45593999997E+02  0.45594000000E+02  0.51100000000E-03 0.  1.
    9900012    2    1    2    0    0  0.83030788068E+01 -0.24802079854E+02 -0.18238325257E+02  0.59301940492E+02  0.49999993552E+02 0.  0.
         12    1    1    2    0    0 -0.83030788068E+01  0.24802079854E+02  0.18238325257E+02  0.31886059508E+02  0.00000000000E+00 0. -1.
         11    1    3    3    0    0  0.19140017192E+02 -0.28293284487E+02 -0.13634443971E+02  0.36779726316E+02  0.51100000000E-03 0. -1.
        -11    1    3    3    0    0 -0.96053158423E+01 -0.49166824513E+01 -0.79360243707E+01  0.13394638548E+02  0.51100000000E-03 0.  1.
         12    1    3    3    0    0 -0.12316225428E+01  0.84078870851E+01  0.33321430843E+01  0.91275756287E+01  0.00000000000E+00 0. -1.
</event>
<event>
 7    1  0.4489290E-013  0.5930194E+02  0.7816164E-02  0.1266605E+00
        -11   -1    0    0    0    0  0.00000000000E+00  0.00000000000E+00  0.45593999997E+02  0.45594000000E+02  0.51100000000E-03 0. -1.
         11   -1    0    0    0    0 -0.00000000000E+00 -0.00000000000E+00 -0.45593999997E+02  0.45594000000E+02  0.51100000000E-03 0.  1.
    9900012    2    1    2    0    0  0.35742251238E+00  0.31877924123E+02 -0.62512342326E+00  0.59301943854E+02  0.49999999684E+02 0.  0.
         12    1    1    2    0    0 -0.35742251238E+00 -0.31877924123E+02  0.62512342326E+00  0.31886056146E+02  0.00000000000E+00 0. -1.
         11    1    3    3    0    0 -0.25555264137E+01 -0.43384635358E+01  0.89481856882E+01  0.10267570719E+02  0.51100000000E-03 0. -1.
        -11    1    3    3    0    0 -0.80016314046E+01  0.34749838524E+02 -0.12243653330E+02  0.37702578555E+02  0.51100000000E-03 0.  1.
        -12    1    3    3    0    0  0.10914580331E+02  0.14665491347E+01  0.26703442189E+01  0.11331794580E+02  0.00000000000E+00 0.  1.
</event>
<event>
 7    1  0.4489290E-013  0.5930192E+02  0.7816164E-02  0.1266605E+00
        -11   -1    0    0    0    0  0.00000000000E+00  0.00000000000E+00  0.45593999997E+02  0.45594000000E+02  0.51100000000E-03 0.  1.
         11   -1    0    0    0    0 -0.00000000000E+00 -0.00000000000E+00 -0.45593999997E+02  0.45594000000E+02  0.51100000000E-03 0. -1.
    9900012    2    1    2    0    0 -0.28242332540E+02  0.48941899113E+01  0.13969249781E+02  0.59301915549E+02  0.49999948061E+02 0.  0.
         12    1    1    2    0    0  0.28242332540E+02 -0.48941899113E+01 -0.13969249781E+02  0.31886084451E+02  0.00000000000E+00 0. -1.
         11    1    3    3    0    0 -0.22113634979E+02  0.23185802963E+01  0.45990653921E+01  0.22705507467E+02  0.51100000000E-03 0. -1.
        -11    1    3    3    0    0  0.79654814337E+01  0.11897982742E+02  0.12969686049E+02  0.19318996979E+02  0.51100000000E-03 0.  1.
         12    1    3    3    0    0 -0.14094178994E+02 -0.93223731268E+01 -0.35995016596E+01  0.17277411103E+02  0.00000000000E+00 0. -1.
</event>
<event>
 7    1  0.4489290E-013  0.5930190E+02  0.7816164E-02  0.1266605E+00
        -11   -1    0    0    0    0  0.00000000000E+00  0.00000000000E+00  0.45593999997E+02  0.45594000000E+02  0.51100000000E-03 0.  1.
         11   -1    0    0    0    0 -0.00000000000E+00 -0.00000000000E+00 -0.45593999997E+02  0.45594000000E+02  0.51100000000E-03 0. -1.
    9900012    2    1    2    0    0  0.30462571422E+02 -0.93740507842E+01  0.93920884271E+00  0.59301902732E+02  0.49999924686E+02 0.  0.
         12    1    1    2    0    0 -0.30462571422E+02  0.93740507842E+01 -0.93920884271E+00  0.31886097268E+02  0.00000000000E+00 0. -1.
         11    1    3    3    0    0 -0.42841578132E+01  0.91518303516E+01 -0.12665552566E+02  0.16202661171E+02  0.51100000000E-03 0. -1.
        -11    1    3    3    0    0  0.18880026033E+02 -0.14389681378E+02  0.39324152011E+01  0.24062049014E+02  0.51100000000E-03 0.  1.
         12    1    3    3    0    0  0.15866703202E+02 -0.41361997574E+01  0.96723462072E+01  0.19037192548E+02  0.00000000000E+00 0. -1.
</event>
<event>
 7    1  0.4489290E-013  0.5930162E+02  0.7816164E-02  0.1266606E+00
        -11   -1    0    0    0    0  0.00000000000E+00  0.00000000000E+00  0.45593999997E+02  0.45594000000E+02  0.51100000000E-03 0.  1.
         11   -1    0    0    0    0 -0.00000000000E+00 -0.00000000000E+00 -0.45593999997E+02  0.45594000000E+02  0.51100000000E-03 0. -1.
    9900012    2    1    2    0    0  0.18436825043E+02 -0.19508761463E+02  0.17211420242E+02  0.59301619236E+02  0.49999407655E+02 0.  0.
         12    1    1    2    0    0 -0.18436825043E+02  0.19508761463E+02 -0.17211420242E+02  0.31886380764E+02  0.00000000000E+00 0. -1.
         11    1    3    3    0    0  0.13759135095E+02 -0.50391904807E+01 -0.27481028901E+01  0.14908363727E+02  0.51100000000E-03 0. -1.
        -11    1    3    3    0    0 -0.15049931167E+02 -0.16183411837E+01  0.31416141500E+01  0.15459275405E+02  0.51100000000E-03 0.  1.
        -12    1    3    3    0    0  0.19727621115E+02 -0.12851229798E+02  0.16817908982E+02  0.28933980105E+02  0.00000000000E+00 0.  1.
</event>
<event>
 7    1  0.4489290E-013  0.5930190E+02  0.7816164E-02  0.1266605E+00
        -11   -1    0    0    0    0  0.00000000000E+00  0.00000000000E+00  0.45593999997E+02  0.45594000000E+02  0.51100000000E-03 0.  1.
         11   -1    0    0    0    0 -0.00000000000E+00 -0.00000000000E+00 -0.45593999997E+02  0.45594000000E+02  0.51100000000E-03 0. -1.
    9900012    2    1    2    0    0  0.27472088694E+02  0.12187475574E+02 -0.10652385234E+02  0.59301897553E+02  0.49999915242E+02 0.  0.
         12    1    1    2    0    0 -0.27472088694E+02 -0.12187475574E+02  0.10652385234E+02  0.31886102447E+02  0.00000000000E+00 0. -1.
         11    1    3    3    0    0 -0.12829126277E+01  0.18137469822E+02 -0.61580354262E+01  0.19197267434E+02  0.51100000000E-03 0. -1.
        -11    1    3    3    0    0  0.79626814869E+01 -0.10206314523E+02 -0.11942254864E+02  0.17612228823E+02  0.51100000000E-03 0.  1.
        -12    1    3    3    0    0  0.20792319835E+02  0.42563202747E+01  0.74479050561E+01  0.22492401297E+02  0.00000000000E+00 0.  1.
</event>
<event>
 7    1  0.4489290E-013  0.5930195E+02  0.7816164E-02  0.1266605E+00
        -11   -1    0    0    0    0  0.00000000000E+00  0.00000000000E+00  0.45593999997E+02  0.45594000000E+02  0.51100000000E-03 0.  1.
         11   -1    0    0    0    0 -0.00000000000E+00 -0.00000000000E+00 -0.45593999997E+02  0.45594000000E+02  0.51100000000E-03 0. -1.
    9900012    2    1    2    0    0 -0.38483086597E+01 -0.28235894464E+02  0.14305415980E+02  0.59301950667E+02  0.50000012108E+02 0.  0.
         12    1    1    2    0    0  0.38483086597E+01  0.28235894464E+02 -0.14305415980E+02  0.31886049333E+02  0.00000000000E+00 0. -1.
         11    1    3    3    0    0 -0.34755846620E+01  0.87994500358E+01 -0.97863857629E+01  0.13611882906E+02  0.51100000000E-03 0. -1.
        -11    1    3    3    0    0  0.10033403597E+01 -0.54876169581E+01  0.92415416057E+01  0.10794754433E+02  0.51100000000E-03 0.  1.
         12    1    3    3    0    0 -0.13760643575E+01 -0.31547727541E+02  0.14850260137E+02  0.34895313328E+02  0.00000000000E+00 0. -1.
</event>
<event>
 7    1  0.4489290E-013  0.5930195E+02  0.7816164E-02  0.1266605E+00
        -11   -1    0    0    0    0  0.00000000000E+00  0.00000000000E+00  0.45593999997E+02  0.45594000000E+02  0.51100000000E-03 0.  1.
         11   -1    0    0    0    0 -0.00000000000E+00 -0.00000000000E+00 -0.45593999997E+02  0.45594000000E+02  0.51100000000E-03 0. -1.
    9900012    2    1    2    0    0 -0.29849415097E+02  0.92258217496E+01 -0.63731174724E+01  0.59301952975E+02  0.50000016317E+02 0.  0.
         12    1    1    2    0    0  0.29849415097E+02 -0.92258217496E+01  0.63731174724E+01  0.31886047025E+02  0.00000000000E+00 0. -1.
         11    1    3    3    0    0 -0.28668283848E+02  0.21357439406E+02 -0.18254080831E+02  0.40140032188E+02  0.51100000000E-03 0. -1.
        -11    1    3    3    0    0  0.31838469250E+01 -0.93015290311E+01  0.76934316002E+01  0.12483757992E+02  0.51100000000E-03 0.  1.
         12    1    3    3    0    0 -0.43649781737E+01 -0.28300886252E+01  0.41875317586E+01  0.66781627947E+01  0.00000000000E+00 0. -1.
</event>
<event>
 7    1  0.4489290E-013  0.5930192E+02  0.7816164E-02  0.1266605E+00
        -11   -1    0    0    0    0  0.00000000000E+00  0.00000000000E+00  0.45593999997E+02  0.45594000000E+02  0.51100000000E-03 0. -1.
         11   -1    0    0    0    0 -0.00000000000E+00 -0.00000000000E+00 -0.45593999997E+02  0.45594000000E+02  0.51100000000E-03 0.  1.
    9900012    2    1    2    0    0  0.61204164699E+01 -0.29004020488E+02 -0.11748579072E+02  0.59301924474E+02  0.49999964338E+02 0.  0.
         12    1    1    2    0    0 -0.61204164699E+01  0.29004020488E+02  0.11748579072E+02  0.31886075526E+02  0.00000000000E+00 0. -1.
         11    1    3    3    0    0 -0.12345987522E+01  0.77693652453E+01  0.31492453701E+01  0.84737841049E+01  0.51100000000E-03 0. -1.
        -11    1    3    3    0    0  0.11768566371E+02 -0.21941805821E+02  0.52274762244E+01  0.25441472148E+02  0.51100000000E-03 0.  1.
        -12    1    3    3    0    0 -0.44135511487E+01 -0.14831579913E+02 -0.20125300666E+02  0.25386668221E+02  0.00000000000E+00 0.  1.
</event>
<event>
 7    1  0.4489290E-013  0.5930195E+02  0.7816164E-02  0.1266605E+00
        -11   -1    0    0    0    0  0.00000000000E+00  0.00000000000E+00  0.45593999997E+02  0.45594000000E+02  0.51100000000E-03 0.  1.
         11   -1    0    0    0    0 -0.00000000000E+00 -0.00000000000E+00 -0.45593999997E+02  0.45594000000E+02  0.51100000000E-03 0. -1.
    9900012    2    1    2    0    0 -0.16707767967E+02  0.21924986150E+02 -0.16027019194E+02  0.59301954896E+02  0.50000019821E+02 0.  0.
         12    1    1    2    0    0  0.16707767967E+02 -0.21924986150E+02  0.16027019194E+02  0.31886045104E+02  0.00000000000E+00 0. -1.
         11    1    3    3    0    0 -0.39549378098E+01 -0.79924726864E+01 -0.11246960353E+02  0.14353232046E+02  0.51100000000E-03 0. -1.
        -11    1    3    3    0    0 -0.37717441995E+01  0.29789675146E+02 -0.13048770950E+02  0.32740208051E+02  0.51100000000E-03 0.  1.
        -12    1    3    3    0    0 -0.89810859573E+01  0.12778369026E+00  0.82687121095E+01  0.12208514799E+02  0.00000000000E+00 0.  1.
</event>
<event>
 7    1  0.4489290E-013  0.5930194E+02  0.7816164E-02  0.1266605E+00
        -11   -1    0    0    0    0  0.00000000000E+00  0.00000000000E+00  0.45593999997E+02  0.45594000000E+02  0.51100000000E-03 0.  1.
         11   -1    0    0    0    0 -0.00000000000E+00 -0.00000000000E+00 -0.45593999997E+02  0.45594000000E+02  0.51100000000E-03 0. -1.
    9900012    2    1    2    0    0  0.15944356212E+02  0.24753298138E+02  0.12238167807E+02  0.59301936979E+02  0.49999987144E+02 0.  0.
         12    1    1    2    0    0 -0.15944356212E+02 -0.24753298138E+02 -0.12238167807E+02  0.31886063021E+02  0.00000000000E+00 0. -1.
         11    1    3    3    0    0  0.26662044590E+02  0.12404220042E+02 -0.95809928850E+01  0.30927733857E+02  0.51100000000E-03 0. -1.
        -11    1    3    3    0    0 -0.88751072249E+01  0.11895639010E+02  0.14265603402E+02  0.20585946575E+02  0.51100000000E-03 0.  1.
         12    1    3    3    0    0 -0.18425811528E+01  0.45343908600E+00  0.75535572903E+01  0.77882565474E+01  0.00000000000E+00 0. -1.
</event>
<event>
 7    1  0.4489290E-013  0.5930197E+02  0.7816164E-02  0.1266605E+00
        -11   -1    0    0    0    0  0.00000000000E+00  0.00000000000E+00  0.45593999997E+02  0.45594000000E+02  0.51100000000E-03 0.  1.
         11   -1    0    0    0    0 -0.00000000000E+00 -0.00000000000E+00 -0.45593999997E+02  0.45594000000E+02  0.51100000000E-03 0. -1.
    9900012    2    1    2    0    0  0.51662519518E+01 -0.58426922980E+01  0.30917495166E+02  0.59301972969E+02  0.50000052782E+02 0.  0.
         12    1    1    2    0    0 -0.51662519518E+01  0.58426922980E+01 -0.30917495166E+02  0.31886027031E+02  0.00000000000E+00 0. -1.
         11    1    3    3    0    0 -0.13274218516E+02 -0.13722795299E+02  0.10504127213E+02  0.21791206410E+02  0.51100000000E-03 0. -1.
        -11    1    3    3    0    0  0.15455893761E+02  0.50366099809E+01  0.25942061826E+02  0.30614419219E+02  0.51100000000E-03 0.  1.
         12    1    3    3    0    0  0.29845767062E+01  0.28434930203E+01 -0.55286938742E+01  0.68963473394E+01  0.00000000000E+00 0. -1.
</event>
<event>
 7    1  0.4489290E-013  0.5930193E+02  0.7816164E-02  0.1266605E+00
        -11   -1    0    0    0    0  0.00000000000E+00  0.00000000000E+00  0.45593999997E+02  0.45594000000E+02  0.51100000000E-03 0.  1.
         11   -1    0    0    0    0 -0.00000000000E+00 -0.00000000000E+00 -0.45593999997E+02  0.45594000000E+02  0.51100000000E-03 0. -1.
    9900012    2    1    2    0    0 -0.11977869408E+01 -0.31644733603E+02 -0.37279676754E+01  0.59301927785E+02  0.49999970376E+02 0.  0.
         12    1    1    2    0    0  0.11977869408E+01  0.31644733603E+02  0.37279676754E+01  0.31886072215E+02  0.00000000000E+00 0. -1.
         11    1    3    3    0    0 -0.60237623538E+01 -0.24681015112E+01 -0.12783378560E+02  0.14345452438E+02  0.51100000000E-03 0. -1.
        -11    1    3    3    0    0  0.10885106500E+02 -0.20269546638E+02  0.19344929444E+02  0.30059380564E+02  0.51100000000E-03 0.  1.
        -12    1    3    3    0    0 -0.60591310866E+01 -0.89070854533E+01 -0.10289518559E+02  0.14897094783E+02  0.00000000000E+00 0.  1.
</event>
<event>
 7    1  0.4489290E-013  0.5930195E+02  0.7816164E-02  0.1266605E+00
        -11   -1    0    0    0    0  0.00000000000E+00  0.00000000000E+00  0.45593999997E+02  0.45594000000E+02  0.51100000000E-03 0.  1.
         11   -1    0    0    0    0 -0.00000000000E+00 -0.00000000000E+00 -0.45593999997E+02  0.45594000000E+02  0.51100000000E-03 0. -1.
    9900012    2    1    2    0    0 -0.90531039194E+00  0.29428280629E+02  0.12242434780E+02  0.59301945101E+02  0.50000001957E+02 0.  0.
         12    1    1    2    0    0  0.90531039194E+00 -0.29428280629E+02 -0.12242434780E+02  0.31886054899E+02  0.00000000000E+00 0. -1.
         11    1    3    3    0    0 -0.95950082358E+01  0.63974205575E+01 -0.85439832210E+01  0.14352380373E+02  0.51100000000E-03 0. -1.
        -11    1    3    3    0    0 -0.10320797761E+02  0.85033483712E+01  0.15454244664E+02  0.20436718874E+02  0.51100000000E-03 0.  1.
        -12    1    3    3    0    0  0.19010495605E+02  0.14527511700E+02  0.53321733380E+01  0.24512845854E+02  0.00000000000E+00 0.  1.
</event>
<event>
 7    1  0.4489290E-013  0.5930193E+02  0.7816164E-02  0.1266605E+00
        -11   -1    0    0    0    0  0.00000000000E+00  0.00000000000E+00  0.45593999997E+02  0.45594000000E+02  0.51100000000E-03 0.  1.
         11   -1    0    0    0    0 -0.00000000000E+00 -0.00000000000E+00 -0.45593999997E+02  0.45594000000E+02  0.51100000000E-03 0. -1.
    9900012    2    1    2    0    0 -0.16711424929E+02  0.23814880751E+01  0.27051399543E+02  0.59301930536E+02  0.49999975395E+02 0.  0.
         12    1    1    2    0    0  0.16711424929E+02 -0.23814880751E+01 -0.27051399543E+02  0.31886069464E+02  0.00000000000E+00 0. -1.
         11    1    3    3    0    0 -0.15290644422E+02 -0.13271394679E+02  0.10812468414E+02  0.22953065090E+02  0.51100000000E-03 0. -1.
        -11    1    3    3    0    0 -0.35771070703E+01  0.19412031365E+02  0.21728015403E+02  0.29355226286E+02  0.51100000000E-03 0.  1.
        -12    1    3    3    0    0  0.21563265633E+01 -0.37591486108E+01 -0.54890842742E+01  0.69936391596E+01  0.00000000000E+00 0.  1.
</event>
<event>
 7    1  0.4489290E-013  0.5930194E+02  0.7816164E-02  0.1266605E+00
        -11   -1    0    0    0    0  0.00000000000E+00  0.00000000000E+00  0.45593999997E+02  0.45594000000E+02  0.51100000000E-03 0.  1.
         11   -1    0    0    0    0 -0.00000000000E+00 -0.00000000000E+00 -0.45593999997E+02  0.45594000000E+02  0.51100000000E-03 0. -1.
    9900012    2    1    2    0    0 -0.55130837150E+01  0.27042966332E+02  0.15968871436E+02  0.59301937605E+02  0.49999988287E+02 0.  0.
         12    1    1    2    0    0  0.55130837150E+01 -0.27042966332E+02 -0.15968871436E+02  0.31886062395E+02  0.00000000000E+00 0. -1.
         11    1    3    3    0    0  0.94175794249E+01  0.15873146363E+02  0.22123130611E+02  0.28811117402E+02  0.51100000000E-03 0. -1.
        -11    1    3    3    0    0 -0.59286487362E+01  0.12971344439E+02 -0.12794990958E+02  0.19160283042E+02  0.51100000000E-03 0.  1.
        -12    1    3    3    0    0 -0.90020144037E+01 -0.18015244699E+01  0.66407317829E+01  0.11330537161E+02  0.00000000000E+00 0.  1.
</event>
<event>
 7    1  0.4489290E-013  0.5930194E+02  0.7816164E-02  0.1266605E+00
        -11   -1    0    0    0    0  0.00000000000E+00  0.00000000000E+00  0.45593999997E+02  0.45594000000E+02  0.51100000000E-03 0.  1.
         11   -1    0    0    0    0 -0.00000000000E+00 -0.00000000000E+00 -0.45593999997E+02  0.45594000000E+02  0.51100000000E-03 0. -1.
    9900012    2    1    2    0    0  0.27964255229E+02  0.15313723272E+02  0.45956571961E+00  0.59301938913E+02  0.49999990672E+02 0.  0.
         12    1    1    2    0    0 -0.27964255229E+02 -0.15313723272E+02 -0.45956571961E+00  0.31886061087E+02  0.00000000000E+00 0. -1.
         11    1    3    3    0    0  0.17724274714E+01 -0.61206833833E+01  0.44245558115E+01  0.77576387264E+01  0.51100000000E-03 0. -1.
        -11    1    3    3    0    0  0.35407604261E+02  0.21746482666E+02 -0.63122297664E+01  0.42029182632E+02  0.51100000000E-03 0.  1.
        -12    1    3    3    0    0 -0.92157765031E+01 -0.31207601031E+00  0.23472396745E+01  0.95151175548E+01  0.00000000000E+00 0.  1.
</event>
<event>
 7    1  0.4489290E-013  0.5930196E+02  0.7816164E-02  0.1266605E+00
        -11   -1    0    0    0    0  0.00000000000E+00  0.00000000000E+00  0.45593999997E+02  0.45594000000E+02  0.51100000000E-03 0.  1.
         11   -1    0    0    0    0 -0.00000000000E+00 -0.00000000000E+00 -0.45593999997E+02  0.45594000000E+02  0.51100000000E-03 0. -1.
    9900012    2    1    2    0    0 -0.28846191827E+01  0.27082939998E+02  0.16580498288E+02  0.59301959320E+02  0.50000027889E+02 0.  0.
         12    1    1    2    0    0  0.28846191827E+01 -0.27082939998E+02 -0.16580498288E+02  0.31886040680E+02  0.00000000000E+00 0. -1.
         11    1    3    3    0    0  0.93074193210E+01  0.25826897497E+02  0.16827987562E+02  0.32199966683E+02  0.51100000000E-03 0.  1.
        -11    1    3    3    0    0 -0.15732172766E+02 -0.70016374118E+01  0.31329434659E+01  0.17502557568E+02  0.51100000000E-03 0. -1.
         12    1    3    3    0    0  0.35401342623E+01  0.82576799126E+01 -0.33804327403E+01  0.95994350691E+01  0.00000000000E+00 0. -1.
</event>
<event>
 7    1  0.4489290E-013  0.5930195E+02  0.7816164E-02  0.1266605E+00
        -11   -1    0    0    0    0  0.00000000000E+00  0.00000000000E+00  0.45593999997E+02  0.45594000000E+02  0.51100000000E-03 0.  1.
         11   -1    0    0    0    0 -0.00000000000E+00 -0.00000000000E+00 -0.45593999997E+02  0.45594000000E+02  0.51100000000E-03 0. -1.
    9900012    2    1    2    0    0 -0.27604272205E+02  0.63462505635E+00  0.15947464661E+02  0.59301949413E+02  0.50000009821E+02 0.  0.
         12    1    1    2    0    0  0.27604272205E+02 -0.63462505635E+00 -0.15947464661E+02  0.31886050587E+02  0.00000000000E+00 0. -1.
         11    1    3    3    0    0 -0.21281938583E+02 -0.11652751181E+02  0.24739237952E+02  0.34651658180E+02  0.51100000000E-03 0. -1.
        -11    1    3    3    0    0 -0.48498944841E+01  0.14889196399E+02 -0.31559971856E+00  0.15662351335E+02  0.51100000000E-03 0.  1.
         12    1    3    3    0    0 -0.14724391378E+01 -0.26018201617E+01 -0.84761735722E+01  0.89879398972E+01  0.00000000000E+00 0. -1.
</event>
<event>
 7    1  0.4489290E-013  0.5930194E+02  0.7816164E-02  0.1266605E+00
        -11   -1    0    0    0    0  0.00000000000E+00  0.00000000000E+00  0.45593999997E+02  0.45594000000E+02  0.51100000000E-03 0. -1.
         11   -1    0    0    0    0 -0.00000000000E+00 -0.00000000000E+00 -0.45593999997E+02  0.45594000000E+02  0.51100000000E-03 0.  1.
    9900012    2    1    2    0    0 -0.26849840798E+02 -0.13419541485E+02 -0.10757463853E+02  0.59301936068E+02  0.49999985483E+02 0.  0.
         12    1    1    2    0    0  0.26849840798E+02  0.13419541485E+02  0.10757463853E+02  0.31886063932E+02  0.00000000000E+00 0. -1.
         11    1    3    3    0    0  0.25452997804E+01  0.11503168617E+02  0.36252022172E+01  0.12326537656E+02  0.51100000000E-03 0. -1.
        -11    1    3    3    0    0 -0.31357105129E+02 -0.17308236381E+02 -0.15511899478E+02  0.39031552805E+02  0.51100000000E-03 0.  1.
         12    1    3    3    0    0  0.19619645505E+01 -0.76144737210E+01  0.11292334078E+01  0.79438456074E+01  0.00000000000E+00 0. -1.
</event>
<event>
 7    1  0.4489290E-013  0.5930185E+02  0.7816164E-02  0.1266605E+00
        -11   -1    0    0    0    0  0.00000000000E+00  0.00000000000E+00  0.45593999997E+02  0.45594000000E+02  0.51100000000E-03 0.  1.
         11   -1    0    0    0    0 -0.00000000000E+00 -0.00000000000E+00 -0.45593999997E+02  0.45594000000E+02  0.51100000000E-03 0. -1.
    9900012    2    1    2    0    0 -0.25790223135E+02 -0.33840562251E+01  0.18442854653E+02  0.59301853578E+02  0.49999835041E+02 0.  0.
         12    1    1    2    0    0  0.25790223135E+02  0.33840562251E+01 -0.18442854653E+02  0.31886146422E+02  0.00000000000E+00 0. -1.
         11    1    3    3    0    0 -0.16961977068E+02  0.83700169276E+00 -0.98024878480E+01  0.19608620711E+02  0.51100000000E-03 0. -1.
        -11    1    3    3    0    0 -0.10515607768E+02 -0.17666821060E+01  0.32666296521E+02  0.34362568313E+02  0.51100000000E-03 0.  1.
        -12    1    3    3    0    0  0.16873617011E+01 -0.24543758119E+01 -0.44209540205E+01  0.53306645540E+01  0.00000000000E+00 0.  1.
</event>
<event>
 7    1  0.4489290E-013  0.5930195E+02  0.7816164E-02  0.1266605E+00
        -11   -1    0    0    0    0  0.00000000000E+00  0.00000000000E+00  0.45593999997E+02  0.45594000000E+02  0.51100000000E-03 0. -1.
         11   -1    0    0    0    0 -0.00000000000E+00 -0.00000000000E+00 -0.45593999997E+02  0.45594000000E+02  0.51100000000E-03 0.  1.
    9900012    2    1    2    0    0  0.27809632249E+02  0.10317580297E+02 -0.11700092034E+02  0.59301948776E+02  0.50000008660E+02 0.  0.
         12    1    1    2    0    0 -0.27809632249E+02 -0.10317580297E+02  0.11700092034E+02  0.31886051224E+02  0.00000000000E+00 0. -1.
         11    1    3    3    0    0  0.11125424739E+02 -0.13827575983E+02 -0.13610010528E+02  0.22365359824E+02  0.51100000000E-03 0. -1.
        -11    1    3    3    0    0  0.19526547205E+01  0.12474940755E+02  0.10357485207E+02  0.16331396369E+02  0.51100000000E-03 0.  1.
         12    1    3    3    0    0  0.14731552790E+02  0.11670215526E+02 -0.84475667135E+01  0.20605192584E+02  0.00000000000E+00 0. -1.
</event>
<event>
 7    1  0.4489290E-013  0.5930196E+02  0.7816164E-02  0.1266605E+00
        -11   -1    0    0    0    0  0.00000000000E+00  0.00000000000E+00  0.45593999997E+02  0.45594000000E+02  0.51100000000E-03 0. -1.
         11   -1    0    0    0    0 -0.00000000000E+00 -0.00000000000E+00 -0.45593999997E+02  0.45594000000E+02  0.51100000000E-03 0.  1.
    9900012    2    1    2    0    0 -0.25078607674E+01  0.28269163222E+02  0.14535631175E+02  0.59301960288E+02  0.50000029654E+02 0.  0.
         12    1    1    2    0    0  0.25078607674E+01 -0.28269163222E+02 -0.14535631175E+02  0.31886039712E+02  0.00000000000E+00 0. -1.
         11    1    3    3    0    0  0.51803132618E+01 -0.33782055935E+00  0.11192399642E+02  0.12337729866E+02  0.51100000000E-03 0. -1.
        -11    1    3    3    0    0 -0.11870473690E+02  0.28442441071E+02 -0.10454989459E+02  0.32545159464E+02  0.51100000000E-03 0.  1.
        -12    1    3    3    0    0  0.41822996607E+01  0.16454270962E+00  0.13798220991E+02  0.14419070958E+02  0.00000000000E+00 0.  1.
</event>
<event>
 7    1  0.4489290E-013  0.5930193E+02  0.7816164E-02  0.1266605E+00
        -11   -1    0    0    0    0  0.00000000000E+00  0.00000000000E+00  0.45593999997E+02  0.45594000000E+02  0.51100000000E-03 0. -1.
         11   -1    0    0    0    0 -0.00000000000E+00 -0.00000000000E+00 -0.45593999997E+02  0.45594000000E+02  0.51100000000E-03 0.  1.
    9900012    2    1    2    0    0  0.83553823381E+01  0.28796085849E+02 -0.10848705051E+02  0.59301931326E+02  0.49999976834E+02 0.  0.
         12    1    1    2    0    0 -0.83553823381E+01 -0.28796085849E+02  0.10848705051E+02  0.31886068674E+02  0.00000000000E+00 0. -1.
         11    1    3    3    0    0  0.16692280698E+02  0.26051348121E+02 -0.13616808861E+02  0.33804178109E+02  0.51100000000E-03 0.  1.
        -11    1    3    3    0    0 -0.14316327218E+02  0.37564503039E+01  0.85716253347E+01  0.17103827204E+02  0.51100000000E-03 0. -1.
         12    1    3    3    0    0  0.59794288581E+01 -0.10117125762E+01 -0.58035215244E+01  0.83939260117E+01  0.00000000000E+00 0. -1.
</event>
<event>
 7    1  0.4489290E-013  0.5930201E+02  0.7816164E-02  0.1266605E+00
        -11   -1    0    0    0    0  0.00000000000E+00  0.00000000000E+00  0.45593999997E+02  0.45594000000E+02  0.51100000000E-03 0.  1.
         11   -1    0    0    0    0 -0.00000000000E+00 -0.00000000000E+00 -0.45593999997E+02  0.45594000000E+02  0.51100000000E-03 0. -1.
    9900012    2    1    2    0    0 -0.18930758612E+02 -0.25398249438E+02 -0.36430165790E+01  0.59302011448E+02  0.50000122959E+02 0.  0.
         12    1    1    2    0    0  0.18930758612E+02  0.25398249438E+02  0.36430165790E+01  0.31885988552E+02  0.00000000000E+00 0. -1.
         11    1    3    3    0    0 -0.12878465843E+01  0.78870835458E+01 -0.10447644545E+02  0.13153627351E+02  0.51100000000E-03 0. -1.
        -11    1    3    3    0    0  0.36530404368E+01 -0.20461030577E+02  0.30359882500E+01  0.21005135125E+02  0.51100000000E-03 0.  1.
         12    1    3    3    0    0 -0.21295952464E+02 -0.12824302406E+02  0.37686397164E+01  0.25143248972E+02  0.00000000000E+00 0. -1.
</event>
<event>
 7    1  0.4489290E-013  0.5930194E+02  0.7816164E-02  0.1266605E+00
        -11   -1    0    0    0    0  0.00000000000E+00  0.00000000000E+00  0.45593999997E+02  0.45594000000E+02  0.51100000000E-03 0.  1.
         11   -1    0    0    0    0 -0.00000000000E+00 -0.00000000000E+00 -0.45593999997E+02  0.45594000000E+02  0.51100000000E-03 0. -1.
    9900012    2    1    2    0    0 -0.14274850067E+02  0.64768436759E+01  0.27766885189E+02  0.59301940953E+02  0.49999994393E+02 0.  0.
         12    1    1    2    0    0  0.14274850067E+02 -0.64768436759E+01 -0.27766885189E+02  0.31886059047E+02  0.00000000000E+00 0. -1.
         11    1    3    3    0    0  0.40237493390E+01  0.14540818729E+02  0.22450180116E+02  0.27048781037E+02  0.51100000000E-03 0. -1.
        -11    1    3    3    0    0 -0.20185887350E+02 -0.54864884238E+01  0.12516178380E+02  0.24376757882E+02  0.51100000000E-03 0.  1.
        -12    1    3    3    0    0  0.18872879438E+01 -0.25774866297E+01 -0.71994733074E+01  0.78764020348E+01  0.00000000000E+00 0.  1.
</event>
<event>
 7    1  0.4489290E-013  0.5930197E+02  0.7816164E-02  0.1266605E+00
        -11   -1    0    0    0    0  0.00000000000E+00  0.00000000000E+00  0.45593999997E+02  0.45594000000E+02  0.51100000000E-03 0. -1.
         11   -1    0    0    0    0 -0.00000000000E+00 -0.00000000000E+00 -0.45593999997E+02  0.45594000000E+02  0.51100000000E-03 0.  1.
    9900012    2    1    2    0    0  0.23982470289E+02 -0.19310676820E+02 -0.82860158782E+01  0.59301965760E+02  0.50000039634E+02 0.  0.
         12    1    1    2    0    0 -0.23982470289E+02  0.19310676820E+02  0.82860158782E+01  0.31886034240E+02  0.00000000000E+00 0. -1.
         11    1    3    3    0    0  0.92916412736E+01  0.16222362464E+02 -0.51688419053E+01  0.19396302956E+02  0.51100000000E-03 0. -1.
        -11    1    3    3    0    0  0.75068754948E+01 -0.25264996099E+02  0.18591165825E+01  0.26422140760E+02  0.51100000000E-03 0.  1.
         12    1    3    3    0    0  0.71839535209E+01 -0.10268043184E+02 -0.49762905553E+01  0.13483522044E+02  0.00000000000E+00 0. -1.
</event>
<event>
 7    1  0.4489290E-013  0.5930196E+02  0.7816164E-02  0.1266605E+00
        -11   -1    0    0    0    0  0.00000000000E+00  0.00000000000E+00  0.45593999997E+02  0.45594000000E+02  0.51100000000E-03 0.  1.
         11   -1    0    0    0    0 -0.00000000000E+00 -0.00000000000E+00 -0.45593999997E+02  0.45594000000E+02  0.51100000000E-03 0. -1.
    9900012    2    1    2    0    0 -0.69643281919E+00  0.17660702689E+02  0.26539290278E+02  0.59301962827E+02  0.50000034285E+02 0.  0.
         12    1    1    2    0    0  0.69643281919E+00 -0.17660702689E+02 -0.26539290278E+02  0.31886037173E+02  0.00000000000E+00 0. -1.
         11    1    3    3    0    0 -0.87869983818E+01 -0.51940574473E+01  0.55905625347E+01  0.11638039485E+02  0.51100000000E-03 0. -1.
        -11    1    3    3    0    0  0.19985294228E+02  0.22240011449E+02  0.10119742797E+02  0.31566426613E+02  0.51100000000E-03 0.  1.
        -12    1    3    3    0    0 -0.11894728665E+02  0.61474868749E+00  0.10828984947E+02  0.16097496729E+02  0.00000000000E+00 0.  1.
</event>
<event>
 7    1  0.4489290E-013  0.5930197E+02  0.7816164E-02  0.1266605E+00
        -11   -1    0    0    0    0  0.00000000000E+00  0.00000000000E+00  0.45593999997E+02  0.45594000000E+02  0.51100000000E-03 0.  1.
         11   -1    0    0    0    0 -0.00000000000E+00 -0.00000000000E+00 -0.45593999997E+02  0.45594000000E+02  0.51100000000E-03 0. -1.
    9900012    2    1    2    0    0 -0.53779278530E+01 -0.28507659910E+02  0.13232914538E+02  0.59301971575E+02  0.50000050239E+02 0.  0.
         12    1    1    2    0    0  0.53779278530E+01  0.28507659910E+02 -0.13232914538E+02  0.31886028425E+02  0.00000000000E+00 0. -1.
         11    1    3    3    0    0 -0.83237472776E+00  0.24391355632E+01  0.23235873912E+02  0.23378367495E+02  0.51100000000E-03 0.  1.
        -11    1    3    3    0    0 -0.68165296095E+01 -0.10979603010E+02 -0.91028184744E+01  0.15807531832E+02  0.51100000000E-03 0. -1.
         12    1    3    3    0    0  0.22709764842E+01 -0.19967192463E+02 -0.90014090000E+00  0.20116072248E+02  0.00000000000E+00 0. -1.
</event>
<event>
 7    1  0.4489290E-013  0.5930199E+02  0.7816164E-02  0.1266605E+00
        -11   -1    0    0    0    0  0.00000000000E+00  0.00000000000E+00  0.45593999997E+02  0.45594000000E+02  0.51100000000E-03 0.  1.
         11   -1    0    0    0    0 -0.00000000000E+00 -0.00000000000E+00 -0.45593999997E+02  0.45594000000E+02  0.51100000000E-03 0. -1.
    9900012    2    1    2    0    0  0.30305158621E+02  0.38995313261E+01  0.91163942988E+01  0.59301990080E+02  0.50000083988E+02 0.  0.
         12    1    1    2    0    0 -0.30305158621E+02 -0.38995313261E+01 -0.91163942988E+01  0.31886009920E+02  0.00000000000E+00 0. -1.
         11    1    3    3    0    0  0.39932427101E+02 -0.44127765365E+01  0.12628148764E+02  0.42113435770E+02  0.51100000000E-03 0. -1.
        -11    1    3    3    0    0 -0.70921232255E+01  0.16900254361E+01  0.26870657810E+01  0.77701171544E+01  0.51100000000E-03 0.  1.
         12    1    3    3    0    0 -0.25351452542E+01  0.66222824265E+01 -0.61988202465E+01  0.94184371551E+01  0.00000000000E+00 0. -1.
</event>
<event>
 7    1  0.4489290E-013  0.5930177E+02  0.7816164E-02  0.1266605E+00
        -11   -1    0    0    0    0  0.00000000000E+00  0.00000000000E+00  0.45593999997E+02  0.45594000000E+02  0.51100000000E-03 0. -1.
         11   -1    0    0    0    0 -0.00000000000E+00 -0.00000000000E+00 -0.45593999997E+02  0.45594000000E+02  0.51100000000E-03 0.  1.
    9900012    2    1    2    0    0  0.81118960726E+01 -0.30246413200E+02  0.60069198228E+01  0.59301773269E+02  0.49999688576E+02 0.  0.
         12    1    1    2    0    0 -0.81118960726E+01  0.30246413200E+02 -0.60069198228E+01  0.31886226731E+02  0.00000000000E+00 0. -1.
         11    1    3    3    0    0  0.25844793221E+01 -0.26828676034E+00 -0.11683453054E+01  0.28489545742E+01  0.51100000000E-03 0. -1.
        -11    1    3    3    0    0  0.14996946160E+01 -0.39247070281E+02  0.16594646190E+02  0.42637587784E+02  0.51100000000E-03 0.  1.
        -12    1    3    3    0    0  0.40277221345E+01  0.92689438412E+01 -0.94193810621E+01  0.13815230911E+02  0.00000000000E+00 0.  1.
</event>
<event>
 7    1  0.4489290E-013  0.5930197E+02  0.7816164E-02  0.1266605E+00
        -11   -1    0    0    0    0  0.00000000000E+00  0.00000000000E+00  0.45593999997E+02  0.45594000000E+02  0.51100000000E-03 0.  1.
         11   -1    0    0    0    0 -0.00000000000E+00 -0.00000000000E+00 -0.45593999997E+02  0.45594000000E+02  0.51100000000E-03 0. -1.
    9900012    2    1    2    0    0  0.45739791282E+01 -0.28432479271E+02  0.13689118583E+02  0.59301966535E+02  0.50000041047E+02 0.  0.
         12    1    1    2    0    0 -0.45739791282E+01  0.28432479271E+02 -0.13689118583E+02  0.31886033465E+02  0.00000000000E+00 0. -1.
         11    1    3    3    0    0 -0.16030152710E+02 -0.18509319351E+02  0.21866061257E+01  0.24583367250E+02  0.51100000000E-03 0.  1.
        -11    1    3    3    0    0  0.14052472135E+02  0.47408572230E+01 -0.22379841413E+00  0.14832322350E+02  0.51100000000E-03 0. -1.
        -12    1    3    3    0    0  0.65516597030E+01 -0.14664017143E+02  0.11726310872E+02  0.19886276934E+02  0.00000000000E+00 0.  1.
</event>
<event>
 7    1  0.4489290E-013  0.5930194E+02  0.7816164E-02  0.1266605E+00
        -11   -1    0    0    0    0  0.00000000000E+00  0.00000000000E+00  0.45593999997E+02  0.45594000000E+02  0.51100000000E-03 0.  1.
         11   -1    0    0    0    0 -0.00000000000E+00 -0.00000000000E+00 -0.45593999997E+02  0.45594000000E+02  0.51100000000E-03 0. -1.
    9900012    2    1    2    0    0  0.69199826531E+01 -0.14525069597E+02  0.27529201040E+02  0.59301941657E+02  0.49999995677E+02 0.  0.
         12    1    1    2    0    0 -0.69199826531E+01  0.14525069597E+02 -0.27529201040E+02  0.31886058343E+02  0.00000000000E+00 0. -1.
         11    1    3    3    0    0  0.16266638714E+02 -0.27994283343E+02  0.11488891267E+02  0.34355175124E+02  0.51100000000E-03 0. -1.
        -11    1    3    3    0    0  0.98336514010E+00  0.64158924400E+01  0.67601695298E+01  0.93717967932E+01  0.51100000000E-03 0.  1.
         12    1    3    3    0    0 -0.10330021201E+02  0.70533213068E+01  0.92801402434E+01  0.15574969740E+02  0.00000000000E+00 0. -1.
</event>
<event>
 7    1  0.4489290E-013  0.5930202E+02  0.7816164E-02  0.1266604E+00
        -11   -1    0    0    0    0  0.00000000000E+00  0.00000000000E+00  0.45593999997E+02  0.45594000000E+02  0.51100000000E-03 0.  1.
         11   -1    0    0    0    0 -0.00000000000E+00 -0.00000000000E+00 -0.45593999997E+02  0.45594000000E+02  0.51100000000E-03 0. -1.
    9900012    2    1    2    0    0  0.31452120730E+02  0.13935845489E+01 -0.50534734144E+01  0.59302022363E+02  0.50000142865E+02 0.  0.
         12    1    1    2    0    0 -0.31452120730E+02 -0.13935845489E+01  0.50534734144E+01  0.31885977637E+02  0.00000000000E+00 0. -1.
         11    1    3    3    0    0  0.88771939869E+01  0.10324824771E+02 -0.14333129864E+02  0.19769805047E+02  0.51100000000E-03 0. -1.
        -11    1    3    3    0    0  0.14381712837E+02  0.50534890304E+01  0.15897613416E+02  0.22025111307E+02  0.51100000000E-03 0.  1.
        -12    1    3    3    0    0  0.81932139059E+01 -0.13984729253E+02 -0.66179569661E+01  0.17507106008E+02  0.00000000000E+00 0.  1.
</event>
<event>
 7    1  0.4489290E-013  0.5930195E+02  0.7816164E-02  0.1266605E+00
        -11   -1    0    0    0    0  0.00000000000E+00  0.00000000000E+00  0.45593999997E+02  0.45594000000E+02  0.51100000000E-03 0. -1.
         11   -1    0    0    0    0 -0.00000000000E+00 -0.00000000000E+00 -0.45593999997E+02  0.45594000000E+02  0.51100000000E-03 0.  1.
    9900012    2    1    2    0    0 -0.25565592877E+02  0.14940721199E+02 -0.11827752958E+02  0.59301946165E+02  0.50000003899E+02 0.  0.
         12    1    1    2    0    0  0.25565592877E+02 -0.14940721199E+02  0.11827752958E+02  0.31886053835E+02  0.00000000000E+00 0. -1.
         11    1    3    3    0    0  0.64367749417E+01  0.11611813947E+01 -0.18709542058E+02  0.19819873313E+02  0.51100000000E-03 0. -1.
        -11    1    3    3    0    0 -0.45185273647E+01  0.20562644617E+01  0.81862339271E+01  0.95739092983E+01  0.51100000000E-03 0.  1.
         12    1    3    3    0    0 -0.27483840454E+02  0.11723275343E+02 -0.13044448275E+01  0.29908163554E+02  0.00000000000E+00 0. -1.
</event>
<event>
 7    1  0.4489290E-013  0.5930194E+02  0.7816164E-02  0.1266605E+00
        -11   -1    0    0    0    0  0.00000000000E+00  0.00000000000E+00  0.45593999997E+02  0.45594000000E+02  0.51100000000E-03 0.  1.
         11   -1    0    0    0    0 -0.00000000000E+00 -0.00000000000E+00 -0.45593999997E+02  0.45594000000E+02  0.51100000000E-03 0. -1.
    9900012    2    1    2    0    0  0.55113520076E+01  0.19658028995E+02  0.24493009888E+02  0.59301942886E+02  0.49999997917E+02 0.  0.
         12    1    1    2    0    0 -0.55113520076E+01 -0.19658028995E+02 -0.24493009888E+02  0.31886057114E+02  0.00000000000E+00 0. -1.
         11    1    3    3    0    0  0.19983161601E+02  0.20865407447E+01  0.11473022941E+02  0.23136781442E+02  0.51100000000E-03 0. -1.
        -11    1    3    3    0    0 -0.14398125761E+02 -0.14348091151E+01  0.78797911944E+01  0.16475916125E+02  0.51100000000E-03 0.  1.
        -12    1    3    3    0    0 -0.73683832476E-01  0.19006297365E+02  0.51401957527E+01  0.19689245319E+02  0.00000000000E+00 0.  1.
</event>
<event>
 7    1  0.4489290E-013  0.5930193E+02  0.7816164E-02  0.1266605E+00
        -11   -1    0    0    0    0  0.00000000000E+00  0.00000000000E+00  0.45593999997E+02  0.45594000000E+02  0.51100000000E-03 0. -1.
         11   -1    0    0    0    0 -0.00000000000E+00 -0.00000000000E+00 -0.45593999997E+02  0.45594000000E+02  0.51100000000E-03 0.  1.
    9900012    2    1    2    0    0  0.25373978609E+02  0.16020358740E+02 -0.10781028856E+02  0.59301933015E+02  0.49999979915E+02 0.  0.
         12    1    1    2    0    0 -0.25373978609E+02 -0.16020358740E+02  0.10781028856E+02  0.31886066985E+02  0.00000000000E+00 0. -1.
         11    1    3    3    0    0  0.24541729133E+02 -0.38052082034E-01  0.97373731939E+01  0.26402923205E+02  0.51100000000E-03 0. -1.
        -11    1    3    3    0    0 -0.16763546529E+01  0.17133083484E+02 -0.23321381857E+02  0.28986886114E+02  0.51100000000E-03 0.  1.
        -12    1    3    3    0    0  0.25086041293E+01 -0.10746726621E+01  0.28029798076E+01  0.39121236956E+01  0.00000000000E+00 0.  1.
</event>
<event>
 7    1  0.4489290E-013  0.5930206E+02  0.7816164E-02  0.1266604E+00
        -11   -1    0    0    0    0  0.00000000000E+00  0.00000000000E+00  0.45593999997E+02  0.45594000000E+02  0.51100000000E-03 0. -1.
         11   -1    0    0    0    0 -0.00000000000E+00 -0.00000000000E+00 -0.45593999997E+02  0.45594000000E+02  0.51100000000E-03 0.  1.
    9900012    2    1    2    0    0 -0.78465328255E+01  0.96299064468E+01 -0.29366817679E+02  0.59302060213E+02  0.50000211893E+02 0.  0.
         12    1    1    2    0    0  0.78465328255E+01 -0.96299064468E+01  0.29366817679E+02  0.31885939787E+02  0.00000000000E+00 0. -1.
         11    1    3    3    0    0  0.89664829104E+01  0.13970944357E+02 -0.12875735856E+02  0.21008799968E+02  0.51100000000E-03 0. -1.
        -11    1    3    3    0    0 -0.71681266290E+01 -0.11974352292E+02 -0.20981628538E+02  0.25199124758E+02  0.51100000000E-03 0.  1.
        -12    1    3    3    0    0 -0.96448891070E+01  0.76333143816E+01  0.44905467153E+01  0.13094135486E+02  0.00000000000E+00 0.  1.
</event>
<event>
 7    1  0.4489290E-013  0.5930195E+02  0.7816164E-02  0.1266605E+00
        -11   -1    0    0    0    0  0.00000000000E+00  0.00000000000E+00  0.45593999997E+02  0.45594000000E+02  0.51100000000E-03 0. -1.
         11   -1    0    0    0    0 -0.00000000000E+00 -0.00000000000E+00 -0.45593999997E+02  0.45594000000E+02  0.51100000000E-03 0.  1.
    9900012    2    1    2    0    0 -0.79267500481E+01 -0.30325528245E+02  0.58522691126E+01  0.59301951586E+02  0.50000013785E+02 0.  0.
         12    1    1    2    0    0  0.79267500481E+01  0.30325528245E+02 -0.58522691126E+01  0.31886048414E+02  0.00000000000E+00 0. -1.
         11    1    3    3    0    0  0.89380508242E+01 -0.30003563816E+02 -0.56305973545E+01  0.31808901601E+02  0.51100000000E-03 0.  1.
        -11    1    3    3    0    0 -0.14040555359E+02 -0.71752862574E+01  0.26948627631E+01  0.15996381254E+02  0.51100000000E-03 0. -1.
         12    1    3    3    0    0 -0.28242455133E+01  0.68533218287E+01  0.87880037040E+01  0.11496668731E+02  0.00000000000E+00 0. -1.
</event>
<event>
 7    1  0.4489290E-013  0.5930192E+02  0.7816164E-02  0.1266605E+00
        -11   -1    0    0    0    0  0.00000000000E+00  0.00000000000E+00  0.45593999997E+02  0.45594000000E+02  0.51100000000E-03 0. -1.
         11   -1    0    0    0    0 -0.00000000000E+00 -0.00000000000E+00 -0.45593999997E+02  0.45594000000E+02  0.51100000000E-03 0.  1.
    9900012    2    1    2    0    0 -0.21318137196E+02 -0.68663026242E+01 -0.22696097023E+02  0.59301923018E+02  0.49999961683E+02 0.  0.
         12    1    1    2    0    0  0.21318137196E+02  0.68663026242E+01  0.22696097023E+02  0.31886076982E+02  0.00000000000E+00 0. -1.
         11    1    3    3    0    0  0.51367895896E+01 -0.96979396025E+01 -0.15711930473E+02  0.19165108903E+02  0.51100000000E-03 0.  1.
        -11    1    3    3    0    0 -0.19524265271E+02  0.92358378131E+01  0.74881435095E+01  0.22859788450E+02  0.51100000000E-03 0. -1.
         12    1    3    3    0    0 -0.69306615138E+01 -0.64042008349E+01 -0.14472310060E+02  0.17277025665E+02  0.00000000000E+00 0. -1.
</event>
<event>
 7    1  0.4489290E-013  0.5930193E+02  0.7816164E-02  0.1266605E+00
        -11   -1    0    0    0    0  0.00000000000E+00  0.00000000000E+00  0.45593999997E+02  0.45594000000E+02  0.51100000000E-03 0.  1.
         11   -1    0    0    0    0 -0.00000000000E+00 -0.00000000000E+00 -0.45593999997E+02  0.45594000000E+02  0.51100000000E-03 0. -1.
    9900012    2    1    2    0    0  0.17819355565E+02  0.18685019753E+01  0.26376137037E+02  0.59301931923E+02  0.49999977925E+02 0.  0.
         12    1    1    2    0    0 -0.17819355565E+02 -0.18685019753E+01 -0.26376137037E+02  0.31886068077E+02  0.00000000000E+00 0. -1.
         11    1    3    3    0    0 -0.52602078939E+00 -0.15206601676E+02  0.26052496359E+00  0.15217927123E+02  0.51100000000E-03 0. -1.
        -11    1    3    3    0    0  0.22620245970E+02  0.20075777022E+02  0.21425371998E+02  0.37064253888E+02  0.51100000000E-03 0.  1.
         12    1    3    3    0    0 -0.42748696155E+01 -0.30006733712E+01  0.46902400754E+01  0.70197509126E+01  0.00000000000E+00 0. -1.
</event>
<event>
 7    1  0.4489290E-013  0.5930193E+02  0.7816164E-02  0.1266605E+00
        -11   -1    0    0    0    0  0.00000000000E+00  0.00000000000E+00  0.45593999997E+02  0.45594000000E+02  0.51100000000E-03 0.  1.
         11   -1    0    0    0    0 -0.00000000000E+00 -0.00000000000E+00 -0.45593999997E+02  0.45594000000E+02  0.51100000000E-03 0. -1.
    9900012    2    1    2    0    0 -0.12811026031E+02 -0.16542265501E+02  0.24061425877E+02  0.59301934845E+02  0.49999983252E+02 0.  0.
         12    1    1    2    0    0  0.12811026031E+02  0.16542265501E+02 -0.24061425877E+02  0.31886065155E+02  0.00000000000E+00 0. -1.
         11    1    3    3    0    0 -0.21298121329E+02 -0.44628293891E+00 -0.61392990228E+01  0.22169802285E+02  0.51100000000E-03 0. -1.
        -11    1    3    3    0    0  0.57807235225E+01 -0.43042564653E+01  0.20161477411E+02  0.21410944860E+02  0.51100000000E-03 0.  1.
        -12    1    3    3    0    0  0.27063717759E+01 -0.11791726096E+02  0.10039247489E+02  0.15721187699E+02  0.00000000000E+00 0.  1.
</event>
<event>
 7    1  0.4489290E-013  0.5930193E+02  0.7816164E-02  0.1266605E+00
        -11   -1    0    0    0    0  0.00000000000E+00  0.00000000000E+00  0.45593999997E+02  0.45594000000E+02  0.51100000000E-03 0.  1.
         11   -1    0    0    0    0 -0.00000000000E+00 -0.00000000000E+00 -0.45593999997E+02  0.45594000000E+02  0.51100000000E-03 0. -1.
    9900012    2    1    2    0    0  0.18605675573E+02 -0.75722448058E+00  0.25883908370E+02  0.59301933059E+02  0.49999979996E+02 0.  0.
         12    1    1    2    0    0 -0.18605675573E+02  0.75722448058E+00 -0.25883908370E+02  0.31886066941E+02  0.00000000000E+00 0. -1.
         11    1    3    3    0    0  0.11124717707E+02 -0.19585832971E+01 -0.13592032762E+02  0.17673108030E+02  0.51100000000E-03 0. -1.
        -11    1    3    3    0    0  0.55309626668E+01  0.56686372705E+01  0.29207042518E+02  0.30261796533E+02  0.51100000000E-03 0.  1.
         12    1    3    3    0    0  0.19499951987E+01 -0.44672784540E+01  0.10268898615E+02  0.11367028496E+02  0.00000000000E+00 0. -1.
</event>
<event>
 7    1  0.4489290E-013  0.5930197E+02  0.7816164E-02  0.1266605E+00
        -11   -1    0    0    0    0  0.00000000000E+00  0.00000000000E+00  0.45593999997E+02  0.45594000000E+02  0.51100000000E-03 0. -1.
         11   -1    0    0    0    0 -0.00000000000E+00 -0.00000000000E+00 -0.45593999997E+02  0.45594000000E+02  0.51100000000E-03 0.  1.
    9900012    2    1    2    0    0  0.80921181657E+01  0.19879435495E+02 -0.23580603604E+02  0.59301965466E+02  0.50000039097E+02 0.  0.
         12    1    1    2    0    0 -0.80921181657E+01 -0.19879435495E+02  0.23580603604E+02  0.31886034534E+02  0.00000000000E+00 0. -1.
         11    1    3    3    0    0 -0.16626868236E+01  0.25485296462E+01  0.35174175644E+01  0.46509953144E+01  0.51100000000E-03 0. -1.
        -11    1    3    3    0    0  0.12607715539E+02  0.27293098714E+02 -0.31362582001E+02  0.43445129514E+02  0.51100000000E-03 0.  1.
        -12    1    3    3    0    0 -0.28529105499E+01 -0.99621928649E+01  0.42645608323E+01  0.11205840637E+02  0.00000000000E+00 0.  1.
</event>
<event>
 7    1  0.4489290E-013  0.5930196E+02  0.7816164E-02  0.1266605E+00
        -11   -1    0    0    0    0  0.00000000000E+00  0.00000000000E+00  0.45593999997E+02  0.45594000000E+02  0.51100000000E-03 0.  1.
         11   -1    0    0    0    0 -0.00000000000E+00 -0.00000000000E+00 -0.45593999997E+02  0.45594000000E+02  0.51100000000E-03 0. -1.
    9900012    2    1    2    0    0 -0.30758951962E+02 -0.23336523141E+01 -0.80722153761E+01  0.59301957285E+02  0.50000024178E+02 0.  0.
         12    1    1    2    0    0  0.30758951962E+02  0.23336523141E+01  0.80722153761E+01  0.31886042715E+02  0.00000000000E+00 0. -1.
         11    1    3    3    0    0 -0.81354749044E+01 -0.41594010956E+01  0.13193574269E+02  0.16048581609E+02  0.51100000000E-03 0.  1.
        -11    1    3    3    0    0  0.45443383348E+00  0.88291802891E+01 -0.16427906510E+02  0.18655751051E+02  0.51100000000E-03 0. -1.
         12    1    3    3    0    0 -0.23077910892E+02 -0.70034315077E+01 -0.48378831347E+01  0.24597624626E+02  0.00000000000E+00 0. -1.
</event>
<event>
 7    1  0.4489290E-013  0.5930196E+02  0.7816164E-02  0.1266605E+00
        -11   -1    0    0    0    0  0.00000000000E+00  0.00000000000E+00  0.45593999997E+02  0.45594000000E+02  0.51100000000E-03 0.  1.
         11   -1    0    0    0    0 -0.00000000000E+00 -0.00000000000E+00 -0.45593999997E+02  0.45594000000E+02  0.51100000000E-03 0. -1.
    9900012    2    1    2    0    0 -0.38642716577E+01  0.17009768323E+02  0.26691850963E+02  0.59301957259E+02  0.50000024131E+02 0.  0.
         12    1    1    2    0    0  0.38642716577E+01 -0.17009768323E+02 -0.26691850963E+02  0.31886042741E+02  0.00000000000E+00 0. -1.
         11    1    3    3    0    0  0.12792670319E+02  0.14267800499E+02  0.19511220699E+02  0.27347948339E+02  0.51100000000E-03 0. -1.
        -11    1    3    3    0    0 -0.10332004094E+02  0.88026279066E+01  0.14987366060E+02  0.20220230175E+02  0.51100000000E-03 0.  1.
         12    1    3    3    0    0 -0.63249378820E+01 -0.60606600821E+01 -0.78067357956E+01  0.11733778744E+02  0.00000000000E+00 0. -1.
</event>
<event>
 7    1  0.4489290E-013  0.5930193E+02  0.7816164E-02  0.1266605E+00
        -11   -1    0    0    0    0  0.00000000000E+00  0.00000000000E+00  0.45593999997E+02  0.45594000000E+02  0.51100000000E-03 0.  1.
         11   -1    0    0    0    0 -0.00000000000E+00 -0.00000000000E+00 -0.45593999997E+02  0.45594000000E+02  0.51100000000E-03 0. -1.
    9900012    2    1    2    0    0  0.14880163725E+02 -0.13469214275E+02  0.24776646135E+02  0.59301934088E+02  0.49999981872E+02 0.  0.
         12    1    1    2    0    0 -0.14880163725E+02  0.13469214275E+02 -0.24776646135E+02  0.31886065912E+02  0.00000000000E+00 0. -1.
         11    1    3    3    0    0  0.21626117042E+01 -0.16276859685E+02  0.57042754403E+00  0.16429803359E+02  0.51100000000E-03 0. -1.
        -11    1    3    3    0    0  0.17530396237E+02  0.55787828144E+01  0.29779854195E+02  0.35003961576E+02  0.51100000000E-03 0.  1.
        -12    1    3    3    0    0 -0.48128442164E+01 -0.27711374044E+01 -0.55736356040E+01  0.78681691525E+01  0.00000000000E+00 0.  1.
</event>
<event>
 7    1  0.4489290E-013  0.5930195E+02  0.7816164E-02  0.1266605E+00
        -11   -1    0    0    0    0  0.00000000000E+00  0.00000000000E+00  0.45593999997E+02  0.45594000000E+02  0.51100000000E-03 0. -1.
         11   -1    0    0    0    0 -0.00000000000E+00 -0.00000000000E+00 -0.45593999997E+02  0.45594000000E+02  0.51100000000E-03 0.  1.
    9900012    2    1    2    0    0 -0.23125470195E+02 -0.12583730268E+02 -0.17988407812E+02  0.59301945763E+02  0.50000003165E+02 0.  0.
         12    1    1    2    0    0  0.23125470195E+02  0.12583730268E+02  0.17988407812E+02  0.31886054237E+02  0.00000000000E+00 0. -1.
         11    1    3    3    0    0 -0.26810301133E+02 -0.26498916297E+02 -0.61348772586E+01  0.38191903998E+02  0.51100000000E-03 0.  1.
        -11    1    3    3    0    0  0.68226995623E+01  0.71319137160E+01 -0.54893890418E+01  0.11293662598E+02  0.51100000000E-03 0. -1.
        -12    1    3    3    0    0 -0.31378686249E+01  0.67832723128E+01 -0.63641415113E+01  0.98163791671E+01  0.00000000000E+00 0.  1.
</event>
<event>
 7    1  0.4489290E-013  0.5930194E+02  0.7816164E-02  0.1266605E+00
        -11   -1    0    0    0    0  0.00000000000E+00  0.00000000000E+00  0.45593999997E+02  0.45594000000E+02  0.51100000000E-03 0. -1.
         11   -1    0    0    0    0 -0.00000000000E+00 -0.00000000000E+00 -0.45593999997E+02  0.45594000000E+02  0.51100000000E-03 0.  1.
    9900012    2    1    2    0    0  0.29713593057E+02  0.11012284015E+02 -0.35429784406E+01  0.59301941795E+02  0.49999995928E+02 0.  0.
         12    1    1    2    0    0 -0.29713593057E+02 -0.11012284015E+02  0.35429784406E+01  0.31886058205E+02  0.00000000000E+00 0. -1.
         11    1    3    3    0    0 -0.10788243197E+02 -0.14918253697E+01  0.99830399515E+01  0.14774059061E+02  0.51100000000E-03 0. -1.
        -11    1    3    3    0    0  0.15575571203E+02  0.43303408057E+01 -0.59054995409E+01  0.17211193883E+02  0.51100000000E-03 0.  1.
         12    1    3    3    0    0  0.24926265052E+02  0.81737685792E+01 -0.76205188512E+01  0.27316688851E+02  0.00000000000E+00 0. -1.
</event>
<event>
 7    1  0.4489290E-013  0.5930190E+02  0.7816164E-02  0.1266605E+00
        -11   -1    0    0    0    0  0.00000000000E+00  0.00000000000E+00  0.45593999997E+02  0.45594000000E+02  0.51100000000E-03 0.  1.
         11   -1    0    0    0    0 -0.00000000000E+00 -0.00000000000E+00 -0.45593999997E+02  0.45594000000E+02  0.51100000000E-03 0. -1.
    9900012    2    1    2    0    0 -0.26441984094E+02  0.11543559789E+02 -0.13575387931E+02  0.59301898751E+02  0.49999917426E+02 0.  0.
         12    1    1    2    0    0  0.26441984094E+02 -0.11543559789E+02  0.13575387931E+02  0.31886101249E+02  0.00000000000E+00 0. -1.
         11    1    3    3    0    0 -0.22216480688E+02  0.16743490312E+02  0.21753459302E+01  0.27904275876E+02  0.51100000000E-03 0. -1.
        -11    1    3    3    0    0  0.41572205111E+00 -0.46108880264E+01  0.68776457267E+01  0.82906648840E+01  0.51100000000E-03 0.  1.
        -12    1    3    3    0    0 -0.46412254566E+01 -0.58904249742E+00 -0.22628379588E+02  0.23106957990E+02  0.00000000000E+00 0.  1.
</event>
<event>
 7    1  0.4489290E-013  0.5930194E+02  0.7816164E-02  0.1266605E+00
        -11   -1    0    0    0    0  0.00000000000E+00  0.00000000000E+00  0.45593999997E+02  0.45594000000E+02  0.51100000000E-03 0. -1.
         11   -1    0    0    0    0 -0.00000000000E+00 -0.00000000000E+00 -0.45593999997E+02  0.45594000000E+02  0.51100000000E-03 0.  1.
    9900012    2    1    2    0    0 -0.24912266044E+02 -0.11055682005E+02 -0.16549060492E+02  0.59301944941E+02  0.50000001666E+02 0.  0.
         12    1    1    2    0    0  0.24912266044E+02  0.11055682005E+02  0.16549060492E+02  0.31886055059E+02  0.00000000000E+00 0. -1.
         11    1    3    3    0    0 -0.26420777297E+02  0.65644428861E+01  0.83691880740E+01  0.28481444708E+02  0.51100000000E-03 0. -1.
        -11    1    3    3    0    0  0.14567366488E+01 -0.56125285243E+01 -0.55154940083E+01  0.80027015762E+01  0.51100000000E-03 0.  1.
         12    1    3    3    0    0  0.51774603816E-01 -0.12007596366E+02 -0.19402754558E+02  0.22817798657E+02  0.00000000000E+00 0. -1.
</event>
<event>
 7    1  0.4489290E-013  0.5930193E+02  0.7816164E-02  0.1266605E+00
        -11   -1    0    0    0    0  0.00000000000E+00  0.00000000000E+00  0.45593999997E+02  0.45594000000E+02  0.51100000000E-03 0. -1.
         11   -1    0    0    0    0 -0.00000000000E+00 -0.00000000000E+00 -0.45593999997E+02  0.45594000000E+02  0.51100000000E-03 0.  1.
    9900012    2    1    2    0    0  0.96579859385E+01 -0.29880833808E+02 -0.55299596315E+01  0.59301931334E+02  0.49999976850E+02 0.  0.
         12    1    1    2    0    0 -0.96579859385E+01  0.29880833808E+02  0.55299596315E+01  0.31886068666E+02  0.00000000000E+00 0. -1.
         11    1    3    3    0    0 -0.46077339175E+01 -0.94170666008E+01  0.15648393534E+02  0.18835726046E+02  0.51100000000E-03 0. -1.
        -11    1    3    3    0    0  0.46839326332E+01 -0.22243438764E+02 -0.20643162333E+02  0.30705861726E+02  0.51100000000E-03 0.  1.
        -12    1    3    3    0    0  0.95817872228E+01  0.17796715569E+01 -0.53519083295E+00  0.97603435626E+01  0.00000000000E+00 0.  1.
</event>
<event>
 7    1  0.4489290E-013  0.5930192E+02  0.7816164E-02  0.1266605E+00
        -11   -1    0    0    0    0  0.00000000000E+00  0.00000000000E+00  0.45593999997E+02  0.45594000000E+02  0.51100000000E-03 0. -1.
         11   -1    0    0    0    0 -0.00000000000E+00 -0.00000000000E+00 -0.45593999997E+02  0.45594000000E+02  0.51100000000E-03 0.  1.
    9900012    2    1    2    0    0 -0.60061177999E+01 -0.25143232225E+02 -0.18667254508E+02  0.59301922025E+02  0.49999959873E+02 0.  0.
         12    1    1    2    0    0  0.60061177999E+01  0.25143232225E+02  0.18667254508E+02  0.31886077975E+02  0.00000000000E+00 0. -1.
         11    1    3    3    0    0  0.23272568447E+01  0.90623000135E+01  0.60975624146E+00  0.93762043968E+01  0.51100000000E-03 0. -1.
        -11    1    3    3    0    0 -0.29769922331E+01 -0.36600900462E+02 -0.85579722042E+01  0.37705799102E+02  0.51100000000E-03 0.  1.
        -12    1    3    3    0    0 -0.53563824116E+01  0.23953682239E+01 -0.10719038546E+02  0.12219918527E+02  0.00000000000E+00 0.  1.
</event>
<event>
 7    1  0.4489290E-013  0.5930196E+02  0.7816164E-02  0.1266605E+00
        -11   -1    0    0    0    0  0.00000000000E+00  0.00000000000E+00  0.45593999997E+02  0.45594000000E+02  0.51100000000E-03 0.  1.
         11   -1    0    0    0    0 -0.00000000000E+00 -0.00000000000E+00 -0.45593999997E+02  0.45594000000E+02  0.51100000000E-03 0. -1.
    9900012    2    1    2    0    0  0.31060598494E+02  0.19335837989E+01  0.69440481696E+01  0.59301963399E+02  0.50000035329E+02 0.  0.
         12    1    1    2    0    0 -0.31060598494E+02 -0.19335837989E+01 -0.69440481696E+01  0.31886036601E+02  0.00000000000E+00 0. -1.
         11    1    3    3    0    0  0.85868124283E+01  0.24026220229E+01  0.87267590775E+01  0.12476468432E+02  0.51100000000E-03 0. -1.
        -11    1    3    3    0    0  0.19475767769E+02  0.15838587433E+01 -0.20169907792E+02  0.28082722790E+02  0.51100000000E-03 0.  1.
        -12    1    3    3    0    0  0.29980182969E+01 -0.20528969672E+01  0.18387196884E+02  0.18742772178E+02  0.00000000000E+00 0.  1.
</event>
<event>
 7    1  0.4489290E-013  0.5930192E+02  0.7816164E-02  0.1266605E+00
        -11   -1    0    0    0    0  0.00000000000E+00  0.00000000000E+00  0.45593999997E+02  0.45594000000E+02  0.51100000000E-03 0.  1.
         11   -1    0    0    0    0 -0.00000000000E+00 -0.00000000000E+00 -0.45593999997E+02  0.45594000000E+02  0.51100000000E-03 0. -1.
    9900012    2    1    2    0    0  0.14472649072E+02 -0.20658612375E+02  0.19506054220E+02  0.59301921727E+02  0.49999959329E+02 0.  0.
         12    1    1    2    0    0 -0.14472649072E+02  0.20658612375E+02 -0.19506054220E+02  0.31886078273E+02  0.00000000000E+00 0. -1.
         11    1    3    3    0    0  0.62806967954E+01  0.11915302774E+02  0.57731710765E+01  0.14654388318E+02  0.51100000000E-03 0. -1.
        -11    1    3    3    0    0  0.73130423932E+01 -0.16680353767E+02 -0.61085704382E+01  0.19210138571E+02  0.51100000000E-03 0.  1.
        -12    1    3    3    0    0  0.87890988332E+00 -0.15893561381E+02  0.19841453582E+02  0.25437394839E+02  0.00000000000E+00 0.  1.
</event>
<event>
 7    1  0.4489290E-013  0.5930199E+02  0.7816164E-02  0.1266605E+00
        -11   -1    0    0    0    0  0.00000000000E+00  0.00000000000E+00  0.45593999997E+02  0.45594000000E+02  0.51100000000E-03 0. -1.
         11   -1    0    0    0    0 -0.00000000000E+00 -0.00000000000E+00 -0.45593999997E+02  0.45594000000E+02  0.51100000000E-03 0.  1.
    9900012    2    1    2    0    0  0.49159349084E+01 -0.30681136016E+02 -0.71567675810E+01  0.59301986680E+02  0.50000077787E+02 0.  0.
         12    1    1    2    0    0 -0.49159349084E+01  0.30681136016E+02  0.71567675810E+01  0.31886013320E+02  0.00000000000E+00 0. -1.
         11    1    3    3    0    0  0.19997707913E+02 -0.28956274684E+02 -0.17176888146E+02  0.39158902589E+02  0.51100000000E-03 0. -1.
        -11    1    3    3    0    0 -0.56592748181E+01 -0.47446987079E+01  0.57808956879E+01  0.93786093058E+01  0.51100000000E-03 0.  1.
         12    1    3    3    0    0 -0.94224981860E+01  0.30198373758E+01  0.42392248773E+01  0.10764474785E+02  0.00000000000E+00 0. -1.
</event>
<event>
 7    1  0.4489290E-013  0.5930191E+02  0.7816164E-02  0.1266605E+00
        -11   -1    0    0    0    0  0.00000000000E+00  0.00000000000E+00  0.45593999997E+02  0.45594000000E+02  0.51100000000E-03 0.  1.
         11   -1    0    0    0    0 -0.00000000000E+00 -0.00000000000E+00 -0.45593999997E+02  0.45594000000E+02  0.51100000000E-03 0. -1.
    9900012    2    1    2    0    0  0.24169571696E+02  0.20746860839E+02 -0.14567310560E+01  0.59301913755E+02  0.49999944790E+02 0.  0.
         12    1    1    2    0    0 -0.24169571696E+02 -0.20746860839E+02  0.14567310560E+01  0.31886086245E+02  0.00000000000E+00 0. -1.
         11    1    3    3    0    0  0.20605955300E+02  0.14298406862E+02  0.15460978919E+01  0.25128474915E+02  0.51100000000E-03 0. -1.
        -11    1    3    3    0    0  0.40478282575E+01 -0.66501576109E+01  0.11966748880E+02  0.14276294648E+02  0.51100000000E-03 0.  1.
        -12    1    3    3    0    0 -0.48421186141E+00  0.13098611588E+02 -0.14969577828E+02  0.19897144192E+02  0.00000000000E+00 0.  1.
</event>
<event>
 7    1  0.4489290E-013  0.5930191E+02  0.7816164E-02  0.1266605E+00
        -11   -1    0    0    0    0  0.00000000000E+00  0.00000000000E+00  0.45593999997E+02  0.45594000000E+02  0.51100000000E-03 0.  1.
         11   -1    0    0    0    0 -0.00000000000E+00 -0.00000000000E+00 -0.45593999997E+02  0.45594000000E+02  0.51100000000E-03 0. -1.
    9900012    2    1    2    0    0  0.29074799066E+02 -0.12160859551E+02  0.48468899230E+01  0.59301909182E+02  0.49999936449E+02 0.  0.
         12    1    1    2    0    0 -0.29074799066E+02  0.12160859551E+02 -0.48468899230E+01  0.31886090818E+02  0.00000000000E+00 0. -1.
         11    1    3    3    0    0 -0.11041862394E+02  0.24379939324E+00 -0.12052177991E+01  0.11110117618E+02  0.51100000000E-03 0. -1.
        -11    1    3    3    0    0  0.13513055562E+02  0.65133890460E+01  0.37730522382E+01  0.15468123058E+02  0.51100000000E-03 0.  1.
         12    1    3    3    0    0  0.26603605898E+02 -0.18918047990E+02  0.22790554839E+01  0.32723668505E+02  0.00000000000E+00 0. -1.
</event>
<event>
 7    1  0.4489290E-013  0.5930193E+02  0.7816164E-02  0.1266605E+00
        -11   -1    0    0    0    0  0.00000000000E+00  0.00000000000E+00  0.45593999997E+02  0.45594000000E+02  0.51100000000E-03 0. -1.
         11   -1    0    0    0    0 -0.00000000000E+00 -0.00000000000E+00 -0.45593999997E+02  0.45594000000E+02  0.51100000000E-03 0.  1.
    9900012    2    1    2    0    0  0.24561242975E+02  0.19195969943E+02 -0.67068379660E+01  0.59301927899E+02  0.49999970585E+02 0.  0.
         12    1    1    2    0    0 -0.24561242975E+02 -0.19195969943E+02  0.67068379660E+01  0.31886072101E+02  0.00000000000E+00 0. -1.
         11    1    3    3    0    0  0.10852065382E+02 -0.55594432185E+01 -0.20162369429E+02  0.23562594789E+02  0.51100000000E-03 0.  1.
        -11    1    3    3    0    0  0.11356402387E+02  0.27039602323E+02  0.10025119850E+02  0.30993725127E+02  0.51100000000E-03 0. -1.
         12    1    3    3    0    0  0.23527752062E+01 -0.22841891615E+01  0.34304116127E+01  0.47456079830E+01  0.00000000000E+00 0. -1.
</event>
<event>
 7    1  0.4489290E-013  0.5930194E+02  0.7816164E-02  0.1266605E+00
        -11   -1    0    0    0    0  0.00000000000E+00  0.00000000000E+00  0.45593999997E+02  0.45594000000E+02  0.51100000000E-03 0. -1.
         11   -1    0    0    0    0 -0.00000000000E+00 -0.00000000000E+00 -0.45593999997E+02  0.45594000000E+02  0.51100000000E-03 0.  1.
    9900012    2    1    2    0    0  0.16253815128E+01  0.18868642513E+02 -0.25652547755E+02  0.59301941265E+02  0.49999994962E+02 0.  0.
         12    1    1    2    0    0 -0.16253815128E+01 -0.18868642513E+02  0.25652547755E+02  0.31886058735E+02  0.00000000000E+00 0. -1.
         11    1    3    3    0    0 -0.15369737871E+01 -0.11845236071E+01  0.53566273729E+01  0.56972661577E+01  0.51100000000E-03 0. -1.
        -11    1    3    3    0    0  0.11303270751E+02  0.19610070113E+02 -0.37078147300E+02  0.43440853893E+02  0.51100000000E-03 0.  1.
        -12    1    3    3    0    0 -0.81409154506E+01  0.44309600634E+00  0.60689721724E+01  0.10163821214E+02  0.00000000000E+00 0.  1.
</event>
<event>
 7    1  0.4489290E-013  0.5930193E+02  0.7816164E-02  0.1266605E+00
        -11   -1    0    0    0    0  0.00000000000E+00  0.00000000000E+00  0.45593999997E+02  0.45594000000E+02  0.51100000000E-03 0.  1.
         11   -1    0    0    0    0 -0.00000000000E+00 -0.00000000000E+00 -0.45593999997E+02  0.45594000000E+02  0.51100000000E-03 0. -1.
    9900012    2    1    2    0    0 -0.18466853718E+02 -0.17393174092E+02  0.19317718693E+02  0.59301930208E+02  0.49999974797E+02 0.  0.
         12    1    1    2    0    0  0.18466853718E+02  0.17393174092E+02 -0.19317718693E+02  0.31886069792E+02  0.00000000000E+00 0. -1.
         11    1    3    3    0    0  0.12865315776E+02 -0.35861956464E+01  0.87205890379E+01  0.15950731101E+02  0.51100000000E-03 0. -1.
        -11    1    3    3    0    0 -0.29822004334E+02 -0.19593172815E+02  0.11049227444E+02  0.37354113440E+02  0.51100000000E-03 0.  1.
        -12    1    3    3    0    0 -0.15101651604E+01  0.57861943695E+01 -0.45209778931E+00  0.59970856676E+01  0.00000000000E+00 0.  1.
</event>
<event>
 7    1  0.4489290E-013  0.5930201E+02  0.7816164E-02  0.1266605E+00
        -11   -1    0    0    0    0  0.00000000000E+00  0.00000000000E+00  0.45593999997E+02  0.45594000000E+02  0.51100000000E-03 0. -1.
         11   -1    0    0    0    0 -0.00000000000E+00 -0.00000000000E+00 -0.45593999997E+02  0.45594000000E+02  0.51100000000E-03 0.  1.
    9900012    2    1    2    0    0  0.23096913677E+02 -0.21979477801E+02  0.38953784221E+00  0.59302006123E+02  0.50000113246E+02 0.  0.
         12    1    1    2    0    0 -0.23096913677E+02  0.21979477801E+02 -0.38953784221E+00  0.31885993877E+02  0.00000000000E+00 0. -1.
         11    1    3    3    0    0  0.13550249191E+02 -0.63097553335E+01  0.13643054811E+02  0.20237470453E+02  0.51100000000E-03 0. -1.
        -11    1    3    3    0    0  0.92278172046E+01 -0.21566473918E+01 -0.21314742224E+02  0.23326422243E+02  0.51100000000E-03 0.  1.
        -12    1    3    3    0    0  0.31884728160E+00 -0.13513075076E+02  0.80612252550E+01  0.15738113426E+02  0.00000000000E+00 0.  1.
</event>
<event>
 7    1  0.4489290E-013  0.5930190E+02  0.7816164E-02  0.1266605E+00
        -11   -1    0    0    0    0  0.00000000000E+00  0.00000000000E+00  0.45593999997E+02  0.45594000000E+02  0.51100000000E-03 0. -1.
         11   -1    0    0    0    0 -0.00000000000E+00 -0.00000000000E+00 -0.45593999997E+02  0.45594000000E+02  0.51100000000E-03 0.  1.
    9900012    2    1    2    0    0  0.12206072100E+02  0.71718372852E+01 -0.28570962475E+02  0.59301900475E+02  0.49999920571E+02 0.  0.
         12    1    1    2    0    0 -0.12206072100E+02 -0.71718372852E+01  0.28570962475E+02  0.31886099525E+02  0.00000000000E+00 0. -1.
         11    1    3    3    0    0  0.17677367156E+02 -0.10028225665E+02 -0.39076616366E+01  0.20696000563E+02  0.51100000000E-03 0. -1.
        -11    1    3    3    0    0 -0.66490194230E+01 -0.28531933745E+01 -0.14244895832E+02  0.15977084504E+02  0.51100000000E-03 0.  1.
         12    1    3    3    0    0  0.11777243666E+01  0.20053256325E+02 -0.10418405007E+02  0.22628815409E+02  0.00000000000E+00 0. -1.
</event>
<event>
 7    1  0.4489290E-013  0.5930193E+02  0.7816164E-02  0.1266605E+00
        -11   -1    0    0    0    0  0.00000000000E+00  0.00000000000E+00  0.45593999997E+02  0.45594000000E+02  0.51100000000E-03 0.  1.
         11   -1    0    0    0    0 -0.00000000000E+00 -0.00000000000E+00 -0.45593999997E+02  0.45594000000E+02  0.51100000000E-03 0. -1.
    9900012    2    1    2    0    0 -0.17876430791E+01 -0.25419752865E+02  0.19166689403E+02  0.59301929590E+02  0.49999973669E+02 0.  0.
         12    1    1    2    0    0  0.17876430791E+01  0.25419752865E+02 -0.19166689403E+02  0.31886070410E+02  0.00000000000E+00 0. -1.
         11    1    3    3    0    0 -0.12756234882E+01 -0.10046405448E+02 -0.68741204965E+01  0.12239730821E+02  0.51100000000E-03 0. -1.
        -11    1    3    3    0    0  0.17141268964E+02 -0.12394419675E+02  0.12078362867E+02  0.24358398769E+02  0.51100000000E-03 0.  1.
        -12    1    3    3    0    0 -0.17653288555E+02 -0.29789277430E+01  0.13962447033E+02  0.22703800000E+02  0.00000000000E+00 0.  1.
</event>
<event>
 7    1  0.4819100E-013  0.5930200E+02  0.7816164E-02  0.1266605E+00
        -11   -1    0    0    0    0  0.00000000000E+00  0.00000000000E+00  0.45593999997E+02  0.45594000000E+02  0.51100000000E-03 0. -1.
         11   -1    0    0    0    0 -0.00000000000E+00 -0.00000000000E+00 -0.45593999997E+02  0.45594000000E+02  0.51100000000E-03 0.  1.
    9900012    2    1    2    0    0  0.77534948365E+01  0.95539301999E+01 -0.29416367006E+02  0.59302001312E+02  0.50000104473E+02 0.  0.
         12    1    1    2    0    0 -0.77534948365E+01 -0.95539301999E+01  0.29416367006E+02  0.31885998688E+02  0.00000000000E+00 0. -1.
         11    1    3    3    0    0  0.95374595917E+01 -0.18917083772E+01  0.85840631047E+01  0.12970267372E+02  0.51100000000E-03 0. -1.
        -11    1    3    3    0    0 -0.33951664802E+00  0.18820979572E+02 -0.24706753440E+02  0.31060718108E+02  0.51100000000E-03 0.  1.
         12    1    3    3    0    0 -0.14444481072E+01 -0.73753409945E+01 -0.13293676671E+02  0.15271015832E+02  0.00000000000E+00 0. -1.
</event>
<event>
 7    1  0.4489290E-013  0.5930195E+02  0.7816164E-02  0.1266605E+00
        -11   -1    0    0    0    0  0.00000000000E+00  0.00000000000E+00  0.45593999997E+02  0.45594000000E+02  0.51100000000E-03 0. -1.
         11   -1    0    0    0    0 -0.00000000000E+00 -0.00000000000E+00 -0.45593999997E+02  0.45594000000E+02  0.51100000000E-03 0.  1.
    9900012    2    1    2    0    0 -0.14599393463E+02 -0.27744643265E+02 -0.58148684233E+01  0.59301949536E+02  0.50000010047E+02 0.  0.
         12    1    1    2    0    0  0.14599393463E+02  0.27744643265E+02  0.58148684233E+01  0.31886050464E+02  0.00000000000E+00 0. -1.
         11    1    3    3    0    0  0.16872781544E+02 -0.10929924852E+02  0.33203533232E+01  0.20375935825E+02  0.51100000000E-03 0. -1.
        -11    1    3    3    0    0 -0.20576740039E+02 -0.62866225763E+01 -0.57351194422E+00  0.21523307605E+02  0.51100000000E-03 0.  1.
         12    1    3    3    0    0 -0.10895434967E+02 -0.10528095837E+02 -0.85617098023E+01  0.17402706106E+02  0.00000000000E+00 0. -1.
</event>
<event>
 7    1  0.4489290E-013  0.5930185E+02  0.7816164E-02  0.1266605E+00
        -11   -1    0    0    0    0  0.00000000000E+00  0.00000000000E+00  0.45593999997E+02  0.45594000000E+02  0.51100000000E-03 0.  1.
         11   -1    0    0    0    0 -0.00000000000E+00 -0.00000000000E+00 -0.45593999997E+02  0.45594000000E+02  0.51100000000E-03 0. -1.
    9900012    2    1    2    0    0 -0.13673821536E+01 -0.36015229498E+01  0.31652579502E+02  0.59301851116E+02  0.49999830552E+02 0.  0.
         12    1    1    2    0    0  0.13673821536E+01  0.36015229498E+01 -0.31652579502E+02  0.31886148884E+02  0.00000000000E+00 0. -1.
         11    1    3    3    0    0 -0.23699468206E+01 -0.18105585071E+02  0.33935566857E+02  0.38536366680E+02  0.51100000000E-03 0. -1.
        -11    1    3    3    0    0 -0.54045304530E+01  0.88693220537E+01  0.28984450332E+01  0.10783079661E+02  0.51100000000E-03 0.  1.
         12    1    3    3    0    0  0.64070951199E+01  0.56347400672E+01 -0.51814323887E+01  0.99824047754E+01  0.00000000000E+00 0. -1.
</event>
<event>
 7    1  0.4489290E-013  0.5930196E+02  0.7816164E-02  0.1266605E+00
        -11   -1    0    0    0    0  0.00000000000E+00  0.00000000000E+00  0.45593999997E+02  0.45594000000E+02  0.51100000000E-03 0.  1.
         11   -1    0    0    0    0 -0.00000000000E+00 -0.00000000000E+00 -0.45593999997E+02  0.45594000000E+02  0.51100000000E-03 0. -1.
    9900012    2    1    2    0    0 -0.19852195447E+02 -0.13691639273E+02  0.20860226418E+02  0.59301957657E+02  0.50000024857E+02 0.  0.
         12    1    1    2    0    0  0.19852195447E+02  0.13691639273E+02 -0.20860226418E+02  0.31886042343E+02  0.00000000000E+00 0. -1.
         11    1    3    3    0    0 -0.34155674320E+02 -0.34071247917E+01  0.92202478151E+01  0.35541968961E+02  0.51100000000E-03 0. -1.
        -11    1    3    3    0    0  0.50004288127E+01 -0.56816511888E+01  0.11011094844E+02  0.13361499110E+02  0.51100000000E-03 0.  1.
         12    1    3    3    0    0  0.93030500595E+01 -0.46028632921E+01  0.62888375901E+00  0.10398489586E+02  0.00000000000E+00 0. -1.
</event>
<event>
 7    1  0.4489290E-013  0.5930194E+02  0.7816164E-02  0.1266605E+00
        -11   -1    0    0    0    0  0.00000000000E+00  0.00000000000E+00  0.45593999997E+02  0.45594000000E+02  0.51100000000E-03 0.  1.
         11   -1    0    0    0    0 -0.00000000000E+00 -0.00000000000E+00 -0.45593999997E+02  0.45594000000E+02  0.51100000000E-03 0. -1.
    9900012    2    1    2    0    0  0.29644913097E+02  0.64412192500E+01  0.98189060729E+01  0.59301935734E+02  0.49999984873E+02 0.  0.
         12    1    1    2    0    0 -0.29644913097E+02 -0.64412192500E+01 -0.98189060729E+01  0.31886064266E+02  0.00000000000E+00 0. -1.
         11    1    3    3    0    0  0.73864147281E+00  0.18548372074E+01 -0.10110794222E+02  0.10306026021E+02  0.51100000000E-03 0. -1.
        -11    1    3    3    0    0  0.36024388904E+02  0.40155237565E+01  0.20817259442E+02  0.41799991840E+02  0.51100000000E-03 0.  1.
         12    1    3    3    0    0 -0.71181172796E+01  0.57085828610E+00 -0.88755914708E+00  0.71959178726E+01  0.00000000000E+00 0. -1.
</event>
<event>
 7    1  0.4489290E-013  0.5930194E+02  0.7816164E-02  0.1266605E+00
        -11   -1    0    0    0    0  0.00000000000E+00  0.00000000000E+00  0.45593999997E+02  0.45594000000E+02  0.51100000000E-03 0. -1.
         11   -1    0    0    0    0 -0.00000000000E+00 -0.00000000000E+00 -0.45593999997E+02  0.45594000000E+02  0.51100000000E-03 0.  1.
    9900012    2    1    2    0    0 -0.13914283408E+02 -0.13834826584E+02 -0.25133866386E+02  0.59301938016E+02  0.49999989035E+02 0.  0.
         12    1    1    2    0    0  0.13914283408E+02  0.13834826584E+02  0.25133866386E+02  0.31886061984E+02  0.00000000000E+00 0. -1.
         11    1    3    3    0    0 -0.14873782208E+02 -0.58886259701E+01  0.78970492205E+01  0.17840086873E+02  0.51100000000E-03 0. -1.
        -11    1    3    3    0    0 -0.94308163581E+01 -0.12452048403E+01 -0.24923014221E+02  0.26676721508E+02  0.51100000000E-03 0.  1.
        -12    1    3    3    0    0  0.10390315158E+02 -0.67009957734E+01 -0.81079013856E+01  0.14785129635E+02  0.00000000000E+00 0.  1.
</event>
<event>
 7    1  0.4489290E-013  0.5930194E+02  0.7816164E-02  0.1266605E+00
        -11   -1    0    0    0    0  0.00000000000E+00  0.00000000000E+00  0.45593999997E+02  0.45594000000E+02  0.51100000000E-03 0.  1.
         11   -1    0    0    0    0 -0.00000000000E+00 -0.00000000000E+00 -0.45593999997E+02  0.45594000000E+02  0.51100000000E-03 0. -1.
    9900012    2    1    2    0    0  0.10344940343E+00  0.17755855487E+02  0.26484706689E+02  0.59301940440E+02  0.49999993457E+02 0.  0.
         12    1    1    2    0    0 -0.10344940343E+00 -0.17755855487E+02 -0.26484706689E+02  0.31886059560E+02  0.00000000000E+00 0. -1.
         11    1    3    3    0    0 -0.82063095887E+01  0.31589744258E+02  0.11894644221E+02  0.34738134964E+02  0.51100000000E-03 0. -1.
        -11    1    3    3    0    0  0.46754213335E+01 -0.15403100879E+01 -0.28014676624E+00  0.49305782910E+01  0.51100000000E-03 0.  1.
         12    1    3    3    0    0  0.36343376587E+01 -0.12293578683E+02  0.14870209234E+02  0.19633227186E+02  0.00000000000E+00 0. -1.
</event>
<event>
 7    1  0.4489290E-013  0.5930196E+02  0.7816164E-02  0.1266605E+00
        -11   -1    0    0    0    0  0.00000000000E+00  0.00000000000E+00  0.45593999997E+02  0.45594000000E+02  0.51100000000E-03 0. -1.
         11   -1    0    0    0    0 -0.00000000000E+00 -0.00000000000E+00 -0.45593999997E+02  0.45594000000E+02  0.51100000000E-03 0.  1.
    9900012    2    1    2    0    0  0.12875680936E+02 -0.60313799551E+01  0.28540477117E+02  0.59301960143E+02  0.50000029390E+02 0.  0.
         12    1    1    2    0    0 -0.12875680936E+02  0.60313799551E+01 -0.28540477117E+02  0.31886039857E+02  0.00000000000E+00 0. -1.
         11    1    3    3    0    0  0.25780945429E+02  0.95211247222E+01  0.12643574438E+02  0.30251759255E+02  0.51100000000E-03 0. -1.
        -11    1    3    3    0    0 -0.48667262889E+01 -0.15051812545E+02  0.78295890304E+01  0.17650624643E+02  0.51100000000E-03 0.  1.
        -12    1    3    3    0    0 -0.80385382042E+01 -0.50069213271E+00  0.80673136479E+01  0.11399576245E+02  0.00000000000E+00 0.  1.
</event>
<event>
 7    1  0.4489290E-013  0.5930204E+02  0.7816164E-02  0.1266604E+00
        -11   -1    0    0    0    0  0.00000000000E+00  0.00000000000E+00  0.45593999997E+02  0.45594000000E+02  0.51100000000E-03 0.  1.
         11   -1    0    0    0    0 -0.00000000000E+00 -0.00000000000E+00 -0.45593999997E+02  0.45594000000E+02  0.51100000000E-03 0. -1.
    9900012    2    1    2    0    0 -0.14762689563E+02  0.27696252420E+02  0.56298077285E+01  0.59302044843E+02  0.50000183862E+02 0.  0.
         12    1    1    2    0    0  0.14762689563E+02 -0.27696252420E+02 -0.56298077285E+01  0.31885955157E+02  0.00000000000E+00 0. -1.
         11    1    3    3    0    0 -0.15012097771E+02  0.19874792027E+02 -0.17013307274E+02  0.30163273401E+02  0.51100000000E-03 0. -1.
        -11    1    3    3    0    0 -0.56897051458E+01  0.10195154812E+02  0.16912923193E+02  0.20551420814E+02  0.51100000000E-03 0.  1.
         12    1    3    3    0    0  0.59391133543E+01 -0.23736944196E+01  0.57301918096E+01  0.85873506280E+01  0.00000000000E+00 0. -1.
</event>
<event>
 7    1  0.4489290E-013  0.5930196E+02  0.7816164E-02  0.1266605E+00
        -11   -1    0    0    0    0  0.00000000000E+00  0.00000000000E+00  0.45593999997E+02  0.45594000000E+02  0.51100000000E-03 0. -1.
         11   -1    0    0    0    0 -0.00000000000E+00 -0.00000000000E+00 -0.45593999997E+02  0.45594000000E+02  0.51100000000E-03 0.  1.
    9900012    2    1    2    0    0 -0.31518987519E+01 -0.21054457190E+02 -0.23738046633E+02  0.59301960872E+02  0.50000030720E+02 0.  0.
         12    1    1    2    0    0  0.31518987519E+01  0.21054457190E+02  0.23738046633E+02  0.31886039128E+02  0.00000000000E+00 0. -1.
         11    1    3    3    0    0 -0.94100193330E+01  0.37294760150E+01  0.75521672327E+01  0.12629041348E+02  0.51100000000E-03 0. -1.
        -11    1    3    3    0    0 -0.27798498389E+01 -0.67151628679E+01 -0.24190427200E+02  0.25258617259E+02  0.51100000000E-03 0.  1.
        -12    1    3    3    0    0  0.90379704200E+01 -0.18068770337E+02 -0.70997866659E+01  0.21414302265E+02  0.00000000000E+00 0.  1.
</event>
<event>
 7    1  0.4489290E-013  0.5930189E+02  0.7816164E-02  0.1266605E+00
        -11   -1    0    0    0    0  0.00000000000E+00  0.00000000000E+00  0.45593999997E+02  0.45594000000E+02  0.51100000000E-03 0. -1.
         11   -1    0    0    0    0 -0.00000000000E+00 -0.00000000000E+00 -0.45593999997E+02  0.45594000000E+02  0.51100000000E-03 0.  1.
    9900012    2    1    2    0    0  0.24198917438E+02  0.19815442705E+02  0.62036139803E+01  0.59301887017E+02  0.49999896026E+02 0.  0.
         12    1    1    2    0    0 -0.24198917438E+02 -0.19815442705E+02 -0.62036139803E+01  0.31886112983E+02  0.00000000000E+00 0. -1.
         11    1    3    3    0    0  0.18784475580E+02  0.33579919432E+02  0.14998291693E+02  0.41296685894E+02  0.51100000000E-03 0. -1.
        -11    1    3    3    0    0  0.54054887593E+01 -0.67072018045E+01 -0.54677274065E+01  0.10203034256E+02  0.51100000000E-03 0.  1.
         12    1    3    3    0    0  0.89530985915E-02 -0.70572749221E+01 -0.33269503057E+01  0.78021668670E+01  0.00000000000E+00 0. -1.
</event>
<event>
 7    1  0.4489290E-013  0.5930195E+02  0.7816164E-02  0.1266605E+00
        -11   -1    0    0    0    0  0.00000000000E+00  0.00000000000E+00  0.45593999997E+02  0.45594000000E+02  0.51100000000E-03 0.  1.
         11   -1    0    0    0    0 -0.00000000000E+00 -0.00000000000E+00 -0.45593999997E+02  0.45594000000E+02  0.51100000000E-03 0. -1.
    9900012    2    1    2    0    0  0.20076828157E+01  0.98897366092E+01  0.30247022455E+02  0.59301952143E+02  0.50000014801E+02 0.  0.
         12    1    1    2    0    0 -0.20076828157E+01 -0.98897366092E+01 -0.30247022455E+02  0.31886047857E+02  0.00000000000E+00 0. -1.
         11    1    3    3    0    0  0.74417696923E+01 -0.13946181619E+02  0.14475604144E+02  0.21434062458E+02  0.51100000000E-03 0. -1.
        -11    1    3    3    0    0  0.45009570944E+01  0.20257565694E+02  0.17527286407E+02  0.27163088037E+02  0.51100000000E-03 0.  1.
         12    1    3    3    0    0 -0.99350439710E+01  0.35783525335E+01 -0.17558680955E+01  0.10704801648E+02  0.00000000000E+00 0. -1.
</event>
<event>
 7    1  0.4489290E-013  0.5930196E+02  0.7816164E-02  0.1266605E+00
        -11   -1    0    0    0    0  0.00000000000E+00  0.00000000000E+00  0.45593999997E+02  0.45594000000E+02  0.51100000000E-03 0. -1.
         11   -1    0    0    0    0 -0.00000000000E+00 -0.00000000000E+00 -0.45593999997E+02  0.45594000000E+02  0.51100000000E-03 0.  1.
    9900012    2    1    2    0    0  0.20428952650E+02  0.25506094120E+01 -0.24348957581E+02  0.59301961519E+02  0.50000031900E+02 0.  0.
         12    1    1    2    0    0 -0.20428952650E+02 -0.25506094120E+01  0.24348957581E+02  0.31886038481E+02  0.00000000000E+00 0. -1.
         11    1    3    3    0    0  0.87868795360E+01 -0.21937184415E+02 -0.16050351863E+02  0.28566818290E+02  0.51100000000E-03 0. -1.
        -11    1    3    3    0    0  0.12960860603E+02  0.18054527021E+02 -0.92997469839E+01  0.24092221727E+02  0.51100000000E-03 0.  1.
         12    1    3    3    0    0 -0.13187874891E+01  0.64332668058E+01  0.10011412663E+01  0.66429215012E+01  0.00000000000E+00 0. -1.
</event>
<event>
 7    1  0.4489290E-013  0.5930195E+02  0.7816164E-02  0.1266605E+00
        -11   -1    0    0    0    0  0.00000000000E+00  0.00000000000E+00  0.45593999997E+02  0.45594000000E+02  0.51100000000E-03 0. -1.
         11   -1    0    0    0    0 -0.00000000000E+00 -0.00000000000E+00 -0.45593999997E+02  0.45594000000E+02  0.51100000000E-03 0.  1.
    9900012    2    1    2    0    0  0.30532110231E+02  0.86330888623E+01  0.31591125561E+01  0.59301953356E+02  0.50000017013E+02 0.  0.
         12    1    1    2    0    0 -0.30532110231E+02 -0.86330888623E+01 -0.31591125561E+01  0.31886046644E+02  0.00000000000E+00 0. -1.
         11    1    3    3    0    0 -0.30177785299E+01 -0.13243733230E+01  0.13373054654E+02  0.13773145719E+02  0.51100000000E-03 0. -1.
        -11    1    3    3    0    0  0.38043566321E+02  0.67471923817E+01 -0.74336972717E+01  0.39345868892E+02  0.51100000000E-03 0.  1.
        -12    1    3    3    0    0 -0.44936775605E+01  0.32102698036E+01 -0.27802448266E+01  0.61829387451E+01  0.00000000000E+00 0.  1.
</event>
<event>
 7    1  0.4489290E-013  0.5930196E+02  0.7816164E-02  0.1266605E+00
        -11   -1    0    0    0    0  0.00000000000E+00  0.00000000000E+00  0.45593999997E+02  0.45594000000E+02  0.51100000000E-03 0.  1.
         11   -1    0    0    0    0 -0.00000000000E+00 -0.00000000000E+00 -0.45593999997E+02  0.45594000000E+02  0.51100000000E-03 0. -1.
    9900012    2    1    2    0    0 -0.14271165420E+02 -0.18386977079E+02  0.21793856911E+02  0.59301964065E+02  0.50000036544E+02 0.  0.
         12    1    1    2    0    0  0.14271165420E+02  0.18386977079E+02 -0.21793856911E+02  0.31886035935E+02  0.00000000000E+00 0. -1.
         11    1    3    3    0    0  0.64927102088E+01  0.49726620662E+01  0.12894125629E+02  0.15268959686E+02  0.51100000000E-03 0. -1.
        -11    1    3    3    0    0 -0.13453641718E+02 -0.30216842763E+02  0.74567605481E+01  0.33906656281E+02  0.51100000000E-03 0.  1.
        -12    1    3    3    0    0 -0.73102339099E+01  0.68572036175E+01  0.14429707340E+01  0.10126348098E+02  0.00000000000E+00 0.  1.
</event>
<event>
 7    1  0.4489290E-013  0.5930197E+02  0.7816164E-02  0.1266605E+00
        -11   -1    0    0    0    0  0.00000000000E+00  0.00000000000E+00  0.45593999997E+02  0.45594000000E+02  0.51100000000E-03 0. -1.
         11   -1    0    0    0    0 -0.00000000000E+00 -0.00000000000E+00 -0.45593999997E+02  0.45594000000E+02  0.51100000000E-03 0.  1.
    9900012    2    1    2    0    0 -0.24397141157E+02  0.14948839293E+02  0.14072339523E+02  0.59301968066E+02  0.50000043840E+02 0.  0.
         12    1    1    2    0    0  0.24397141157E+02 -0.14948839293E+02 -0.14072339523E+02  0.31886031934E+02  0.00000000000E+00 0. -1.
         11    1    3    3    0    0  0.16308724791E+01 -0.10799045239E+02  0.27770797308E+01  0.11269041451E+02  0.51100000000E-03 0. -1.
        -11    1    3    3    0    0 -0.31887032695E+02  0.25474393857E+02  0.95942488599E+01  0.41925853693E+02  0.51100000000E-03 0.  1.
         12    1    3    3    0    0  0.58590190588E+01  0.27349067551E+00  0.17010109326E+01  0.61070729220E+01  0.00000000000E+00 0. -1.
</event>
<event>
 7    1  0.4489290E-013  0.5930183E+02  0.7816164E-02  0.1266605E+00
        -11   -1    0    0    0    0  0.00000000000E+00  0.00000000000E+00  0.45593999997E+02  0.45594000000E+02  0.51100000000E-03 0. -1.
         11   -1    0    0    0    0 -0.00000000000E+00 -0.00000000000E+00 -0.45593999997E+02  0.45594000000E+02  0.51100000000E-03 0.  1.
    9900012    2    1    2    0    0  0.15331887161E+02  0.26425520832E+02 -0.91297738781E+01  0.59301832369E+02  0.49999796360E+02 0.  0.
         12    1    1    2    0    0 -0.15331887161E+02 -0.26425520832E+02  0.91297738781E+01  0.31886167631E+02  0.00000000000E+00 0. -1.
         11    1    3    3    0    0  0.27574423894E+01 -0.28369527432E+01  0.94488268468E+01  0.10243637949E+02  0.51100000000E-03 0. -1.
        -11    1    3    3    0    0  0.92424911963E+01  0.17299523207E+02 -0.27492548102E+02  0.33771842533E+02  0.51100000000E-03 0.  1.
        -12    1    3    3    0    0  0.33319535753E+01  0.11962950368E+02  0.89139473771E+01  0.15286351886E+02  0.00000000000E+00 0.  1.
</event>
<event>
 7    1  0.4489290E-013  0.5930194E+02  0.7816164E-02  0.1266605E+00
        -11   -1    0    0    0    0  0.00000000000E+00  0.00000000000E+00  0.45593999997E+02  0.45594000000E+02  0.51100000000E-03 0.  1.
         11   -1    0    0    0    0 -0.00000000000E+00 -0.00000000000E+00 -0.45593999997E+02  0.45594000000E+02  0.51100000000E-03 0. -1.
    9900012    2    1    2    0    0 -0.18692264345E+02  0.85309133634E+01  0.24383259556E+02  0.59301943867E+02  0.49999999706E+02 0.  0.
         12    1    1    2    0    0  0.18692264345E+02 -0.85309133634E+01 -0.24383259556E+02  0.31886056133E+02  0.00000000000E+00 0. -1.
         11    1    3    3    0    0 -0.88186682330E+00 -0.13754060333E+02  0.10158972275E+02  0.17121815987E+02  0.51100000000E-03 0. -1.
        -11    1    3    3    0    0 -0.16463013667E+02  0.40806450835E+01 -0.28338009438E+01  0.17196305166E+02  0.51100000000E-03 0.  1.
         12    1    3    3    0    0 -0.13473838547E+01  0.18204328613E+02  0.17058088225E+02  0.24983822714E+02  0.00000000000E+00 0. -1.
</event>
<event>
 7    1  0.4489290E-013  0.5930189E+02  0.7816164E-02  0.1266605E+00
        -11   -1    0    0    0    0  0.00000000000E+00  0.00000000000E+00  0.45593999997E+02  0.45594000000E+02  0.51100000000E-03 0. -1.
         11   -1    0    0    0    0 -0.00000000000E+00 -0.00000000000E+00 -0.45593999997E+02  0.45594000000E+02  0.51100000000E-03 0.  1.
    9900012    2    1    2    0    0  0.14282190482E+02  0.15038094986E+02 -0.24219806698E+02  0.59301885432E+02  0.49999893135E+02 0.  0.
         12    1    1    2    0    0 -0.14282190482E+02 -0.15038094986E+02  0.24219806698E+02  0.31886114568E+02  0.00000000000E+00 0. -1.
         11    1    3    3    0    0  0.13701230192E+02  0.27970320911E+02 -0.18814587473E+02  0.36387515203E+02  0.51100000000E-03 0. -1.
        -11    1    3    3    0    0  0.77927424361E+01 -0.87828819356E+00 -0.39839908247E+01  0.87960450192E+01  0.51100000000E-03 0.  1.
         12    1    3    3    0    0 -0.72117821462E+01 -0.12053937731E+02 -0.14212284008E+01  0.14118325209E+02  0.00000000000E+00 0. -1.
</event>
<event>
 7    1  0.4489290E-013  0.5930190E+02  0.7816164E-02  0.1266605E+00
        -11   -1    0    0    0    0  0.00000000000E+00  0.00000000000E+00  0.45593999997E+02  0.45594000000E+02  0.51100000000E-03 0.  1.
         11   -1    0    0    0    0 -0.00000000000E+00 -0.00000000000E+00 -0.45593999997E+02  0.45594000000E+02  0.51100000000E-03 0. -1.
    9900012    2    1    2    0    0  0.22324526494E+02 -0.13609456464E+02  0.18251615221E+02  0.59301901985E+02  0.49999923325E+02 0.  0.
         12    1    1    2    0    0 -0.22324526494E+02  0.13609456464E+02 -0.18251615221E+02  0.31886098015E+02  0.00000000000E+00 0. -1.
         11    1    3    3    0    0 -0.75855808232E+01 -0.57284217553E+01 -0.65539422233E+01  0.11545995460E+02  0.51100000000E-03 0. -1.
        -11    1    3    3    0    0  0.16702483879E+02 -0.17170633815E+02  0.10391774552E+02  0.26111158763E+02  0.51100000000E-03 0.  1.
         12    1    3    3    0    0  0.13207623438E+02  0.92895991066E+01  0.14413782892E+02  0.21644747763E+02  0.00000000000E+00 0. -1.
</event>
<event>
 7    1  0.4489290E-013  0.5930199E+02  0.7816164E-02  0.1266605E+00
        -11   -1    0    0    0    0  0.00000000000E+00  0.00000000000E+00  0.45593999997E+02  0.45594000000E+02  0.51100000000E-03 0.  1.
         11   -1    0    0    0    0 -0.00000000000E+00 -0.00000000000E+00 -0.45593999997E+02  0.45594000000E+02  0.51100000000E-03 0. -1.
    9900012    2    1    2    0    0 -0.13606095426E+02  0.28784573282E+02 -0.17436151531E+01  0.59301989187E+02  0.50000082359E+02 0.  0.
         12    1    1    2    0    0  0.13606095426E+02 -0.28784573282E+02  0.17436151531E+01  0.31886010813E+02  0.00000000000E+00 0. -1.
         11    1    3    3    0    0 -0.11767427557E+01  0.23926173402E+01  0.13951417442E+02  0.14203921647E+02  0.51100000000E-03 0. -1.
        -11    1    3    3    0    0 -0.67034437465E+01  0.23370175523E+02 -0.24270231457E+02  0.34353244348E+02  0.51100000000E-03 0.  1.
        -12    1    3    3    0    0 -0.57259089241E+01  0.30217804187E+01  0.85751988615E+01  0.10744823192E+02  0.00000000000E+00 0.  1.
</event>
<event>
 7    1  0.4489290E-013  0.5930195E+02  0.7816164E-02  0.1266605E+00
        -11   -1    0    0    0    0  0.00000000000E+00  0.00000000000E+00  0.45593999997E+02  0.45594000000E+02  0.51100000000E-03 0.  1.
         11   -1    0    0    0    0 -0.00000000000E+00 -0.00000000000E+00 -0.45593999997E+02  0.45594000000E+02  0.51100000000E-03 0. -1.
    9900012    2    1    2    0    0  0.17494072120E+02  0.26649461274E+02 -0.69535905357E+00  0.59301954937E+02  0.50000019896E+02 0.  0.
         12    1    1    2    0    0 -0.17494072120E+02 -0.26649461274E+02  0.69535905357E+00  0.31886045063E+02  0.00000000000E+00 0. -1.
         11    1    3    3    0    0  0.19207410288E+02  0.97883423893E+01  0.12295144509E+02  0.24817470367E+02  0.51100000000E-03 0. -1.
        -11    1    3    3    0    0 -0.12955378635E+02  0.14863337575E+02 -0.44166360704E+01  0.20205625798E+02  0.51100000000E-03 0.  1.
         12    1    3    3    0    0  0.11242040468E+02  0.19977813093E+01 -0.85738674920E+01  0.14278858771E+02  0.00000000000E+00 0. -1.
</event>
<event>
 7    1  0.4489290E-013  0.5930196E+02  0.7816164E-02  0.1266605E+00
        -11   -1    0    0    0    0  0.00000000000E+00  0.00000000000E+00  0.45593999997E+02  0.45594000000E+02  0.51100000000E-03 0.  1.
         11   -1    0    0    0    0 -0.00000000000E+00 -0.00000000000E+00 -0.45593999997E+02  0.45594000000E+02  0.51100000000E-03 0. -1.
    9900012    2    1    2    0    0 -0.17402814150E+02  0.11916723111E+02  0.23913453308E+02  0.59301961061E+02  0.50000031065E+02 0.  0.
         12    1    1    2    0    0  0.17402814150E+02 -0.11916723111E+02 -0.23913453308E+02  0.31886038939E+02  0.00000000000E+00 0. -1.
         11    1    3    3    0    0  0.45626744729E+01 -0.55012808668E+01 -0.81720073401E+01  0.10856509280E+02  0.51100000000E-03 0. -1.
        -11    1    3    3    0    0 -0.12557684561E+02  0.54627085913E+01  0.30144231430E+02  0.33109082069E+02  0.51100000000E-03 0.  1.
         12    1    3    3    0    0 -0.94078040622E+01  0.11955295387E+02  0.19412292184E+01  0.15336369712E+02  0.00000000000E+00 0. -1.
</event>
<event>
 7    1  0.4489290E-013  0.5930196E+02  0.7816164E-02  0.1266605E+00
        -11   -1    0    0    0    0  0.00000000000E+00  0.00000000000E+00  0.45593999997E+02  0.45594000000E+02  0.51100000000E-03 0.  1.
         11   -1    0    0    0    0 -0.00000000000E+00 -0.00000000000E+00 -0.45593999997E+02  0.45594000000E+02  0.51100000000E-03 0. -1.
    9900012    2    1    2    0    0  0.18555302548E+02  0.21616504379E+02  0.14322946839E+02  0.59301963552E+02  0.50000035607E+02 0.  0.
         12    1    1    2    0    0 -0.18555302548E+02 -0.21616504379E+02 -0.14322946839E+02  0.31886036448E+02  0.00000000000E+00 0. -1.
         11    1    3    3    0    0  0.23778631706E+02  0.21464508363E+02 -0.42850172774E+01  0.32318877122E+02  0.51100000000E-03 0. -1.
        -11    1    3    3    0    0  0.14788502322E+01  0.69257751328E+01  0.15362899924E+02  0.16916620630E+02  0.51100000000E-03 0.  1.
         12    1    3    3    0    0 -0.67021793901E+01 -0.67737791165E+01  0.32450641925E+01  0.10066465800E+02  0.00000000000E+00 0. -1.
</event>
<event>
 7    1  0.4489290E-013  0.5930194E+02  0.7816164E-02  0.1266605E+00
        -11   -1    0    0    0    0  0.00000000000E+00  0.00000000000E+00  0.45593999997E+02  0.45594000000E+02  0.51100000000E-03 0.  1.
         11   -1    0    0    0    0 -0.00000000000E+00 -0.00000000000E+00 -0.45593999997E+02  0.45594000000E+02  0.51100000000E-03 0. -1.
    9900012    2    1    2    0    0  0.30083276902E+02  0.61682778574E+01  0.85830965154E+01  0.59301941186E+02  0.49999994817E+02 0.  0.
         12    1    1    2    0    0 -0.30083276902E+02 -0.61682778574E+01 -0.85830965154E+01  0.31886058814E+02  0.00000000000E+00 0. -1.
         11    1    3    3    0    0  0.18741884805E+02  0.24923610625E+02 -0.21760622735E+01  0.31259876198E+02  0.51100000000E-03 0. -1.
        -11    1    3    3    0    0  0.95580746237E+00 -0.13858879494E+02  0.86593170450E+01  0.16369663426E+02  0.51100000000E-03 0.  1.
         12    1    3    3    0    0  0.10385584635E+02 -0.48964532733E+01  0.20998417439E+01  0.11672401562E+02  0.00000000000E+00 0. -1.
</event>
<event>
 7    1  0.4489290E-013  0.5930198E+02  0.7816164E-02  0.1266605E+00
        -11   -1    0    0    0    0  0.00000000000E+00  0.00000000000E+00  0.45593999997E+02  0.45594000000E+02  0.51100000000E-03 0.  1.
         11   -1    0    0    0    0 -0.00000000000E+00 -0.00000000000E+00 -0.45593999997E+02  0.45594000000E+02  0.51100000000E-03 0. -1.
    9900012    2    1    2    0    0  0.21003202019E+02  0.12542176110E+02  0.20451839165E+02  0.59301977955E+02  0.50000061875E+02 0.  0.
         12    1    1    2    0    0 -0.21003202019E+02 -0.12542176110E+02 -0.20451839165E+02  0.31886022045E+02  0.00000000000E+00 0. -1.
         11    1    3    3    0    0 -0.22005994840E+01 -0.12728269116E+02  0.60118275023E+00  0.12931082466E+02  0.51100000000E-03 0. -1.
        -11    1    3    3    0    0  0.10036961359E+02  0.16977140835E+02  0.23203601241E+02  0.30452766953E+02  0.51100000000E-03 0.  1.
         12    1    3    3    0    0  0.13166840144E+02  0.82933043908E+01 -0.33529448262E+01  0.15918128536E+02  0.00000000000E+00 0. -1.
</event>
<event>
 7    1  0.4489290E-013  0.5930193E+02  0.7816164E-02  0.1266605E+00
        -11   -1    0    0    0    0  0.00000000000E+00  0.00000000000E+00  0.45593999997E+02  0.45594000000E+02  0.51100000000E-03 0. -1.
         11   -1    0    0    0    0 -0.00000000000E+00 -0.00000000000E+00 -0.45593999997E+02  0.45594000000E+02  0.51100000000E-03 0.  1.
    9900012    2    1    2    0    0 -0.73539949435E+01 -0.30954332307E+02  0.21141721976E+01  0.59301926954E+02  0.49999968862E+02 0.  0.
         12    1    1    2    0    0  0.73539949435E+01  0.30954332307E+02 -0.21141721976E+01  0.31886073046E+02  0.00000000000E+00 0. -1.
         11    1    3    3    0    0  0.20553645223E+02 -0.10945836976E+02  0.20769801851E+01  0.23378997540E+02  0.51100000000E-03 0. -1.
        -11    1    3    3    0    0 -0.18787428025E+02 -0.74513629482E+01  0.18602032345E+01  0.20296566653E+02  0.51100000000E-03 0.  1.
         12    1    3    3    0    0 -0.91202121415E+01 -0.12557132383E+02 -0.18230112220E+01  0.15626362760E+02  0.00000000000E+00 0. -1.
</event>
<event>
 7    1  0.4489290E-013  0.5930195E+02  0.7816164E-02  0.1266605E+00
        -11   -1    0    0    0    0  0.00000000000E+00  0.00000000000E+00  0.45593999997E+02  0.45594000000E+02  0.51100000000E-03 0.  1.
         11   -1    0    0    0    0 -0.00000000000E+00 -0.00000000000E+00 -0.45593999997E+02  0.45594000000E+02  0.51100000000E-03 0. -1.
    9900012    2    1    2    0    0 -0.12002787021E+02 -0.42077900817E+01  0.29239487301E+02  0.59301952718E+02  0.50000015849E+02 0.  0.
         12    1    1    2    0    0  0.12002787021E+02  0.42077900817E+01 -0.29239487301E+02  0.31886047282E+02  0.00000000000E+00 0. -1.
         11    1    3    3    0    0  0.28581715831E+01 -0.43211573470E+01  0.17047361471E+01  0.54541425732E+01  0.51100000000E-03 0. -1.
        -11    1    3    3    0    0 -0.19372998157E+01  0.13021549405E+02 -0.69036314981E+01  0.14865194502E+02  0.51100000000E-03 0.  1.
        -12    1    3    3    0    0 -0.12923658789E+02 -0.12908182139E+02  0.34438382652E+02  0.38982615642E+02  0.00000000000E+00 0.  1.
</event>
<event>
 7    1  0.4489290E-013  0.5930194E+02  0.7816164E-02  0.1266605E+00
        -11   -1    0    0    0    0  0.00000000000E+00  0.00000000000E+00  0.45593999997E+02  0.45594000000E+02  0.51100000000E-03 0.  1.
         11   -1    0    0    0    0 -0.00000000000E+00 -0.00000000000E+00 -0.45593999997E+02  0.45594000000E+02  0.51100000000E-03 0. -1.
    9900012    2    1    2    0    0 -0.30081974598E+02  0.41291835826E+01  0.97337382515E+01  0.59301937009E+02  0.49999987199E+02 0.  0.
         12    1    1    2    0    0  0.30081974598E+02 -0.41291835826E+01 -0.97337382515E+01  0.31886062991E+02  0.00000000000E+00 0. -1.
         11    1    3    3    0    0  0.52316274734E+01  0.89355546638E+01  0.10650041023E+02  0.14853869436E+02  0.51100000000E-03 0. -1.
        -11    1    3    3    0    0 -0.34163869811E+02 -0.15442868109E+01  0.77944516380E+01  0.35075750866E+02  0.51100000000E-03 0.  1.
         12    1    3    3    0    0 -0.11497322598E+01 -0.32620842703E+01 -0.87107544097E+01  0.93723167062E+01  0.00000000000E+00 0. -1.
</event>
<event>
 7    1  0.4489290E-013  0.5930195E+02  0.7816164E-02  0.1266605E+00
        -11   -1    0    0    0    0  0.00000000000E+00  0.00000000000E+00  0.45593999997E+02  0.45594000000E+02  0.51100000000E-03 0.  1.
         11   -1    0    0    0    0 -0.00000000000E+00 -0.00000000000E+00 -0.45593999997E+02  0.45594000000E+02  0.51100000000E-03 0. -1.
    9900012    2    1    2    0    0 -0.55065027055E+01 -0.13005968796E+02 -0.28587465152E+02  0.59301953519E+02  0.50000017310E+02 0.  0.
         12    1    1    2    0    0  0.55065027055E+01  0.13005968796E+02  0.28587465152E+02  0.31886046481E+02  0.00000000000E+00 0. -1.
         11    1    3    3    0    0 -0.31546475971E+01  0.68436670535E+01  0.83440074490E+01  0.11243221992E+02  0.51100000000E-03 0. -1.
        -11    1    3    3    0    0 -0.94075224557E+01 -0.20092873526E+02 -0.20635940165E+02  0.30299621648E+02  0.51100000000E-03 0.  1.
        -12    1    3    3    0    0  0.70556673473E+01  0.24323767660E+00 -0.16295532436E+02  0.17759109878E+02  0.00000000000E+00 0.  1.
</event>
<event>
 7    1  0.4489290E-013  0.5930196E+02  0.7816164E-02  0.1266605E+00
        -11   -1    0    0    0    0  0.00000000000E+00  0.00000000000E+00  0.45593999997E+02  0.45594000000E+02  0.51100000000E-03 0. -1.
         11   -1    0    0    0    0 -0.00000000000E+00 -0.00000000000E+00 -0.45593999997E+02  0.45594000000E+02  0.51100000000E-03 0.  1.
    9900012    2    1    2    0    0 -0.53872380092E+01 -0.48729229622E+00 -0.31423871304E+02  0.59301961129E+02  0.50000031189E+02 0.  0.
         12    1    1    2    0    0  0.53872380092E+01  0.48729229622E+00  0.31423871304E+02  0.31886038871E+02  0.00000000000E+00 0. -1.
         11    1    3    3    0    0  0.14522271185E+02  0.75514199995E+00 -0.66726948588E+01  0.15999733021E+02  0.51100000000E-03 0. -1.
        -11    1    3    3    0    0 -0.17443854334E+02  0.12506287303E+02 -0.16559985686E+02  0.27109562931E+02  0.51100000000E-03 0.  1.
        -12    1    3    3    0    0 -0.24656548607E+01 -0.13748721599E+02 -0.81911907590E+01  0.16192665177E+02  0.00000000000E+00 0.  1.
</event>
<event>
 7    1  0.4489290E-013  0.5930190E+02  0.7816164E-02  0.1266605E+00
        -11   -1    0    0    0    0  0.00000000000E+00  0.00000000000E+00  0.45593999997E+02  0.45594000000E+02  0.51100000000E-03 0.  1.
         11   -1    0    0    0    0 -0.00000000000E+00 -0.00000000000E+00 -0.45593999997E+02  0.45594000000E+02  0.51100000000E-03 0. -1.
    9900012    2    1    2    0    0 -0.17484346638E+02  0.17381956630E+02  0.20220993577E+02  0.59301899973E+02  0.49999919655E+02 0.  0.
         12    1    1    2    0    0  0.17484346638E+02 -0.17381956630E+02 -0.20220993577E+02  0.31886100027E+02  0.00000000000E+00 0. -1.
         11    1    3    3    0    0 -0.13600681694E+02  0.29834487600E+02  0.36850094541E+01  0.32994764552E+02  0.51100000000E-03 0. -1.
        -11    1    3    3    0    0  0.55573834383E+01 -0.23737752029E+01  0.22797490911E+01  0.64588370140E+01  0.51100000000E-03 0.  1.
         12    1    3    3    0    0 -0.94410483821E+01 -0.10078755767E+02  0.14256235032E+02  0.19848298407E+02  0.00000000000E+00 0. -1.
</event>
<event>
 7    1  0.4489290E-013  0.5930195E+02  0.7816164E-02  0.1266605E+00
        -11   -1    0    0    0    0  0.00000000000E+00  0.00000000000E+00  0.45593999997E+02  0.45594000000E+02  0.51100000000E-03 0. -1.
         11   -1    0    0    0    0 -0.00000000000E+00 -0.00000000000E+00 -0.45593999997E+02  0.45594000000E+02  0.51100000000E-03 0.  1.
    9900012    2    1    2    0    0 -0.84814575524E+00 -0.30374853356E+02  0.96627753014E+01  0.59301948282E+02  0.50000007760E+02 0.  0.
         12    1    1    2    0    0  0.84814575524E+00  0.30374853356E+02 -0.96627753014E+01  0.31886051718E+02  0.00000000000E+00 0. -1.
         11    1    3    3    0    0  0.12572758488E+02 -0.28238120124E+02  0.31838213594E+01  0.31074143639E+02  0.51100000000E-03 0. -1.
        -11    1    3    3    0    0 -0.13136702034E+02 -0.10984171456E+02  0.85456586789E+01  0.19137744000E+02  0.51100000000E-03 0.  1.
         12    1    3    3    0    0 -0.28420220961E+00  0.88474382248E+01 -0.20667047369E+01  0.90900606438E+01  0.00000000000E+00 0. -1.
</event>
<event>
 7    1  0.4489290E-013  0.5930198E+02  0.7816164E-02  0.1266605E+00
        -11   -1    0    0    0    0  0.00000000000E+00  0.00000000000E+00  0.45593999997E+02  0.45594000000E+02  0.51100000000E-03 0.  1.
         11   -1    0    0    0    0 -0.00000000000E+00 -0.00000000000E+00 -0.45593999997E+02  0.45594000000E+02  0.51100000000E-03 0. -1.
    9900012    2    1    2    0    0 -0.11273848078E+01 -0.97041181476E+01  0.30352550884E+02  0.59301980326E+02  0.50000066198E+02 0.  0.
         12    1    1    2    0    0  0.11273848078E+01  0.97041181476E+01 -0.30352550884E+02  0.31886019674E+02  0.00000000000E+00 0. -1.
         11    1    3    3    0    0  0.94634865247E+01  0.36209497454E+01 -0.23039709051E+01  0.10391204764E+02  0.51100000000E-03 0. -1.
        -11    1    3    3    0    0 -0.63630620197E+01 -0.22222529433E+02  0.31384106862E+02  0.38978090467E+02  0.51100000000E-03 0.  1.
        -12    1    3    3    0    0 -0.42278093128E+01  0.88974615396E+01  0.12724149265E+01  0.99326850942E+01  0.00000000000E+00 0.  1.
</event>
<event>
 7    1  0.4489290E-013  0.5930195E+02  0.7816164E-02  0.1266605E+00
        -11   -1    0    0    0    0  0.00000000000E+00  0.00000000000E+00  0.45593999997E+02  0.45594000000E+02  0.51100000000E-03 0.  1.
         11   -1    0    0    0    0 -0.00000000000E+00 -0.00000000000E+00 -0.45593999997E+02  0.45594000000E+02  0.51100000000E-03 0. -1.
    9900012    2    1    2    0    0  0.18901310478E+02 -0.25504975299E+02 -0.29928455877E+01  0.59301946191E+02  0.50000003946E+02 0.  0.
         12    1    1    2    0    0 -0.18901310478E+02  0.25504975299E+02  0.29928455877E+01  0.31886053809E+02  0.00000000000E+00 0. -1.
         11    1    3    3    0    0  0.19151821535E+02 -0.28345616285E+02  0.99419979015E+01  0.35624563902E+02  0.51100000000E-03 0. -1.
        -11    1    3    3    0    0  0.86285966665E+01  0.28020094337E+01 -0.11556160570E+02  0.14691793107E+02  0.51100000000E-03 0.  1.
        -12    1    3    3    0    0 -0.88791077236E+01  0.38631552640E-01 -0.13786829189E+01  0.89855891824E+01  0.00000000000E+00 0.  1.
</event>
<event>
 7    1  0.4489290E-013  0.5930196E+02  0.7816164E-02  0.1266605E+00
        -11   -1    0    0    0    0  0.00000000000E+00  0.00000000000E+00  0.45593999997E+02  0.45594000000E+02  0.51100000000E-03 0.  1.
         11   -1    0    0    0    0 -0.00000000000E+00 -0.00000000000E+00 -0.45593999997E+02  0.45594000000E+02  0.51100000000E-03 0. -1.
    9900012    2    1    2    0    0  0.31468071407E+02 -0.43494772760E+01 -0.27499578748E+01  0.59301956988E+02  0.50000023636E+02 0.  0.
         12    1    1    2    0    0 -0.31468071407E+02  0.43494772760E+01  0.27499578748E+01  0.31886043012E+02  0.00000000000E+00 0. -1.
         11    1    3    3    0    0  0.93033905514E+00 -0.22349005817E+02 -0.11024273253E+01  0.22395511560E+02  0.51100000000E-03 0. -1.
        -11    1    3    3    0    0  0.21158639066E+02  0.96229252245E+01  0.31308524906E+01  0.23454017451E+02  0.51100000000E-03 0.  1.
         12    1    3    3    0    0  0.93790932863E+01  0.83766033166E+01 -0.47783830400E+01  0.13452427977E+02  0.00000000000E+00 0. -1.
</event>
<event>
 7    1  0.4489290E-013  0.5930194E+02  0.7816164E-02  0.1266605E+00
        -11   -1    0    0    0    0  0.00000000000E+00  0.00000000000E+00  0.45593999997E+02  0.45594000000E+02  0.51100000000E-03 0.  1.
         11   -1    0    0    0    0 -0.00000000000E+00 -0.00000000000E+00 -0.45593999997E+02  0.45594000000E+02  0.51100000000E-03 0. -1.
    9900012    2    1    2    0    0  0.21367490319E+02  0.20817249293E+02  0.11260266173E+02  0.59301935568E+02  0.49999984572E+02 0.  0.
         12    1    1    2    0    0 -0.21367490319E+02 -0.20817249293E+02 -0.11260266173E+02  0.31886064432E+02  0.00000000000E+00 0. -1.
         11    1    3    3    0    0  0.19429846677E+02  0.67036240623E+01  0.17316053569E+02  0.26875699599E+02  0.51100000000E-03 0.  1.
        -11    1    3    3    0    0 -0.59179450560E+01 -0.39209092689E+01 -0.10098411838E+02  0.12343967154E+02  0.51100000000E-03 0. -1.
         12    1    3    3    0    0  0.78555886976E+01  0.18034534499E+02  0.40426244420E+01  0.20082268816E+02  0.00000000000E+00 0. -1.
</event>
<event>
 7    1  0.4489290E-013  0.5930194E+02  0.7816164E-02  0.1266605E+00
        -11   -1    0    0    0    0  0.00000000000E+00  0.00000000000E+00  0.45593999997E+02  0.45594000000E+02  0.51100000000E-03 0. -1.
         11   -1    0    0    0    0 -0.00000000000E+00 -0.00000000000E+00 -0.45593999997E+02  0.45594000000E+02  0.51100000000E-03 0.  1.
    9900012    2    1    2    0    0 -0.23110212454E+01 -0.27830947943E+02 -0.15388910848E+02  0.59301936278E+02  0.49999985866E+02 0.  0.
         12    1    1    2    0    0  0.23110212454E+01  0.27830947943E+02  0.15388910848E+02  0.31886063722E+02  0.00000000000E+00 0. -1.
         11    1    3    3    0    0 -0.20398497845E+02 -0.21603103574E+02 -0.75693575352E+01  0.30660854067E+02  0.51100000000E-03 0.  1.
        -11    1    3    3    0    0  0.19849563695E+02 -0.10127134557E+02 -0.34927163804E+01  0.22555777557E+02  0.51100000000E-03 0. -1.
         12    1    3    3    0    0 -0.17620870947E+01  0.38992901875E+01 -0.43268369321E+01  0.60853046540E+01  0.00000000000E+00 0. -1.
</event>
<event>
 7    1  0.4489290E-013  0.5930192E+02  0.7816164E-02  0.1266605E+00
        -11   -1    0    0    0    0  0.00000000000E+00  0.00000000000E+00  0.45593999997E+02  0.45594000000E+02  0.51100000000E-03 0.  1.
         11   -1    0    0    0    0 -0.00000000000E+00 -0.00000000000E+00 -0.45593999997E+02  0.45594000000E+02  0.51100000000E-03 0. -1.
    9900012    2    1    2    0    0 -0.10191737863E+02 -0.36615576259E+01  0.29990722524E+02  0.59301922123E+02  0.49999960051E+02 0.  0.
         12    1    1    2    0    0  0.10191737863E+02  0.36615576259E+01 -0.29990722524E+02  0.31886077877E+02  0.00000000000E+00 0. -1.
         11    1    3    3    0    0  0.31064341561E+01 -0.39011680417E+01 -0.34432116384E+00  0.49987601044E+01  0.51100000000E-03 0. -1.
        -11    1    3    3    0    0 -0.52098086064E+01  0.12754066387E+02  0.35856574830E+02  0.38412267232E+02  0.51100000000E-03 0.  1.
        -12    1    3    3    0    0 -0.80883634126E+01 -0.12514455971E+02 -0.55215311427E+01  0.15890894786E+02  0.00000000000E+00 0.  1.
</event>
<event>
 7    1  0.4489290E-013  0.5930193E+02  0.7816164E-02  0.1266605E+00
        -11   -1    0    0    0    0  0.00000000000E+00  0.00000000000E+00  0.45593999997E+02  0.45594000000E+02  0.51100000000E-03 0. -1.
         11   -1    0    0    0    0 -0.00000000000E+00 -0.00000000000E+00 -0.45593999997E+02  0.45594000000E+02  0.51100000000E-03 0.  1.
    9900012    2    1    2    0    0 -0.11165478971E+02  0.27814629748E+02 -0.10881160277E+02  0.59301934115E+02  0.49999981921E+02 0.  0.
         12    1    1    2    0    0  0.11165478971E+02 -0.27814629748E+02  0.10881160277E+02  0.31886065885E+02  0.00000000000E+00 0. -1.
         11    1    3    3    0    0  0.15173651881E+02  0.19416493795E+02  0.48151325748E+01  0.25108274426E+02  0.51100000000E-03 0. -1.
        -11    1    3    3    0    0 -0.17179691281E+02  0.11500611398E+02 -0.99365897873E+01  0.22937778268E+02  0.51100000000E-03 0.  1.
         12    1    3    3    0    0 -0.91594395716E+01 -0.31024754447E+01 -0.57597030641E+01  0.11255881420E+02  0.00000000000E+00 0. -1.
</event>
<event>
 7    1  0.4489290E-013  0.5930194E+02  0.7816164E-02  0.1266605E+00
        -11   -1    0    0    0    0  0.00000000000E+00  0.00000000000E+00  0.45593999997E+02  0.45594000000E+02  0.51100000000E-03 0.  1.
         11   -1    0    0    0    0 -0.00000000000E+00 -0.00000000000E+00 -0.45593999997E+02  0.45594000000E+02  0.51100000000E-03 0. -1.
    9900012    2    1    2    0    0  0.24327341105E+01 -0.11839655610E+02  0.29506355073E+02  0.59301943017E+02  0.49999998156E+02 0.  0.
         12    1    1    2    0    0 -0.24327341105E+01  0.11839655610E+02 -0.29506355073E+02  0.31886056983E+02  0.00000000000E+00 0. -1.
         11    1    3    3    0    0 -0.14820810221E+01  0.39410588632E+01 -0.12826863397E+02  0.13500256812E+02  0.51100000000E-03 0. -1.
        -11    1    3    3    0    0  0.39682937118E+01 -0.11949490872E+02  0.24327370872E+02  0.27392675314E+02  0.51100000000E-03 0.  1.
         12    1    3    3    0    0 -0.53478579187E-01 -0.38312236015E+01  0.18005847599E+02  0.18409010891E+02  0.00000000000E+00 0. -1.
</event>
<event>
 7    1  0.4489290E-013  0.5930194E+02  0.7816164E-02  0.1266605E+00
        -11   -1    0    0    0    0  0.00000000000E+00  0.00000000000E+00  0.45593999997E+02  0.45594000000E+02  0.51100000000E-03 0. -1.
         11   -1    0    0    0    0 -0.00000000000E+00 -0.00000000000E+00 -0.45593999997E+02  0.45594000000E+02  0.51100000000E-03 0.  1.
    9900012    2    1    2    0    0 -0.13769063987E+02  0.28757470940E+02 -0.37616368001E+00  0.59301941023E+02  0.49999994521E+02 0.  0.
         12    1    1    2    0    0  0.13769063987E+02 -0.28757470940E+02  0.37616368001E+00  0.31886058977E+02  0.00000000000E+00 0. -1.
         11    1    3    3    0    0  0.19282456662E+00  0.28687388711E+02  0.57152093063E+01  0.29251787467E+02  0.51100000000E-03 0.  1.
        -11    1    3    3    0    0 -0.46299873735E+01 -0.12752642727E+02 -0.27509253488E+01  0.13843203030E+02  0.51100000000E-03 0. -1.
        -12    1    3    3    0    0 -0.93319011801E+01  0.12822724956E+02 -0.33404476376E+01  0.16206950526E+02  0.00000000000E+00 0.  1.
</event>
<event>
 7    1  0.4489290E-013  0.5930205E+02  0.7816164E-02  0.1266604E+00
        -11   -1    0    0    0    0  0.00000000000E+00  0.00000000000E+00  0.45593999997E+02  0.45594000000E+02  0.51100000000E-03 0. -1.
         11   -1    0    0    0    0 -0.00000000000E+00 -0.00000000000E+00 -0.45593999997E+02  0.45594000000E+02  0.51100000000E-03 0.  1.
    9900012    2    1    2    0    0 -0.80609165108E+01 -0.18355038118E+02 -0.24795725849E+02  0.59302049807E+02  0.50000192915E+02 0.  0.
         12    1    1    2    0    0  0.80609165108E+01  0.18355038118E+02  0.24795725849E+02  0.31885950193E+02  0.00000000000E+00 0. -1.
         11    1    3    3    0    0  0.12613917001E+02  0.22856778674E+01 -0.11858187516E+02  0.17462870235E+02  0.51100000000E-03 0. -1.
        -11    1    3    3    0    0 -0.15453389680E+02 -0.16922646501E+02 -0.21310651805E+02  0.31294202304E+02  0.51100000000E-03 0.  1.
         12    1    3    3    0    0 -0.52214438311E+01 -0.37180694851E+01  0.83731134720E+01  0.10544977268E+02  0.00000000000E+00 0. -1.
</event>
<event>
 7    1  0.4489290E-013  0.5930199E+02  0.7816164E-02  0.1266605E+00
        -11   -1    0    0    0    0  0.00000000000E+00  0.00000000000E+00  0.45593999997E+02  0.45594000000E+02  0.51100000000E-03 0.  1.
         11   -1    0    0    0    0 -0.00000000000E+00 -0.00000000000E+00 -0.45593999997E+02  0.45594000000E+02  0.51100000000E-03 0. -1.
    9900012    2    1    2    0    0  0.11331901195E+02  0.29542397328E+02 -0.39436898487E+01  0.59301985602E+02  0.50000075821E+02 0.  0.
         12    1    1    2    0    0 -0.11331901195E+02 -0.29542397328E+02  0.39436898487E+01  0.31886014398E+02  0.00000000000E+00 0. -1.
         11    1    3    3    0    0  0.20468655032E+02  0.37886129166E+00 -0.47446501486E+01  0.21014782416E+02  0.51100000000E-03 0. -1.
        -11    1    3    3    0    0 -0.76882094447E+01  0.32937139571E+02 -0.10559302476E+01  0.33839011755E+02  0.51100000000E-03 0.  1.
         12    1    3    3    0    0 -0.14485443927E+01 -0.37736035348E+01  0.18568905476E+01  0.44481914303E+01  0.00000000000E+00 0. -1.
</event>
<event>
 7    1  0.4489290E-013  0.5930195E+02  0.7816164E-02  0.1266605E+00
        -11   -1    0    0    0    0  0.00000000000E+00  0.00000000000E+00  0.45593999997E+02  0.45594000000E+02  0.51100000000E-03 0. -1.
         11   -1    0    0    0    0 -0.00000000000E+00 -0.00000000000E+00 -0.45593999997E+02  0.45594000000E+02  0.51100000000E-03 0.  1.
    9900012    2    1    2    0    0  0.20081909051E+02  0.17282818759E+02 -0.17740942078E+02  0.59301954130E+02  0.50000018425E+02 0.  0.
         12    1    1    2    0    0 -0.20081909051E+02 -0.17282818759E+02  0.17740942078E+02  0.31886045870E+02  0.00000000000E+00 0. -1.
         11    1    3    3    0    0  0.22254515874E+02  0.86088743989E+01  0.10938788065E+02  0.26249443419E+02  0.51100000000E-03 0. -1.
        -11    1    3    3    0    0  0.14334677899E+01  0.15149062963E+01 -0.23312499583E+02  0.23405606338E+02  0.51100000000E-03 0.  1.
        -12    1    3    3    0    0 -0.36060746131E+01  0.71590380635E+01 -0.53672305599E+01  0.96469043736E+01  0.00000000000E+00 0.  1.
</event>
<event>
 7    1  0.4489290E-013  0.5930192E+02  0.7816164E-02  0.1266605E+00
        -11   -1    0    0    0    0  0.00000000000E+00  0.00000000000E+00  0.45593999997E+02  0.45594000000E+02  0.51100000000E-03 0. -1.
         11   -1    0    0    0    0 -0.00000000000E+00 -0.00000000000E+00 -0.45593999997E+02  0.45594000000E+02  0.51100000000E-03 0.  1.
    9900012    2    1    2    0    0 -0.24624242906E+00  0.15721164394E+02 -0.27739981921E+02  0.59301917735E+02  0.49999952048E+02 0.  0.
         12    1    1    2    0    0  0.24624242906E+00 -0.15721164394E+02  0.27739981921E+02  0.31886082265E+02  0.00000000000E+00 0. -1.
         11    1    3    3    0    0 -0.68143212335E+00  0.34557771609E+01  0.10740308661E+01  0.36824296445E+01  0.51100000000E-03 0. -1.
        -11    1    3    3    0    0  0.94084229176E+01 -0.43147551434E+01 -0.34426789618E+02  0.35949122067E+02  0.51100000000E-03 0.  1.
        -12    1    3    3    0    0 -0.89732332233E+01  0.16580142377E+02  0.56127768310E+01  0.19670366023E+02  0.00000000000E+00 0.  1.
</event>
<event>
 7    1  0.4489290E-013  0.5930194E+02  0.7816164E-02  0.1266605E+00
        -11   -1    0    0    0    0  0.00000000000E+00  0.00000000000E+00  0.45593999997E+02  0.45594000000E+02  0.51100000000E-03 0.  1.
         11   -1    0    0    0    0 -0.00000000000E+00 -0.00000000000E+00 -0.45593999997E+02  0.45594000000E+02  0.51100000000E-03 0. -1.
    9900012    2    1    2    0    0 -0.84858936574E+01 -0.27608824639E+02  0.13507884594E+02  0.59301944501E+02  0.50000000862E+02 0.  0.
         12    1    1    2    0    0  0.84858936574E+01  0.27608824639E+02 -0.13507884594E+02  0.31886055499E+02  0.00000000000E+00 0. -1.
         11    1    3    3    0    0 -0.36559896221E+01  0.96193372654E+01  0.71599464481E+01  0.12536456554E+02  0.51100000000E-03 0. -1.
        -11    1    3    3    0    0 -0.73974145439E+01 -0.39809287087E+02  0.98953241260E+01  0.41682352623E+02  0.51100000000E-03 0.  1.
        -12    1    3    3    0    0  0.25675105087E+01  0.25811251832E+01 -0.35473859801E+01  0.50831353233E+01  0.00000000000E+00 0.  1.
</event>
<event>
 7    1  0.4489290E-013  0.5930194E+02  0.7816164E-02  0.1266605E+00
        -11   -1    0    0    0    0  0.00000000000E+00  0.00000000000E+00  0.45593999997E+02  0.45594000000E+02  0.51100000000E-03 0.  1.
         11   -1    0    0    0    0 -0.00000000000E+00 -0.00000000000E+00 -0.45593999997E+02  0.45594000000E+02  0.51100000000E-03 0. -1.
    9900012    2    1    2    0    0 -0.86692839258E+01 -0.27619940920E+02  0.13367989018E+02  0.59301941125E+02  0.49999994706E+02 0.  0.
         12    1    1    2    0    0  0.86692839258E+01  0.27619940920E+02 -0.13367989018E+02  0.31886058875E+02  0.00000000000E+00 0. -1.
         11    1    3    3    0    0 -0.16887609665E+02 -0.46584210255E+01 -0.10230445339E+02  0.20286800111E+02  0.51100000000E-03 0. -1.
        -11    1    3    3    0    0 -0.74760097327E+00 -0.19566157776E+02  0.21724674032E+02  0.29246451056E+02  0.51100000000E-03 0.  1.
        -12    1    3    3    0    0  0.89659267128E+01 -0.33953621183E+01  0.18737603244E+01  0.97686899576E+01  0.00000000000E+00 0.  1.
</event>
<event>
 7    1  0.4489290E-013  0.5930196E+02  0.7816164E-02  0.1266605E+00
        -11   -1    0    0    0    0  0.00000000000E+00  0.00000000000E+00  0.45593999997E+02  0.45594000000E+02  0.51100000000E-03 0. -1.
         11   -1    0    0    0    0 -0.00000000000E+00 -0.00000000000E+00 -0.45593999997E+02  0.45594000000E+02  0.51100000000E-03 0.  1.
    9900012    2    1    2    0    0  0.70639599180E+01 -0.19580741913E+02 -0.24153973492E+02  0.59301962005E+02  0.50000032786E+02 0.  0.
         12    1    1    2    0    0 -0.70639599180E+01  0.19580741913E+02  0.24153973492E+02  0.31886037995E+02  0.00000000000E+00 0. -1.
         11    1    3    3    0    0 -0.71064100045E+01 -0.27974843423E+02  0.48324926853E+00  0.28867394372E+02  0.51100000000E-03 0. -1.
        -11    1    3    3    0    0  0.12564504762E+02  0.81984593215E+01 -0.17201214648E+02  0.22824620496E+02  0.51100000000E-03 0.  1.
         12    1    3    3    0    0  0.16058651603E+01  0.19564218912E+00 -0.74360081125E+01  0.76099471370E+01  0.00000000000E+00 0. -1.
</event>
<event>
 7    1  0.4489290E-013  0.5930194E+02  0.7816164E-02  0.1266605E+00
        -11   -1    0    0    0    0  0.00000000000E+00  0.00000000000E+00  0.45593999997E+02  0.45594000000E+02  0.51100000000E-03 0.  1.
         11   -1    0    0    0    0 -0.00000000000E+00 -0.00000000000E+00 -0.45593999997E+02  0.45594000000E+02  0.51100000000E-03 0. -1.
    9900012    2    1    2    0    0  0.16261992892E+02 -0.13965761630E+02  0.23605629616E+02  0.59301942540E+02  0.49999997287E+02 0.  0.
         12    1    1    2    0    0 -0.16261992892E+02  0.13965761630E+02 -0.23605629616E+02  0.31886057460E+02  0.00000000000E+00 0. -1.
         11    1    3    3    0    0  0.10358225238E+02 -0.13575701480E+02 -0.11078967675E+02  0.20355245657E+02  0.51100000000E-03 0. -1.
        -11    1    3    3    0    0  0.40420358011E+01  0.71674359551E+01  0.94078415638E+01  0.12498706923E+02  0.51100000000E-03 0.  1.
         12    1    3    3    0    0  0.18617318533E+01 -0.75574961058E+01  0.25276755727E+02  0.26447989961E+02  0.00000000000E+00 0. -1.
</event>
<event>
 7    1  0.4489290E-013  0.5930193E+02  0.7816164E-02  0.1266605E+00
        -11   -1    0    0    0    0  0.00000000000E+00  0.00000000000E+00  0.45593999997E+02  0.45594000000E+02  0.51100000000E-03 0.  1.
         11   -1    0    0    0    0 -0.00000000000E+00 -0.00000000000E+00 -0.45593999997E+02  0.45594000000E+02  0.51100000000E-03 0. -1.
    9900012    2    1    2    0    0 -0.23452218354E+02 -0.15943403902E+02  0.14578156815E+02  0.59301932041E+02  0.49999978140E+02 0.  0.
         12    1    1    2    0    0  0.23452218354E+02  0.15943403902E+02 -0.14578156815E+02  0.31886067959E+02  0.00000000000E+00 0. -1.
         11    1    3    3    0    0 -0.35920880753E+00 -0.69816924176E+00 -0.91711081361E+01  0.92046562110E+01  0.51100000000E-03 0. -1.
        -11    1    3    3    0    0 -0.10717454014E+02 -0.14574051787E+01  0.28908037473E+02  0.30865230944E+02  0.51100000000E-03 0.  1.
        -12    1    3    3    0    0 -0.12375555533E+02 -0.13787829482E+02 -0.51587725227E+01  0.19232044887E+02  0.00000000000E+00 0.  1.
</event>
<event>
 7    1  0.4489290E-013  0.5930191E+02  0.7816164E-02  0.1266605E+00
        -11   -1    0    0    0    0  0.00000000000E+00  0.00000000000E+00  0.45593999997E+02  0.45594000000E+02  0.51100000000E-03 0.  1.
         11   -1    0    0    0    0 -0.00000000000E+00 -0.00000000000E+00 -0.45593999997E+02  0.45594000000E+02  0.51100000000E-03 0. -1.
    9900012    2    1    2    0    0 -0.23677968011E+02  0.95213925300E-01  0.21355735922E+02  0.59301910689E+02  0.49999939197E+02 0.  0.
         12    1    1    2    0    0  0.23677968011E+02 -0.95213925300E-01 -0.21355735922E+02  0.31886089311E+02  0.00000000000E+00 0. -1.
         11    1    3    3    0    0  0.73259455159E+01  0.10107086680E+02  0.84383845068E+01  0.15067481946E+02  0.51100000000E-03 0. -1.
        -11    1    3    3    0    0 -0.10735457790E+02 -0.16981505839E+02  0.20248467149E+01  0.20192117249E+02  0.51100000000E-03 0.  1.
        -12    1    3    3    0    0 -0.20268455737E+02  0.69696330847E+01  0.10892504700E+02  0.24042311493E+02  0.00000000000E+00 0.  1.
</event>
<event>
 7    1  0.4489290E-013  0.5930197E+02  0.7816164E-02  0.1266605E+00
        -11   -1    0    0    0    0  0.00000000000E+00  0.00000000000E+00  0.45593999997E+02  0.45594000000E+02  0.51100000000E-03 0. -1.
         11   -1    0    0    0    0 -0.00000000000E+00 -0.00000000000E+00 -0.45593999997E+02  0.45594000000E+02  0.51100000000E-03 0.  1.
    9900012    2    1    2    0    0  0.29057848959E+01 -0.29713467655E+02 -0.11197565487E+02  0.59301965145E+02  0.50000038513E+02 0.  0.
         12    1    1    2    0    0 -0.29057848959E+01  0.29713467655E+02  0.11197565487E+02  0.31886034855E+02  0.00000000000E+00 0. -1.
         11    1    3    3    0    0 -0.19686624544E+02 -0.47052080022E+01 -0.88363257598E+01  0.22085805882E+02  0.51100000000E-03 0. -1.
        -11    1    3    3    0    0  0.19847893384E+02 -0.10713587661E+02 -0.69716228273E+00  0.22565590351E+02  0.51100000000E-03 0.  1.
         12    1    3    3    0    0  0.27445160549E+01 -0.14294671992E+02 -0.16640774445E+01  0.14650568913E+02  0.00000000000E+00 0. -1.
</event>
<event>
 7    1  0.4489290E-013  0.5930195E+02  0.7816164E-02  0.1266605E+00
        -11   -1    0    0    0    0  0.00000000000E+00  0.00000000000E+00  0.45593999997E+02  0.45594000000E+02  0.51100000000E-03 0.  1.
         11   -1    0    0    0    0 -0.00000000000E+00 -0.00000000000E+00 -0.45593999997E+02  0.45594000000E+02  0.51100000000E-03 0. -1.
    9900012    2    1    2    0    0 -0.87337769578E+01 -0.18776245150E+02  0.24246527688E+02  0.59301947457E+02  0.50000006254E+02 0.  0.
         12    1    1    2    0    0  0.87337769578E+01  0.18776245150E+02 -0.24246527688E+02  0.31886052543E+02  0.00000000000E+00 0. -1.
         11    1    3    3    0    0 -0.65419430763E+01 -0.56789769111E+01  0.13047070559E+01  0.87607110860E+01  0.51100000000E-03 0. -1.
        -11    1    3    3    0    0 -0.11427176972E+02  0.99062923416E+01  0.20722074312E+02  0.25653837248E+02  0.51100000000E-03 0.  1.
        -12    1    3    3    0    0  0.92353430900E+01 -0.23003560581E+02  0.22197463198E+01  0.24887399123E+02  0.00000000000E+00 0.  1.
</event>
<event>
 7    1  0.4489290E-013  0.5930194E+02  0.7816164E-02  0.1266605E+00
        -11   -1    0    0    0    0  0.00000000000E+00  0.00000000000E+00  0.45593999997E+02  0.45594000000E+02  0.51100000000E-03 0. -1.
         11   -1    0    0    0    0 -0.00000000000E+00 -0.00000000000E+00 -0.45593999997E+02  0.45594000000E+02  0.51100000000E-03 0.  1.
    9900012    2    1    2    0    0 -0.22016031693E+02  0.22255749180E+02 -0.60577623092E+01  0.59301944940E+02  0.50000001664E+02 0.  0.
         12    1    1    2    0    0  0.22016031693E+02 -0.22255749180E+02  0.60577623092E+01  0.31886055060E+02  0.00000000000E+00 0. -1.
         11    1    3    3    0    0  0.60096696287E+01  0.18840874629E+01  0.10385782463E+02  0.12146208966E+02  0.51100000000E-03 0. -1.
        -11    1    3    3    0    0 -0.23785153562E+02  0.45026401914E+01 -0.42357702371E+00  0.24211293159E+02  0.51100000000E-03 0.  1.
         12    1    3    3    0    0 -0.42405477595E+01  0.15869021526E+02 -0.16019967748E+02  0.22944442816E+02  0.00000000000E+00 0. -1.
</event>
<event>
 7    1  0.4489290E-013  0.5930191E+02  0.7816164E-02  0.1266605E+00
        -11   -1    0    0    0    0  0.00000000000E+00  0.00000000000E+00  0.45593999997E+02  0.45594000000E+02  0.51100000000E-03 0. -1.
         11   -1    0    0    0    0 -0.00000000000E+00 -0.00000000000E+00 -0.45593999997E+02  0.45594000000E+02  0.51100000000E-03 0.  1.
    9900012    2    1    2    0    0  0.49523540485E+01 -0.28494306223E+02 -0.13426510855E+02  0.59301913826E+02  0.49999944919E+02 0.  0.
         12    1    1    2    0    0 -0.49523540485E+01  0.28494306223E+02  0.13426510855E+02  0.31886086174E+02  0.00000000000E+00 0. -1.
         11    1    3    3    0    0  0.99266592933E+00 -0.27186912084E+02  0.13059869214E+02  0.30177371629E+02  0.51100000000E-03 0. -1.
        -11    1    3    3    0    0  0.44332771151E+01 -0.37085876690E+01 -0.54432248962E+01  0.79395381483E+01  0.51100000000E-03 0.  1.
         12    1    3    3    0    0 -0.47358899597E+00  0.24011935291E+01 -0.21043155173E+02  0.21185004048E+02  0.00000000000E+00 0. -1.
</event>
<event>
 7    1  0.4489290E-013  0.5930194E+02  0.7816164E-02  0.1266605E+00
        -11   -1    0    0    0    0  0.00000000000E+00  0.00000000000E+00  0.45593999997E+02  0.45594000000E+02  0.51100000000E-03 0.  1.
         11   -1    0    0    0    0 -0.00000000000E+00 -0.00000000000E+00 -0.45593999997E+02  0.45594000000E+02  0.51100000000E-03 0. -1.
    9900012    2    1    2    0    0  0.23192241999E+02  0.21167189358E+02  0.55489331493E+01  0.59301942650E+02  0.49999997487E+02 0.  0.
         12    1    1    2    0    0 -0.23192241999E+02 -0.21167189358E+02 -0.55489331493E+01  0.31886057350E+02  0.00000000000E+00 0. -1.
         11    1    3    3    0    0 -0.18635171341E+01 -0.10434603391E+02  0.83329786569E+01  0.13483032952E+02  0.51100000000E-03 0. -1.
        -11    1    3    3    0    0  0.18919139342E+02  0.31514187522E+02 -0.81693579713E+01  0.37653900973E+02  0.51100000000E-03 0.  1.
        -12    1    3    3    0    0  0.61366197908E+01  0.87605227456E-01  0.53853124636E+01  0.81650087240E+01  0.00000000000E+00 0.  1.
</event>
<event>
 7    1  0.4489290E-013  0.5930195E+02  0.7816164E-02  0.1266605E+00
        -11   -1    0    0    0    0  0.00000000000E+00  0.00000000000E+00  0.45593999997E+02  0.45594000000E+02  0.51100000000E-03 0.  1.
         11   -1    0    0    0    0 -0.00000000000E+00 -0.00000000000E+00 -0.45593999997E+02  0.45594000000E+02  0.51100000000E-03 0. -1.
    9900012    2    1    2    0    0 -0.26808790969E+02  0.10316404478E+02  0.13841268350E+02  0.59301950008E+02  0.50000010906E+02 0.  0.
         12    1    1    2    0    0  0.26808790969E+02 -0.10316404478E+02 -0.13841268350E+02  0.31886049992E+02  0.00000000000E+00 0. -1.
         11    1    3    3    0    0 -0.28587048738E+02  0.57555203360E+01 -0.75583528071E+01  0.30124310237E+02  0.51100000000E-03 0. -1.
        -11    1    3    3    0    0  0.65562039473E+01  0.10397052252E+02  0.13261419281E+02  0.18081696473E+02  0.51100000000E-03 0.  1.
        -12    1    3    3    0    0 -0.47779461785E+01 -0.58361681094E+01  0.81382018762E+01  0.11095943298E+02  0.00000000000E+00 0.  1.
</event>
<event>
 7    1  0.4489290E-013  0.5930199E+02  0.7816164E-02  0.1266605E+00
        -11   -1    0    0    0    0  0.00000000000E+00  0.00000000000E+00  0.45593999997E+02  0.45594000000E+02  0.51100000000E-03 0.  1.
         11   -1    0    0    0    0 -0.00000000000E+00 -0.00000000000E+00 -0.45593999997E+02  0.45594000000E+02  0.51100000000E-03 0. -1.
    9900012    2    1    2    0    0 -0.11490604123E+02 -0.14489902211E+02  0.25975493327E+02  0.59301992053E+02  0.50000087587E+02 0.  0.
         12    1    1    2    0    0  0.11490604123E+02  0.14489902211E+02 -0.25975493327E+02  0.31886007947E+02  0.00000000000E+00 0. -1.
         11    1    3    3    0    0 -0.23730125301E+01  0.12067020847E+02  0.57124711223E+01  0.13560107196E+02  0.51100000000E-03 0. -1.
        -11    1    3    3    0    0  0.89715734030E+01 -0.16429338063E+02  0.15890672437E+02  0.24554546407E+02  0.51100000000E-03 0.  1.
        -12    1    3    3    0    0 -0.18089164996E+02 -0.10127584996E+02  0.43723497675E+01  0.21187338450E+02  0.00000000000E+00 0.  1.
</event>
<event>
 7    1  0.4489290E-013  0.5930195E+02  0.7816164E-02  0.1266605E+00
        -11   -1    0    0    0    0  0.00000000000E+00  0.00000000000E+00  0.45593999997E+02  0.45594000000E+02  0.51100000000E-03 0.  1.
         11   -1    0    0    0    0 -0.00000000000E+00 -0.00000000000E+00 -0.45593999997E+02  0.45594000000E+02  0.51100000000E-03 0. -1.
    9900012    2    1    2    0    0  0.20906439095E+02 -0.16509325120E+02  0.17523782746E+02  0.59301953314E+02  0.50000016936E+02 0.  0.
         12    1    1    2    0    0 -0.20906439095E+02  0.16509325120E+02 -0.17523782746E+02  0.31886046686E+02  0.00000000000E+00 0. -1.
         11    1    3    3    0    0  0.14295467605E+02 -0.20977496207E+02 -0.93181098444E+01  0.27041503518E+02  0.51100000000E-03 0. -1.
        -11    1    3    3    0    0  0.10335237384E+02  0.77363676497E+01  0.18532515331E+02  0.22585894734E+02  0.51100000000E-03 0.  1.
         12    1    3    3    0    0 -0.37242658939E+01 -0.32681965625E+01  0.83093772588E+01  0.96745550620E+01  0.00000000000E+00 0. -1.
</event>
<event>
 7    1  0.4489290E-013  0.5930188E+02  0.7816164E-02  0.1266605E+00
        -11   -1    0    0    0    0  0.00000000000E+00  0.00000000000E+00  0.45593999997E+02  0.45594000000E+02  0.51100000000E-03 0. -1.
         11   -1    0    0    0    0 -0.00000000000E+00 -0.00000000000E+00 -0.45593999997E+02  0.45594000000E+02  0.51100000000E-03 0.  1.
    9900012    2    1    2    0    0  0.22858134810E+02  0.21298780292E+02 -0.63712189166E+01  0.59301877636E+02  0.49999878917E+02 0.  0.
         12    1    1    2    0    0 -0.22858134810E+02 -0.21298780292E+02  0.63712189166E+01  0.31886122364E+02  0.00000000000E+00 0. -1.
         11    1    3    3    0    0 -0.45923469263E+01 -0.64238716834E+01 -0.14048886120E+01  0.80205666863E+01  0.51100000000E-03 0. -1.
        -11    1    3    3    0    0  0.18506443113E+02  0.23563042607E+02  0.11494776808E+02  0.32091047159E+02  0.51100000000E-03 0.  1.
        -12    1    3    3    0    0  0.89440386236E+01  0.41596093682E+01 -0.16461107113E+02  0.19190263791E+02  0.00000000000E+00 0.  1.
</event>
<event>
 7    1  0.4489290E-013  0.5930195E+02  0.7816164E-02  0.1266605E+00
        -11   -1    0    0    0    0  0.00000000000E+00  0.00000000000E+00  0.45593999997E+02  0.45594000000E+02  0.51100000000E-03 0.  1.
         11   -1    0    0    0    0 -0.00000000000E+00 -0.00000000000E+00 -0.45593999997E+02  0.45594000000E+02  0.51100000000E-03 0. -1.
    9900012    2    1    2    0    0 -0.24813750889E+02  0.17534012822E+02  0.96724619436E+01  0.59301947267E+02  0.50000005908E+02 0.  0.
         12    1    1    2    0    0  0.24813750889E+02 -0.17534012822E+02 -0.96724619436E+01  0.31886052733E+02  0.00000000000E+00 0. -1.
         11    1    3    3    0    0 -0.14220013202E+02  0.20229027327E+02 -0.91943148396E+01  0.26381011119E+02  0.51100000000E-03 0. -1.
        -11    1    3    3    0    0 -0.66979589932E+01 -0.12554809235E+02  0.42244275026E+01  0.14843573613E+02  0.51100000000E-03 0.  1.
         12    1    3    3    0    0 -0.38957786943E+01  0.98597947309E+01  0.14642349281E+02  0.18077362535E+02  0.00000000000E+00 0. -1.
</event>
<event>
 7    1  0.4489290E-013  0.5930195E+02  0.7816164E-02  0.1266605E+00
        -11   -1    0    0    0    0  0.00000000000E+00  0.00000000000E+00  0.45593999997E+02  0.45594000000E+02  0.51100000000E-03 0.  1.
         11   -1    0    0    0    0 -0.00000000000E+00 -0.00000000000E+00 -0.45593999997E+02  0.45594000000E+02  0.51100000000E-03 0. -1.
    9900012    2    1    2    0    0  0.21221208553E+02  0.22235805826E+02  0.84823160600E+01  0.59301946012E+02  0.50000003619E+02 0.  0.
         12    1    1    2    0    0 -0.21221208553E+02 -0.22235805826E+02 -0.84823160600E+01  0.31886053988E+02  0.00000000000E+00 0. -1.
         11    1    3    3    0    0  0.24341949851E+01  0.16830835485E+02 -0.82922273854E+01  0.18919919757E+02  0.51100000000E-03 0. -1.
        -11    1    3    3    0    0  0.16510721699E+02 -0.11208008969E+02  0.95696721166E+01  0.22131471274E+02  0.51100000000E-03 0.  1.
        -12    1    3    3    0    0  0.22762918687E+01  0.16612979311E+02  0.72048713289E+01  0.18250554981E+02  0.00000000000E+00 0.  1.
</event>
<event>
 7    1  0.4489290E-013  0.5930197E+02  0.7816164E-02  0.1266605E+00
        -11   -1    0    0    0    0  0.00000000000E+00  0.00000000000E+00  0.45593999997E+02  0.45594000000E+02  0.51100000000E-03 0.  1.
         11   -1    0    0    0    0 -0.00000000000E+00 -0.00000000000E+00 -0.45593999997E+02  0.45594000000E+02  0.51100000000E-03 0. -1.
    9900012    2    1    2    0    0 -0.21405061790E+02 -0.23494330752E+02  0.25609307711E+01  0.59301974626E+02  0.50000055804E+02 0.  0.
         12    1    1    2    0    0  0.21405061790E+02  0.23494330752E+02 -0.25609307711E+01  0.31886025374E+02  0.00000000000E+00 0. -1.
         11    1    3    3    0    0 -0.27806717565E+02 -0.98055978370E+01 -0.13089779473E+02  0.32259969275E+02  0.51100000000E-03 0. -1.
        -11    1    3    3    0    0 -0.47539096868E+00 -0.93193608510E+01  0.16390610281E+02  0.18860768513E+02  0.51100000000E-03 0.  1.
         12    1    3    3    0    0  0.68770467437E+01 -0.43693720639E+01 -0.73990003722E+00  0.81812368389E+01  0.00000000000E+00 0. -1.
</event>
<event>
 7    1  0.4489290E-013  0.5930194E+02  0.7816164E-02  0.1266605E+00
        -11   -1    0    0    0    0  0.00000000000E+00  0.00000000000E+00  0.45593999997E+02  0.45594000000E+02  0.51100000000E-03 0. -1.
         11   -1    0    0    0    0 -0.00000000000E+00 -0.00000000000E+00 -0.45593999997E+02  0.45594000000E+02  0.51100000000E-03 0.  1.
    9900012    2    1    2    0    0  0.15905399070E+02  0.26765701536E+02 -0.68801253096E+01  0.59301943132E+02  0.49999998367E+02 0.  0.
         12    1    1    2    0    0 -0.15905399070E+02 -0.26765701536E+02  0.68801253096E+01  0.31886056868E+02  0.00000000000E+00 0. -1.
         11    1    3    3    0    0  0.26457614963E+01 -0.44064556009E+01 -0.85514530567E+01  0.99771867027E+01  0.51100000000E-03 0. -1.
        -11    1    3    3    0    0  0.85345106968E+01  0.34831482782E+02  0.11638521376E+02  0.37703119840E+02  0.51100000000E-03 0.  1.
        -12    1    3    3    0    0  0.47251268771E+01 -0.36593256452E+01 -0.99671936287E+01  0.11621636589E+02  0.00000000000E+00 0.  1.
</event>
<event>
 7    1  0.4489290E-013  0.5930188E+02  0.7816164E-02  0.1266605E+00
        -11   -1    0    0    0    0  0.00000000000E+00  0.00000000000E+00  0.45593999997E+02  0.45594000000E+02  0.51100000000E-03 0. -1.
         11   -1    0    0    0    0 -0.00000000000E+00 -0.00000000000E+00 -0.45593999997E+02  0.45594000000E+02  0.51100000000E-03 0.  1.
    9900012    2    1    2    0    0  0.30578521203E+02 -0.89709653322E+01  0.10956937728E+01  0.59301878838E+02  0.49999881109E+02 0.  0.
         12    1    1    2    0    0 -0.30578521203E+02  0.89709653322E+01 -0.10956937728E+01  0.31886121162E+02  0.00000000000E+00 0. -1.
         11    1    3    3    0    0  0.72122065508E+01 -0.16415197509E+02  0.95984897749E+00  0.17955387573E+02  0.51100000000E-03 0. -1.
        -11    1    3    3    0    0 -0.12432978874E+01  0.14800054309E+02  0.39770127055E+01  0.15375435847E+02  0.51100000000E-03 0.  1.
        -12    1    3    3    0    0  0.24609612539E+02 -0.73558221319E+01 -0.38411679102E+01  0.25971055417E+02  0.00000000000E+00 0.  1.
</event>
<event>
 7    1  0.4489290E-013  0.5930195E+02  0.7816164E-02  0.1266605E+00
        -11   -1    0    0    0    0  0.00000000000E+00  0.00000000000E+00  0.45593999997E+02  0.45594000000E+02  0.51100000000E-03 0.  1.
         11   -1    0    0    0    0 -0.00000000000E+00 -0.00000000000E+00 -0.45593999997E+02  0.45594000000E+02  0.51100000000E-03 0. -1.
    9900012    2    1    2    0    0 -0.65190564551E+01 -0.15103844796E+02  0.27314762450E+02  0.59301945487E+02  0.50000002662E+02 0.  0.
         12    1    1    2    0    0  0.65190564551E+01  0.15103844796E+02 -0.27314762450E+02  0.31886054513E+02  0.00000000000E+00 0. -1.
         11    1    3    3    0    0  0.18899038580E+02 -0.14463496018E+02  0.16078390232E+02  0.28720741790E+02  0.51100000000E-03 0. -1.
        -11    1    3    3    0    0 -0.31868500313E+01  0.60707588638E+00  0.72747140347E+01  0.79653009235E+01  0.51100000000E-03 0.  1.
         12    1    3    3    0    0 -0.22231245003E+02 -0.12474246645E+01  0.39616581835E+01  0.22615902773E+02  0.00000000000E+00 0. -1.
</event>
<event>
 7    1  0.4489290E-013  0.5930194E+02  0.7816164E-02  0.1266605E+00
        -11   -1    0    0    0    0  0.00000000000E+00  0.00000000000E+00  0.45593999997E+02  0.45594000000E+02  0.51100000000E-03 0. -1.
         11   -1    0    0    0    0 -0.00000000000E+00 -0.00000000000E+00 -0.45593999997E+02  0.45594000000E+02  0.51100000000E-03 0.  1.
    9900012    2    1    2    0    0 -0.15711432955E+02  0.21940348673E+02  0.16985075014E+02  0.59301940371E+02  0.49999993332E+02 0.  0.
         12    1    1    2    0    0  0.15711432955E+02 -0.21940348673E+02 -0.16985075014E+02  0.31886059629E+02  0.00000000000E+00 0. -1.
         11    1    3    3    0    0  0.20152991532E+01 -0.17595089242E+01  0.15176582134E+02  0.15410579090E+02  0.51100000000E-03 0. -1.
        -11    1    3    3    0    0 -0.14290536694E+02  0.22322115269E+02 -0.12361625194E+02  0.29245615855E+02  0.51100000000E-03 0.  1.
        -12    1    3    3    0    0 -0.34361954149E+01  0.13777423286E+01  0.14170118074E+02  0.14645745426E+02  0.00000000000E+00 0.  1.
</event>
<event>
 7    1  0.4489290E-013  0.5930199E+02  0.7816164E-02  0.1266605E+00
        -11   -1    0    0    0    0  0.00000000000E+00  0.00000000000E+00  0.45593999997E+02  0.45594000000E+02  0.51100000000E-03 0.  1.
         11   -1    0    0    0    0 -0.00000000000E+00 -0.00000000000E+00 -0.45593999997E+02  0.45594000000E+02  0.51100000000E-03 0. -1.
    9900012    2    1    2    0    0  0.11986265704E+02  0.20499917748E+02  0.21279104648E+02  0.59301992288E+02  0.50000088015E+02 0.  0.
         12    1    1    2    0    0 -0.11986265704E+02 -0.20499917748E+02 -0.21279104648E+02  0.31886007712E+02  0.00000000000E+00 0. -1.
         11    1    3    3    0    0  0.15788901499E+02  0.13710638792E+02  0.20536081882E+02  0.29308730542E+02  0.51100000000E-03 0.  1.
        -11    1    3    3    0    0  0.38420686103E+01 -0.89617292610E+01 -0.57501624160E+01  0.11319825556E+02  0.51100000000E-03 0. -1.
         12    1    3    3    0    0 -0.76447044062E+01  0.15751008217E+02  0.64931851821E+01  0.18673436190E+02  0.00000000000E+00 0. -1.
</event>
<event>
 7    1  0.4489290E-013  0.5930191E+02  0.7816164E-02  0.1266605E+00
        -11   -1    0    0    0    0  0.00000000000E+00  0.00000000000E+00  0.45593999997E+02  0.45594000000E+02  0.51100000000E-03 0. -1.
         11   -1    0    0    0    0 -0.00000000000E+00 -0.00000000000E+00 -0.45593999997E+02  0.45594000000E+02  0.51100000000E-03 0.  1.
    9900012    2    1    2    0    0 -0.17773074747E+02  0.18830806727E+02 -0.18607562688E+02  0.59301908092E+02  0.49999934463E+02 0.  0.
         12    1    1    2    0    0  0.17773074747E+02 -0.18830806727E+02  0.18607562688E+02  0.31886091908E+02  0.00000000000E+00 0. -1.
         11    1    3    3    0    0 -0.20647523371E+02 -0.68387542029E+01 -0.21683814989E+02  0.30712808617E+02  0.51100000000E-03 0. -1.
        -11    1    3    3    0    0  0.14289689220E+01  0.12018962931E+02  0.74131347426E+01  0.14193378353E+02  0.51100000000E-03 0.  1.
         12    1    3    3    0    0  0.14454797021E+01  0.13650598000E+02 -0.43368824408E+01  0.14395721122E+02  0.00000000000E+00 0. -1.
</event>
<event>
 7    1  0.4489290E-013  0.5930193E+02  0.7816164E-02  0.1266605E+00
        -11   -1    0    0    0    0  0.00000000000E+00  0.00000000000E+00  0.45593999997E+02  0.45594000000E+02  0.51100000000E-03 0. -1.
         11   -1    0    0    0    0 -0.00000000000E+00 -0.00000000000E+00 -0.45593999997E+02  0.45594000000E+02  0.51100000000E-03 0.  1.
    9900012    2    1    2    0    0 -0.24014726179E+02  0.18513773939E+02  0.98617616726E+01  0.59301933416E+02  0.49999980646E+02 0.  0.
         12    1    1    2    0    0  0.24014726179E+02 -0.18513773939E+02 -0.98617616726E+01  0.31886066584E+02  0.00000000000E+00 0. -1.
         11    1    3    3    0    0  0.68099730176E+01 -0.85496130742E+01 -0.78090381790E+01  0.13433268171E+02  0.51100000000E-03 0. -1.
        -11    1    3    3    0    0 -0.20156694296E+02  0.23444176258E+02  0.11243636440E+02  0.32898952658E+02  0.51100000000E-03 0.  1.
         12    1    3    3    0    0 -0.10668004900E+02  0.36192107557E+01  0.64271634116E+01  0.12969712586E+02  0.00000000000E+00 0. -1.
</event>
<event>
 7    1  0.4489290E-013  0.5930194E+02  0.7816164E-02  0.1266605E+00
        -11   -1    0    0    0    0  0.00000000000E+00  0.00000000000E+00  0.45593999997E+02  0.45594000000E+02  0.51100000000E-03 0. -1.
         11   -1    0    0    0    0 -0.00000000000E+00 -0.00000000000E+00 -0.45593999997E+02  0.45594000000E+02  0.51100000000E-03 0.  1.
    9900012    2    1    2    0    0 -0.80269188342E+01  0.25304672367E+02 -0.17662465720E+02  0.59301944037E+02  0.50000000016E+02 0.  0.
         12    1    1    2    0    0  0.80269188342E+01 -0.25304672367E+02  0.17662465720E+02  0.31886055963E+02  0.00000000000E+00 0. -1.
         11    1    3    3    0    0 -0.54119717029E+00  0.35820583767E+01  0.91658579690E+01  0.98558099191E+01  0.51100000000E-03 0. -1.
        -11    1    3    3    0    0  0.43472883213E+01 -0.56114908539E+01 -0.16429902168E+02  0.17897749324E+02  0.51100000000E-03 0.  1.
        -12    1    3    3    0    0 -0.11833009985E+02  0.27334104844E+02 -0.10398421521E+02  0.31548384794E+02  0.00000000000E+00 0.  1.
</event>
<event>
 7    1  0.4489290E-013  0.5930195E+02  0.7816164E-02  0.1266605E+00
        -11   -1    0    0    0    0  0.00000000000E+00  0.00000000000E+00  0.45593999997E+02  0.45594000000E+02  0.51100000000E-03 0.  1.
         11   -1    0    0    0    0 -0.00000000000E+00 -0.00000000000E+00 -0.45593999997E+02  0.45594000000E+02  0.51100000000E-03 0. -1.
    9900012    2    1    2    0    0 -0.20108978435E+02 -0.13362167709E+02  0.20827908738E+02  0.59301947846E+02  0.50000006964E+02 0.  0.
         12    1    1    2    0    0  0.20108978435E+02  0.13362167709E+02 -0.20827908738E+02  0.31886052154E+02  0.00000000000E+00 0. -1.
         11    1    3    3    0    0 -0.46321585719E+00  0.99771253984E+01  0.23042596738E+02  0.25114116844E+02  0.51100000000E-03 0.  1.
        -11    1    3    3    0    0 -0.11730178457E+02 -0.43281280208E+01 -0.48821587025E+01  0.13422565055E+02  0.51100000000E-03 0. -1.
         12    1    3    3    0    0 -0.79155841201E+01 -0.19011165087E+02  0.26674707022E+01  0.20765265947E+02  0.00000000000E+00 0. -1.
</event>
<event>
 7    1  0.4489290E-013  0.5930189E+02  0.7816164E-02  0.1266605E+00
        -11   -1    0    0    0    0  0.00000000000E+00  0.00000000000E+00  0.45593999997E+02  0.45594000000E+02  0.51100000000E-03 0.  1.
         11   -1    0    0    0    0 -0.00000000000E+00 -0.00000000000E+00 -0.45593999997E+02  0.45594000000E+02  0.51100000000E-03 0. -1.
    9900012    2    1    2    0    0 -0.38915839774E+00  0.21478010120E+02  0.23564118853E+02  0.59301889226E+02  0.49999900055E+02 0.  0.
         12    1    1    2    0    0  0.38915839774E+00 -0.21478010120E+02 -0.23564118853E+02  0.31886110774E+02  0.00000000000E+00 0. -1.
         11    1    3    3    0    0  0.51475287991E+01 -0.62005688311E+01 -0.37297498781E+01  0.88800417218E+01  0.51100000000E-03 0. -1.
        -11    1    3    3    0    0 -0.59253155936E+01  0.13498175479E+02  0.32198141266E+02  0.35412291755E+02  0.51100000000E-03 0.  1.
         12    1    3    3    0    0  0.38862839684E+00  0.14180403473E+02 -0.49042725350E+01  0.15009555749E+02  0.00000000000E+00 0. -1.
</event>
<event>
 7    1  0.4489290E-013  0.5930198E+02  0.7816164E-02  0.1266605E+00
        -11   -1    0    0    0    0  0.00000000000E+00  0.00000000000E+00  0.45593999997E+02  0.45594000000E+02  0.51100000000E-03 0.  1.
         11   -1    0    0    0    0 -0.00000000000E+00 -0.00000000000E+00 -0.45593999997E+02  0.45594000000E+02  0.51100000000E-03 0. -1.
    9900012    2    1    2    0    0  0.43628801299E+00  0.23763580905E+02  0.21256059069E+02  0.59301981563E+02  0.50000068455E+02 0.  0.
         12    1    1    2    0    0 -0.43628801299E+00 -0.23763580905E+02 -0.21256059069E+02  0.31886018437E+02  0.00000000000E+00 0. -1.
         11    1    3    3    0    0 -0.66998057857E+01  0.13499420706E+02  0.97600913645E+01  0.17954975374E+02  0.51100000000E-03 0. -1.
        -11    1    3    3    0    0  0.17737515015E+02  0.15788167015E+02 -0.13685344722E+01  0.23785679378E+02  0.51100000000E-03 0.  1.
        -12    1    3    3    0    0 -0.10601421217E+02 -0.55240068160E+01  0.12864502176E+02  0.17561326811E+02  0.00000000000E+00 0.  1.
</event>
<event>
 7    1  0.4489290E-013  0.5930193E+02  0.7816164E-02  0.1266605E+00
        -11   -1    0    0    0    0  0.00000000000E+00  0.00000000000E+00  0.45593999997E+02  0.45594000000E+02  0.51100000000E-03 0.  1.
         11   -1    0    0    0    0 -0.00000000000E+00 -0.00000000000E+00 -0.45593999997E+02  0.45594000000E+02  0.51100000000E-03 0. -1.
    9900012    2    1    2    0    0 -0.26703433882E+02  0.15622609057E+02  0.77189304445E+01  0.59301934360E+02  0.49999982368E+02 0.  0.
         12    1    1    2    0    0  0.26703433882E+02 -0.15622609057E+02 -0.77189304445E+01  0.31886065640E+02  0.00000000000E+00 0. -1.
         11    1    3    3    0    0 -0.18378663160E-01 -0.62626248475E+01  0.16049396160E+02  0.17227998291E+02  0.51100000000E-03 0. -1.
        -11    1    3    3    0    0 -0.18921414922E+02  0.43065039631E+01  0.31939407184E+01  0.19666397144E+02  0.51100000000E-03 0.  1.
         12    1    3    3    0    0 -0.77636402965E+01  0.17578729941E+02 -0.11524406434E+02  0.22407538925E+02  0.00000000000E+00 0. -1.
</event>
<event>
 7    1  0.4489290E-013  0.5930189E+02  0.7816164E-02  0.1266605E+00
        -11   -1    0    0    0    0  0.00000000000E+00  0.00000000000E+00  0.45593999997E+02  0.45594000000E+02  0.51100000000E-03 0.  1.
         11   -1    0    0    0    0 -0.00000000000E+00 -0.00000000000E+00 -0.45593999997E+02  0.45594000000E+02  0.51100000000E-03 0. -1.
    9900012    2    1    2    0    0  0.14787167392E+02  0.11438792918E+02  0.25830552044E+02  0.59301894534E+02  0.49999909735E+02 0.  0.
         12    1    1    2    0    0 -0.14787167392E+02 -0.11438792918E+02 -0.25830552044E+02  0.31886105466E+02  0.00000000000E+00 0. -1.
         11    1    3    3    0    0  0.41096263693E+01  0.16491192532E+02  0.11508714549E+02  0.20525568709E+02  0.51100000000E-03 0.  1.
        -11    1    3    3    0    0  0.16788378356E+02 -0.15785804204E+02  0.57764905188E+01  0.23757295830E+02  0.51100000000E-03 0. -1.
         12    1    3    3    0    0 -0.61108373328E+01  0.10733404590E+02  0.85453469766E+01  0.15019029994E+02  0.00000000000E+00 0. -1.
</event>
<event>
 7    1  0.4489290E-013  0.5930192E+02  0.7816164E-02  0.1266605E+00
        -11   -1    0    0    0    0  0.00000000000E+00  0.00000000000E+00  0.45593999997E+02  0.45594000000E+02  0.51100000000E-03 0. -1.
         11   -1    0    0    0    0 -0.00000000000E+00 -0.00000000000E+00 -0.45593999997E+02  0.45594000000E+02  0.51100000000E-03 0.  1.
    9900012    2    1    2    0    0 -0.12998551959E+02  0.80721287643E+01 -0.27974997269E+02  0.59301920152E+02  0.49999956457E+02 0.  0.
         12    1    1    2    0    0  0.12998551959E+02 -0.80721287643E+01  0.27974997269E+02  0.31886079848E+02  0.00000000000E+00 0. -1.
         11    1    3    3    0    0  0.80480276862E+01  0.95556204598E+01 -0.52855051292E+01  0.13565293832E+02  0.51100000000E-03 0. -1.
        -11    1    3    3    0    0 -0.91201266963E+01 -0.17156373644E+01 -0.30231411189E+02  0.31623699108E+02  0.51100000000E-03 0.  1.
        -12    1    3    3    0    0 -0.11926452949E+02  0.23214566890E+00  0.75419190493E+01  0.14112927212E+02  0.00000000000E+00 0.  1.
</event>
<event>
 7    1  0.4489290E-013  0.5930195E+02  0.7816164E-02  0.1266605E+00
        -11   -1    0    0    0    0  0.00000000000E+00  0.00000000000E+00  0.45593999997E+02  0.45594000000E+02  0.51100000000E-03 0.  1.
         11   -1    0    0    0    0 -0.00000000000E+00 -0.00000000000E+00 -0.45593999997E+02  0.45594000000E+02  0.51100000000E-03 0. -1.
    9900012    2    1    2    0    0  0.12166640363E+02 -0.15532563800E+01  0.29432642980E+02  0.59301949509E+02  0.50000009997E+02 0.  0.
         12    1    1    2    0    0 -0.12166640363E+02  0.15532563800E+01 -0.29432642980E+02  0.31886050491E+02  0.00000000000E+00 0. -1.
         11    1    3    3    0    0  0.16569520618E+02 -0.18377511890E+02  0.12157378023E+02  0.27569617289E+02  0.51100000000E-03 0. -1.
        -11    1    3    3    0    0 -0.83118191788E+01  0.43597148446E+01 -0.81219002656E+00  0.94208866084E+01  0.51100000000E-03 0.  1.
         12    1    3    3    0    0  0.39089389233E+01  0.12464540666E+02  0.18087454984E+02  0.22311445612E+02  0.00000000000E+00 0. -1.
</event>
<event>
 7    1  0.4489290E-013  0.5930197E+02  0.7816164E-02  0.1266605E+00
        -11   -1    0    0    0    0  0.00000000000E+00  0.00000000000E+00  0.45593999997E+02  0.45594000000E+02  0.51100000000E-03 0. -1.
         11   -1    0    0    0    0 -0.00000000000E+00 -0.00000000000E+00 -0.45593999997E+02  0.45594000000E+02  0.51100000000E-03 0.  1.
    9900012    2    1    2    0    0  0.29885054257E+02 -0.38836885245E+01 -0.10417266029E+02  0.59301969579E+02  0.50000046599E+02 0.  0.
         12    1    1    2    0    0 -0.29885054257E+02  0.38836885245E+01  0.10417266029E+02  0.31886030421E+02  0.00000000000E+00 0. -1.
         11    1    3    3    0    0 -0.41523825049E+00  0.36960719789E+01 -0.20939497709E+01  0.42682545358E+01  0.51100000000E-03 0. -1.
        -11    1    3    3    0    0  0.21377110924E+02 -0.25245357321E+02 -0.11431460938E+02  0.34999817673E+02  0.51100000000E-03 0.  1.
        -12    1    3    3    0    0  0.89231815832E+01  0.17665596817E+02  0.31081446798E+01  0.20033897370E+02  0.00000000000E+00 0.  1.
</event>
<event>
 7    1  0.4489290E-013  0.5930196E+02  0.7816164E-02  0.1266605E+00
        -11   -1    0    0    0    0  0.00000000000E+00  0.00000000000E+00  0.45593999997E+02  0.45594000000E+02  0.51100000000E-03 0. -1.
         11   -1    0    0    0    0 -0.00000000000E+00 -0.00000000000E+00 -0.45593999997E+02  0.45594000000E+02  0.51100000000E-03 0.  1.
    9900012    2    1    2    0    0 -0.12217446554E+02 -0.25820157794E+02 -0.14169427957E+02  0.59301964852E+02  0.50000037978E+02 0.  0.
         12    1    1    2    0    0  0.12217446554E+02  0.25820157794E+02  0.14169427957E+02  0.31886035148E+02  0.00000000000E+00 0. -1.
         11    1    3    3    0    0 -0.25725663656E+02 -0.16538594424E+02  0.28889294709E+01  0.30719387849E+02  0.51100000000E-03 0. -1.
        -11    1    3    3    0    0  0.14446007202E+02 -0.12540336244E+02 -0.12312098714E+02  0.22749394106E+02  0.51100000000E-03 0.  1.
         12    1    3    3    0    0 -0.93779010047E+00  0.32587728740E+01 -0.47462587144E+01  0.58331828962E+01  0.00000000000E+00 0. -1.
</event>
<event>
 7    1  0.4489290E-013  0.5930193E+02  0.7816164E-02  0.1266605E+00
        -11   -1    0    0    0    0  0.00000000000E+00  0.00000000000E+00  0.45593999997E+02  0.45594000000E+02  0.51100000000E-03 0.  1.
         11   -1    0    0    0    0 -0.00000000000E+00 -0.00000000000E+00 -0.45593999997E+02  0.45594000000E+02  0.51100000000E-03 0. -1.
    9900012    2    1    2    0    0 -0.12566173050E+02  0.21509253492E+02  0.19903884893E+02  0.59301932122E+02  0.49999978286E+02 0.  0.
         12    1    1    2    0    0  0.12566173050E+02 -0.21509253492E+02 -0.19903884893E+02  0.31886067878E+02  0.00000000000E+00 0. -1.
         11    1    3    3    0    0 -0.74587644750E+01  0.76959310700E+01  0.15819874922E+02  0.19108348053E+02  0.51100000000E-03 0.  1.
        -11    1    3    3    0    0  0.14183416636E+02  0.11993281523E+02  0.83309431743E+01  0.20357129552E+02  0.51100000000E-03 0. -1.
         12    1    3    3    0    0 -0.19290825210E+02  0.18200408983E+01 -0.42469332027E+01  0.19836454517E+02  0.00000000000E+00 0. -1.
</event>
<event>
 7    1  0.4489290E-013  0.5930194E+02  0.7816164E-02  0.1266605E+00
        -11   -1    0    0    0    0  0.00000000000E+00  0.00000000000E+00  0.45593999997E+02  0.45594000000E+02  0.51100000000E-03 0.  1.
         11   -1    0    0    0    0 -0.00000000000E+00 -0.00000000000E+00 -0.45593999997E+02  0.45594000000E+02  0.51100000000E-03 0. -1.
    9900012    2    1    2    0    0  0.22939595605E+02  0.21725485744E+02  0.43010557902E+01  0.59301939437E+02  0.49999991627E+02 0.  0.
         12    1    1    2    0    0 -0.22939595605E+02 -0.21725485744E+02 -0.43010557902E+01  0.31886060563E+02  0.00000000000E+00 0. -1.
         11    1    3    3    0    0 -0.19089508848E+01 -0.30952715611E+01 -0.18102244211E+01  0.40622299582E+01  0.51100000000E-03 0. -1.
        -11    1    3    3    0    0  0.35007411982E+02  0.24843378764E+02 -0.83175199064E+00  0.42934882947E+02  0.51100000000E-03 0.  1.
        -12    1    3    3    0    0 -0.10158865492E+02 -0.22621458641E-01  0.69430322019E+01  0.12304826531E+02  0.00000000000E+00 0.  1.
</event>
<event>
 7    1  0.4489290E-013  0.5930192E+02  0.7816164E-02  0.1266605E+00
        -11   -1    0    0    0    0  0.00000000000E+00  0.00000000000E+00  0.45593999997E+02  0.45594000000E+02  0.51100000000E-03 0.  1.
         11   -1    0    0    0    0 -0.00000000000E+00 -0.00000000000E+00 -0.45593999997E+02  0.45594000000E+02  0.51100000000E-03 0. -1.
    9900012    2    1    2    0    0 -0.46266876346E+00 -0.10770598030E+02  0.30008369742E+02  0.59301919983E+02  0.49999956148E+02 0.  0.
         12    1    1    2    0    0  0.46266876346E+00  0.10770598030E+02 -0.30008369742E+02  0.31886080017E+02  0.00000000000E+00 0. -1.
         11    1    3    3    0    0 -0.92802725659E+01 -0.77794123484E+01 -0.43845656997E+00  0.12117547599E+02  0.51100000000E-03 0. -1.
        -11    1    3    3    0    0  0.11769297638E+02  0.14221233415E+02  0.13694296329E+02  0.22984638325E+02  0.51100000000E-03 0.  1.
        -12    1    3    3    0    0 -0.29516938360E+01 -0.17212419097E+02  0.16752529983E+02  0.24199734059E+02  0.00000000000E+00 0.  1.
</event>
<event>
 7    1  0.4489290E-013  0.5930173E+02  0.7816164E-02  0.1266605E+00
        -11   -1    0    0    0    0  0.00000000000E+00  0.00000000000E+00  0.45593999997E+02  0.45594000000E+02  0.51100000000E-03 0. -1.
         11   -1    0    0    0    0 -0.00000000000E+00 -0.00000000000E+00 -0.45593999997E+02  0.45594000000E+02  0.51100000000E-03 0.  1.
    9900012    2    1    2    0    0 -0.29671909739E+02  0.89924299342E+01 -0.74463403382E+01  0.59301733236E+02  0.49999615566E+02 0.  0.
         12    1    1    2    0    0  0.29671909739E+02 -0.89924299342E+01  0.74463403382E+01  0.31886266764E+02  0.00000000000E+00 0. -1.
         11    1    3    3    0    0  0.18053536041E+00  0.63267475381E+01  0.13432998982E+02  0.14849437341E+02  0.51100000000E-03 0. -1.
        -11    1    3    3    0    0 -0.12798570378E+02  0.11350006977E+02 -0.18451560941E+02  0.25161203539E+02  0.51100000000E-03 0.  1.
         12    1    3    3    0    0 -0.17053874721E+02 -0.86843245810E+01 -0.24277783794E+01  0.19291092356E+02  0.00000000000E+00 0. -1.
</event>
<event>
 7    1  0.4489290E-013  0.5930194E+02  0.7816164E-02  0.1266605E+00
        -11   -1    0    0    0    0  0.00000000000E+00  0.00000000000E+00  0.45593999997E+02  0.45594000000E+02  0.51100000000E-03 0. -1.
         11   -1    0    0    0    0 -0.00000000000E+00 -0.00000000000E+00 -0.45593999997E+02  0.45594000000E+02  0.51100000000E-03 0.  1.
    9900012    2    1    2    0    0  0.15390579951E+02 -0.27105955804E+02  0.67169923544E+01  0.59301940702E+02  0.49999993934E+02 0.  0.
         12    1    1    2    0    0 -0.15390579951E+02  0.27105955804E+02 -0.67169923544E+01  0.31886059298E+02  0.00000000000E+00 0. -1.
         11    1    3    3    0    0  0.27915692540E+02 -0.10025965689E+02 -0.17320872518E+01  0.29712051503E+02  0.51100000000E-03 0. -1.
        -11    1    3    3    0    0 -0.17325696171E+02 -0.13977078635E+02  0.46925266394E+01  0.22749907286E+02  0.51100000000E-03 0.  1.
        -12    1    3    3    0    0  0.48005835822E+01 -0.31029114793E+01  0.37565529669E+01  0.68399819130E+01  0.00000000000E+00 0.  1.
</event>
<event>
 7    1  0.4489290E-013  0.5930200E+02  0.7816164E-02  0.1266605E+00
        -11   -1    0    0    0    0  0.00000000000E+00  0.00000000000E+00  0.45593999997E+02  0.45594000000E+02  0.51100000000E-03 0. -1.
         11   -1    0    0    0    0 -0.00000000000E+00 -0.00000000000E+00 -0.45593999997E+02  0.45594000000E+02  0.51100000000E-03 0.  1.
    9900012    2    1    2    0    0 -0.26001138933E+02  0.11543906726E+02  0.14401247731E+02  0.59302000807E+02  0.50000103552E+02 0.  0.
         12    1    1    2    0    0  0.26001138933E+02 -0.11543906726E+02 -0.14401247731E+02  0.31885999193E+02  0.00000000000E+00 0. -1.
         11    1    3    3    0    0  0.66694231033E+00  0.22622050555E+01  0.24090201460E+02  0.24205375238E+02  0.51100000000E-03 0. -1.
        -11    1    3    3    0    0 -0.23633600151E+02  0.10344206327E+01 -0.25859647148E+01  0.23797148903E+02  0.51100000000E-03 0.  1.
        -12    1    3    3    0    0 -0.30344810929E+01  0.82472810375E+01 -0.71029890139E+01  0.11299476667E+02  0.00000000000E+00 0.  1.
</event>
<event>
 7    1  0.4489290E-013  0.5930194E+02  0.7816164E-02  0.1266605E+00
        -11   -1    0    0    0    0  0.00000000000E+00  0.00000000000E+00  0.45593999997E+02  0.45594000000E+02  0.51100000000E-03 0. -1.
         11   -1    0    0    0    0 -0.00000000000E+00 -0.00000000000E+00 -0.45593999997E+02  0.45594000000E+02  0.51100000000E-03 0.  1.
    9900012    2    1    2    0    0 -0.19517474069E+02 -0.24449943506E+02  0.61635312703E+01  0.59301942714E+02  0.49999997605E+02 0.  0.
         12    1    1    2    0    0  0.19517474069E+02  0.24449943506E+02 -0.61635312703E+01  0.31886057286E+02  0.00000000000E+00 0. -1.
         11    1    3    3    0    0  0.36635161033E+01 -0.17689783447E+02  0.21906737280E+02  0.28394628492E+02  0.51100000000E-03 0. -1.
        -11    1    3    3    0    0 -0.16534491791E+02 -0.94292498249E+01 -0.89409252192E+01  0.21029510577E+02  0.51100000000E-03 0.  1.
         12    1    3    3    0    0 -0.66464983815E+01  0.26690897656E+01 -0.68022807909E+01  0.98778036461E+01  0.00000000000E+00 0. -1.
</event>
<event>
 7    1  0.4489290E-013  0.5930224E+02  0.7816164E-02  0.1266604E+00
        -11   -1    0    0    0    0  0.00000000000E+00  0.00000000000E+00  0.45593999997E+02  0.45594000000E+02  0.51100000000E-03 0.  1.
         11   -1    0    0    0    0 -0.00000000000E+00 -0.00000000000E+00 -0.45593999997E+02  0.45594000000E+02  0.51100000000E-03 0. -1.
    9900012    2    1    2    0    0 -0.12127056082E+02 -0.10976376596E+02  0.27370703814E+02  0.59302238920E+02  0.50000537810E+02 0.  0.
         12    1    1    2    0    0  0.12127056082E+02  0.10976376596E+02 -0.27370703814E+02  0.31885761080E+02  0.00000000000E+00 0. -1.
         11    1    3    3    0    0  0.76221528156E+01 -0.43423861666E+01  0.24186386832E+02  0.25728094360E+02  0.51100000000E-03 0. -1.
        -11    1    3    3    0    0 -0.13382853245E+02  0.35610345098E+01 -0.89545419062E+01  0.16491378013E+02  0.51100000000E-03 0.  1.
        -12    1    3    3    0    0 -0.63663556526E+01 -0.10195024939E+02  0.12138858888E+02  0.17082766547E+02  0.00000000000E+00 0.  1.
</event>
<event>
 7    1  0.4489290E-013  0.5930195E+02  0.7816164E-02  0.1266605E+00
        -11   -1    0    0    0    0  0.00000000000E+00  0.00000000000E+00  0.45593999997E+02  0.45594000000E+02  0.51100000000E-03 0.  1.
         11   -1    0    0    0    0 -0.00000000000E+00 -0.00000000000E+00 -0.45593999997E+02  0.45594000000E+02  0.51100000000E-03 0. -1.
    9900012    2    1    2    0    0 -0.17215555565E+02  0.19559441330E+02  0.18378605515E+02  0.59301949143E+02  0.50000009329E+02 0.  0.
         12    1    1    2    0    0  0.17215555565E+02 -0.19559441330E+02 -0.18378605515E+02  0.31886050857E+02  0.00000000000E+00 0. -1.
         11    1    3    3    0    0 -0.17578485548E+01 -0.69832190284E+01 -0.75068249460E+01  0.10402297851E+02  0.51100000000E-03 0. -1.
        -11    1    3    3    0    0 -0.15366560796E+00  0.24321728088E+02  0.22360179408E+02  0.33038578870E+02  0.51100000000E-03 0.  1.
        -12    1    3    3    0    0 -0.15304041403E+02  0.22209322701E+01  0.35252510540E+01  0.15861072423E+02  0.00000000000E+00 0.  1.
</event>
<event>
 7    1  0.4489290E-013  0.5930214E+02  0.7816164E-02  0.1266604E+00
        -11   -1    0    0    0    0  0.00000000000E+00  0.00000000000E+00  0.45593999997E+02  0.45594000000E+02  0.51100000000E-03 0.  1.
         11   -1    0    0    0    0 -0.00000000000E+00 -0.00000000000E+00 -0.45593999997E+02  0.45594000000E+02  0.51100000000E-03 0. -1.
    9900012    2    1    2    0    0  0.10034317563E+02 -0.30002496839E+02 -0.39838016152E+01  0.59302140738E+02  0.50000358752E+02 0.  0.
         12    1    1    2    0    0 -0.10034317563E+02  0.30002496839E+02  0.39838016152E+01  0.31885859262E+02  0.00000000000E+00 0. -1.
         11    1    3    3    0    0 -0.22401351307E+01 -0.73834705505E+01  0.27334611318E+01  0.81856980640E+01  0.51100000000E-03 0. -1.
        -11    1    3    3    0    0  0.73144705187E+01  0.28365675209E+01 -0.20355313127E+02  0.21814819895E+02  0.51100000000E-03 0.  1.
        -12    1    3    3    0    0  0.49599821752E+01 -0.25455593809E+02  0.13638050380E+02  0.29301622780E+02  0.00000000000E+00 0.  1.
</event>
<event>
 7    1  0.4489290E-013  0.5930195E+02  0.7816164E-02  0.1266605E+00
        -11   -1    0    0    0    0  0.00000000000E+00  0.00000000000E+00  0.45593999997E+02  0.45594000000E+02  0.51100000000E-03 0.  1.
         11   -1    0    0    0    0 -0.00000000000E+00 -0.00000000000E+00 -0.45593999997E+02  0.45594000000E+02  0.51100000000E-03 0. -1.
    9900012    2    1    2    0    0  0.85371691360E+01 -0.30496727974E+02  0.37130163993E+01  0.59301950311E+02  0.50000011460E+02 0.  0.
         12    1    1    2    0    0 -0.85371691360E+01  0.30496727974E+02 -0.37130163993E+01  0.31886049689E+02  0.00000000000E+00 0. -1.
         11    1    3    3    0    0 -0.25771569910E+01  0.30483267040E+01 -0.14800270246E+02  0.15329123701E+02  0.51100000000E-03 0. -1.
        -11    1    3    3    0    0  0.69213313896E+01 -0.60753639037E+01  0.12526097711E+02  0.15547282685E+02  0.51100000000E-03 0.  1.
         12    1    3    3    0    0  0.41929947374E+01 -0.27469690774E+02  0.59871889342E+01  0.28425543925E+02  0.00000000000E+00 0. -1.
</event>
<event>
 7    1  0.4489290E-013  0.5930198E+02  0.7816164E-02  0.1266605E+00
        -11   -1    0    0    0    0  0.00000000000E+00  0.00000000000E+00  0.45593999997E+02  0.45594000000E+02  0.51100000000E-03 0.  1.
         11   -1    0    0    0    0 -0.00000000000E+00 -0.00000000000E+00 -0.45593999997E+02  0.45594000000E+02  0.51100000000E-03 0. -1.
    9900012    2    1    2    0    0  0.22395858586E+02  0.19798456768E+02  0.11097970272E+02  0.59301979296E+02  0.50000064320E+02 0.  0.
         12    1    1    2    0    0 -0.22395858586E+02 -0.19798456768E+02 -0.11097970272E+02  0.31886020704E+02  0.00000000000E+00 0. -1.
         11    1    3    3    0    0  0.13196964210E+02 -0.80791741332E+01  0.14306714481E+02  0.21074036124E+02  0.51100000000E-03 0. -1.
        -11    1    3    3    0    0 -0.24231609491E+01  0.26080739025E+02 -0.69577927568E+00  0.26202304596E+02  0.51100000000E-03 0.  1.
        -12    1    3    3    0    0  0.11622055326E+02  0.17968918762E+01 -0.25129649340E+01  0.12025638576E+02  0.00000000000E+00 0.  1.
</event>
<event>
 7    1  0.4489290E-013  0.5930194E+02  0.7816164E-02  0.1266605E+00
        -11   -1    0    0    0    0  0.00000000000E+00  0.00000000000E+00  0.45593999997E+02  0.45594000000E+02  0.51100000000E-03 0.  1.
         11   -1    0    0    0    0 -0.00000000000E+00 -0.00000000000E+00 -0.45593999997E+02  0.45594000000E+02  0.51100000000E-03 0. -1.
    9900012    2    1    2    0    0 -0.27769717880E+01  0.29535677052E+02  0.11689861446E+02  0.59301942673E+02  0.49999997530E+02 0.  0.
         12    1    1    2    0    0  0.27769717880E+01 -0.29535677052E+02 -0.11689861446E+02  0.31886057327E+02  0.00000000000E+00 0. -1.
         11    1    3    3    0    0  0.45377403634E+01 -0.12756474813E+02  0.22904932235E+01  0.13731900696E+02  0.51100000000E-03 0. -1.
        -11    1    3    3    0    0 -0.89159419856E+00  0.18173962028E+02  0.96783107709E+01  0.20609646665E+02  0.51100000000E-03 0.  1.
         12    1    3    3    0    0 -0.64231179528E+01  0.24118189837E+02 -0.27894254876E+00  0.24960395313E+02  0.00000000000E+00 0. -1.
</event>
<event>
 7    1  0.4489290E-013  0.5930192E+02  0.7816164E-02  0.1266605E+00
        -11   -1    0    0    0    0  0.00000000000E+00  0.00000000000E+00  0.45593999997E+02  0.45594000000E+02  0.51100000000E-03 0. -1.
         11   -1    0    0    0    0 -0.00000000000E+00 -0.00000000000E+00 -0.45593999997E+02  0.45594000000E+02  0.51100000000E-03 0.  1.
    9900012    2    1    2    0    0  0.15250312523E+02  0.21055307782E+02 -0.18461427834E+02  0.59301916272E+02  0.49999949380E+02 0.  0.
         12    1    1    2    0    0 -0.15250312523E+02 -0.21055307782E+02  0.18461427834E+02  0.31886083728E+02  0.00000000000E+00 0. -1.
         11    1    3    3    0    0  0.49443242211E+01 -0.17243359611E+01  0.92667851310E+01  0.10643917673E+02  0.51100000000E-03 0. -1.
        -11    1    3    3    0    0  0.25459008816E+00  0.41243475671E+01 -0.27146502481E+02  0.27459199846E+02  0.51100000000E-03 0.  1.
        -12    1    3    3    0    0  0.10051398213E+02  0.18655296176E+02 -0.58171048412E+00  0.21198798753E+02  0.00000000000E+00 0.  1.
</event>
<event>
 7    1  0.4489290E-013  0.5930194E+02  0.7816164E-02  0.1266605E+00
        -11   -1    0    0    0    0  0.00000000000E+00  0.00000000000E+00  0.45593999997E+02  0.45594000000E+02  0.51100000000E-03 0. -1.
         11   -1    0    0    0    0 -0.00000000000E+00 -0.00000000000E+00 -0.45593999997E+02  0.45594000000E+02  0.51100000000E-03 0.  1.
    9900012    2    1    2    0    0  0.22154488475E+02  0.14823863041E+02 -0.17497217571E+02  0.59301938817E+02  0.49999990496E+02 0.  0.
         12    1    1    2    0    0 -0.22154488475E+02 -0.14823863041E+02  0.17497217571E+02  0.31886061183E+02  0.00000000000E+00 0. -1.
         11    1    3    3    0    0 -0.16272385098E+01 -0.19372822942E+00  0.14709119277E+02  0.14800122498E+02  0.51100000000E-03 0. -1.
        -11    1    3    3    0    0  0.85765562035E+01  0.87425904740E+01 -0.61922569266E+01  0.13723492654E+02  0.51100000000E-03 0.  1.
         12    1    3    3    0    0  0.15205170782E+02  0.62750007966E+01 -0.26014079921E+02  0.30778323665E+02  0.00000000000E+00 0. -1.
</event>
<event>
 7    1  0.4489290E-013  0.5930194E+02  0.7816164E-02  0.1266605E+00
        -11   -1    0    0    0    0  0.00000000000E+00  0.00000000000E+00  0.45593999997E+02  0.45594000000E+02  0.51100000000E-03 0.  1.
         11   -1    0    0    0    0 -0.00000000000E+00 -0.00000000000E+00 -0.45593999997E+02  0.45594000000E+02  0.51100000000E-03 0. -1.
    9900012    2    1    2    0    0 -0.21731283371E+02 -0.84266179040E+01  0.21759228873E+02  0.59301943370E+02  0.49999998801E+02 0.  0.
         12    1    1    2    0    0  0.21731283371E+02  0.84266179040E+01 -0.21759228873E+02  0.31886056630E+02  0.00000000000E+00 0. -1.
         11    1    3    3    0    0 -0.96602361781E+01  0.11845304244E+00  0.40555100086E+01  0.10477659845E+02  0.51100000000E-03 0. -1.
        -11    1    3    3    0    0  0.49639400906E+01 -0.16696706574E+02 -0.60846923595E+01  0.18451129858E+02  0.51100000000E-03 0.  1.
        -12    1    3    3    0    0 -0.17034987284E+02  0.81516356278E+01  0.23788411224E+02  0.30373153668E+02  0.00000000000E+00 0.  1.
</event>
<event>
 7    1  0.4489290E-013  0.5930194E+02  0.7816164E-02  0.1266605E+00
        -11   -1    0    0    0    0  0.00000000000E+00  0.00000000000E+00  0.45593999997E+02  0.45594000000E+02  0.51100000000E-03 0.  1.
         11   -1    0    0    0    0 -0.00000000000E+00 -0.00000000000E+00 -0.45593999997E+02  0.45594000000E+02  0.51100000000E-03 0. -1.
    9900012    2    1    2    0    0 -0.28175727603E+02 -0.55620141460E+01  0.13853263080E+02  0.59301944658E+02  0.50000001149E+02 0.  0.
         12    1    1    2    0    0  0.28175727603E+02  0.55620141460E+01 -0.13853263080E+02  0.31886055342E+02  0.00000000000E+00 0. -1.
         11    1    3    3    0    0 -0.91039825899E+01 -0.97606068157E+01 -0.13453318655E+01  0.13414986489E+02  0.51100000000E-03 0. -1.
        -11    1    3    3    0    0  0.10776334766E+02  0.58321353360E+01  0.93843179775E+01  0.15434008479E+02  0.51100000000E-03 0.  1.
        -12    1    3    3    0    0 -0.29848079779E+02 -0.16335426663E+01  0.58142769679E+01  0.30452949690E+02  0.00000000000E+00 0.  1.
</event>
<event>
 7    1  0.4489290E-013  0.5930194E+02  0.7816164E-02  0.1266605E+00
        -11   -1    0    0    0    0  0.00000000000E+00  0.00000000000E+00  0.45593999997E+02  0.45594000000E+02  0.51100000000E-03 0. -1.
         11   -1    0    0    0    0 -0.00000000000E+00 -0.00000000000E+00 -0.45593999997E+02  0.45594000000E+02  0.51100000000E-03 0.  1.
    9900012    2    1    2    0    0  0.23714056411E+02 -0.72643551701E+01  0.20039791171E+02  0.59301944150E+02  0.50000000223E+02 0.  0.
         12    1    1    2    0    0 -0.23714056411E+02  0.72643551701E+01 -0.20039791171E+02  0.31886055850E+02  0.00000000000E+00 0. -1.
         11    1    3    3    0    0 -0.78336214659E+01 -0.10912487911E+02  0.19456015164E+02  0.23642853973E+02  0.51100000000E-03 0. -1.
        -11    1    3    3    0    0  0.25795674854E+02  0.71359329897E+00  0.68099871796E+01  0.26688986159E+02  0.51100000000E-03 0.  1.
        -12    1    3    3    0    0  0.57520030233E+01  0.29345394417E+01 -0.62262111728E+01  0.89701040174E+01  0.00000000000E+00 0.  1.
</event>
<event>
 7    1  0.4489290E-013  0.5930195E+02  0.7816164E-02  0.1266605E+00
        -11   -1    0    0    0    0  0.00000000000E+00  0.00000000000E+00  0.45593999997E+02  0.45594000000E+02  0.51100000000E-03 0.  1.
         11   -1    0    0    0    0 -0.00000000000E+00 -0.00000000000E+00 -0.45593999997E+02  0.45594000000E+02  0.51100000000E-03 0. -1.
    9900012    2    1    2    0    0  0.11792651376E+02  0.24553788061E+02  0.16576038719E+02  0.59301949849E+02  0.50000010617E+02 0.  0.
         12    1    1    2    0    0 -0.11792651376E+02 -0.24553788061E+02 -0.16576038719E+02  0.31886050151E+02  0.00000000000E+00 0. -1.
         11    1    3    3    0    0  0.13862444193E+02  0.20981424255E+01 -0.15169324757E+01  0.14102150369E+02  0.51100000000E-03 0. -1.
        -11    1    3    3    0    0 -0.68500607246E+01  0.30934753477E+02  0.14060387952E+02  0.34663768033E+02  0.51100000000E-03 0.  1.
        -12    1    3    3    0    0  0.47802679076E+01 -0.84791078417E+01  0.40325832423E+01  0.10536031448E+02  0.00000000000E+00 0.  1.
</event>
<event>
 7    1  0.4489290E-013  0.5930174E+02  0.7816164E-02  0.1266605E+00
        -11   -1    0    0    0    0  0.00000000000E+00  0.00000000000E+00  0.45593999997E+02  0.45594000000E+02  0.51100000000E-03 0.  1.
         11   -1    0    0    0    0 -0.00000000000E+00 -0.00000000000E+00 -0.45593999997E+02  0.45594000000E+02  0.51100000000E-03 0. -1.
    9900012    2    1    2    0    0 -0.14889196288E+02  0.25080877334E+02  0.12883899832E+02  0.59301742007E+02  0.49999631561E+02 0.  0.
         12    1    1    2    0    0  0.14889196288E+02 -0.25080877334E+02 -0.12883899832E+02  0.31886257993E+02  0.00000000000E+00 0. -1.
         11    1    3    3    0    0 -0.26024888248E+02  0.27977034227E+02 -0.21971080879E+01  0.38273182996E+02  0.51100000000E-03 0. -1.
        -11    1    3    3    0    0  0.92716344694E+01 -0.46491774276E+01  0.69018601052E+01  0.12458480231E+02  0.51100000000E-03 0.  1.
         12    1    3    3    0    0  0.18640574904E+01  0.17530205340E+01  0.81791478145E+01  0.85700787798E+01  0.00000000000E+00 0. -1.
</event>
<event>
 7    1  0.4489290E-013  0.5930196E+02  0.7816164E-02  0.1266605E+00
        -11   -1    0    0    0    0  0.00000000000E+00  0.00000000000E+00  0.45593999997E+02  0.45594000000E+02  0.51100000000E-03 0.  1.
         11   -1    0    0    0    0 -0.00000000000E+00 -0.00000000000E+00 -0.45593999997E+02  0.45594000000E+02  0.51100000000E-03 0. -1.
    9900012    2    1    2    0    0 -0.78715865961E+01 -0.26581653667E+02  0.15753525614E+02  0.59301956714E+02  0.50000023136E+02 0.  0.
         12    1    1    2    0    0  0.78715865961E+01  0.26581653667E+02 -0.15753525614E+02  0.31886043286E+02  0.00000000000E+00 0. -1.
         11    1    3    3    0    0  0.33546424871E+01 -0.25326998700E+02 -0.60225191331E+01  0.26248451885E+02  0.51100000000E-03 0. -1.
        -11    1    3    3    0    0 -0.36883583541E+01 -0.14638204995E+01  0.24662102753E+02  0.24979312847E+02  0.51100000000E-03 0.  1.
        -12    1    3    3    0    0 -0.75378707291E+01  0.20916553326E+00 -0.28860580064E+01  0.80741919822E+01  0.00000000000E+00 0.  1.
</event>
<event>
 7    1  0.4489290E-013  0.5930195E+02  0.7816164E-02  0.1266605E+00
        -11   -1    0    0    0    0  0.00000000000E+00  0.00000000000E+00  0.45593999997E+02  0.45594000000E+02  0.51100000000E-03 0.  1.
         11   -1    0    0    0    0 -0.00000000000E+00 -0.00000000000E+00 -0.45593999997E+02  0.45594000000E+02  0.51100000000E-03 0. -1.
    9900012    2    1    2    0    0  0.25443697177E+02  0.15918953653E+02  0.10766861400E+02  0.59301951078E+02  0.50000012858E+02 0.  0.
         12    1    1    2    0    0 -0.25443697177E+02 -0.15918953653E+02 -0.10766861400E+02  0.31886048922E+02  0.00000000000E+00 0. -1.
         11    1    3    3    0    0  0.98596704268E+00 -0.95407681548E+01 -0.35603296252E+01  0.10231047615E+02  0.51100000000E-03 0.  1.
        -11    1    3    3    0    0  0.65671945678E+01  0.27580896555E+02  0.12424582759E+02  0.30954872900E+02  0.51100000000E-03 0. -1.
        -12    1    3    3    0    0  0.17890535566E+02 -0.21211747467E+01  0.19026082662E+01  0.18116030563E+02  0.00000000000E+00 0.  1.
</event>
<event>
 7    1  0.4489290E-013  0.5930189E+02  0.7816164E-02  0.1266605E+00
        -11   -1    0    0    0    0  0.00000000000E+00  0.00000000000E+00  0.45593999997E+02  0.45594000000E+02  0.51100000000E-03 0.  1.
         11   -1    0    0    0    0 -0.00000000000E+00 -0.00000000000E+00 -0.45593999997E+02  0.45594000000E+02  0.51100000000E-03 0. -1.
    9900012    2    1    2    0    0  0.18485008981E+02 -0.21048327969E+02  0.15231431404E+02  0.59301887507E+02  0.49999896919E+02 0.  0.
         12    1    1    2    0    0 -0.18485008981E+02  0.21048327969E+02 -0.15231431404E+02  0.31886112493E+02  0.00000000000E+00 0. -1.
         11    1    3    3    0    0 -0.49235377344E+01  0.96690946357E+01  0.10825755028E+02  0.15327412928E+02  0.51100000000E-03 0. -1.
        -11    1    3    3    0    0  0.17886118399E+02 -0.23285305448E+02 -0.60811061679E+01  0.29984971797E+02  0.51100000000E-03 0.  1.
         12    1    3    3    0    0  0.55224283164E+01 -0.74321171571E+01  0.10486782544E+02  0.13989502782E+02  0.00000000000E+00 0. -1.
</event>
<event>
 7    1  0.4489290E-013  0.5930201E+02  0.7816164E-02  0.1266605E+00
        -11   -1    0    0    0    0  0.00000000000E+00  0.00000000000E+00  0.45593999997E+02  0.45594000000E+02  0.51100000000E-03 0.  1.
         11   -1    0    0    0    0 -0.00000000000E+00 -0.00000000000E+00 -0.45593999997E+02  0.45594000000E+02  0.51100000000E-03 0. -1.
    9900012    2    1    2    0    0  0.13594803019E+02 -0.12816693334E+02  0.25838538561E+02  0.59302009783E+02  0.50000119922E+02 0.  0.
         12    1    1    2    0    0 -0.13594803019E+02  0.12816693334E+02 -0.25838538561E+02  0.31885990217E+02  0.00000000000E+00 0. -1.
         11    1    3    3    0    0 -0.10338838166E+02 -0.16049668923E+02  0.24881690713E+02  0.31362110582E+02  0.51100000000E-03 0. -1.
        -11    1    3    3    0    0  0.12338575190E+02 -0.74091534340E+00  0.70731904622E+01  0.14241468212E+02  0.51100000000E-03 0.  1.
         12    1    3    3    0    0  0.11595065995E+02  0.39738909326E+01 -0.61163426147E+01  0.13698430989E+02  0.00000000000E+00 0. -1.
</event>
<event>
 7    1  0.4489290E-013  0.5930194E+02  0.7816164E-02  0.1266605E+00
        -11   -1    0    0    0    0  0.00000000000E+00  0.00000000000E+00  0.45593999997E+02  0.45594000000E+02  0.51100000000E-03 0.  1.
         11   -1    0    0    0    0 -0.00000000000E+00 -0.00000000000E+00 -0.45593999997E+02  0.45594000000E+02  0.51100000000E-03 0. -1.
    9900012    2    1    2    0    0 -0.16842577411E+02 -0.26851971270E+02  0.34669980963E+01  0.59301939555E+02  0.49999991842E+02 0.  0.
         12    1    1    2    0    0  0.16842577411E+02  0.26851971270E+02 -0.34669980963E+01  0.31886060445E+02  0.00000000000E+00 0. -1.
         11    1    3    3    0    0  0.89224240998E+01  0.10586614972E+01 -0.41652107982E+01  0.99035042908E+01  0.51100000000E-03 0. -1.
        -11    1    3    3    0    0 -0.22718238971E+02 -0.26862279411E+02 -0.57376760514E+01  0.35645776241E+02  0.51100000000E-03 0.  1.
         12    1    3    3    0    0 -0.30467625405E+01 -0.10483533554E+01  0.13369884946E+02  0.13752659023E+02  0.00000000000E+00 0. -1.
</event>
<event>
 7    1  0.4489290E-013  0.5930193E+02  0.7816164E-02  0.1266605E+00
        -11   -1    0    0    0    0  0.00000000000E+00  0.00000000000E+00  0.45593999997E+02  0.45594000000E+02  0.51100000000E-03 0. -1.
         11   -1    0    0    0    0 -0.00000000000E+00 -0.00000000000E+00 -0.45593999997E+02  0.45594000000E+02  0.51100000000E-03 0.  1.
    9900012    2    1    2    0    0  0.17612482739E+02  0.21243431986E+02 -0.15976177884E+02  0.59301933913E+02  0.49999981552E+02 0.  0.
         12    1    1    2    0    0 -0.17612482739E+02 -0.21243431986E+02  0.15976177884E+02  0.31886066087E+02  0.00000000000E+00 0. -1.
         11    1    3    3    0    0 -0.34978840120E+01  0.42512689320E+01  0.13640624643E+02  0.14709694797E+02  0.51100000000E-03 0. -1.
        -11    1    3    3    0    0  0.61036508077E+01  0.17245916265E+02 -0.17258377821E+02  0.25150105095E+02  0.51100000000E-03 0.  1.
         12    1    3    3    0    0  0.15006715943E+02 -0.25375321109E+00 -0.12358424706E+02  0.19442134021E+02  0.00000000000E+00 0. -1.
</event>
<event>
 7    1  0.4489290E-013  0.5930194E+02  0.7816164E-02  0.1266605E+00
        -11   -1    0    0    0    0  0.00000000000E+00  0.00000000000E+00  0.45593999997E+02  0.45594000000E+02  0.51100000000E-03 0.  1.
         11   -1    0    0    0    0 -0.00000000000E+00 -0.00000000000E+00 -0.45593999997E+02  0.45594000000E+02  0.51100000000E-03 0. -1.
    9900012    2    1    2    0    0 -0.11788546174E+02  0.90168543911E+01  0.28221398230E+02  0.59301940318E+02  0.49999993234E+02 0.  0.
         12    1    1    2    0    0  0.11788546174E+02 -0.90168543911E+01 -0.28221398230E+02  0.31886059682E+02  0.00000000000E+00 0. -1.
         11    1    3    3    0    0  0.43046974023E+01  0.12835247918E+02 -0.40414230408E+01  0.14128238011E+02  0.51100000000E-03 0. -1.
        -11    1    3    3    0    0 -0.99080168041E+01  0.32493190087E+01  0.34052077699E+02  0.35612790777E+02  0.51100000000E-03 0.  1.
         12    1    3    3    0    0 -0.61852267723E+01 -0.70677125359E+01 -0.17892564287E+01  0.95609115299E+01  0.00000000000E+00 0. -1.
</event>
<event>
 7    1  0.4489290E-013  0.5930193E+02  0.7816164E-02  0.1266605E+00
        -11   -1    0    0    0    0  0.00000000000E+00  0.00000000000E+00  0.45593999997E+02  0.45594000000E+02  0.51100000000E-03 0. -1.
         11   -1    0    0    0    0 -0.00000000000E+00 -0.00000000000E+00 -0.45593999997E+02  0.45594000000E+02  0.51100000000E-03 0.  1.
    9900012    2    1    2    0    0 -0.17094576008E+01 -0.31839887151E+02  0.14392962506E+00  0.59301931337E+02  0.49999976855E+02 0.  0.
         12    1    1    2    0    0  0.17094576008E+01  0.31839887151E+02 -0.14392962506E+00  0.31886068663E+02  0.00000000000E+00 0. -1.
         11    1    3    3    0    0 -0.16965952095E+01 -0.19058840054E+02  0.23344322470E+02  0.30184022452E+02  0.51100000000E-03 0. -1.
        -11    1    3    3    0    0  0.42885828738E+01 -0.22283723835E+01 -0.23898820449E+01  0.53915788963E+01  0.51100000000E-03 0.  1.
         12    1    3    3    0    0 -0.43014452651E+01 -0.10552674713E+02 -0.20810510800E+02  0.23726329989E+02  0.00000000000E+00 0. -1.
</event>
<event>
 7    1  0.4489290E-013  0.5930192E+02  0.7816164E-02  0.1266605E+00
        -11   -1    0    0    0    0  0.00000000000E+00  0.00000000000E+00  0.45593999997E+02  0.45594000000E+02  0.51100000000E-03 0.  1.
         11   -1    0    0    0    0 -0.00000000000E+00 -0.00000000000E+00 -0.45593999997E+02  0.45594000000E+02  0.51100000000E-03 0. -1.
    9900012    2    1    2    0    0  0.21402310873E+02 -0.15595816252E+02  0.17760446521E+02  0.59301923793E+02  0.49999963096E+02 0.  0.
         12    1    1    2    0    0 -0.21402310873E+02  0.15595816252E+02 -0.17760446521E+02  0.31886076207E+02  0.00000000000E+00 0. -1.
         11    1    3    3    0    0  0.69577774432E+01  0.78181612610E+01 -0.96753946718E+01  0.14252984767E+02  0.51100000000E-03 0. -1.
        -11    1    3    3    0    0  0.95511470283E+01 -0.13270028134E+02  0.10775949751E+01  0.16385336964E+02  0.51100000000E-03 0.  1.
         12    1    3    3    0    0  0.48933864016E+01 -0.10143949379E+02  0.26358246218E+02  0.28663602062E+02  0.00000000000E+00 0. -1.
</event>
<event>
 7    1  0.4489290E-013  0.5930194E+02  0.7816164E-02  0.1266605E+00
        -11   -1    0    0    0    0  0.00000000000E+00  0.00000000000E+00  0.45593999997E+02  0.45594000000E+02  0.51100000000E-03 0.  1.
         11   -1    0    0    0    0 -0.00000000000E+00 -0.00000000000E+00 -0.45593999997E+02  0.45594000000E+02  0.51100000000E-03 0. -1.
    9900012    2    1    2    0    0  0.14230513506E+02  0.27619976194E+02  0.71659160242E+01  0.59301937966E+02  0.49999988944E+02 0.  0.
         12    1    1    2    0    0 -0.14230513506E+02 -0.27619976194E+02 -0.71659160242E+01  0.31886062034E+02  0.00000000000E+00 0. -1.
         11    1    3    3    0    0  0.18407487500E+02 -0.43459102054E+01  0.16904188049E+02  0.25366791391E+02  0.51100000000E-03 0. -1.
        -11    1    3    3    0    0  0.87514499041E-01  0.11178700455E+02 -0.20515743167E+01  0.11365736232E+02  0.51100000000E-03 0.  1.
         12    1    3    3    0    0 -0.42644884933E+01  0.20787185944E+02 -0.76866977083E+01  0.22569410343E+02  0.00000000000E+00 0. -1.
</event>
<event>
 7    1  0.4489290E-013  0.5930193E+02  0.7816164E-02  0.1266605E+00
        -11   -1    0    0    0    0  0.00000000000E+00  0.00000000000E+00  0.45593999997E+02  0.45594000000E+02  0.51100000000E-03 0.  1.
         11   -1    0    0    0    0 -0.00000000000E+00 -0.00000000000E+00 -0.45593999997E+02  0.45594000000E+02  0.51100000000E-03 0. -1.
    9900012    2    1    2    0    0  0.71006154459E+01 -0.11850062391E+02  0.28738103999E+02  0.59301931885E+02  0.49999977855E+02 0.  0.
         12    1    1    2    0    0 -0.71006154459E+01  0.11850062391E+02 -0.28738103999E+02  0.31886068115E+02  0.00000000000E+00 0. -1.
         11    1    3    3    0    0  0.70659783731E+01 -0.95806004477E+01  0.30589099836E+02  0.32823908730E+02  0.51100000000E-03 0.  1.
        -11    1    3    3    0    0 -0.12016830501E+02  0.25652451550E+01 -0.47492002533E+01  0.13173443032E+02  0.51100000000E-03 0. -1.
         12    1    3    3    0    0  0.12051467574E+02 -0.48347070979E+01  0.28982044166E+01  0.13304580123E+02  0.00000000000E+00 0. -1.
</event>
<event>
 7    1  0.4489290E-013  0.5930191E+02  0.7816164E-02  0.1266605E+00
        -11   -1    0    0    0    0  0.00000000000E+00  0.00000000000E+00  0.45593999997E+02  0.45594000000E+02  0.51100000000E-03 0. -1.
         11   -1    0    0    0    0 -0.00000000000E+00 -0.00000000000E+00 -0.45593999997E+02  0.45594000000E+02  0.51100000000E-03 0.  1.
    9900012    2    1    2    0    0  0.28129678470E+02 -0.10973318815E+02 -0.10248413914E+02  0.59301913310E+02  0.49999943978E+02 0.  0.
         12    1    1    2    0    0 -0.28129678470E+02  0.10973318815E+02  0.10248413914E+02  0.31886086690E+02  0.00000000000E+00 0. -1.
         11    1    3    3    0    0  0.17324086260E+02  0.23476187245E+01 -0.15584654025E+02  0.23420433808E+02  0.51100000000E-03 0. -1.
        -11    1    3    3    0    0  0.89737935864E+01 -0.23444565720E+02  0.26117222416E+01  0.25238813888E+02  0.51100000000E-03 0.  1.
        -12    1    3    3    0    0  0.18317986236E+01  0.10123628181E+02  0.27245178693E+01  0.10642665613E+02  0.00000000000E+00 0.  1.
</event>
<event>
 7    1  0.4489290E-013  0.5930186E+02  0.7816164E-02  0.1266605E+00
        -11   -1    0    0    0    0  0.00000000000E+00  0.00000000000E+00  0.45593999997E+02  0.45594000000E+02  0.51100000000E-03 0.  1.
         11   -1    0    0    0    0 -0.00000000000E+00 -0.00000000000E+00 -0.45593999997E+02  0.45594000000E+02  0.51100000000E-03 0. -1.
    9900012    2    1    2    0    0  0.27292411879E+02  0.15222920836E+02 -0.63334923607E+01  0.59301855824E+02  0.49999839137E+02 0.  0.
         12    1    1    2    0    0 -0.27292411879E+02 -0.15222920836E+02  0.63334923607E+01  0.31886144176E+02  0.00000000000E+00 0. -1.
         11    1    3    3    0    0  0.21398208539E+01 -0.20190297082E+01  0.60682654889E-01  0.29426173545E+01  0.51100000000E-03 0. -1.
        -11    1    3    3    0    0  0.24601754629E+02  0.27285137087E+02 -0.18075312040E+02  0.40944376198E+02  0.51100000000E-03 0.  1.
        -12    1    3    3    0    0  0.55083639588E+00 -0.10043186543E+02  0.11681137024E+02  0.15414862271E+02  0.00000000000E+00 0.  1.
</event>
<event>
 7    1  0.4489290E-013  0.5930194E+02  0.7816164E-02  0.1266605E+00
        -11   -1    0    0    0    0  0.00000000000E+00  0.00000000000E+00  0.45593999997E+02  0.45594000000E+02  0.51100000000E-03 0.  1.
         11   -1    0    0    0    0 -0.00000000000E+00 -0.00000000000E+00 -0.45593999997E+02  0.45594000000E+02  0.51100000000E-03 0. -1.
    9900012    2    1    2    0    0 -0.24835538649E+02 -0.19992320159E+02  0.47354090445E+00  0.59301935860E+02  0.49999985104E+02 0.  0.
         12    1    1    2    0    0  0.24835538649E+02  0.19992320159E+02 -0.47354090445E+00  0.31886064140E+02  0.00000000000E+00 0. -1.
         11    1    3    3    0    0  0.23230582886E+00 -0.11373471056E+02 -0.18093409496E+02  0.21372442006E+02  0.51100000000E-03 0. -1.
        -11    1    3    3    0    0 -0.10580140383E+02 -0.13909277434E+02  0.11801339045E+02  0.21087412662E+02  0.51100000000E-03 0.  1.
         12    1    3    3    0    0 -0.14487704095E+02  0.52904283307E+01  0.67656113546E+01  0.16842081192E+02  0.00000000000E+00 0. -1.
</event>
<event>
 7    1  0.4489290E-013  0.5930194E+02  0.7816164E-02  0.1266605E+00
        -11   -1    0    0    0    0  0.00000000000E+00  0.00000000000E+00  0.45593999997E+02  0.45594000000E+02  0.51100000000E-03 0. -1.
         11   -1    0    0    0    0 -0.00000000000E+00 -0.00000000000E+00 -0.45593999997E+02  0.45594000000E+02  0.51100000000E-03 0.  1.
    9900012    2    1    2    0    0  0.80069848419E+01 -0.30860923951E+02 -0.46116712988E+00  0.59301935513E+02  0.49999984470E+02 0.  0.
         12    1    1    2    0    0 -0.80069848419E+01  0.30860923951E+02  0.46116712988E+00  0.31886064487E+02  0.00000000000E+00 0. -1.
         11    1    3    3    0    0  0.20151296586E+02 -0.14193372092E+02  0.16807911127E+02  0.29833411507E+02  0.51100000000E-03 0. -1.
        -11    1    3    3    0    0  0.76692299932E+00 -0.54793620804E+01 -0.88134449448E+01  0.10406170850E+02  0.51100000000E-03 0.  1.
         12    1    3    3    0    0 -0.12911234744E+02 -0.11188189778E+02 -0.84556333118E+01  0.19062353156E+02  0.00000000000E+00 0. -1.
</event>
<event>
 7    1  0.4489290E-013  0.5930196E+02  0.7816164E-02  0.1266605E+00
        -11   -1    0    0    0    0  0.00000000000E+00  0.00000000000E+00  0.45593999997E+02  0.45594000000E+02  0.51100000000E-03 0. -1.
         11   -1    0    0    0    0 -0.00000000000E+00 -0.00000000000E+00 -0.45593999997E+02  0.45594000000E+02  0.51100000000E-03 0.  1.
    9900012    2    1    2    0    0  0.28855800661E+02  0.40946581370E+01 -0.12934300011E+02  0.59301959578E+02  0.50000028359E+02 0.  0.
         12    1    1    2    0    0 -0.28855800661E+02 -0.40946581370E+01  0.12934300011E+02  0.31886040422E+02  0.00000000000E+00 0. -1.
         11    1    3    3    0    0  0.29702464167E+02 -0.80315331252E+01 -0.66662924872E+01  0.31483032855E+02  0.51100000000E-03 0. -1.
        -11    1    3    3    0    0 -0.93052784619E+01  0.87412386272E+01  0.46602784868E+01  0.13591013790E+02  0.51100000000E-03 0.  1.
        -12    1    3    3    0    0  0.84586149554E+01  0.33849526350E+01 -0.10928286011E+02  0.14227912933E+02  0.00000000000E+00 0.  1.
</event>
<event>
 7    1  0.4489290E-013  0.5930192E+02  0.7816164E-02  0.1266605E+00
        -11   -1    0    0    0    0  0.00000000000E+00  0.00000000000E+00  0.45593999997E+02  0.45594000000E+02  0.51100000000E-03 0.  1.
         11   -1    0    0    0    0 -0.00000000000E+00 -0.00000000000E+00 -0.45593999997E+02  0.45594000000E+02  0.51100000000E-03 0. -1.
    9900012    2    1    2    0    0  0.14452859200E+02  0.36243970444E+00  0.28420156878E+02  0.59301924379E+02  0.49999964165E+02 0.  0.
         12    1    1    2    0    0 -0.14452859200E+02 -0.36243970444E+00 -0.28420156878E+02  0.31886075621E+02  0.00000000000E+00 0. -1.
         11    1    3    3    0    0  0.92596718808E+01  0.91279254338E+01 -0.60355073484E+01  0.14334848980E+02  0.51100000000E-03 0. -1.
        -11    1    3    3    0    0  0.49909919158E+01 -0.17185477994E+02  0.13606040635E+02  0.22480547062E+02  0.51100000000E-03 0.  1.
         12    1    3    3    0    0  0.20219540301E+00  0.84199922650E+01  0.20849623591E+02  0.22486528336E+02  0.00000000000E+00 0. -1.
</event>
<event>
 7    1  0.4489290E-013  0.5930216E+02  0.7816164E-02  0.1266604E+00
        -11   -1    0    0    0    0  0.00000000000E+00  0.00000000000E+00  0.45593999997E+02  0.45594000000E+02  0.51100000000E-03 0.  1.
         11   -1    0    0    0    0 -0.00000000000E+00 -0.00000000000E+00 -0.45593999997E+02  0.45594000000E+02  0.51100000000E-03 0. -1.
    9900012    2    1    2    0    0  0.21006470643E+02 -0.23973361368E+02 -0.84442991940E+00  0.59302157906E+02  0.50000390061E+02 0.  0.
         12    1    1    2    0    0 -0.21006470643E+02  0.23973361368E+02  0.84442991940E+00  0.31885842094E+02  0.00000000000E+00 0. -1.
         11    1    3    3    0    0  0.20981536422E+02 -0.95473656825E+00 -0.16736187106E+02  0.26855843901E+02  0.51100000000E-03 0.  1.
        -11    1    3    3    0    0 -0.79585496627E+01 -0.14664125422E+02  0.84567836816E+01  0.18705407711E+02  0.51100000000E-03 0. -1.
         12    1    3    3    0    0  0.79834838843E+01 -0.83544993774E+01  0.74349735048E+01  0.13740906295E+02  0.00000000000E+00 0. -1.
</event>
<event>
 7    1  0.4489290E-013  0.5930197E+02  0.7816164E-02  0.1266605E+00
        -11   -1    0    0    0    0  0.00000000000E+00  0.00000000000E+00  0.45593999997E+02  0.45594000000E+02  0.51100000000E-03 0.  1.
         11   -1    0    0    0    0 -0.00000000000E+00 -0.00000000000E+00 -0.45593999997E+02  0.45594000000E+02  0.51100000000E-03 0. -1.
    9900012    2    1    2    0    0  0.27167851891E+02  0.16676522401E+02 -0.72144920169E+00  0.59301967560E+02  0.50000042918E+02 0.  0.
         12    1    1    2    0    0 -0.27167851891E+02 -0.16676522401E+02  0.72144920169E+00  0.31886032440E+02  0.00000000000E+00 0. -1.
         11    1    3    3    0    0 -0.62464229082E+01 -0.91505968944E+00 -0.13454252895E+02  0.14861764855E+02  0.51100000000E-03 0. -1.
        -11    1    3    3    0    0  0.21836726084E+02  0.17179047634E+02  0.78094677653E+00  0.27795182349E+02  0.51100000000E-03 0.  1.
         12    1    3    3    0    0  0.11577548715E+02  0.41253445675E+00  0.11951856916E+02  0.16645020357E+02  0.00000000000E+00 0. -1.
</event>
<event>
 7    1  0.4489290E-013  0.5930195E+02  0.7816164E-02  0.1266605E+00
        -11   -1    0    0    0    0  0.00000000000E+00  0.00000000000E+00  0.45593999997E+02  0.45594000000E+02  0.51100000000E-03 0. -1.
         11   -1    0    0    0    0 -0.00000000000E+00 -0.00000000000E+00 -0.45593999997E+02  0.45594000000E+02  0.51100000000E-03 0.  1.
    9900012    2    1    2    0    0 -0.13029411091E+02 -0.12638670971E+01 -0.29075024080E+02  0.59301953856E+02  0.50000017925E+02 0.  0.
         12    1    1    2    0    0  0.13029411091E+02  0.12638670971E+01  0.29075024080E+02  0.31886046144E+02  0.00000000000E+00 0. -1.
         11    1    3    3    0    0 -0.17539715305E+01  0.39102872357E+00  0.19603597490E+01  0.26593853048E+01  0.51100000000E-03 0. -1.
        -11    1    3    3    0    0  0.47850861702E+01 -0.63482708173E+01 -0.37776140275E+02  0.38603553804E+02  0.51100000000E-03 0.  1.
        -12    1    3    3    0    0 -0.16060525730E+02  0.46933749965E+01  0.67407564453E+01  0.18039014747E+02  0.00000000000E+00 0.  1.
</event>
<event>
 7    1  0.4489290E-013  0.5930193E+02  0.7816164E-02  0.1266605E+00
        -11   -1    0    0    0    0  0.00000000000E+00  0.00000000000E+00  0.45593999997E+02  0.45594000000E+02  0.51100000000E-03 0. -1.
         11   -1    0    0    0    0 -0.00000000000E+00 -0.00000000000E+00 -0.45593999997E+02  0.45594000000E+02  0.51100000000E-03 0.  1.
    9900012    2    1    2    0    0 -0.16946850478E+02 -0.10781051407E+02 -0.24764784737E+02  0.59301931354E+02  0.49999976887E+02 0.  0.
         12    1    1    2    0    0  0.16946850478E+02  0.10781051407E+02  0.24764784737E+02  0.31886068646E+02  0.00000000000E+00 0. -1.
         11    1    3    3    0    0 -0.16377352275E+02 -0.27348749973E+01  0.47561102643E+01  0.17271878702E+02  0.51100000000E-03 0. -1.
        -11    1    3    3    0    0  0.44705159309E+01 -0.57091826957E+01 -0.34080286874E+02  0.34843166237E+02  0.51100000000E-03 0.  1.
        -12    1    3    3    0    0 -0.50400141339E+01 -0.23369937144E+01  0.45593918726E+01  0.71868864148E+01  0.00000000000E+00 0.  1.
</event>
<event>
 7    1  0.4489290E-013  0.5930195E+02  0.7816164E-02  0.1266605E+00
        -11   -1    0    0    0    0  0.00000000000E+00  0.00000000000E+00  0.45593999997E+02  0.45594000000E+02  0.51100000000E-03 0.  1.
         11   -1    0    0    0    0 -0.00000000000E+00 -0.00000000000E+00 -0.45593999997E+02  0.45594000000E+02  0.51100000000E-03 0. -1.
    9900012    2    1    2    0    0 -0.17456360464E+02  0.25373604558E+02  0.82568749849E+01  0.59301947980E+02  0.50000007208E+02 0.  0.
         12    1    1    2    0    0  0.17456360464E+02 -0.25373604558E+02 -0.82568749849E+01  0.31886052020E+02  0.00000000000E+00 0. -1.
         11    1    3    3    0    0 -0.91544561075E+01  0.29241991843E+02 -0.12018840699E+02  0.32914293029E+02  0.51100000000E-03 0. -1.
        -11    1    3    3    0    0 -0.10621942742E+02 -0.49368739906E+01  0.88519215935E+01  0.14681788330E+02  0.51100000000E-03 0.  1.
        -12    1    3    3    0    0  0.23200383854E+01  0.10684867053E+01  0.11423794090E+02  0.11705866622E+02  0.00000000000E+00 0.  1.
</event>
<event>
 7    1  0.4489290E-013  0.5930195E+02  0.7816164E-02  0.1266605E+00
        -11   -1    0    0    0    0  0.00000000000E+00  0.00000000000E+00  0.45593999997E+02  0.45594000000E+02  0.51100000000E-03 0.  1.
         11   -1    0    0    0    0 -0.00000000000E+00 -0.00000000000E+00 -0.45593999997E+02  0.45594000000E+02  0.51100000000E-03 0. -1.
    9900012    2    1    2    0    0  0.25775518266E+02 -0.17187704536E+02  0.75449186019E+01  0.59301947786E+02  0.50000006853E+02 0.  0.
         12    1    1    2    0    0 -0.25775518266E+02  0.17187704536E+02 -0.75449186019E+01  0.31886052214E+02  0.00000000000E+00 0. -1.
         11    1    3    3    0    0  0.22784061594E+01 -0.19752577536E+02 -0.12910136634E+02  0.23707110370E+02  0.51100000000E-03 0. -1.
        -11    1    3    3    0    0  0.11914484064E+02 -0.10997242747E-01 -0.37959433288E-01  0.11914549619E+02  0.51100000000E-03 0.  1.
         12    1    3    3    0    0  0.11582628043E+02  0.25758702427E+01  0.20493014669E+02  0.23680287796E+02  0.00000000000E+00 0. -1.
</event>
<event>
 7    1  0.4489290E-013  0.5930194E+02  0.7816164E-02  0.1266605E+00
        -11   -1    0    0    0    0  0.00000000000E+00  0.00000000000E+00  0.45593999997E+02  0.45594000000E+02  0.51100000000E-03 0.  1.
         11   -1    0    0    0    0 -0.00000000000E+00 -0.00000000000E+00 -0.45593999997E+02  0.45594000000E+02  0.51100000000E-03 0. -1.
    9900012    2    1    2    0    0 -0.37101691104E+01 -0.31504461705E+02  0.32286491507E+01  0.59301942898E+02  0.49999997940E+02 0.  0.
         12    1    1    2    0    0  0.37101691104E+01  0.31504461705E+02 -0.32286491507E+01  0.31886057102E+02  0.00000000000E+00 0. -1.
         11    1    3    3    0    0  0.18245605241E+02 -0.14220996771E+02 -0.44999987464E+01  0.23566689389E+02  0.51100000000E-03 0. -1.
        -11    1    3    3    0    0 -0.21175155815E+02 -0.10244536053E+02  0.13028069122E+02  0.26889929863E+02  0.51100000000E-03 0.  1.
         12    1    3    3    0    0 -0.78061853681E+00 -0.70389288811E+01 -0.52994212245E+01  0.88453236463E+01  0.00000000000E+00 0. -1.
</event>
<event>
 7    1  0.4489290E-013  0.5930194E+02  0.7816164E-02  0.1266605E+00
        -11   -1    0    0    0    0  0.00000000000E+00  0.00000000000E+00  0.45593999997E+02  0.45594000000E+02  0.51100000000E-03 0.  1.
         11   -1    0    0    0    0 -0.00000000000E+00 -0.00000000000E+00 -0.45593999997E+02  0.45594000000E+02  0.51100000000E-03 0. -1.
    9900012    2    1    2    0    0  0.17849628081E+02  0.29883076490E+01  0.26252270558E+02  0.59301938552E+02  0.49999990013E+02 0.  0.
         12    1    1    2    0    0 -0.17849628081E+02 -0.29883076490E+01 -0.26252270558E+02  0.31886061448E+02  0.00000000000E+00 0. -1.
         11    1    3    3    0    0 -0.55955528570E+00  0.59694283622E+01 -0.78586761377E+01  0.98846329212E+01  0.51100000000E-03 0. -1.
        -11    1    3    3    0    0  0.11660775533E+02 -0.16033150519E+02  0.25796689751E+02  0.32534670798E+02  0.51100000000E-03 0.  1.
         12    1    3    3    0    0  0.67484078339E+01  0.13052029806E+02  0.83142569449E+01  0.16882634832E+02  0.00000000000E+00 0. -1.
</event>
<event>
 7    1  0.4489290E-013  0.5930194E+02  0.7816164E-02  0.1266605E+00
        -11   -1    0    0    0    0  0.00000000000E+00  0.00000000000E+00  0.45593999997E+02  0.45594000000E+02  0.51100000000E-03 0. -1.
         11   -1    0    0    0    0 -0.00000000000E+00 -0.00000000000E+00 -0.45593999997E+02  0.45594000000E+02  0.51100000000E-03 0.  1.
    9900012    2    1    2    0    0 -0.15252657456E+02 -0.22804410611E+02 -0.16249194458E+02  0.59301936848E+02  0.49999986906E+02 0.  0.
         12    1    1    2    0    0  0.15252657456E+02  0.22804410611E+02  0.16249194458E+02  0.31886063152E+02  0.00000000000E+00 0. -1.
         11    1    3    3    0    0 -0.69646587112E+01  0.35457820997E+01 -0.17829926375E+02  0.19467545209E+02  0.51100000000E-03 0. -1.
        -11    1    3    3    0    0 -0.85421911664E+01 -0.32117039361E+02  0.41954091893E+01  0.33497383566E+02  0.51100000000E-03 0.  1.
         12    1    3    3    0    0  0.25419242160E+00  0.57668466504E+01 -0.26146772716E+01  0.63370080725E+01  0.00000000000E+00 0. -1.
</event>
<event>
 7    1  0.4489290E-013  0.5930194E+02  0.7816164E-02  0.1266605E+00
        -11   -1    0    0    0    0  0.00000000000E+00  0.00000000000E+00  0.45593999997E+02  0.45594000000E+02  0.51100000000E-03 0.  1.
         11   -1    0    0    0    0 -0.00000000000E+00 -0.00000000000E+00 -0.45593999997E+02  0.45594000000E+02  0.51100000000E-03 0. -1.
    9900012    2    1    2    0    0  0.11437655833E+02  0.14258870682E+02  0.26126335202E+02  0.59301941054E+02  0.49999994576E+02 0.  0.
         12    1    1    2    0    0 -0.11437655833E+02 -0.14258870682E+02 -0.26126335202E+02  0.31886058946E+02  0.00000000000E+00 0. -1.
         11    1    3    3    0    0  0.65626816476E+01 -0.43570306021E+01  0.54934064051E+01  0.96036461965E+01  0.51100000000E-03 0. -1.
        -11    1    3    3    0    0  0.38158985067E+01  0.27235284373E+02  0.20606746061E+00  0.27502077383E+02  0.51100000000E-03 0.  1.
        -12    1    3    3    0    0  0.10590756788E+01 -0.86193830895E+01  0.20426861336E+02  0.22196217474E+02  0.00000000000E+00 0.  1.
</event>
<event>
 7    1  0.4489290E-013  0.5930193E+02  0.7816164E-02  0.1266605E+00
        -11   -1    0    0    0    0  0.00000000000E+00  0.00000000000E+00  0.45593999997E+02  0.45594000000E+02  0.51100000000E-03 0. -1.
         11   -1    0    0    0    0 -0.00000000000E+00 -0.00000000000E+00 -0.45593999997E+02  0.45594000000E+02  0.51100000000E-03 0.  1.
    9900012    2    1    2    0    0  0.53012426057E+01  0.19359630933E+02 -0.24775452035E+02  0.59301929271E+02  0.49999973087E+02 0.  0.
         12    1    1    2    0    0 -0.53012426057E+01 -0.19359630933E+02  0.24775452035E+02  0.31886070729E+02  0.00000000000E+00 0. -1.
         11    1    3    3    0    0 -0.18479466814E+01  0.49879781800E-01  0.42734766628E+01  0.46561784737E+01  0.51100000000E-03 0. -1.
        -11    1    3    3    0    0 -0.91948824778E+01  0.26146959636E+02 -0.22699959947E+02  0.35825933956E+02  0.51100000000E-03 0.  1.
        -12    1    3    3    0    0  0.16344071765E+02 -0.68372084851E+01 -0.63489687510E+01  0.18819816841E+02  0.00000000000E+00 0.  1.
</event>
<event>
 7    1  0.4489290E-013  0.5930195E+02  0.7816164E-02  0.1266605E+00
        -11   -1    0    0    0    0  0.00000000000E+00  0.00000000000E+00  0.45593999997E+02  0.45594000000E+02  0.51100000000E-03 0.  1.
         11   -1    0    0    0    0 -0.00000000000E+00 -0.00000000000E+00 -0.45593999997E+02  0.45594000000E+02  0.51100000000E-03 0. -1.
    9900012    2    1    2    0    0  0.90205817092E+01  0.20172629920E+02  0.22987269139E+02  0.59301946078E+02  0.50000003739E+02 0.  0.
         12    1    1    2    0    0 -0.90205817092E+01 -0.20172629920E+02 -0.22987269139E+02  0.31886053922E+02  0.00000000000E+00 0. -1.
         11    1    3    3    0    0 -0.14048062522E+01 -0.11809886814E+02  0.14080432945E+02  0.18431101414E+02  0.51100000000E-03 0. -1.
        -11    1    3    3    0    0  0.89008541659E+01  0.17929481078E+02 -0.54265840972E+01  0.20739800188E+02  0.51100000000E-03 0.  1.
         12    1    3    3    0    0  0.15245337954E+01  0.14053035656E+02  0.14333420292E+02  0.20131044476E+02  0.00000000000E+00 0. -1.
</event>
<event>
 7    1  0.4489290E-013  0.5930194E+02  0.7816164E-02  0.1266605E+00
        -11   -1    0    0    0    0  0.00000000000E+00  0.00000000000E+00  0.45593999997E+02  0.45594000000E+02  0.51100000000E-03 0.  1.
         11   -1    0    0    0    0 -0.00000000000E+00 -0.00000000000E+00 -0.45593999997E+02  0.45594000000E+02  0.51100000000E-03 0. -1.
    9900012    2    1    2    0    0 -0.74367407772E+01 -0.15612786804E+01  0.30967370809E+02  0.59301940988E+02  0.49999994456E+02 0.  0.
         12    1    1    2    0    0  0.74367407772E+01  0.15612786804E+01 -0.30967370809E+02  0.31886059012E+02  0.00000000000E+00 0. -1.
         11    1    3    3    0    0  0.12896430513E+02  0.75375122221E+01  0.14454583668E+02  0.20786221392E+02  0.51100000000E-03 0. -1.
        -11    1    3    3    0    0 -0.20207383967E+02 -0.89624456623E+01  0.23072633687E+02  0.31953250610E+02  0.51100000000E-03 0.  1.
        -12    1    3    3    0    0 -0.12578732275E+00 -0.13634524029E+00 -0.65598465466E+01  0.65624689858E+01  0.00000000000E+00 0.  1.
</event>
<event>
 7    1  0.4489290E-013  0.5930196E+02  0.7816164E-02  0.1266605E+00
        -11   -1    0    0    0    0  0.00000000000E+00  0.00000000000E+00  0.45593999997E+02  0.45594000000E+02  0.51100000000E-03 0.  1.
         11   -1    0    0    0    0 -0.00000000000E+00 -0.00000000000E+00 -0.45593999997E+02  0.45594000000E+02  0.51100000000E-03 0. -1.
    9900012    2    1    2    0    0  0.24421422292E+02  0.35246154731E+01  0.20196302252E+02  0.59301962214E+02  0.50000033168E+02 0.  0.
         12    1    1    2    0    0 -0.24421422292E+02 -0.35246154731E+01 -0.20196302252E+02  0.31886037786E+02  0.00000000000E+00 0. -1.
         11    1    3    3    0    0  0.16314686525E+02  0.22526957731E+01 -0.46116930093E+01  0.17102963116E+02  0.51100000000E-03 0. -1.
        -11    1    3    3    0    0  0.13998501765E+02 -0.25217705337E+01  0.30183575204E+02  0.33367133390E+02  0.51100000000E-03 0.  1.
        -12    1    3    3    0    0 -0.58917659983E+01  0.37936902337E+01 -0.53755799429E+01  0.88318657084E+01  0.00000000000E+00 0.  1.
</event>
<event>
 7    1  0.4489290E-013  0.5930196E+02  0.7816164E-02  0.1266605E+00
        -11   -1    0    0    0    0  0.00000000000E+00  0.00000000000E+00  0.45593999997E+02  0.45594000000E+02  0.51100000000E-03 0.  1.
         11   -1    0    0    0    0 -0.00000000000E+00 -0.00000000000E+00 -0.45593999997E+02  0.45594000000E+02  0.51100000000E-03 0. -1.
    9900012    2    1    2    0    0 -0.29106087682E+02  0.76826520086E+01  0.10513429458E+02  0.59301957897E+02  0.50000025294E+02 0.  0.
         12    1    1    2    0    0  0.29106087682E+02 -0.76826520086E+01 -0.10513429458E+02  0.31886042103E+02  0.00000000000E+00 0. -1.
         11    1    3    3    0    0  0.78194003591E+00 -0.16684485263E+02 -0.12246273490E+01  0.16747632404E+02  0.51100000000E-03 0. -1.
        -11    1    3    3    0    0 -0.15404215334E+02  0.43206538814E+01  0.65328498345E+01  0.17281088717E+02  0.51100000000E-03 0.  1.
         12    1    3    3    0    0 -0.14483812384E+02  0.20046483391E+02  0.52052069727E+01  0.25273236776E+02  0.00000000000E+00 0. -1.
</event>
<event>
 7    1  0.4489290E-013  0.5930191E+02  0.7816164E-02  0.1266605E+00
        -11   -1    0    0    0    0  0.00000000000E+00  0.00000000000E+00  0.45593999997E+02  0.45594000000E+02  0.51100000000E-03 0.  1.
         11   -1    0    0    0    0 -0.00000000000E+00 -0.00000000000E+00 -0.45593999997E+02  0.45594000000E+02  0.51100000000E-03 0. -1.
    9900012    2    1    2    0    0 -0.68404609168E+01  0.26472469868E+02 -0.16405470580E+02  0.59301905360E+02  0.49999929478E+02 0.  0.
         12    1    1    2    0    0  0.68404609168E+01 -0.26472469868E+02  0.16405470580E+02  0.31886094640E+02  0.00000000000E+00 0. -1.
         11    1    3    3    0    0 -0.59950555098E+01 -0.94113690883E+01 -0.62632953713E+00  0.11176173211E+02  0.51100000000E-03 0. -1.
        -11    1    3    3    0    0 -0.74425682272E-01  0.39894397856E+02 -0.17661170949E+02  0.43628952302E+02  0.51100000000E-03 0.  1.
        -12    1    3    3    0    0 -0.77097972467E+00 -0.40105588994E+01  0.18820299059E+01  0.44967798466E+01  0.00000000000E+00 0.  1.
</event>
<event>
 7    1  0.4489290E-013  0.5930193E+02  0.7816164E-02  0.1266605E+00
        -11   -1    0    0    0    0  0.00000000000E+00  0.00000000000E+00  0.45593999997E+02  0.45594000000E+02  0.51100000000E-03 0.  1.
         11   -1    0    0    0    0 -0.00000000000E+00 -0.00000000000E+00 -0.45593999997E+02  0.45594000000E+02  0.51100000000E-03 0. -1.
    9900012    2    1    2    0    0  0.12441892182E+02  0.24306264432E+02  0.16465918500E+02  0.59301927119E+02  0.49999969163E+02 0.  0.
         12    1    1    2    0    0 -0.12441892182E+02 -0.24306264432E+02 -0.16465918500E+02  0.31886072881E+02  0.00000000000E+00 0. -1.
         11    1    3    3    0    0  0.12687612305E+02  0.17854430047E+02 -0.15268687286E+02  0.26699981087E+02  0.51100000000E-03 0. -1.
        -11    1    3    3    0    0  0.15013814246E+01  0.34722874922E+01  0.12507996566E+02  0.13067551606E+02  0.51100000000E-03 0.  1.
         12    1    3    3    0    0 -0.17471015475E+01  0.29795468923E+01  0.19226609220E+02  0.19534394427E+02  0.00000000000E+00 0. -1.
</event>
<event>
 7    1  0.4489290E-013  0.5930193E+02  0.7816164E-02  0.1266605E+00
        -11   -1    0    0    0    0  0.00000000000E+00  0.00000000000E+00  0.45593999997E+02  0.45594000000E+02  0.51100000000E-03 0. -1.
         11   -1    0    0    0    0 -0.00000000000E+00 -0.00000000000E+00 -0.45593999997E+02  0.45594000000E+02  0.51100000000E-03 0.  1.
    9900012    2    1    2    0    0 -0.10890396446E+02  0.29518951836E+02 -0.51722787481E+01  0.59301925929E+02  0.49999966992E+02 0.  0.
         12    1    1    2    0    0  0.10890396446E+02 -0.29518951836E+02  0.51722787481E+01  0.31886074071E+02  0.00000000000E+00 0. -1.
         11    1    3    3    0    0  0.14212202216E+02 -0.71087650306E+00 -0.44987926895E+01  0.14924180820E+02  0.51100000000E-03 0. -1.
        -11    1    3    3    0    0 -0.58219562183E+01  0.21824657644E+02  0.37161432380E+01  0.22891495720E+02  0.51100000000E-03 0.  1.
        -12    1    3    3    0    0 -0.19280642443E+02  0.84051706950E+01 -0.43896292967E+01  0.21486249389E+02  0.00000000000E+00 0.  1.
</event>
<event>
 7    1  0.4489290E-013  0.5930190E+02  0.7816164E-02  0.1266605E+00
        -11   -1    0    0    0    0  0.00000000000E+00  0.00000000000E+00  0.45593999997E+02  0.45594000000E+02  0.51100000000E-03 0.  1.
         11   -1    0    0    0    0 -0.00000000000E+00 -0.00000000000E+00 -0.45593999997E+02  0.45594000000E+02  0.51100000000E-03 0. -1.
    9900012    2    1    2    0    0  0.14241471340E+02  0.14098744005E+02  0.24801803610E+02  0.59301897216E+02  0.49999914626E+02 0.  0.
         12    1    1    2    0    0 -0.14241471340E+02 -0.14098744005E+02 -0.24801803610E+02  0.31886102784E+02  0.00000000000E+00 0. -1.
         11    1    3    3    0    0 -0.26479808785E+01 -0.74762157412E+01 -0.57159868231E+01  0.97764057897E+01  0.51100000000E-03 0. -1.
        -11    1    3    3    0    0  0.10534468614E+02  0.12155790902E+02  0.34023676960E+02  0.37634410791E+02  0.51100000000E-03 0.  1.
        -12    1    3    3    0    0  0.63549836044E+01  0.94191688444E+01 -0.35058865269E+01  0.11891080635E+02  0.00000000000E+00 0.  1.
</event>
<event>
 7    1  0.4489290E-013  0.5930193E+02  0.7816164E-02  0.1266605E+00
        -11   -1    0    0    0    0  0.00000000000E+00  0.00000000000E+00  0.45593999997E+02  0.45594000000E+02  0.51100000000E-03 0.  1.
         11   -1    0    0    0    0 -0.00000000000E+00 -0.00000000000E+00 -0.45593999997E+02  0.45594000000E+02  0.51100000000E-03 0. -1.
    9900012    2    1    2    0    0 -0.28964714993E+02 -0.10812667271E+02  0.78008509927E+01  0.59301925228E+02  0.49999965714E+02 0.  0.
         12    1    1    2    0    0  0.28964714993E+02  0.10812667271E+02 -0.78008509927E+01  0.31886074772E+02  0.00000000000E+00 0. -1.
         11    1    3    3    0    0 -0.81169289010E+01 -0.14442968416E+02  0.28817991704E+01  0.16816320589E+02  0.51100000000E-03 0.  1.
        -11    1    3    3    0    0  0.74405396190E+01  0.74354349169E+01  0.87553094426E+01  0.13685860072E+02  0.51100000000E-03 0. -1.
        -12    1    3    3    0    0 -0.28288325711E+02 -0.38051337724E+01 -0.38362576202E+01  0.28799744566E+02  0.00000000000E+00 0.  1.
</event>
<event>
 7    1  0.4489290E-013  0.5930194E+02  0.7816164E-02  0.1266605E+00
        -11   -1    0    0    0    0  0.00000000000E+00  0.00000000000E+00  0.45593999997E+02  0.45594000000E+02  0.51100000000E-03 0. -1.
         11   -1    0    0    0    0 -0.00000000000E+00 -0.00000000000E+00 -0.45593999997E+02  0.45594000000E+02  0.51100000000E-03 0.  1.
    9900012    2    1    2    0    0  0.52007277075E+01  0.10551121474E+02 -0.29636926135E+02  0.59301935273E+02  0.49999984033E+02 0.  0.
         12    1    1    2    0    0 -0.52007277075E+01 -0.10551121474E+02  0.29636926135E+02  0.31886064727E+02  0.00000000000E+00 0. -1.
         11    1    3    3    0    0  0.53375970343E+00 -0.11605768855E+02 -0.97897973922E+00  0.11659209738E+02  0.51100000000E-03 0. -1.
        -11    1    3    3    0    0  0.38497096299E+01  0.22528980653E+02 -0.42856112129E+01  0.23253853385E+02  0.51100000000E-03 0.  1.
        -12    1    3    3    0    0  0.81725837424E+00 -0.37209032510E+00 -0.24372335183E+02  0.24388872150E+02  0.00000000000E+00 0.  1.
</event>
<event>
 7    1  0.4489290E-013  0.5930187E+02  0.7816164E-02  0.1266605E+00
        -11   -1    0    0    0    0  0.00000000000E+00  0.00000000000E+00  0.45593999997E+02  0.45594000000E+02  0.51100000000E-03 0.  1.
         11   -1    0    0    0    0 -0.00000000000E+00 -0.00000000000E+00 -0.45593999997E+02  0.45594000000E+02  0.51100000000E-03 0. -1.
    9900012    2    1    2    0    0  0.22987698323E+02 -0.13614207992E+01  0.22055325271E+02  0.59301872709E+02  0.49999869932E+02 0.  0.
         12    1    1    2    0    0 -0.22987698323E+02  0.13614207992E+01 -0.22055325271E+02  0.31886127291E+02  0.00000000000E+00 0. -1.
         11    1    3    3    0    0  0.29398978001E+01  0.14916209382E+02 -0.75083370764E+01  0.16956161928E+02  0.51100000000E-03 0. -1.
        -11    1    3    3    0    0  0.75323142734E+01 -0.99872383231E+01  0.24394799057E+02  0.27415085426E+02  0.51100000000E-03 0.  1.
        -12    1    3    3    0    0  0.12515486249E+02 -0.62903918586E+01  0.51688632913E+01  0.14930625356E+02  0.00000000000E+00 0.  1.
</event>
<event>
 7    1  0.4489290E-013  0.5930197E+02  0.7816164E-02  0.1266605E+00
        -11   -1    0    0    0    0  0.00000000000E+00  0.00000000000E+00  0.45593999997E+02  0.45594000000E+02  0.51100000000E-03 0.  1.
         11   -1    0    0    0    0 -0.00000000000E+00 -0.00000000000E+00 -0.45593999997E+02  0.45594000000E+02  0.51100000000E-03 0. -1.
    9900012    2    1    2    0    0  0.28038937525E+02  0.42007004769E+01  0.14590785598E+02  0.59301969729E+02  0.50000046874E+02 0.  0.
         12    1    1    2    0    0 -0.28038937525E+02 -0.42007004769E+01 -0.14590785598E+02  0.31886030271E+02  0.00000000000E+00 0. -1.
         11    1    3    3    0    0  0.11947945911E+01  0.44220342472E+01 -0.16961155020E+02  0.17568799073E+02  0.51100000000E-03 0. -1.
        -11    1    3    3    0    0  0.23106964209E+02 -0.54002043923E+00  0.24109198648E+02  0.33398755616E+02  0.51100000000E-03 0.  1.
         12    1    3    3    0    0  0.37371787257E+01  0.31868666896E+00  0.74427419701E+01  0.83344150397E+01  0.00000000000E+00 0. -1.
</event>
<event>
 7    1  0.4489290E-013  0.5930195E+02  0.7816164E-02  0.1266605E+00
        -11   -1    0    0    0    0  0.00000000000E+00  0.00000000000E+00  0.45593999997E+02  0.45594000000E+02  0.51100000000E-03 0.  1.
         11   -1    0    0    0    0 -0.00000000000E+00 -0.00000000000E+00 -0.45593999997E+02  0.45594000000E+02  0.51100000000E-03 0. -1.
    9900012    2    1    2    0    0  0.85103222786E+01  0.26999693028E+02  0.14673489142E+02  0.59301948308E+02  0.50000007806E+02 0.  0.
         12    1    1    2    0    0 -0.85103222786E+01 -0.26999693028E+02 -0.14673489142E+02  0.31886051692E+02  0.00000000000E+00 0. -1.
         11    1    3    3    0    0  0.17157707858E+02  0.16597765591E+02  0.10833637874E+02  0.26215271721E+02  0.51100000000E-03 0. -1.
        -11    1    3    3    0    0 -0.10719897418E+02 -0.27897130739E+01  0.12859458529E+02  0.16972459268E+02  0.51100000000E-03 0.  1.
        -12    1    3    3    0    0  0.20725118384E+01  0.13191640511E+02 -0.90196072601E+01  0.16114217319E+02  0.00000000000E+00 0.  1.
</event>
<event>
 7    1  0.4489290E-013  0.5930196E+02  0.7816164E-02  0.1266605E+00
        -11   -1    0    0    0    0  0.00000000000E+00  0.00000000000E+00  0.45593999997E+02  0.45594000000E+02  0.51100000000E-03 0. -1.
         11   -1    0    0    0    0 -0.00000000000E+00 -0.00000000000E+00 -0.45593999997E+02  0.45594000000E+02  0.51100000000E-03 0.  1.
    9900012    2    1    2    0    0 -0.30558615679E+02  0.90459974471E+00 -0.90593657444E+01  0.59301962294E+02  0.50000033313E+02 0.  0.
         12    1    1    2    0    0  0.30558615679E+02 -0.90459974471E+00  0.90593657444E+01  0.31886037706E+02  0.00000000000E+00 0. -1.
         11    1    3    3    0    0 -0.18436776487E+02 -0.99621633993E+01  0.23073313328E+01  0.21082770335E+02  0.51100000000E-03 0. -1.
        -11    1    3    3    0    0  0.55045336982E+01 -0.17370313095E+01 -0.15159115221E+02  0.16220849039E+02  0.51100000000E-03 0.  1.
         12    1    3    3    0    0 -0.17626372890E+02  0.12603794454E+02  0.37924181433E+01  0.21998342921E+02  0.00000000000E+00 0. -1.
</event>
<event>
 7    1  0.4489290E-013  0.5930195E+02  0.7816164E-02  0.1266605E+00
        -11   -1    0    0    0    0  0.00000000000E+00  0.00000000000E+00  0.45593999997E+02  0.45594000000E+02  0.51100000000E-03 0. -1.
         11   -1    0    0    0    0 -0.00000000000E+00 -0.00000000000E+00 -0.45593999997E+02  0.45594000000E+02  0.51100000000E-03 0.  1.
    9900012    2    1    2    0    0 -0.10426560652E+02  0.13471665231E+02 -0.26954062171E+02  0.59301946643E+02  0.50000004770E+02 0.  0.
         12    1    1    2    0    0  0.10426560652E+02 -0.13471665231E+02  0.26954062171E+02  0.31886053357E+02  0.00000000000E+00 0. -1.
         11    1    3    3    0    0  0.15102425317E+02  0.11536493724E+02 -0.36457319864E+01  0.19351105909E+02  0.51100000000E-03 0. -1.
        -11    1    3    3    0    0 -0.20678138612E+02 -0.28188877158E+01 -0.65574961868E+01  0.21875381161E+02  0.51100000000E-03 0.  1.
        -12    1    3    3    0    0 -0.48508473573E+01  0.47540592227E+01 -0.16750833998E+02  0.18075459574E+02  0.00000000000E+00 0.  1.
</event>
<event>
 7    1  0.4489290E-013  0.5930164E+02  0.7816164E-02  0.1266606E+00
        -11   -1    0    0    0    0  0.00000000000E+00  0.00000000000E+00  0.45593999997E+02  0.45594000000E+02  0.51100000000E-03 0.  1.
         11   -1    0    0    0    0 -0.00000000000E+00 -0.00000000000E+00 -0.45593999997E+02  0.45594000000E+02  0.51100000000E-03 0. -1.
    9900012    2    1    2    0    0 -0.20777115852E+02  0.35425458223E+01  0.23927007183E+02  0.59301641682E+02  0.49999448591E+02 0.  0.
         12    1    1    2    0    0  0.20777115852E+02 -0.35425458223E+01 -0.23927007183E+02  0.31886358318E+02  0.00000000000E+00 0. -1.
         11    1    3    3    0    0  0.13346500014E+01  0.16695840328E+01  0.15421260418E+02  0.15568688917E+02  0.51100000000E-03 0. -1.
        -11    1    3    3    0    0 -0.81593453215E+01  0.69060085647E+01 -0.13484788668E+02  0.17207771385E+02  0.51100000000E-03 0.  1.
        -12    1    3    3    0    0 -0.13952420532E+02 -0.50330467752E+01  0.21990535433E+02  0.26525181379E+02  0.00000000000E+00 0.  1.
</event>
<event>
 7    1  0.4489290E-013  0.5930196E+02  0.7816164E-02  0.1266605E+00
        -11   -1    0    0    0    0  0.00000000000E+00  0.00000000000E+00  0.45593999997E+02  0.45594000000E+02  0.51100000000E-03 0.  1.
         11   -1    0    0    0    0 -0.00000000000E+00 -0.00000000000E+00 -0.45593999997E+02  0.45594000000E+02  0.51100000000E-03 0. -1.
    9900012    2    1    2    0    0 -0.16658041621E+02  0.67411955740E+00 -0.27180410224E+02  0.59301960927E+02  0.50000030820E+02 0.  0.
         12    1    1    2    0    0  0.16658041621E+02 -0.67411955740E+00  0.27180410224E+02  0.31886039073E+02  0.00000000000E+00 0. -1.
         11    1    3    3    0    0 -0.18267760913E+02 -0.83007879400E+01 -0.12285390670E+02  0.23527536917E+02  0.51100000000E-03 0. -1.
        -11    1    3    3    0    0  0.76093041315E+01 -0.94949776209E+01 -0.99931403978E+01  0.15745442663E+02  0.51100000000E-03 0.  1.
        -12    1    3    3    0    0 -0.59995848393E+01  0.18469885118E+02 -0.49018791563E+01  0.20028981347E+02  0.00000000000E+00 0.  1.
</event>
<event>
 7    1  0.4489290E-013  0.5930193E+02  0.7816164E-02  0.1266605E+00
        -11   -1    0    0    0    0  0.00000000000E+00  0.00000000000E+00  0.45593999997E+02  0.45594000000E+02  0.51100000000E-03 0. -1.
         11   -1    0    0    0    0 -0.00000000000E+00 -0.00000000000E+00 -0.45593999997E+02  0.45594000000E+02  0.51100000000E-03 0.  1.
    9900012    2    1    2    0    0  0.17771380782E+02 -0.19947819635E+02 -0.17406431035E+02  0.59301932126E+02  0.49999978294E+02 0.  0.
         12    1    1    2    0    0 -0.17771380782E+02  0.19947819635E+02  0.17406431035E+02  0.31886067874E+02  0.00000000000E+00 0. -1.
         11    1    3    3    0    0  0.15368737319E+01  0.62693274799E+01 -0.19362084953E+02  0.20409722730E+02  0.51100000000E-03 0. -1.
        -11    1    3    3    0    0  0.28678414395E+01 -0.15604067869E+02  0.11258224828E+02  0.19454024651E+02  0.51100000000E-03 0.  1.
        -12    1    3    3    0    0  0.13366665611E+02 -0.10613079246E+02 -0.93025709095E+01  0.19438184745E+02  0.00000000000E+00 0.  1.
</event>
<event>
 7    1  0.4489290E-013  0.5930201E+02  0.7816164E-02  0.1266605E+00
        -11   -1    0    0    0    0  0.00000000000E+00  0.00000000000E+00  0.45593999997E+02  0.45594000000E+02  0.51100000000E-03 0. -1.
         11   -1    0    0    0    0 -0.00000000000E+00 -0.00000000000E+00 -0.45593999997E+02  0.45594000000E+02  0.51100000000E-03 0.  1.
    9900012    2    1    2    0    0  0.17105120393E+01  0.57348532622E+00 -0.31834909963E+02  0.59302012024E+02  0.50000124009E+02 0.  0.
         12    1    1    2    0    0 -0.17105120393E+01 -0.57348532622E+00  0.31834909963E+02  0.31885987976E+02  0.00000000000E+00 0. -1.
         11    1    3    3    0    0 -0.26924251142E+00 -0.14929937615E+01  0.13347330965E+02  0.13433270862E+02  0.51100000000E-03 0. -1.
        -11    1    3    3    0    0 -0.25451381044E+01 -0.54737645261E+00 -0.18186984178E+02  0.18372363558E+02  0.51100000000E-03 0.  1.
         12    1    3    3    0    0  0.45248926551E+01  0.26138555404E+01 -0.26995256750E+02  0.27496377604E+02  0.00000000000E+00 0. -1.
</event>
<event>
 7    1  0.4489290E-013  0.5930193E+02  0.7816164E-02  0.1266605E+00
        -11   -1    0    0    0    0  0.00000000000E+00  0.00000000000E+00  0.45593999997E+02  0.45594000000E+02  0.51100000000E-03 0.  1.
         11   -1    0    0    0    0 -0.00000000000E+00 -0.00000000000E+00 -0.45593999997E+02  0.45594000000E+02  0.51100000000E-03 0. -1.
    9900012    2    1    2    0    0 -0.18034732219E+02 -0.14981842323E+02 -0.21610506837E+02  0.59301934527E+02  0.49999982673E+02 0.  0.
         12    1    1    2    0    0  0.18034732219E+02  0.14981842323E+02  0.21610506837E+02  0.31886065473E+02  0.00000000000E+00 0. -1.
         11    1    3    3    0    0  0.13628550207E+02 -0.89327556527E+01 -0.13050884518E+02  0.20877190693E+02  0.51100000000E-03 0. -1.
        -11    1    3    3    0    0 -0.16045961028E+02  0.51330694338E+01  0.11808054300E+01  0.16888326407E+02  0.51100000000E-03 0.  1.
         12    1    3    3    0    0 -0.15617321398E+02 -0.11182156104E+02 -0.97404277498E+01  0.21536417426E+02  0.00000000000E+00 0. -1.
</event>
<event>
 7    1  0.4489290E-013  0.5930195E+02  0.7816164E-02  0.1266605E+00
        -11   -1    0    0    0    0  0.00000000000E+00  0.00000000000E+00  0.45593999997E+02  0.45594000000E+02  0.51100000000E-03 0. -1.
         11   -1    0    0    0    0 -0.00000000000E+00 -0.00000000000E+00 -0.45593999997E+02  0.45594000000E+02  0.51100000000E-03 0.  1.
    9900012    2    1    2    0    0 -0.25864400827E+02  0.67698916825E-02 -0.18648134876E+02  0.59301949596E+02  0.50000010156E+02 0.  0.
         12    1    1    2    0    0  0.25864400827E+02 -0.67698916825E-02  0.18648134876E+02  0.31886050404E+02  0.00000000000E+00 0. -1.
         11    1    3    3    0    0  0.13842297108E+02 -0.46944155158E+01 -0.46322345979E+01  0.15333112010E+02  0.51100000000E-03 0. -1.
        -11    1    3    3    0    0 -0.18655532894E+02  0.73105227636E+01 -0.99465514835E+01  0.22369768378E+02  0.51100000000E-03 0.  1.
         12    1    3    3    0    0 -0.21051165042E+02 -0.26093373561E+01 -0.40693487948E+01  0.21599069208E+02  0.00000000000E+00 0. -1.
</event>
<event>
 7    1  0.4489290E-013  0.5930196E+02  0.7816164E-02  0.1266605E+00
        -11   -1    0    0    0    0  0.00000000000E+00  0.00000000000E+00  0.45593999997E+02  0.45594000000E+02  0.51100000000E-03 0.  1.
         11   -1    0    0    0    0 -0.00000000000E+00 -0.00000000000E+00 -0.45593999997E+02  0.45594000000E+02  0.51100000000E-03 0. -1.
    9900012    2    1    2    0    0  0.12081953416E+02  0.16083510276E+01  0.29464544027E+02  0.59301956876E+02  0.50000023433E+02 0.  0.
         12    1    1    2    0    0 -0.12081953416E+02 -0.16083510276E+01 -0.29464544027E+02  0.31886043124E+02  0.00000000000E+00 0. -1.
         11    1    3    3    0    0  0.41337819610E+00 -0.93473507977E+01 -0.94993590783E+01  0.13333479352E+02  0.51100000000E-03 0. -1.
        -11    1    3    3    0    0  0.28330549443E+01 -0.50230593568E+01  0.62507319057E+01  0.85046443334E+01  0.51100000000E-03 0.  1.
         12    1    3    3    0    0  0.88355202752E+01  0.15978761182E+02  0.32713171200E+02  0.37463833191E+02  0.00000000000E+00 0. -1.
</event>
<event>
 7    1  0.4489290E-013  0.5930207E+02  0.7816164E-02  0.1266604E+00
        -11   -1    0    0    0    0  0.00000000000E+00  0.00000000000E+00  0.45593999997E+02  0.45594000000E+02  0.51100000000E-03 0.  1.
         11   -1    0    0    0    0 -0.00000000000E+00 -0.00000000000E+00 -0.45593999997E+02  0.45594000000E+02  0.51100000000E-03 0. -1.
    9900012    2    1    2    0    0 -0.28994756679E+02 -0.28331843173E+00  0.13264107046E+02  0.59302067053E+02  0.50000224367E+02 0.  0.
         12    1    1    2    0    0  0.28994756679E+02  0.28331843173E+00 -0.13264107046E+02  0.31885932947E+02  0.00000000000E+00 0. -1.
         11    1    3    3    0    0 -0.67091817677E+01  0.50871489536E+01 -0.86437877036E+01  0.12066783772E+02  0.51100000000E-03 0. -1.
        -11    1    3    3    0    0 -0.24895689776E+02 -0.16760500762E+02  0.13935108069E+02  0.33089227739E+02  0.51100000000E-03 0.  1.
        -12    1    3    3    0    0  0.26101148647E+01  0.11390033377E+02  0.79727866806E+01  0.14146055542E+02  0.00000000000E+00 0.  1.
</event>
<event>
 7    1  0.4489290E-013  0.5930196E+02  0.7816164E-02  0.1266605E+00
        -11   -1    0    0    0    0  0.00000000000E+00  0.00000000000E+00  0.45593999997E+02  0.45594000000E+02  0.51100000000E-03 0. -1.
         11   -1    0    0    0    0 -0.00000000000E+00 -0.00000000000E+00 -0.45593999997E+02  0.45594000000E+02  0.51100000000E-03 0.  1.
    9900012    2    1    2    0    0 -0.25110523066E+02 -0.19586422860E+02 -0.15979346608E+01  0.59301957218E+02  0.50000024056E+02 0.  0.
         12    1    1    2    0    0  0.25110523066E+02  0.19586422860E+02  0.15979346608E+01  0.31886042782E+02  0.00000000000E+00 0. -1.
         11    1    3    3    0    0  0.12417038334E+02 -0.53191184397E+01 -0.48059305447E+01  0.14337811222E+02  0.51100000000E-03 0. -1.
        -11    1    3    3    0    0 -0.23362532285E+02 -0.53835141379E+01 -0.74861274229E+01  0.25116374008E+02  0.51100000000E-03 0.  1.
         12    1    3    3    0    0 -0.14165029115E+02 -0.88837902827E+01  0.10694123307E+02  0.19847771989E+02  0.00000000000E+00 0. -1.
</event>
<event>
 7    1  0.4489290E-013  0.5930194E+02  0.7816164E-02  0.1266605E+00
        -11   -1    0    0    0    0  0.00000000000E+00  0.00000000000E+00  0.45593999997E+02  0.45594000000E+02  0.51100000000E-03 0. -1.
         11   -1    0    0    0    0 -0.00000000000E+00 -0.00000000000E+00 -0.45593999997E+02  0.45594000000E+02  0.51100000000E-03 0.  1.
    9900012    2    1    2    0    0 -0.17892269310E+02  0.16088731706E+02 -0.20922240173E+02  0.59301941560E+02  0.49999995500E+02 0.  0.
         12    1    1    2    0    0  0.17892269310E+02 -0.16088731706E+02  0.20922240173E+02  0.31886058440E+02  0.00000000000E+00 0. -1.
         11    1    3    3    0    0 -0.38662901085E+00 -0.14701354769E+02 -0.82360573875E+01  0.16855620890E+02  0.51100000000E-03 0. -1.
        -11    1    3    3    0    0  0.22276538936E+01  0.14860643502E+02 -0.63021109476E+01  0.16294716009E+02  0.51100000000E-03 0.  1.
        -12    1    3    3    0    0 -0.19733294193E+02  0.15929442972E+02 -0.63840718377E+01  0.26151604661E+02  0.00000000000E+00 0.  1.
</event>
<event>
 7    1  0.4489290E-013  0.5930195E+02  0.7816164E-02  0.1266605E+00
        -11   -1    0    0    0    0  0.00000000000E+00  0.00000000000E+00  0.45593999997E+02  0.45594000000E+02  0.51100000000E-03 0.  1.
         11   -1    0    0    0    0 -0.00000000000E+00 -0.00000000000E+00 -0.45593999997E+02  0.45594000000E+02  0.51100000000E-03 0. -1.
    9900012    2    1    2    0    0 -0.25434796712E+02 -0.18236802261E+02  0.61000505702E+01  0.59301945721E+02  0.50000003089E+02 0.  0.
         12    1    1    2    0    0  0.25434796712E+02  0.18236802261E+02 -0.61000505702E+01  0.31886054279E+02  0.00000000000E+00 0. -1.
         11    1    3    3    0    0 -0.16179062594E+02 -0.25553623074E+02  0.77792064514E+01  0.31229245459E+02  0.51100000000E-03 0.  1.
        -11    1    3    3    0    0 -0.11230154678E+02  0.73043343776E+01  0.96897395969E+01  0.16533624179E+02  0.51100000000E-03 0. -1.
        -12    1    3    3    0    0  0.19744205603E+01  0.12486435429E-01 -0.11368895478E+02  0.11539076083E+02  0.00000000000E+00 0.  1.
</event>
<event>
 7    1  0.4489290E-013  0.5930194E+02  0.7816164E-02  0.1266605E+00
        -11   -1    0    0    0    0  0.00000000000E+00  0.00000000000E+00  0.45593999997E+02  0.45594000000E+02  0.51100000000E-03 0. -1.
         11   -1    0    0    0    0 -0.00000000000E+00 -0.00000000000E+00 -0.45593999997E+02  0.45594000000E+02  0.51100000000E-03 0.  1.
    9900012    2    1    2    0    0 -0.17095213725E+02  0.26906932717E+02 -0.70099891339E+00  0.59301940977E+02  0.49999994437E+02 0.  0.
         12    1    1    2    0    0  0.17095213725E+02 -0.26906932717E+02  0.70099891339E+00  0.31886059023E+02  0.00000000000E+00 0. -1.
         11    1    3    3    0    0 -0.67362616776E+01  0.33463649725E+02 -0.31578960851E+01  0.34280685265E+02  0.51100000000E-03 0. -1.
        -11    1    3    3    0    0  0.62242703141E+01  0.13425275366E+01 -0.61740964479E+00  0.63972741117E+01  0.51100000000E-03 0.  1.
         12    1    3    3    0    0 -0.16583222361E+02 -0.78992445447E+01  0.30743068165E+01  0.18623981601E+02  0.00000000000E+00 0. -1.
</event>
<event>
 7    1  0.4489290E-013  0.5930196E+02  0.7816164E-02  0.1266605E+00
        -11   -1    0    0    0    0  0.00000000000E+00  0.00000000000E+00  0.45593999997E+02  0.45594000000E+02  0.51100000000E-03 0. -1.
         11   -1    0    0    0    0 -0.00000000000E+00 -0.00000000000E+00 -0.45593999997E+02  0.45594000000E+02  0.51100000000E-03 0.  1.
    9900012    2    1    2    0    0  0.12693906493E+02 -0.28428507422E+02  0.68850621591E+01  0.59301962660E+02  0.50000033981E+02 0.  0.
         12    1    1    2    0    0 -0.12693906493E+02  0.28428507422E+02 -0.68850621591E+01  0.31886037340E+02  0.00000000000E+00 0. -1.
         11    1    3    3    0    0  0.14919925733E+02 -0.70090679850E+00  0.17013415091E+02  0.22639605729E+02  0.51100000000E-03 0. -1.
        -11    1    3    3    0    0 -0.14945041570E+00 -0.29097077829E+02 -0.13818575719E+02  0.32212036706E+02  0.51100000000E-03 0.  1.
        -12    1    3    3    0    0 -0.20765688243E+01  0.13694772052E+01  0.36902227865E+01  0.44503202258E+01  0.00000000000E+00 0.  1.
</event>
<event>
 7    1  0.4489290E-013  0.5930194E+02  0.7816164E-02  0.1266605E+00
        -11   -1    0    0    0    0  0.00000000000E+00  0.00000000000E+00  0.45593999997E+02  0.45594000000E+02  0.51100000000E-03 0. -1.
         11   -1    0    0    0    0 -0.00000000000E+00 -0.00000000000E+00 -0.45593999997E+02  0.45594000000E+02  0.51100000000E-03 0.  1.
    9900012    2    1    2    0    0 -0.10799970149E+02  0.70046112407E+01 -0.29172189661E+02  0.59301943746E+02  0.49999999486E+02 0.  0.
         12    1    1    2    0    0  0.10799970149E+02 -0.70046112407E+01  0.29172189661E+02  0.31886056254E+02  0.00000000000E+00 0. -1.
         11    1    3    3    0    0 -0.16198383609E+02  0.52051672910E+01  0.65635416268E+01  0.18236268177E+02  0.51100000000E-03 0. -1.
        -11    1    3    3    0    0  0.95685960969E+01 -0.34019717581E+01 -0.31666797761E+02  0.33255338276E+02  0.51100000000E-03 0.  1.
        -12    1    3    3    0    0 -0.41701826371E+01  0.52014157077E+01 -0.40689335261E+01  0.78103372931E+01  0.00000000000E+00 0.  1.
</event>
<event>
 7    1  0.4489290E-013  0.5930194E+02  0.7816164E-02  0.1266605E+00
        -11   -1    0    0    0    0  0.00000000000E+00  0.00000000000E+00  0.45593999997E+02  0.45594000000E+02  0.51100000000E-03 0.  1.
         11   -1    0    0    0    0 -0.00000000000E+00 -0.00000000000E+00 -0.45593999997E+02  0.45594000000E+02  0.51100000000E-03 0. -1.
    9900012    2    1    2    0    0 -0.28345425885E+02  0.51961516280E+01  0.13647631036E+02  0.59301937320E+02  0.49999987766E+02 0.  0.
         12    1    1    2    0    0  0.28345425885E+02 -0.51961516280E+01 -0.13647631036E+02  0.31886062680E+02  0.00000000000E+00 0. -1.
         11    1    3    3    0    0 -0.11868058197E+02 -0.18834478112E+02  0.75074718832E+01  0.23493626912E+02  0.51100000000E-03 0. -1.
        -11    1    3    3    0    0 -0.90824009049E+01  0.17555115003E+02  0.13145796190E+02  0.23737818491E+02  0.51100000000E-03 0.  1.
         12    1    3    3    0    0 -0.73949667828E+01  0.64755147366E+01 -0.70056370373E+01  0.12070491917E+02  0.00000000000E+00 0. -1.
</event>
<event>
 7    1  0.4489290E-013  0.5930194E+02  0.7816164E-02  0.1266605E+00
        -11   -1    0    0    0    0  0.00000000000E+00  0.00000000000E+00  0.45593999997E+02  0.45594000000E+02  0.51100000000E-03 0.  1.
         11   -1    0    0    0    0 -0.00000000000E+00 -0.00000000000E+00 -0.45593999997E+02  0.45594000000E+02  0.51100000000E-03 0. -1.
    9900012    2    1    2    0    0 -0.28916309707E+02 -0.69282880173E+01 -0.11513761892E+02  0.59301939491E+02  0.49999991725E+02 0.  0.
         12    1    1    2    0    0  0.28916309707E+02  0.69282880173E+01  0.11513761892E+02  0.31886060509E+02  0.00000000000E+00 0. -1.
         11    1    3    3    0    0  0.12516173209E+02 -0.81856500419E+01 -0.56742020341E+01  0.15995500223E+02  0.51100000000E-03 0. -1.
        -11    1    3    3    0    0 -0.21964212899E+02 -0.10035874009E+01 -0.84076145556E+01  0.23539792241E+02  0.51100000000E-03 0.  1.
         12    1    3    3    0    0 -0.19468270017E+02  0.22609494254E+01  0.25680546981E+01  0.19766647027E+02  0.00000000000E+00 0. -1.
</event>
<event>
 7    1  0.4489290E-013  0.5930197E+02  0.7816164E-02  0.1266605E+00
        -11   -1    0    0    0    0  0.00000000000E+00  0.00000000000E+00  0.45593999997E+02  0.45594000000E+02  0.51100000000E-03 0.  1.
         11   -1    0    0    0    0 -0.00000000000E+00 -0.00000000000E+00 -0.45593999997E+02  0.45594000000E+02  0.51100000000E-03 0. -1.
    9900012    2    1    2    0    0  0.91990517990E+01 -0.30476015098E+02  0.18190415932E+01  0.59301969163E+02  0.50000045841E+02 0.  0.
         12    1    1    2    0    0 -0.91990517990E+01  0.30476015098E+02 -0.18190415932E+01  0.31886030837E+02  0.00000000000E+00 0. -1.
         11    1    3    3    0    0 -0.18195674850E+01  0.70552072592E+01  0.45299863063E+01  0.85794843375E+01  0.51100000000E-03 0. -1.
        -11    1    3    3    0    0  0.21642077659E+02 -0.26730407471E+02  0.30186727008E+01  0.34525448499E+02  0.51100000000E-03 0.  1.
        -12    1    3    3    0    0 -0.10623458375E+02 -0.10800814886E+02 -0.57296174139E+01  0.16197036326E+02  0.00000000000E+00 0.  1.
</event>
<event>
 7    1  0.4489290E-013  0.5930195E+02  0.7816164E-02  0.1266605E+00
        -11   -1    0    0    0    0  0.00000000000E+00  0.00000000000E+00  0.45593999997E+02  0.45594000000E+02  0.51100000000E-03 0.  1.
         11   -1    0    0    0    0 -0.00000000000E+00 -0.00000000000E+00 -0.45593999997E+02  0.45594000000E+02  0.51100000000E-03 0. -1.
    9900012    2    1    2    0    0 -0.45215215576E+01 -0.15162760951E+02  0.27683329645E+02  0.59301949491E+02  0.50000009963E+02 0.  0.
         12    1    1    2    0    0  0.45215215576E+01  0.15162760951E+02 -0.27683329645E+02  0.31886050509E+02  0.00000000000E+00 0. -1.
         11    1    3    3    0    0  0.13898258852E+01  0.16012472861E+02  0.78111076998E+01  0.17870207242E+02  0.51100000000E-03 0.  1.
        -11    1    3    3    0    0 -0.67831706334E+01 -0.23216319907E+02  0.52337449642E+01  0.24746737168E+02  0.51100000000E-03 0. -1.
        -12    1    3    3    0    0  0.87182319056E+00 -0.79589139042E+01  0.14638476981E+02  0.16685005080E+02  0.00000000000E+00 0.  1.
</event>
<event>
 7    1  0.4489290E-013  0.5930194E+02  0.7816164E-02  0.1266605E+00
        -11   -1    0    0    0    0  0.00000000000E+00  0.00000000000E+00  0.45593999997E+02  0.45594000000E+02  0.51100000000E-03 0. -1.
         11   -1    0    0    0    0 -0.00000000000E+00 -0.00000000000E+00 -0.45593999997E+02  0.45594000000E+02  0.51100000000E-03 0.  1.
    9900012    2    1    2    0    0 -0.20893298227E+02  0.38079621160E+01 -0.23784241948E+02  0.59301942682E+02  0.49999997545E+02 0.  0.
         12    1    1    2    0    0  0.20893298227E+02 -0.38079621160E+01  0.23784241948E+02  0.31886057318E+02  0.00000000000E+00 0. -1.
         11    1    3    3    0    0  0.54844576267E+01  0.79925938816E+01 -0.15829254423E+02  0.18561415039E+02  0.51100000000E-03 0. -1.
        -11    1    3    3    0    0 -0.14217456333E+02  0.32817746117E+01  0.10086369664E+02  0.17738121729E+02  0.51100000000E-03 0.  1.
        -12    1    3    3    0    0 -0.12160299520E+02 -0.74664063772E+01 -0.18041357189E+02  0.23002405914E+02  0.00000000000E+00 0.  1.
</event>
<event>
 7    1  0.4489290E-013  0.5930193E+02  0.7816164E-02  0.1266605E+00
        -11   -1    0    0    0    0  0.00000000000E+00  0.00000000000E+00  0.45593999997E+02  0.45594000000E+02  0.51100000000E-03 0. -1.
         11   -1    0    0    0    0 -0.00000000000E+00 -0.00000000000E+00 -0.45593999997E+02  0.45594000000E+02  0.51100000000E-03 0.  1.
    9900012    2    1    2    0    0  0.10429411847E+02  0.17915351399E+01 -0.30078882238E+02  0.59301931156E+02  0.49999976525E+02 0.  0.
         12    1    1    2    0    0 -0.10429411847E+02 -0.17915351399E+01  0.30078882238E+02  0.31886068844E+02  0.00000000000E+00 0. -1.
         11    1    3    3    0    0  0.30111858213E+01 -0.14429436852E+02 -0.19906890128E+01  0.14874095970E+02  0.51100000000E-03 0. -1.
        -11    1    3    3    0    0  0.14802430185E+02 -0.11236201052E+01 -0.16951927952E+02  0.22533138332E+02  0.51100000000E-03 0.  1.
         12    1    3    3    0    0 -0.73842041589E+01  0.17344592097E+02 -0.11136265273E+02  0.21894696854E+02  0.00000000000E+00 0. -1.
</event>
<event>
 7    1  0.4489290E-013  0.5930193E+02  0.7816164E-02  0.1266605E+00
        -11   -1    0    0    0    0  0.00000000000E+00  0.00000000000E+00  0.45593999997E+02  0.45594000000E+02  0.51100000000E-03 0.  1.
         11   -1    0    0    0    0 -0.00000000000E+00 -0.00000000000E+00 -0.45593999997E+02  0.45594000000E+02  0.51100000000E-03 0. -1.
    9900012    2    1    2    0    0  0.18501718916E+02  0.15333321563E+02 -0.20959412054E+02  0.59301932405E+02  0.49999978803E+02 0.  0.
         12    1    1    2    0    0 -0.18501718916E+02 -0.15333321563E+02  0.20959412054E+02  0.31886067595E+02  0.00000000000E+00 0. -1.
         11    1    3    3    0    0  0.17187625900E+01  0.43194648546E+00 -0.63925866642E+01  0.66336933248E+01  0.51100000000E-03 0. -1.
        -11    1    3    3    0    0  0.19472057251E+02  0.29561527890E+02 -0.75507903831E+01  0.36194742442E+02  0.51100000000E-03 0.  1.
        -12    1    3    3    0    0 -0.26891009246E+01 -0.14660152813E+02 -0.70160350069E+01  0.16473496639E+02  0.00000000000E+00 0.  1.
</event>
<event>
 7    1  0.4489290E-013  0.5930194E+02  0.7816164E-02  0.1266605E+00
        -11   -1    0    0    0    0  0.00000000000E+00  0.00000000000E+00  0.45593999997E+02  0.45594000000E+02  0.51100000000E-03 0. -1.
         11   -1    0    0    0    0 -0.00000000000E+00 -0.00000000000E+00 -0.45593999997E+02  0.45594000000E+02  0.51100000000E-03 0.  1.
    9900012    2    1    2    0    0 -0.29630374921E+02  0.11182744148E+02  0.37024599040E+01  0.59301935741E+02  0.49999984886E+02 0.  0.
         12    1    1    2    0    0  0.29630374921E+02 -0.11182744148E+02 -0.37024599040E+01  0.31886064259E+02  0.00000000000E+00 0. -1.
         11    1    3    3    0    0 -0.12311949395E+02 -0.27513293274E+01  0.17574254148E+02  0.21633499950E+02  0.51100000000E-03 0. -1.
        -11    1    3    3    0    0 -0.20048296952E+02  0.53795080720E-01 -0.12087034836E+02  0.23410115677E+02  0.51100000000E-03 0.  1.
         12    1    3    3    0    0  0.27298714265E+01  0.13880278395E+02 -0.17847594080E+01  0.14258320114E+02  0.00000000000E+00 0. -1.
</event>
<event>
 7    1  0.4489290E-013  0.5930195E+02  0.7816164E-02  0.1266605E+00
        -11   -1    0    0    0    0  0.00000000000E+00  0.00000000000E+00  0.45593999997E+02  0.45594000000E+02  0.51100000000E-03 0.  1.
         11   -1    0    0    0    0 -0.00000000000E+00 -0.00000000000E+00 -0.45593999997E+02  0.45594000000E+02  0.51100000000E-03 0. -1.
    9900012    2    1    2    0    0  0.34329943334E+00 -0.30060915272E+02  0.10627497060E+02  0.59301950147E+02  0.50000011159E+02 0.  0.
         12    1    1    2    0    0 -0.34329943334E+00  0.30060915272E+02 -0.10627497060E+02  0.31886049853E+02  0.00000000000E+00 0. -1.
         11    1    3    3    0    0  0.14785285832E+02 -0.11273017512E+01  0.11921980408E+02  0.19026536823E+02  0.51100000000E-03 0.  1.
        -11    1    3    3    0    0 -0.15029086799E+02 -0.13765195974E+02  0.86375846290E+01  0.22135083887E+02  0.51100000000E-03 0. -1.
         12    1    3    3    0    0  0.58710039994E+00 -0.15168417547E+02 -0.99320679768E+01  0.18140329436E+02  0.00000000000E+00 0. -1.
</event>
<event>
 7    1  0.4489290E-013  0.5930196E+02  0.7816164E-02  0.1266605E+00
        -11   -1    0    0    0    0  0.00000000000E+00  0.00000000000E+00  0.45593999997E+02  0.45594000000E+02  0.51100000000E-03 0. -1.
         11   -1    0    0    0    0 -0.00000000000E+00 -0.00000000000E+00 -0.45593999997E+02  0.45594000000E+02  0.51100000000E-03 0.  1.
    9900012    2    1    2    0    0 -0.61113895263E+01 -0.29546120685E+02 -0.10314897631E+02  0.59301961635E+02  0.50000032112E+02 0.  0.
         12    1    1    2    0    0  0.61113895263E+01  0.29546120685E+02  0.10314897631E+02  0.31886038365E+02  0.00000000000E+00 0. -1.
         11    1    3    3    0    0 -0.11726215984E+02 -0.16040270447E+02  0.12314860871E+02  0.23376274636E+02  0.51100000000E-03 0. -1.
        -11    1    3    3    0    0 -0.36201584902E+01 -0.10221387663E+02 -0.23702860451E+02  0.26065454285E+02  0.51100000000E-03 0.  1.
         12    1    3    3    0    0  0.92349849482E+01 -0.32844625749E+01  0.10731019492E+01  0.98602327150E+01  0.00000000000E+00 0. -1.
</event>
<event>
 7    1  0.4489290E-013  0.5930189E+02  0.7816164E-02  0.1266605E+00
        -11   -1    0    0    0    0  0.00000000000E+00  0.00000000000E+00  0.45593999997E+02  0.45594000000E+02  0.51100000000E-03 0. -1.
         11   -1    0    0    0    0 -0.00000000000E+00 -0.00000000000E+00 -0.45593999997E+02  0.45594000000E+02  0.51100000000E-03 0.  1.
    9900012    2    1    2    0    0 -0.46992163036E+01 -0.17184521234E+02  0.26444910514E+02  0.59301894939E+02  0.49999910474E+02 0.  0.
         12    1    1    2    0    0  0.46992163036E+01  0.17184521234E+02 -0.26444910514E+02  0.31886105061E+02  0.00000000000E+00 0. -1.
         11    1    3    3    0    0 -0.13692799724E+00  0.58363733332E+01  0.21458787114E+02  0.22238739794E+02  0.51100000000E-03 0. -1.
        -11    1    3    3    0    0  0.33212197353E+01 -0.18290232266E+02 -0.87407658197E+01  0.20541764390E+02  0.51100000000E-03 0.  1.
        -12    1    3    3    0    0 -0.78835080416E+01 -0.47306623013E+01  0.13726889219E+02  0.16521390755E+02  0.00000000000E+00 0.  1.
</event>
<event>
 7    1  0.4489290E-013  0.5930194E+02  0.7816164E-02  0.1266605E+00
        -11   -1    0    0    0    0  0.00000000000E+00  0.00000000000E+00  0.45593999997E+02  0.45594000000E+02  0.51100000000E-03 0.  1.
         11   -1    0    0    0    0 -0.00000000000E+00 -0.00000000000E+00 -0.45593999997E+02  0.45594000000E+02  0.51100000000E-03 0. -1.
    9900012    2    1    2    0    0 -0.10066560562E+02  0.30058984839E+02 -0.34412699205E+01  0.59301944274E+02  0.50000000448E+02 0.  0.
         12    1    1    2    0    0  0.10066560562E+02 -0.30058984839E+02  0.34412699205E+01  0.31886055726E+02  0.00000000000E+00 0. -1.
         11    1    3    3    0    0  0.71074488836E+01  0.38217679683E+02 -0.50992280373E+01  0.39205981646E+02  0.51100000000E-03 0. -1.
        -11    1    3    3    0    0 -0.11830515949E+02 -0.27540665505E+01 -0.61724030283E+00  0.12162523424E+02  0.51100000000E-03 0.  1.
         12    1    3    3    0    0 -0.53434934966E+01 -0.54046282934E+01  0.22751984197E+01  0.79334392029E+01  0.00000000000E+00 0. -1.
</event>
<event>
 7    1  0.4489290E-013  0.5930183E+02  0.7816164E-02  0.1266605E+00
        -11   -1    0    0    0    0  0.00000000000E+00  0.00000000000E+00  0.45593999997E+02  0.45594000000E+02  0.51100000000E-03 0. -1.
         11   -1    0    0    0    0 -0.00000000000E+00 -0.00000000000E+00 -0.45593999997E+02  0.45594000000E+02  0.51100000000E-03 0.  1.
    9900012    2    1    2    0    0  0.81169023565E+01 -0.27856493994E+02  0.13223434655E+02  0.59301833947E+02  0.49999799239E+02 0.  0.
         12    1    1    2    0    0 -0.81169023565E+01  0.27856493994E+02 -0.13223434655E+02  0.31886166053E+02  0.00000000000E+00 0. -1.
         11    1    3    3    0    0  0.17518351046E+02  0.12395929441E+01 -0.10360241579E+01  0.17592684854E+02  0.51100000000E-03 0. -1.
        -11    1    3    3    0    0 -0.14868183551E+02 -0.25544796138E+02  0.43898122067E+01  0.29880929425E+02  0.51100000000E-03 0.  1.
         12    1    3    3    0    0  0.54667348612E+01 -0.35512907995E+01  0.98696466064E+01  0.11828219668E+02  0.00000000000E+00 0. -1.
</event>
<event>
 7    1  0.4489290E-013  0.5930194E+02  0.7816164E-02  0.1266605E+00
        -11   -1    0    0    0    0  0.00000000000E+00  0.00000000000E+00  0.45593999997E+02  0.45594000000E+02  0.51100000000E-03 0.  1.
         11   -1    0    0    0    0 -0.00000000000E+00 -0.00000000000E+00 -0.45593999997E+02  0.45594000000E+02  0.51100000000E-03 0. -1.
    9900012    2    1    2    0    0 -0.12615337984E+02  0.25663817552E+02  0.14104704738E+02  0.59301937535E+02  0.49999988158E+02 0.  0.
         12    1    1    2    0    0  0.12615337984E+02 -0.25663817552E+02 -0.14104704738E+02  0.31886062465E+02  0.00000000000E+00 0. -1.
         11    1    3    3    0    0  0.69690356819E+01 -0.17652679116E+01 -0.26141949362E+01  0.76496826444E+01  0.51100000000E-03 0. -1.
        -11    1    3    3    0    0 -0.15535196180E+02 -0.41939931494E+01  0.10374607725E+02  0.19145871216E+02  0.51100000000E-03 0.  1.
        -12    1    3    3    0    0 -0.40491774859E+01  0.31623078613E+02  0.63442919491E+01  0.32506383675E+02  0.00000000000E+00 0.  1.
</event>
<event>
 7    1  0.4489290E-013  0.5930197E+02  0.7816164E-02  0.1266605E+00
        -11   -1    0    0    0    0  0.00000000000E+00  0.00000000000E+00  0.45593999997E+02  0.45594000000E+02  0.51100000000E-03 0.  1.
         11   -1    0    0    0    0 -0.00000000000E+00 -0.00000000000E+00 -0.45593999997E+02  0.45594000000E+02  0.51100000000E-03 0. -1.
    9900012    2    1    2    0    0 -0.64526087491E+01  0.29330254447E+02  0.10715371336E+02  0.59301965934E+02  0.50000039952E+02 0.  0.
         12    1    1    2    0    0  0.64526087491E+01 -0.29330254447E+02 -0.10715371336E+02  0.31886034066E+02  0.00000000000E+00 0. -1.
         11    1    3    3    0    0 -0.12009266639E+02  0.31324333856E+01 -0.33377511600E+01  0.12852050700E+02  0.51100000000E-03 0. -1.
        -11    1    3    3    0    0 -0.40496089319E+01  0.82702496523E+01  0.22587812219E+02  0.24392737093E+02  0.51100000000E-03 0.  1.
        -12    1    3    3    0    0  0.96062668217E+01  0.17927571409E+02 -0.85346897234E+01  0.22057178141E+02  0.00000000000E+00 0.  1.
</event>
<event>
 7    1  0.4489290E-013  0.5930194E+02  0.7816164E-02  0.1266605E+00
        -11   -1    0    0    0    0  0.00000000000E+00  0.00000000000E+00  0.45593999997E+02  0.45594000000E+02  0.51100000000E-03 0. -1.
         11   -1    0    0    0    0 -0.00000000000E+00 -0.00000000000E+00 -0.45593999997E+02  0.45594000000E+02  0.51100000000E-03 0.  1.
    9900012    2    1    2    0    0 -0.23661973645E+02  0.21219453157E+02 -0.25625538472E+01  0.59301939233E+02  0.49999991255E+02 0.  0.
         12    1    1    2    0    0  0.23661973645E+02 -0.21219453157E+02  0.25625538472E+01  0.31886060767E+02  0.00000000000E+00 0. -1.
         11    1    3    3    0    0 -0.33534370573E+01 -0.15685466901E+02 -0.53413182248E+01  0.16905889288E+02  0.51100000000E-03 0. -1.
        -11    1    3    3    0    0 -0.11770873656E+02  0.18072199664E+02  0.25447571668E+01  0.21717128185E+02  0.51100000000E-03 0.  1.
         12    1    3    3    0    0 -0.85376629316E+01  0.18832720394E+02  0.23400721086E+00  0.20678921759E+02  0.00000000000E+00 0. -1.
</event>
<event>
 7    1  0.4489290E-013  0.5930194E+02  0.7816164E-02  0.1266605E+00
        -11   -1    0    0    0    0  0.00000000000E+00  0.00000000000E+00  0.45593999997E+02  0.45594000000E+02  0.51100000000E-03 0. -1.
         11   -1    0    0    0    0 -0.00000000000E+00 -0.00000000000E+00 -0.45593999997E+02  0.45594000000E+02  0.51100000000E-03 0.  1.
    9900012    2    1    2    0    0 -0.30222206137E+02  0.98689192358E+01 -0.24378750980E+01  0.59301944339E+02  0.50000000567E+02 0.  0.
         12    1    1    2    0    0  0.30222206137E+02 -0.98689192358E+01  0.24378750980E+01  0.31886055661E+02  0.00000000000E+00 0. -1.
         11    1    3    3    0    0 -0.59591813232E+01  0.38968358213E+01  0.68436595854E+01  0.98758720244E+01  0.51100000000E-03 0. -1.
        -11    1    3    3    0    0 -0.26959958011E+02 -0.11919250050E+02 -0.91387936888E+00  0.29491406095E+02  0.51100000000E-03 0.  1.
        -12    1    3    3    0    0  0.26969331974E+01  0.17891333465E+02 -0.83676553145E+01  0.19934666219E+02  0.00000000000E+00 0.  1.
</event>
<event>
 7    1  0.4489290E-013  0.5930195E+02  0.7816164E-02  0.1266605E+00
        -11   -1    0    0    0    0  0.00000000000E+00  0.00000000000E+00  0.45593999997E+02  0.45594000000E+02  0.51100000000E-03 0.  1.
         11   -1    0    0    0    0 -0.00000000000E+00 -0.00000000000E+00 -0.45593999997E+02  0.45594000000E+02  0.51100000000E-03 0. -1.
    9900012    2    1    2    0    0  0.18228560005E+02 -0.18487261720E+02  0.18511111347E+02  0.59301945226E+02  0.50000002185E+02 0.  0.
         12    1    1    2    0    0 -0.18228560005E+02  0.18487261720E+02 -0.18511111347E+02  0.31886054774E+02  0.00000000000E+00 0. -1.
         11    1    3    3    0    0 -0.52394219579E+01 -0.22964494511E+01  0.10112570404E+02  0.11618489703E+02  0.51100000000E-03 0. -1.
        -11    1    3    3    0    0  0.33220022957E+02 -0.12929939460E+02  0.22855135738E+01  0.35720817911E+02  0.51100000000E-03 0.  1.
        -12    1    3    3    0    0 -0.97520409937E+01 -0.32608728093E+01  0.61130273686E+01  0.11962637612E+02  0.00000000000E+00 0.  1.
</event>
<event>
 7    1  0.4489290E-013  0.5930193E+02  0.7816164E-02  0.1266605E+00
        -11   -1    0    0    0    0  0.00000000000E+00  0.00000000000E+00  0.45593999997E+02  0.45594000000E+02  0.51100000000E-03 0. -1.
         11   -1    0    0    0    0 -0.00000000000E+00 -0.00000000000E+00 -0.45593999997E+02  0.45594000000E+02  0.51100000000E-03 0.  1.
    9900012    2    1    2    0    0  0.13763714906E+02 -0.26019462498E+02 -0.12258437047E+02  0.59301928502E+02  0.49999971685E+02 0.  0.
         12    1    1    2    0    0 -0.13763714906E+02  0.26019462498E+02  0.12258437047E+02  0.31886071498E+02  0.00000000000E+00 0. -1.
         11    1    3    3    0    0 -0.13548290083E+01  0.13054905580E+02 -0.42490463947E+01  0.13795670222E+02  0.51100000000E-03 0. -1.
        -11    1    3    3    0    0  0.92637907281E+01 -0.23009410758E+02  0.32752844865E+01  0.25019558166E+02  0.51100000000E-03 0.  1.
        -12    1    3    3    0    0  0.58547531865E+01 -0.16064957320E+02 -0.11284675139E+02  0.20486700114E+02  0.00000000000E+00 0.  1.
</event>
<event>
 7    1  0.4489290E-013  0.5930195E+02  0.7816164E-02  0.1266605E+00
        -11   -1    0    0    0    0  0.00000000000E+00  0.00000000000E+00  0.45593999997E+02  0.45594000000E+02  0.51100000000E-03 0.  1.
         11   -1    0    0    0    0 -0.00000000000E+00 -0.00000000000E+00 -0.45593999997E+02  0.45594000000E+02  0.51100000000E-03 0. -1.
    9900012    2    1    2    0    0  0.19791568130E+02 -0.13026409081E+01  0.24966323392E+02  0.59301947468E+02  0.50000006274E+02 0.  0.
         12    1    1    2    0    0 -0.19791568130E+02  0.13026409081E+01 -0.24966323392E+02  0.31886052532E+02  0.00000000000E+00 0. -1.
         11    1    3    3    0    0 -0.10802561525E+02 -0.65524845863E+01  0.48826561943E+01  0.13545136453E+02  0.51100000000E-03 0. -1.
        -11    1    3    3    0    0  0.49479999203E+01  0.13168233591E+02  0.91104321505E+01  0.16759625693E+02  0.51100000000E-03 0.  1.
         12    1    3    3    0    0  0.25646129735E+02 -0.79183899132E+01  0.10973235047E+02  0.28997185322E+02  0.00000000000E+00 0. -1.
</event>
<event>
 7    1  0.4489290E-013  0.5930205E+02  0.7816164E-02  0.1266604E+00
        -11   -1    0    0    0    0  0.00000000000E+00  0.00000000000E+00  0.45593999997E+02  0.45594000000E+02  0.51100000000E-03 0.  1.
         11   -1    0    0    0    0 -0.00000000000E+00 -0.00000000000E+00 -0.45593999997E+02  0.45594000000E+02  0.51100000000E-03 0. -1.
    9900012    2    1    2    0    0 -0.15682581013E+02  0.22347465962E+02  0.16473042700E+02  0.59302051402E+02  0.50000195825E+02 0.  0.
         12    1    1    2    0    0  0.15682581013E+02 -0.22347465962E+02 -0.16473042700E+02  0.31885948598E+02  0.00000000000E+00 0. -1.
         11    1    3    3    0    0  0.13036294242E+02  0.42679368496E+01  0.41948294353E+01  0.14344226949E+02  0.51100000000E-03 0. -1.
        -11    1    3    3    0    0 -0.32761384350E+02  0.18866589562E+02  0.14236919102E+02  0.40397356003E+02  0.51100000000E-03 0.  1.
        -12    1    3    3    0    0  0.40425090943E+01 -0.78706044936E+00 -0.19587058375E+01  0.45604684503E+01  0.00000000000E+00 0.  1.
</event>
<event>
 7    1  0.4881398E-013  0.5930195E+02  0.7816164E-02  0.1266605E+00
        -11   -1    0    0    0    0  0.00000000000E+00  0.00000000000E+00  0.45593999997E+02  0.45594000000E+02  0.51100000000E-03 0. -1.
         11   -1    0    0    0    0 -0.00000000000E+00 -0.00000000000E+00 -0.45593999997E+02  0.45594000000E+02  0.51100000000E-03 0.  1.
    9900012    2    1    2    0    0 -0.21928913381E+02 -0.13220598245E+02 -0.19001546337E+02  0.59301949394E+02  0.50000009788E+02 0.  0.
         12    1    1    2    0    0  0.21928913381E+02  0.13220598245E+02  0.19001546337E+02  0.31886050606E+02  0.00000000000E+00 0. -1.
         11    1    3    3    0    0 -0.80410570683E+01 -0.56685517594E+01  0.12150872049E+02  0.15634409795E+02  0.51100000000E-03 0. -1.
        -11    1    3    3    0    0 -0.64807552192E+01 -0.16361656143E+02 -0.25124568990E+02  0.30674874852E+02  0.51100000000E-03 0.  1.
         12    1    3    3    0    0 -0.74071010935E+01  0.88096096571E+01 -0.60278493951E+01  0.12992664748E+02  0.00000000000E+00 0. -1.
</event>
<event>
 7    1  0.4489290E-013  0.5930195E+02  0.7816164E-02  0.1266605E+00
        -11   -1    0    0    0    0  0.00000000000E+00  0.00000000000E+00  0.45593999997E+02  0.45594000000E+02  0.51100000000E-03 0.  1.
         11   -1    0    0    0    0 -0.00000000000E+00 -0.00000000000E+00 -0.45593999997E+02  0.45594000000E+02  0.51100000000E-03 0. -1.
    9900012    2    1    2    0    0 -0.47747904901E+01 -0.25859302781E+02  0.18033803166E+02  0.59301949427E+02  0.50000009846E+02 0.  0.
         12    1    1    2    0    0  0.47747904901E+01  0.25859302781E+02 -0.18033803166E+02  0.31886050573E+02  0.00000000000E+00 0. -1.
         11    1    3    3    0    0 -0.78332517294E+01 -0.15812011050E+02 -0.10778151166E+02  0.20677235524E+02  0.51100000000E-03 0. -1.
        -11    1    3    3    0    0 -0.98013213461E+01 -0.53395738621E+01  0.17987009876E+02  0.21168596404E+02  0.51100000000E-03 0.  1.
         12    1    3    3    0    0  0.12859782586E+02 -0.47077178688E+01  0.10824944455E+02  0.17456117499E+02  0.00000000000E+00 0. -1.
</event>
<event>
 7    1  0.4489290E-013  0.5930201E+02  0.7816164E-02  0.1266605E+00
        -11   -1    0    0    0    0  0.00000000000E+00  0.00000000000E+00  0.45593999997E+02  0.45594000000E+02  0.51100000000E-03 0.  1.
         11   -1    0    0    0    0 -0.00000000000E+00 -0.00000000000E+00 -0.45593999997E+02  0.45594000000E+02  0.51100000000E-03 0. -1.
    9900012    2    1    2    0    0  0.16909960488E+02  0.18050012748E+02  0.20123782308E+02  0.59302010313E+02  0.50000120889E+02 0.  0.
         12    1    1    2    0    0 -0.16909960488E+02 -0.18050012748E+02 -0.20123782308E+02  0.31885989687E+02  0.00000000000E+00 0. -1.
         11    1    3    3    0    0 -0.26352985836E+01 -0.83855299785E+01 -0.65482855254E+01  0.10960928575E+02  0.51100000000E-03 0. -1.
        -11    1    3    3    0    0  0.24730466783E+02  0.19040866822E+02  0.19435671785E+02  0.36768137492E+02  0.51100000000E-03 0.  1.
        -12    1    3    3    0    0 -0.51852077116E+01  0.73946759048E+01  0.72363960484E+01  0.11572944246E+02  0.00000000000E+00 0.  1.
</event>
<event>
 7    1  0.4489290E-013  0.5930199E+02  0.7816164E-02  0.1266605E+00
        -11   -1    0    0    0    0  0.00000000000E+00  0.00000000000E+00  0.45593999997E+02  0.45594000000E+02  0.51100000000E-03 0. -1.
         11   -1    0    0    0    0 -0.00000000000E+00 -0.00000000000E+00 -0.45593999997E+02  0.45594000000E+02  0.51100000000E-03 0.  1.
    9900012    2    1    2    0    0 -0.56884749866E+01 -0.16574190493E+02 -0.26639351684E+02  0.59301990587E+02  0.50000084912E+02 0.  0.
         12    1    1    2    0    0  0.56884749866E+01  0.16574190493E+02  0.26639351684E+02  0.31886009413E+02  0.00000000000E+00 0. -1.
         11    1    3    3    0    0 -0.89811085397E+01 -0.12900000057E+02  0.40110488606E+01  0.16222170795E+02  0.51100000000E-03 0. -1.
        -11    1    3    3    0    0  0.35008166935E+01 -0.57487799508E+01 -0.36372318648E+02  0.36989860131E+02  0.51100000000E-03 0.  1.
        -12    1    3    3    0    0 -0.20818314035E+00  0.20745895146E+01  0.57219181038E+01  0.60899596600E+01  0.00000000000E+00 0.  1.
</event>
<event>
 7    1  0.4489290E-013  0.5930195E+02  0.7816164E-02  0.1266605E+00
        -11   -1    0    0    0    0  0.00000000000E+00  0.00000000000E+00  0.45593999997E+02  0.45594000000E+02  0.51100000000E-03 0. -1.
         11   -1    0    0    0    0 -0.00000000000E+00 -0.00000000000E+00 -0.45593999997E+02  0.45594000000E+02  0.51100000000E-03 0.  1.
    9900012    2    1    2    0    0 -0.14526271858E+02  0.24859676357E+02 -0.13700509945E+02  0.59301952026E+02  0.50000014587E+02 0.  0.
         12    1    1    2    0    0  0.14526271858E+02 -0.24859676357E+02  0.13700509945E+02  0.31886047974E+02  0.00000000000E+00 0. -1.
         11    1    3    3    0    0  0.12264929478E+02  0.16279748642E+02 -0.19990996705E+02  0.28549932758E+02  0.51100000000E-03 0. -1.
        -11    1    3    3    0    0 -0.12034424291E+02 -0.14284882038E+01  0.10350385210E+01  0.12163028059E+02  0.51100000000E-03 0.  1.
         12    1    3    3    0    0 -0.14756777045E+02  0.10008415918E+02  0.52554482390E+01  0.18588991208E+02  0.00000000000E+00 0. -1.
</event>
<event>
 7    1  0.4489290E-013  0.5930196E+02  0.7816164E-02  0.1266605E+00
        -11   -1    0    0    0    0  0.00000000000E+00  0.00000000000E+00  0.45593999997E+02  0.45594000000E+02  0.51100000000E-03 0. -1.
         11   -1    0    0    0    0 -0.00000000000E+00 -0.00000000000E+00 -0.45593999997E+02  0.45594000000E+02  0.51100000000E-03 0.  1.
    9900012    2    1    2    0    0 -0.21683034187E+02  0.93243032544E+01 -0.21438814050E+02  0.59301963078E+02  0.50000034743E+02 0.  0.
         12    1    1    2    0    0  0.21683034187E+02 -0.93243032544E+01  0.21438814050E+02  0.31886036922E+02  0.00000000000E+00 0. -1.
         11    1    3    3    0    0 -0.24455689721E+02  0.22769011436E+02 -0.10896943001E+02  0.35146152116E+02  0.51100000000E-03 0. -1.
        -11    1    3    3    0    0 -0.21517684397E+01 -0.67948601154E+01  0.34359184222E+01  0.79123806197E+01  0.51100000000E-03 0.  1.
         12    1    3    3    0    0  0.49244239738E+01 -0.66498480665E+01 -0.13977789471E+02  0.16243430342E+02  0.00000000000E+00 0. -1.
</event>
<event>
 7    1  0.4489290E-013  0.5930192E+02  0.7816164E-02  0.1266605E+00
        -11   -1    0    0    0    0  0.00000000000E+00  0.00000000000E+00  0.45593999997E+02  0.45594000000E+02  0.51100000000E-03 0. -1.
         11   -1    0    0    0    0 -0.00000000000E+00 -0.00000000000E+00 -0.45593999997E+02  0.45594000000E+02  0.51100000000E-03 0.  1.
    9900012    2    1    2    0    0  0.13539476186E+02  0.24404773001E+02 -0.15421142311E+02  0.59301921677E+02  0.49999959238E+02 0.  0.
         12    1    1    2    0    0 -0.13539476186E+02 -0.24404773001E+02  0.15421142311E+02  0.31886078323E+02  0.00000000000E+00 0. -1.
         11    1    3    3    0    0 -0.64296056603E+01  0.56557043827E+01  0.88122771352E+01  0.12287516005E+02  0.51100000000E-03 0. -1.
        -11    1    3    3    0    0  0.72779489867E+01  0.84644896511E+01 -0.28092837278E+02  0.30229515926E+02  0.51100000000E-03 0.  1.
        -12    1    3    3    0    0  0.12691132860E+02  0.10284578967E+02  0.38594178322E+01  0.16784889746E+02  0.00000000000E+00 0.  1.
</event>
<event>
 7    1  0.4489290E-013  0.5930190E+02  0.7816164E-02  0.1266605E+00
        -11   -1    0    0    0    0  0.00000000000E+00  0.00000000000E+00  0.45593999997E+02  0.45594000000E+02  0.51100000000E-03 0.  1.
         11   -1    0    0    0    0 -0.00000000000E+00 -0.00000000000E+00 -0.45593999997E+02  0.45594000000E+02  0.51100000000E-03 0. -1.
    9900012    2    1    2    0    0  0.15750698613E+02 -0.51815212925E+01  0.27235829462E+02  0.59301904657E+02  0.49999928198E+02 0.  0.
         12    1    1    2    0    0 -0.15750698613E+02  0.51815212925E+01 -0.27235829462E+02  0.31886095343E+02  0.00000000000E+00 0. -1.
         11    1    3    3    0    0  0.15044821824E+02  0.17658118328E+02  0.79196904194E+01  0.24512798763E+02  0.51100000000E-03 0. -1.
        -11    1    3    3    0    0  0.91804913567E+01 -0.12859053165E+02  0.11479655229E+02  0.19529955307E+02  0.51100000000E-03 0.  1.
         12    1    3    3    0    0 -0.84746145681E+01 -0.99805864556E+01  0.78364838137E+01  0.15259150587E+02  0.00000000000E+00 0. -1.
</event>
<event>
 7    1  0.4489290E-013  0.5930195E+02  0.7816164E-02  0.1266605E+00
        -11   -1    0    0    0    0  0.00000000000E+00  0.00000000000E+00  0.45593999997E+02  0.45594000000E+02  0.51100000000E-03 0.  1.
         11   -1    0    0    0    0 -0.00000000000E+00 -0.00000000000E+00 -0.45593999997E+02  0.45594000000E+02  0.51100000000E-03 0. -1.
    9900012    2    1    2    0    0  0.27648084081E+02  0.15762945559E+02  0.19579131691E+01  0.59301946152E+02  0.50000003873E+02 0.  0.
         12    1    1    2    0    0 -0.27648084081E+02 -0.15762945559E+02 -0.19579131691E+01  0.31886053848E+02  0.00000000000E+00 0. -1.
         11    1    3    3    0    0  0.16293670556E+02  0.15286647681E+01  0.95549871433E+01  0.18950416769E+02  0.51100000000E-03 0. -1.
        -11    1    3    3    0    0 -0.93134375394E+01 -0.55645500886E+01 -0.37202733835E+01  0.11469296875E+02  0.51100000000E-03 0.  1.
        -12    1    3    3    0    0  0.20667851065E+02  0.19798830879E+02 -0.38768005907E+01  0.28882232508E+02  0.00000000000E+00 0.  1.
</event>
<event>
 7    1  0.4489290E-013  0.5930194E+02  0.7816164E-02  0.1266605E+00
        -11   -1    0    0    0    0  0.00000000000E+00  0.00000000000E+00  0.45593999997E+02  0.45594000000E+02  0.51100000000E-03 0.  1.
         11   -1    0    0    0    0 -0.00000000000E+00 -0.00000000000E+00 -0.45593999997E+02  0.45594000000E+02  0.51100000000E-03 0. -1.
    9900012    2    1    2    0    0 -0.19088515561E+02 -0.25295214640E+02 -0.35357223330E+01  0.59301942821E+02  0.49999997799E+02 0.  0.
         12    1    1    2    0    0  0.19088515561E+02  0.25295214640E+02  0.35357223330E+01  0.31886057179E+02  0.00000000000E+00 0. -1.
         11    1    3    3    0    0  0.29780569254E+01 -0.43844698138E+01 -0.13389814240E+02  0.14400677910E+02  0.51100000000E-03 0. -1.
        -11    1    3    3    0    0 -0.19128385388E+02  0.12361181199E+01 -0.25672735175E+01  0.19339441799E+02  0.51100000000E-03 0.  1.
        -12    1    3    3    0    0 -0.29381870991E+01 -0.22146862946E+02  0.12421365425E+02  0.25561823112E+02  0.00000000000E+00 0.  1.
</event>
<event>
 7    1  0.4489290E-013  0.5930160E+02  0.7816164E-02  0.1266606E+00
        -11   -1    0    0    0    0  0.00000000000E+00  0.00000000000E+00  0.45593999997E+02  0.45594000000E+02  0.51100000000E-03 0.  1.
         11   -1    0    0    0    0 -0.00000000000E+00 -0.00000000000E+00 -0.45593999997E+02  0.45594000000E+02  0.51100000000E-03 0. -1.
    9900012    2    1    2    0    0  0.28236504804E+02 -0.97480110851E+00 -0.14781478270E+02  0.59301599442E+02  0.49999371554E+02 0.  0.
         12    1    1    2    0    0 -0.28236504804E+02  0.97480110851E+00  0.14781478270E+02  0.31886400558E+02  0.00000000000E+00 0. -1.
         11    1    3    3    0    0  0.33022489677E+02  0.12945211691E+02 -0.13865498914E+02  0.38083006585E+02  0.51100000000E-03 0. -1.
        -11    1    3    3    0    0 -0.79169292933E+01 -0.14022762138E+02  0.28143694450E+01  0.16347363795E+02  0.51100000000E-03 0.  1.
        -12    1    3    3    0    0  0.31309444200E+01  0.10274933867E+00 -0.37303488010E+01  0.48712290610E+01  0.00000000000E+00 0.  1.
</event>
<event>
 7    1  0.4489290E-013  0.5930195E+02  0.7816164E-02  0.1266605E+00
        -11   -1    0    0    0    0  0.00000000000E+00  0.00000000000E+00  0.45593999997E+02  0.45594000000E+02  0.51100000000E-03 0.  1.
         11   -1    0    0    0    0 -0.00000000000E+00 -0.00000000000E+00 -0.45593999997E+02  0.45594000000E+02  0.51100000000E-03 0. -1.
    9900012    2    1    2    0    0  0.29694857172E+02  0.44746618192E+01  0.10719756744E+02  0.59301947791E+02  0.50000006863E+02 0.  0.
         12    1    1    2    0    0 -0.29694857172E+02 -0.44746618192E+01 -0.10719756744E+02  0.31886052209E+02  0.00000000000E+00 0. -1.
         11    1    3    3    0    0  0.16896568177E+02  0.97015452462E+01 -0.95851929799E+01  0.21713818666E+02  0.51100000000E-03 0. -1.
        -11    1    3    3    0    0  0.10777044040E+02 -0.16336607336E+02  0.87706801140E+01  0.21446543951E+02  0.51100000000E-03 0.  1.
        -12    1    3    3    0    0  0.20212449544E+01  0.11109723909E+02  0.11534269610E+02  0.16141585174E+02  0.00000000000E+00 0.  1.
</event>
<event>
 7    1  0.4489290E-013  0.5930197E+02  0.7816164E-02  0.1266605E+00
        -11   -1    0    0    0    0  0.00000000000E+00  0.00000000000E+00  0.45593999997E+02  0.45594000000E+02  0.51100000000E-03 0. -1.
         11   -1    0    0    0    0 -0.00000000000E+00 -0.00000000000E+00 -0.45593999997E+02  0.45594000000E+02  0.51100000000E-03 0.  1.
    9900012    2    1    2    0    0 -0.27507970487E+02  0.15960791717E+02 -0.22986177009E+01  0.59301969267E+02  0.50000046030E+02 0.  0.
         12    1    1    2    0    0  0.27507970487E+02 -0.15960791717E+02  0.22986177009E+01  0.31886030733E+02  0.00000000000E+00 0. -1.
         11    1    3    3    0    0 -0.26163859574E+01 -0.36898907884E+01  0.69195079711E+01  0.82668228681E+01  0.51100000000E-03 0. -1.
        -11    1    3    3    0    0  0.58206525990E+00  0.76434278105E+01 -0.19580468624E+02  0.21027494868E+02  0.51100000000E-03 0.  1.
        -12    1    3    3    0    0 -0.25473649790E+02  0.12007254695E+02  0.10362342951E+02  0.30007651530E+02  0.00000000000E+00 0.  1.
</event>
<event>
 7    1  0.4489290E-013  0.5930189E+02  0.7816164E-02  0.1266605E+00
        -11   -1    0    0    0    0  0.00000000000E+00  0.00000000000E+00  0.45593999997E+02  0.45594000000E+02  0.51100000000E-03 0. -1.
         11   -1    0    0    0    0 -0.00000000000E+00 -0.00000000000E+00 -0.45593999997E+02  0.45594000000E+02  0.51100000000E-03 0.  1.
    9900012    2    1    2    0    0 -0.24618775496E+02 -0.21763809102E+00  0.20263089071E+02  0.59301886221E+02  0.49999894573E+02 0.  0.
         12    1    1    2    0    0  0.24618775496E+02  0.21763809102E+00 -0.20263089071E+02  0.31886113779E+02  0.00000000000E+00 0. -1.
         11    1    3    3    0    0 -0.19471311681E+01 -0.10847623230E+02  0.17494806945E+02  0.20676811162E+02  0.51100000000E-03 0. -1.
        -11    1    3    3    0    0 -0.25079469076E+02  0.53867770737E+01  0.11538567749E+02  0.28127134272E+02  0.51100000000E-03 0.  1.
         12    1    3    3    0    0  0.24078247486E+01  0.52432080656E+01 -0.87702856232E+01  0.10497940786E+02  0.00000000000E+00 0. -1.
</event>
<event>
 7    1  0.4489290E-013  0.5930194E+02  0.7816164E-02  0.1266605E+00
        -11   -1    0    0    0    0  0.00000000000E+00  0.00000000000E+00  0.45593999997E+02  0.45594000000E+02  0.51100000000E-03 0. -1.
         11   -1    0    0    0    0 -0.00000000000E+00 -0.00000000000E+00 -0.45593999997E+02  0.45594000000E+02  0.51100000000E-03 0.  1.
    9900012    2    1    2    0    0  0.28483478214E+02  0.13528582644E+02 -0.47317486544E+01  0.59301944665E+02  0.50000001162E+02 0.  0.
         12    1    1    2    0    0 -0.28483478214E+02 -0.13528582644E+02  0.47317486544E+01  0.31886055335E+02  0.00000000000E+00 0. -1.
         11    1    3    3    0    0  0.11434848397E+02 -0.13256424867E+02 -0.81651206968E+01  0.19317291590E+02  0.51100000000E-03 0. -1.
        -11    1    3    3    0    0  0.42859073292E+01  0.13127404606E+02 -0.99279150399E+01  0.17007682107E+02  0.51100000000E-03 0.  1.
         12    1    3    3    0    0  0.12762722488E+02  0.13657602904E+02  0.13361287082E+02  0.22976970968E+02  0.00000000000E+00 0. -1.
</event>
<event>
 7    1  0.4489290E-013  0.5930195E+02  0.7816164E-02  0.1266605E+00
        -11   -1    0    0    0    0  0.00000000000E+00  0.00000000000E+00  0.45593999997E+02  0.45594000000E+02  0.51100000000E-03 0.  1.
         11   -1    0    0    0    0 -0.00000000000E+00 -0.00000000000E+00 -0.45593999997E+02  0.45594000000E+02  0.51100000000E-03 0. -1.
    9900012    2    1    2    0    0  0.10598624224E+02 -0.27644848309E+02 -0.11838575933E+02  0.59301947351E+02  0.50000006060E+02 0.  0.
         12    1    1    2    0    0 -0.10598624224E+02  0.27644848309E+02  0.11838575933E+02  0.31886052649E+02  0.00000000000E+00 0. -1.
         11    1    3    3    0    0 -0.11154267791E+02  0.31529789638E+01 -0.66242381272E+01  0.13350636589E+02  0.51100000000E-03 0.  1.
        -11    1    3    3    0    0  0.21410400825E+02 -0.10321136746E+02  0.28554461691E+01  0.23939187545E+02  0.51100000000E-03 0. -1.
         12    1    3    3    0    0  0.34249118990E+00 -0.20476690526E+02 -0.80697839752E+01  0.22012123217E+02  0.00000000000E+00 0. -1.
</event>
<event>
 7    1  0.4489290E-013  0.5930192E+02  0.7816164E-02  0.1266605E+00
        -11   -1    0    0    0    0  0.00000000000E+00  0.00000000000E+00  0.45593999997E+02  0.45594000000E+02  0.51100000000E-03 0. -1.
         11   -1    0    0    0    0 -0.00000000000E+00 -0.00000000000E+00 -0.45593999997E+02  0.45594000000E+02  0.51100000000E-03 0.  1.
    9900012    2    1    2    0    0  0.23099318075E+02 -0.20793175464E+02  0.71265156903E+01  0.59301923614E+02  0.49999962770E+02 0.  0.
         12    1    1    2    0    0 -0.23099318075E+02  0.20793175464E+02 -0.71265156903E+01  0.31886076386E+02  0.00000000000E+00 0. -1.
         11    1    3    3    0    0  0.16857098625E+02 -0.12217723932E+02 -0.15396842970E+02  0.25893963116E+02  0.51100000000E-03 0.  1.
        -11    1    3    3    0    0  0.66268470302E+01  0.63886011163E+01  0.11936668518E+02  0.15073598819E+02  0.51100000000E-03 0. -1.
         12    1    3    3    0    0 -0.38462757946E+00 -0.14964052648E+02  0.10586690142E+02  0.18334361679E+02  0.00000000000E+00 0. -1.
</event>
