<event>
 7    1  0.3611369E-013  0.7246154E+02  0.7816164E-02  0.1226708E+00
        -11   -1    0    0    0    0  0.00000000000E+00  0.00000000000E+00  0.45593999997E+02  0.45594000000E+02  0.51100000000E-03 0.  1.
         11   -1    0    0    0    0 -0.00000000000E+00 -0.00000000000E+00 -0.45593999997E+02  0.45594000000E+02  0.51100000000E-03 0. -1.
    9900012    2    1    2    0    0  0.13060762772E+02  0.93541144506E+01 -0.96227415783E+01  0.72461544467E+02  0.69999966355E+02 0.  0.
        -12    1    1    2    0    0 -0.13060762772E+02 -0.93541144506E+01  0.96227415783E+01  0.18726455533E+02  0.00000000000E+00 0.  1.
         11    1    3    3    0    0 -0.14644656892E+02 -0.18581799659E+02  0.83349623024E+00  0.23673697858E+02  0.51100000000E-03 0. -1.
        -11    1    3    3    0    0 -0.34716980571E+00  0.14074844346E+02  0.35287044276E+01  0.14514596978E+02  0.51100000000E-03 0.  1.
         12    1    3    3    0    0  0.28052589470E+02  0.13861069764E+02 -0.13984942236E+02  0.34273249631E+02  0.00000000000E+00 0. -1.
</event>
<event>
 7    1  0.3611369E-013  0.7246154E+02  0.7816164E-02  0.1226708E+00
        -11   -1    0    0    0    0  0.00000000000E+00  0.00000000000E+00  0.45593999997E+02  0.45594000000E+02  0.51100000000E-03 0. -1.
         11   -1    0    0    0    0 -0.00000000000E+00 -0.00000000000E+00 -0.45593999997E+02  0.45594000000E+02  0.51100000000E-03 0.  1.
    9900012    2    1    2    0    0 -0.18076574088E+02  0.29301359261E+01 -0.39156419236E+01  0.72461535331E+02  0.69999954454E+02 0.  0.
        -12    1    1    2    0    0  0.18076574088E+02 -0.29301359261E+01  0.39156419236E+01  0.18726464669E+02  0.00000000000E+00 0.  1.
         11    1    3    3    0    0  0.12176617705E+02 -0.13493671032E+02  0.19956329323E+02  0.26992670431E+02  0.51100000000E-03 0. -1.
        -11    1    3    3    0    0 -0.30641175097E+01  0.45877792565E+01  0.22427511979E+01  0.59553730208E+01  0.51100000000E-03 0.  1.
        -12    1    3    3    0    0 -0.27189074284E+02  0.11836027702E+02 -0.26114722445E+02  0.39513491880E+02  0.00000000000E+00 0.  1.
</event>
<event>
 7    1  0.3611369E-013  0.7246156E+02  0.7816164E-02  0.1226708E+00
        -11   -1    0    0    0    0  0.00000000000E+00  0.00000000000E+00  0.45593999997E+02  0.45594000000E+02  0.51100000000E-03 0.  1.
         11   -1    0    0    0    0 -0.00000000000E+00 -0.00000000000E+00 -0.45593999997E+02  0.45594000000E+02  0.51100000000E-03 0. -1.
    9900012    2    1    2    0    0 -0.31292717188E+01  0.93757606708E+01 -0.15905415974E+02  0.72461561819E+02  0.69999988959E+02 0.  0.
        -12    1    1    2    0    0  0.31292717188E+01 -0.93757606708E+01  0.15905415974E+02  0.18726438181E+02  0.00000000000E+00 0.  1.
         11    1    3    3    0    0  0.12979372757E+02  0.25686681148E+02 -0.13905428587E+02  0.31962957467E+02  0.51100000000E-03 0. -1.
        -11    1    3    3    0    0 -0.28415720661E+01  0.80570939048E+01 -0.84465656335E+01  0.12013982073E+02  0.51100000000E-03 0.  1.
        -12    1    3    3    0    0 -0.13267072409E+02 -0.24368014382E+02  0.64465782466E+01  0.28484622278E+02  0.00000000000E+00 0.  1.
</event>
<event>
 7    1  0.3611369E-013  0.7246161E+02  0.7816164E-02  0.1226708E+00
        -11   -1    0    0    0    0  0.00000000000E+00  0.00000000000E+00  0.45593999997E+02  0.45594000000E+02  0.51100000000E-03 0. -1.
         11   -1    0    0    0    0 -0.00000000000E+00 -0.00000000000E+00 -0.45593999997E+02  0.45594000000E+02  0.51100000000E-03 0.  1.
    9900012    2    1    2    0    0 -0.10766152586E+02  0.14417345039E+02  0.51872911989E+01  0.72461605006E+02  0.70000045219E+02 0.  0.
        -12    1    1    2    0    0  0.10766152586E+02 -0.14417345039E+02 -0.51872911989E+01  0.18726394994E+02  0.00000000000E+00 0.  1.
         11    1    3    3    0    0 -0.10645112948E+02  0.24434000510E+01  0.32719486669E+02  0.34494252299E+02  0.51100000000E-03 0. -1.
        -11    1    3    3    0    0  0.69190557047E+01  0.12003898609E+02 -0.56194258855E+01  0.14951416695E+02  0.51100000000E-03 0.  1.
        -12    1    3    3    0    0 -0.70400953430E+01 -0.29953621149E-01 -0.21912769585E+02  0.23015936012E+02  0.00000000000E+00 0.  1.
</event>
<event>
 7    1  0.3611369E-013  0.7246131E+02  0.7816164E-02  0.1226709E+00
        -11   -1    0    0    0    0  0.00000000000E+00  0.00000000000E+00  0.45593999997E+02  0.45594000000E+02  0.51100000000E-03 0.  1.
         11   -1    0    0    0    0 -0.00000000000E+00 -0.00000000000E+00 -0.45593999997E+02  0.45594000000E+02  0.51100000000E-03 0. -1.
    9900012    2    1    2    0    0  0.10781962067E+02 -0.29082475747E+01 -0.15032647152E+02  0.72461305407E+02  0.69999654934E+02 0.  0.
        -12    1    1    2    0    0 -0.10781962067E+02  0.29082475747E+01  0.15032647152E+02  0.18726694593E+02  0.00000000000E+00 0.  1.
         11    1    3    3    0    0 -0.11470783833E+02 -0.11409862242E+02 -0.10785280796E+02  0.19444436743E+02  0.51100000000E-03 0. -1.
        -11    1    3    3    0    0  0.10354270864E+02 -0.19557632536E+02 -0.42776084989E+01  0.22539073856E+02  0.51100000000E-03 0.  1.
        -12    1    3    3    0    0  0.11898475036E+02  0.28059247203E+02  0.30242142959E-01  0.30477794809E+02  0.00000000000E+00 0.  1.
</event>
<event>
 7    1  0.3611369E-013  0.7246170E+02  0.7816164E-02  0.1226708E+00
        -11   -1    0    0    0    0  0.00000000000E+00  0.00000000000E+00  0.45593999997E+02  0.45594000000E+02  0.51100000000E-03 0.  1.
         11   -1    0    0    0    0 -0.00000000000E+00 -0.00000000000E+00 -0.45593999997E+02  0.45594000000E+02  0.51100000000E-03 0. -1.
    9900012    2    1    2    0    0 -0.39946050286E+01  0.33724231784E+00 -0.18292180855E+02  0.72461695449E+02  0.70000163037E+02 0.  0.
        -12    1    1    2    0    0  0.39946050286E+01 -0.33724231784E+00  0.18292180855E+02  0.18726304551E+02  0.00000000000E+00 0.  1.
         11    1    3    3    0    0  0.42810079242E+01  0.11290020391E+02 -0.13795588940E+02  0.18333299314E+02  0.51100000000E-03 0. -1.
        -11    1    3    3    0    0  0.20373387938E+02 -0.14505522624E+02 -0.33935355155E+01  0.25238882824E+02  0.51100000000E-03 0.  1.
         12    1    3    3    0    0 -0.28649000891E+02  0.35527445513E+01 -0.11030563996E+01  0.28889513310E+02  0.00000000000E+00 0. -1.
</event>
<event>
 7    1  0.4808614E-013  0.7246156E+02  0.7816164E-02  0.1226708E+00
        -11   -1    0    0    0    0  0.00000000000E+00  0.00000000000E+00  0.45593999997E+02  0.45594000000E+02  0.51100000000E-03 0. -1.
         11   -1    0    0    0    0 -0.00000000000E+00 -0.00000000000E+00 -0.45593999997E+02  0.45594000000E+02  0.51100000000E-03 0.  1.
    9900012    2    1    2    0    0 -0.14209295029E+02 -0.12112504782E+02  0.14361972363E+01  0.72461561475E+02  0.69999988512E+02 0.  0.
        -12    1    1    2    0    0  0.14209295029E+02  0.12112504782E+02 -0.14361972363E+01  0.18726438525E+02  0.00000000000E+00 0.  1.
         11    1    3    3    0    0 -0.25151319867E+02 -0.21845128497E+02  0.21834354943E+02  0.39831364352E+02  0.51100000000E-03 0. -1.
        -11    1    3    3    0    0  0.17383809607E+01 -0.29551062783E+00  0.41788893303E+01  0.45356819985E+01  0.51100000000E-03 0.  1.
        -12    1    3    3    0    0  0.92036438778E+01  0.10028134342E+02 -0.24577047037E+02  0.28094515125E+02  0.00000000000E+00 0.  1.
</event>
<event>
 7    1  0.3611369E-013  0.7246156E+02  0.7816164E-02  0.1226708E+00
        -11   -1    0    0    0    0  0.00000000000E+00  0.00000000000E+00  0.45593999997E+02  0.45594000000E+02  0.51100000000E-03 0.  1.
         11   -1    0    0    0    0 -0.00000000000E+00 -0.00000000000E+00 -0.45593999997E+02  0.45594000000E+02  0.51100000000E-03 0. -1.
    9900012    2    1    2    0    0 -0.15545929725E+02 -0.61309052459E+00  0.10422456528E+02  0.72461563845E+02  0.69999991598E+02 0.  0.
        -12    1    1    2    0    0  0.15545929725E+02  0.61309052459E+00 -0.10422456528E+02  0.18726436155E+02  0.00000000000E+00 0.  1.
         11    1    3    3    0    0 -0.20613974286E+01  0.49593117351E+01  0.29587143501E+01  0.61317308413E+01  0.51100000000E-03 0. -1.
        -11    1    3    3    0    0 -0.38652886416E+02  0.19048119856E+01  0.99452721371E+01  0.39957256852E+02  0.51100000000E-03 0.  1.
         12    1    3    3    0    0  0.25168354119E+02 -0.74772142453E+01 -0.24815299595E+01  0.26372576152E+02  0.00000000000E+00 0. -1.
</event>
<event>
 7    1  0.3611369E-013  0.7246155E+02  0.7816164E-02  0.1226708E+00
        -11   -1    0    0    0    0  0.00000000000E+00  0.00000000000E+00  0.45593999997E+02  0.45594000000E+02  0.51100000000E-03 0. -1.
         11   -1    0    0    0    0 -0.00000000000E+00 -0.00000000000E+00 -0.45593999997E+02  0.45594000000E+02  0.51100000000E-03 0.  1.
    9900012    2    1    2    0    0  0.32606723450E+01 -0.10616307077E+02  0.15077861706E+02  0.72461551492E+02  0.69999975507E+02 0.  0.
        -12    1    1    2    0    0 -0.32606723450E+01  0.10616307077E+02 -0.15077861706E+02  0.18726448508E+02  0.00000000000E+00 0.  1.
         11    1    3    3    0    0  0.19704617056E+02 -0.12170477712E+01  0.30780247970E+01  0.19980675052E+02  0.51100000000E-03 0. -1.
        -11    1    3    3    0    0  0.63084423519E+01 -0.17029523471E+02 -0.92916654646E+01  0.20399415725E+02  0.51100000000E-03 0.  1.
         12    1    3    3    0    0 -0.22752387063E+02  0.76302641654E+01  0.21291502374E+02  0.32081460715E+02  0.00000000000E+00 0. -1.
</event>
<event>
 7    1  0.3611369E-013  0.7246158E+02  0.7816164E-02  0.1226708E+00
        -11   -1    0    0    0    0  0.00000000000E+00  0.00000000000E+00  0.45593999997E+02  0.45594000000E+02  0.51100000000E-03 0.  1.
         11   -1    0    0    0    0 -0.00000000000E+00 -0.00000000000E+00 -0.45593999997E+02  0.45594000000E+02  0.51100000000E-03 0. -1.
    9900012    2    1    2    0    0 -0.58868006581E+01  0.14234963795E+02 -0.10648479928E+02  0.72461581736E+02  0.70000014904E+02 0.  0.
        -12    1    1    2    0    0  0.58868006581E+01 -0.14234963795E+02  0.10648479928E+02  0.18726418264E+02  0.00000000000E+00 0.  1.
         11    1    3    3    0    0  0.10072686325E+02  0.50137335726E+01  0.14613491256E+02  0.18443173834E+02  0.51100000000E-03 0. -1.
        -11    1    3    3    0    0 -0.16749189229E+02  0.13824406941E+02  0.59029828311E+01  0.22505438757E+02  0.51100000000E-03 0.  1.
        -12    1    3    3    0    0  0.78970224576E+00 -0.46031767182E+01 -0.31164954015E+02  0.31512969144E+02  0.00000000000E+00 0.  1.
</event>
<event>
 7    1  0.3611369E-013  0.7246159E+02  0.7816164E-02  0.1226708E+00
        -11   -1    0    0    0    0  0.00000000000E+00  0.00000000000E+00  0.45593999997E+02  0.45594000000E+02  0.51100000000E-03 0.  1.
         11   -1    0    0    0    0 -0.00000000000E+00 -0.00000000000E+00 -0.45593999997E+02  0.45594000000E+02  0.51100000000E-03 0. -1.
    9900012    2    1    2    0    0 -0.10936976556E+02  0.14939635456E+02  0.28050634754E+01  0.72461586973E+02  0.70000021727E+02 0.  0.
        -12    1    1    2    0    0  0.10936976556E+02 -0.14939635456E+02 -0.28050634754E+01  0.18726413027E+02  0.00000000000E+00 0.  1.
         11    1    3    3    0    0  0.30562071863E+01 -0.47729358830E+01 -0.20427431733E+01  0.60244600789E+01  0.51100000000E-03 0. -1.
        -11    1    3    3    0    0 -0.18733189113E+02 -0.15671616122E+02 -0.11707544171E+02  0.27085023851E+02  0.51100000000E-03 0.  1.
         12    1    3    3    0    0  0.47400053707E+01  0.35384187461E+02  0.16555350820E+02  0.39352103043E+02  0.00000000000E+00 0. -1.
</event>
<event>
 7    1  0.3611369E-013  0.7246154E+02  0.7816164E-02  0.1226708E+00
        -11   -1    0    0    0    0  0.00000000000E+00  0.00000000000E+00  0.45593999997E+02  0.45594000000E+02  0.51100000000E-03 0.  1.
         11   -1    0    0    0    0 -0.00000000000E+00 -0.00000000000E+00 -0.45593999997E+02  0.45594000000E+02  0.51100000000E-03 0. -1.
    9900012    2    1    2    0    0 -0.81096152221E+01  0.15208129268E+02 -0.73230578704E+01  0.72461541941E+02  0.69999963064E+02 0.  0.
        -12    1    1    2    0    0  0.81096152221E+01 -0.15208129268E+02  0.73230578704E+01  0.18726458059E+02  0.00000000000E+00 0.  1.
         11    1    3    3    0    0 -0.27739824946E+02 -0.55466408181E+01  0.11098393740E+02  0.30388113733E+02  0.51100000000E-03 0. -1.
        -11    1    3    3    0    0  0.13243133419E+01  0.11141678754E+02  0.36798964720E+01  0.11808151828E+02  0.51100000000E-03 0.  1.
        -12    1    3    3    0    0  0.18305896382E+02  0.96130913320E+01 -0.22101348082E+02  0.30265276380E+02  0.00000000000E+00 0.  1.
</event>
<event>
 7    1  0.3611369E-013  0.7246156E+02  0.7816164E-02  0.1226708E+00
        -11   -1    0    0    0    0  0.00000000000E+00  0.00000000000E+00  0.45593999997E+02  0.45594000000E+02  0.51100000000E-03 0. -1.
         11   -1    0    0    0    0 -0.00000000000E+00 -0.00000000000E+00 -0.45593999997E+02  0.45594000000E+02  0.51100000000E-03 0.  1.
    9900012    2    1    2    0    0  0.17133321388E+01 -0.57863623071E+01  0.17727439642E+02  0.72461558479E+02  0.69999984608E+02 0.  0.
        -12    1    1    2    0    0 -0.17133321388E+01  0.57863623071E+01 -0.17727439642E+02  0.18726441521E+02  0.00000000000E+00 0.  1.
         11    1    3    3    0    0 -0.10760122898E+02 -0.15771261690E+02  0.14239741262E+02  0.23817707100E+02  0.51100000000E-03 0. -1.
        -11    1    3    3    0    0 -0.83130616449E+01 -0.22327860850E+01  0.18385967132E+02  0.20301135812E+02  0.51100000000E-03 0.  1.
         12    1    3    3    0    0  0.20786516682E+02  0.12217685468E+02 -0.14898268751E+02  0.28342715567E+02  0.00000000000E+00 0. -1.
</event>
<event>
 7    1  0.3611369E-013  0.7246155E+02  0.7816164E-02  0.1226708E+00
        -11   -1    0    0    0    0  0.00000000000E+00  0.00000000000E+00  0.45593999997E+02  0.45594000000E+02  0.51100000000E-03 0.  1.
         11   -1    0    0    0    0 -0.00000000000E+00 -0.00000000000E+00 -0.45593999997E+02  0.45594000000E+02  0.51100000000E-03 0. -1.
    9900012    2    1    2    0    0  0.21618615246E+01  0.12012392788E+02 -0.14202412795E+02  0.72461554663E+02  0.69999979638E+02 0.  0.
        -12    1    1    2    0    0 -0.21618615246E+01 -0.12012392788E+02  0.14202412795E+02  0.18726445337E+02  0.00000000000E+00 0.  1.
         11    1    3    3    0    0  0.12583762433E+02 -0.15115248497E+02 -0.10471712199E+02  0.22281799091E+02  0.51100000000E-03 0. -1.
        -11    1    3    3    0    0  0.94688849654E+01  0.25260727186E+02 -0.10698884826E+02  0.29021203580E+02  0.51100000000E-03 0.  1.
        -12    1    3    3    0    0 -0.19890785874E+02  0.18669140989E+01  0.69681842299E+01  0.21158551992E+02  0.00000000000E+00 0.  1.
</event>
<event>
 7    1  0.3611369E-013  0.7246161E+02  0.7816164E-02  0.1226708E+00
        -11   -1    0    0    0    0  0.00000000000E+00  0.00000000000E+00  0.45593999997E+02  0.45594000000E+02  0.51100000000E-03 0.  1.
         11   -1    0    0    0    0 -0.00000000000E+00 -0.00000000000E+00 -0.45593999997E+02  0.45594000000E+02  0.51100000000E-03 0. -1.
    9900012    2    1    2    0    0  0.30498017089E+01  0.98318775216E+01 -0.15643233448E+02  0.72461605292E+02  0.70000045591E+02 0.  0.
        -12    1    1    2    0    0 -0.30498017089E+01 -0.98318775216E+01  0.15643233448E+02  0.18726394708E+02  0.00000000000E+00 0.  1.
         11    1    3    3    0    0  0.18714885323E+02  0.14032581029E+02 -0.21872549429E+02  0.32024501273E+02  0.51100000000E-03 0. -1.
        -11    1    3    3    0    0  0.72514169580E+01 -0.12133046315E+02 -0.30705470455E+01  0.14464512443E+02  0.51100000000E-03 0.  1.
        -12    1    3    3    0    0 -0.22916500572E+02  0.79323428077E+01  0.92998630262E+01  0.25972591577E+02  0.00000000000E+00 0.  1.
</event>
<event>
 7    1  0.3611369E-013  0.7246159E+02  0.7816164E-02  0.1226708E+00
        -11   -1    0    0    0    0  0.00000000000E+00  0.00000000000E+00  0.45593999997E+02  0.45594000000E+02  0.51100000000E-03 0.  1.
         11   -1    0    0    0    0 -0.00000000000E+00 -0.00000000000E+00 -0.45593999997E+02  0.45594000000E+02  0.51100000000E-03 0. -1.
    9900012    2    1    2    0    0  0.53692221490E+01 -0.13675146742E+02 -0.11612073312E+02  0.72461590000E+02  0.70000025670E+02 0.  0.
        -12    1    1    2    0    0 -0.53692221490E+01  0.13675146742E+02  0.11612073312E+02  0.18726410000E+02  0.00000000000E+00 0.  1.
         11    1    3    3    0    0  0.29649206222E+02  0.68724460137E+00 -0.11615094536E+02  0.31850559745E+02  0.51100000000E-03 0. -1.
        -11    1    3    3    0    0  0.12916176184E+01  0.64047604694E+01  0.36224432731E+01  0.74706979775E+01  0.51100000000E-03 0.  1.
        -12    1    3    3    0    0 -0.25571601691E+02 -0.20767151812E+02 -0.36194220494E+01  0.33140332277E+02  0.00000000000E+00 0.  1.
</event>
<event>
 7    1  0.3611369E-013  0.7246163E+02  0.7816164E-02  0.1226708E+00
        -11   -1    0    0    0    0  0.00000000000E+00  0.00000000000E+00  0.45593999997E+02  0.45594000000E+02  0.51100000000E-03 0.  1.
         11   -1    0    0    0    0 -0.00000000000E+00 -0.00000000000E+00 -0.45593999997E+02  0.45594000000E+02  0.51100000000E-03 0. -1.
    9900012    2    1    2    0    0  0.21212039743E+01 -0.79820135266E+00 -0.18588714441E+02  0.72461629923E+02  0.70000077678E+02 0.  0.
        -12    1    1    2    0    0 -0.21212039743E+01  0.79820135266E+00  0.18588714441E+02  0.18726370077E+02  0.00000000000E+00 0.  1.
         11    1    3    3    0    0  0.21910479477E+02  0.37226699062E+00 -0.92945248867E+01  0.23803274707E+02  0.51100000000E-03 0. -1.
        -11    1    3    3    0    0 -0.82326632244E+00 -0.16063476417E+02 -0.16940984879E+02  0.23360436874E+02  0.51100000000E-03 0.  1.
        -12    1    3    3    0    0 -0.18966009181E+02  0.14893008073E+02  0.76467953248E+01  0.25297918342E+02  0.00000000000E+00 0.  1.
</event>
<event>
 7    1  0.3611369E-013  0.7246153E+02  0.7816164E-02  0.1226708E+00
        -11   -1    0    0    0    0  0.00000000000E+00  0.00000000000E+00  0.45593999997E+02  0.45594000000E+02  0.51100000000E-03 0.  1.
         11   -1    0    0    0    0 -0.00000000000E+00 -0.00000000000E+00 -0.45593999997E+02  0.45594000000E+02  0.51100000000E-03 0. -1.
    9900012    2    1    2    0    0  0.11053344271E+02  0.28935824777E+01 -0.14836829915E+02  0.72461527800E+02  0.69999944643E+02 0.  0.
        -12    1    1    2    0    0 -0.11053344271E+02 -0.28935824777E+01  0.14836829915E+02  0.18726472200E+02  0.00000000000E+00 0.  1.
         11    1    3    3    0    0  0.23829244966E+02  0.64811027064E+01 -0.16372588289E+02  0.29629364750E+02  0.51100000000E-03 0. -1.
        -11    1    3    3    0    0  0.20379776854E+01  0.13322511960E+02 -0.10725859272E+02  0.17224596813E+02  0.51100000000E-03 0.  1.
         12    1    3    3    0    0 -0.14813878380E+02 -0.16910032189E+02  0.12261617647E+02  0.25607566237E+02  0.00000000000E+00 0. -1.
</event>
<event>
 7    1  0.3611369E-013  0.7246157E+02  0.7816164E-02  0.1226708E+00
        -11   -1    0    0    0    0  0.00000000000E+00  0.00000000000E+00  0.45593999997E+02  0.45594000000E+02  0.51100000000E-03 0.  1.
         11   -1    0    0    0    0 -0.00000000000E+00 -0.00000000000E+00 -0.45593999997E+02  0.45594000000E+02  0.51100000000E-03 0. -1.
    9900012    2    1    2    0    0 -0.88215575712E+01  0.16402745179E+02 -0.19517719072E+01  0.72461565717E+02  0.69999994037E+02 0.  0.
        -12    1    1    2    0    0  0.88215575712E+01 -0.16402745179E+02  0.19517719072E+01  0.18726434283E+02  0.00000000000E+00 0.  1.
         11    1    3    3    0    0  0.78617260801E+01  0.80131794000E+01 -0.17796110676E+02  0.21040896761E+02  0.51100000000E-03 0. -1.
        -11    1    3    3    0    0  0.98756131166E+00  0.23047022430E+02 -0.76999234893E+00  0.23081018363E+02  0.51100000000E-03 0.  1.
         12    1    3    3    0    0 -0.17670844963E+02 -0.14657456651E+02  0.16614331118E+02  0.28339650592E+02  0.00000000000E+00 0. -1.
</event>
<event>
 7    1  0.3611369E-013  0.7246159E+02  0.7816164E-02  0.1226708E+00
        -11   -1    0    0    0    0  0.00000000000E+00  0.00000000000E+00  0.45593999997E+02  0.45594000000E+02  0.51100000000E-03 0.  1.
         11   -1    0    0    0    0 -0.00000000000E+00 -0.00000000000E+00 -0.45593999997E+02  0.45594000000E+02  0.51100000000E-03 0. -1.
    9900012    2    1    2    0    0  0.15962679056E+01 -0.18645836601E+02 -0.68060612234E+00  0.72461587678E+02  0.70000022645E+02 0.  0.
        -12    1    1    2    0    0 -0.15962679056E+01  0.18645836601E+02  0.68060612234E+00  0.18726412322E+02  0.00000000000E+00 0.  1.
         11    1    3    3    0    0  0.13506644060E+02 -0.19608125832E+02 -0.13048044507E+02  0.27150681357E+02  0.51100000000E-03 0. -1.
        -11    1    3    3    0    0  0.68995475635E+01 -0.12624791122E+01 -0.12330664710E+02  0.14186010804E+02  0.51100000000E-03 0.  1.
        -12    1    3    3    0    0 -0.18809923718E+02  0.22247683437E+01  0.24698103095E+02  0.31124895517E+02  0.00000000000E+00 0.  1.
</event>
<event>
 7    1  0.3611369E-013  0.7246154E+02  0.7816164E-02  0.1226708E+00
        -11   -1    0    0    0    0  0.00000000000E+00  0.00000000000E+00  0.45593999997E+02  0.45594000000E+02  0.51100000000E-03 0.  1.
         11   -1    0    0    0    0 -0.00000000000E+00 -0.00000000000E+00 -0.45593999997E+02  0.45594000000E+02  0.51100000000E-03 0. -1.
    9900012    2    1    2    0    0  0.38389474424E+01 -0.18314842734E+02 -0.71368057096E+00  0.72461539529E+02  0.69999959922E+02 0.  0.
        -12    1    1    2    0    0 -0.38389474424E+01  0.18314842734E+02  0.71368057096E+00  0.18726460471E+02  0.00000000000E+00 0.  1.
         11    1    3    3    0    0  0.52762992747E+01  0.29288886197E+01 -0.35280752574E+01  0.69903532004E+01  0.51100000000E-03 0. -1.
        -11    1    3    3    0    0  0.15731503871E+02  0.15840761967E+02  0.91303966139E+01  0.24119993705E+02  0.51100000000E-03 0.  1.
         12    1    3    3    0    0 -0.17168855703E+02 -0.37084493321E+02 -0.63160019275E+01  0.41351192623E+02  0.00000000000E+00 0. -1.
</event>
<event>
 7    1  0.3611369E-013  0.7246155E+02  0.7816164E-02  0.1226708E+00
        -11   -1    0    0    0    0  0.00000000000E+00  0.00000000000E+00  0.45593999997E+02  0.45594000000E+02  0.51100000000E-03 0. -1.
         11   -1    0    0    0    0 -0.00000000000E+00 -0.00000000000E+00 -0.45593999997E+02  0.45594000000E+02  0.51100000000E-03 0.  1.
    9900012    2    1    2    0    0 -0.27150775785E+01  0.17330918474E+02  0.65534276789E+01  0.72461553574E+02  0.69999978218E+02 0.  0.
        -12    1    1    2    0    0  0.27150775785E+01 -0.17330918474E+02 -0.65534276789E+01  0.18726446426E+02  0.00000000000E+00 0.  1.
         11    1    3    3    0    0  0.44569209772E+01 -0.23705445401E+01  0.20277890742E+02  0.20896805479E+02  0.51100000000E-03 0. -1.
        -11    1    3    3    0    0 -0.17324294797E+02  0.14839180986E+02  0.10304152704E+02  0.25030142743E+02  0.51100000000E-03 0.  1.
        -12    1    3    3    0    0  0.10152296241E+02  0.48622820282E+01 -0.24028615767E+02  0.26534605352E+02  0.00000000000E+00 0.  1.
</event>
<event>
 7    1  0.3611369E-013  0.7246150E+02  0.7816164E-02  0.1226708E+00
        -11   -1    0    0    0    0  0.00000000000E+00  0.00000000000E+00  0.45593999997E+02  0.45594000000E+02  0.51100000000E-03 0.  1.
         11   -1    0    0    0    0 -0.00000000000E+00 -0.00000000000E+00 -0.45593999997E+02  0.45594000000E+02  0.51100000000E-03 0. -1.
    9900012    2    1    2    0    0 -0.13321991209E+02 -0.13159294798E+02  0.19799460562E+00  0.72461502965E+02  0.69999912291E+02 0.  0.
        -12    1    1    2    0    0  0.13321991209E+02  0.13159294798E+02 -0.19799460562E+00  0.18726497035E+02  0.00000000000E+00 0.  1.
         11    1    3    3    0    0  0.21595582654E+01  0.72932583746E+00  0.63558576938E+01  0.67522244752E+01  0.51100000000E-03 0. -1.
        -11    1    3    3    0    0  0.26968010305E+01 -0.33146767801E+02  0.99497065125E+01  0.34712787434E+02  0.51100000000E-03 0.  1.
         12    1    3    3    0    0 -0.18178350505E+02  0.19258147166E+02 -0.16107569601E+02  0.30996491056E+02  0.00000000000E+00 0. -1.
</event>
<event>
 7    1  0.3611369E-013  0.7246160E+02  0.7816164E-02  0.1226708E+00
        -11   -1    0    0    0    0  0.00000000000E+00  0.00000000000E+00  0.45593999997E+02  0.45594000000E+02  0.51100000000E-03 0.  1.
         11   -1    0    0    0    0 -0.00000000000E+00 -0.00000000000E+00 -0.45593999997E+02  0.45594000000E+02  0.51100000000E-03 0. -1.
    9900012    2    1    2    0    0  0.13789061164E+02  0.96050560079E+01 -0.82633392559E+01  0.72461599268E+02  0.70000037744E+02 0.  0.
        -12    1    1    2    0    0 -0.13789061164E+02 -0.96050560079E+01  0.82633392559E+01  0.18726400732E+02  0.00000000000E+00 0.  1.
         11    1    3    3    0    0  0.21329674359E+02  0.10289309040E+01 -0.19624045614E+02  0.29002014992E+02  0.51100000000E-03 0. -1.
        -11    1    3    3    0    0  0.13650202969E+02 -0.69743468718E+01  0.15617468702E+01  0.15408069604E+02  0.51100000000E-03 0.  1.
        -12    1    3    3    0    0 -0.21190816164E+02  0.15550471976E+02  0.97989594880E+01  0.28051514672E+02  0.00000000000E+00 0.  1.
</event>
<event>
 7    1  0.3611369E-013  0.7246160E+02  0.7816164E-02  0.1226708E+00
        -11   -1    0    0    0    0  0.00000000000E+00  0.00000000000E+00  0.45593999997E+02  0.45594000000E+02  0.51100000000E-03 0.  1.
         11   -1    0    0    0    0 -0.00000000000E+00 -0.00000000000E+00 -0.45593999997E+02  0.45594000000E+02  0.51100000000E-03 0. -1.
    9900012    2    1    2    0    0 -0.94052949784E+01 -0.87846248103E+01 -0.13603259881E+02  0.72461604563E+02  0.70000044641E+02 0.  0.
        -12    1    1    2    0    0  0.94052949784E+01  0.87846248103E+01  0.13603259881E+02  0.18726395437E+02  0.00000000000E+00 0.  1.
         11    1    3    3    0    0 -0.19689586540E+01  0.89515697077E+01  0.38614603811E+01  0.99457666848E+01  0.51100000000E-03 0. -1.
        -11    1    3    3    0    0 -0.29219963336E+00  0.20111424002E+02  0.26451809942E+00  0.20115285882E+02  0.51100000000E-03 0.  1.
         12    1    3    3    0    0 -0.71441366910E+01 -0.37847618520E+02 -0.17729238361E+02  0.42400551996E+02  0.00000000000E+00 0. -1.
</event>
<event>
 7    1  0.3611369E-013  0.7246157E+02  0.7816164E-02  0.1226708E+00
        -11   -1    0    0    0    0  0.00000000000E+00  0.00000000000E+00  0.45593999997E+02  0.45594000000E+02  0.51100000000E-03 0.  1.
         11   -1    0    0    0    0 -0.00000000000E+00 -0.00000000000E+00 -0.45593999997E+02  0.45594000000E+02  0.51100000000E-03 0. -1.
    9900012    2    1    2    0    0 -0.12819252105E+02  0.73868226083E+01 -0.11479580995E+02  0.72461570746E+02  0.70000000589E+02 0.  0.
        -12    1    1    2    0    0  0.12819252105E+02 -0.73868226083E+01  0.11479580995E+02  0.18726429254E+02  0.00000000000E+00 0.  1.
         11    1    3    3    0    0 -0.10512181000E+01  0.53874740183E+01 -0.11480263107E+02  0.12725029550E+02  0.51100000000E-03 0. -1.
        -11    1    3    3    0    0  0.22992147280E+02 -0.61173889360E+01 -0.26706476875E+01  0.23941462847E+02  0.51100000000E-03 0.  1.
         12    1    3    3    0    0 -0.34760181285E+02  0.81167375260E+01  0.26713297998E+01  0.35795078348E+02  0.00000000000E+00 0. -1.
</event>
<event>
 7    1  0.3611369E-013  0.7246158E+02  0.7816164E-02  0.1226708E+00
        -11   -1    0    0    0    0  0.00000000000E+00  0.00000000000E+00  0.45593999997E+02  0.45594000000E+02  0.51100000000E-03 0.  1.
         11   -1    0    0    0    0 -0.00000000000E+00 -0.00000000000E+00 -0.45593999997E+02  0.45594000000E+02  0.51100000000E-03 0. -1.
    9900012    2    1    2    0    0  0.67313322223E+01  0.90219767755E+01 -0.14965695908E+02  0.72461576091E+02  0.70000007551E+02 0.  0.
        -12    1    1    2    0    0 -0.67313322223E+01 -0.90219767755E+01  0.14965695908E+02  0.18726423909E+02  0.00000000000E+00 0.  1.
         11    1    3    3    0    0  0.18409536099E+01 -0.91037443878E+01 -0.10352789843E+02  0.13908541615E+02  0.51100000000E-03 0. -1.
        -11    1    3    3    0    0  0.18805569178E+02  0.18928622754E+02  0.17860439769E+02  0.32108215467E+02  0.51100000000E-03 0.  1.
         12    1    3    3    0    0 -0.13915190565E+02 -0.80290159037E+00 -0.22473345834E+02  0.26444819009E+02  0.00000000000E+00 0. -1.
</event>
<event>
 7    1  0.3611369E-013  0.7246169E+02  0.7816164E-02  0.1226708E+00
        -11   -1    0    0    0    0  0.00000000000E+00  0.00000000000E+00  0.45593999997E+02  0.45594000000E+02  0.51100000000E-03 0. -1.
         11   -1    0    0    0    0 -0.00000000000E+00 -0.00000000000E+00 -0.45593999997E+02  0.45594000000E+02  0.51100000000E-03 0.  1.
    9900012    2    1    2    0    0  0.30620738093E+01  0.16803259043E+02  0.76778289917E+01  0.72461685133E+02  0.70000149598E+02 0.  0.
        -12    1    1    2    0    0 -0.30620738093E+01 -0.16803259043E+02 -0.76778289917E+01  0.18726314867E+02  0.00000000000E+00 0.  1.
         11    1    3    3    0    0 -0.10256920789E+02  0.72388959811E+01 -0.36543856347E+01  0.13075189243E+02  0.51100000000E-03 0. -1.
        -11    1    3    3    0    0 -0.34588089946E+00 -0.64034062610E+01 -0.20367225795E+02  0.21352918587E+02  0.51100000000E-03 0.  1.
         12    1    3    3    0    0  0.13664875498E+02  0.15967769323E+02  0.31699440421E+02  0.38033577304E+02  0.00000000000E+00 0. -1.
</event>
<event>
 7    1  0.3611369E-013  0.7246106E+02  0.7816164E-02  0.1226709E+00
        -11   -1    0    0    0    0  0.00000000000E+00  0.00000000000E+00  0.45593999997E+02  0.45594000000E+02  0.51100000000E-03 0. -1.
         11   -1    0    0    0    0 -0.00000000000E+00 -0.00000000000E+00 -0.45593999997E+02  0.45594000000E+02  0.51100000000E-03 0.  1.
    9900012    2    1    2    0    0  0.21463669472E+00 -0.15339255098E+02 -0.10740548023E+02  0.72461062511E+02  0.69999338514E+02 0.  0.
        -12    1    1    2    0    0 -0.21463669472E+00  0.15339255098E+02  0.10740548023E+02  0.18726937489E+02  0.00000000000E+00 0.  1.
         11    1    3    3    0    0 -0.40096589454E+01  0.66395085820E+01  0.68867915831E+01  0.10372479821E+02  0.51100000000E-03 0. -1.
        -11    1    3    3    0    0  0.17058908173E+02  0.13512363705E+02 -0.54827902140E+01  0.22442177028E+02  0.51100000000E-03 0.  1.
         12    1    3    3    0    0 -0.12834612533E+02 -0.35491127386E+02 -0.12144549392E+02  0.39646405662E+02  0.00000000000E+00 0. -1.
</event>
<event>
 7    1  0.3611369E-013  0.7246158E+02  0.7816164E-02  0.1226708E+00
        -11   -1    0    0    0    0  0.00000000000E+00  0.00000000000E+00  0.45593999997E+02  0.45594000000E+02  0.51100000000E-03 0. -1.
         11   -1    0    0    0    0 -0.00000000000E+00 -0.00000000000E+00 -0.45593999997E+02  0.45594000000E+02  0.51100000000E-03 0.  1.
    9900012    2    1    2    0    0 -0.14463068472E+02 -0.10028497610E+02  0.63974716213E+01  0.72461581307E+02  0.70000014346E+02 0.  0.
        -12    1    1    2    0    0  0.14463068472E+02  0.10028497610E+02 -0.63974716213E+01  0.18726418693E+02  0.00000000000E+00 0.  1.
         11    1    3    3    0    0 -0.11979225215E+02  0.19164785257E+01  0.14017546113E+02  0.18538239560E+02  0.51100000000E-03 0. -1.
        -11    1    3    3    0    0  0.50686834982E+01  0.18727627384E+02 -0.10748846577E+02  0.22180019901E+02  0.51100000000E-03 0.  1.
         12    1    3    3    0    0 -0.75525267549E+01 -0.30672603519E+02  0.31287720856E+01  0.31743321846E+02  0.00000000000E+00 0. -1.
</event>
<event>
 7    1  0.3611369E-013  0.7246154E+02  0.7816164E-02  0.1226708E+00
        -11   -1    0    0    0    0  0.00000000000E+00  0.00000000000E+00  0.45593999997E+02  0.45594000000E+02  0.51100000000E-03 0.  1.
         11   -1    0    0    0    0 -0.00000000000E+00 -0.00000000000E+00 -0.45593999997E+02  0.45594000000E+02  0.51100000000E-03 0. -1.
    9900012    2    1    2    0    0  0.20415491990E-01  0.18286305461E+02 -0.40361995477E+01  0.72461540350E+02  0.69999960992E+02 0.  0.
        -12    1    1    2    0    0 -0.20415491990E-01 -0.18286305461E+02  0.40361995477E+01  0.18726459650E+02  0.00000000000E+00 0.  1.
         11    1    3    3    0    0 -0.11675659380E+02  0.12835434634E+02 -0.99319175040E+01  0.19992808451E+02  0.51100000000E-03 0. -1.
        -11    1    3    3    0    0 -0.15527097925E+02  0.45176542935E-01 -0.11844269645E+02  0.19528940948E+02  0.51100000000E-03 0.  1.
         12    1    3    3    0    0  0.27223172797E+02  0.54056942847E+01  0.17739987601E+02  0.32939790951E+02  0.00000000000E+00 0. -1.
</event>
<event>
 7    1  0.3611369E-013  0.7246153E+02  0.7816164E-02  0.1226708E+00
        -11   -1    0    0    0    0  0.00000000000E+00  0.00000000000E+00  0.45593999997E+02  0.45594000000E+02  0.51100000000E-03 0.  1.
         11   -1    0    0    0    0 -0.00000000000E+00 -0.00000000000E+00 -0.45593999997E+02  0.45594000000E+02  0.51100000000E-03 0. -1.
    9900012    2    1    2    0    0 -0.17767902508E+02 -0.30492678207E+01  0.50679609707E+01  0.72461531509E+02  0.69999949474E+02 0.  0.
        -12    1    1    2    0    0  0.17767902508E+02  0.30492678207E+01 -0.50679609707E+01  0.18726468491E+02  0.00000000000E+00 0.  1.
         11    1    3    3    0    0 -0.18072256588E+02 -0.10461109630E+02 -0.23399515784E+02  0.31362056886E+02  0.51100000000E-03 0. -1.
        -11    1    3    3    0    0 -0.10188156306E+02 -0.58793130148E+01  0.67551748465E+01  0.13564558154E+02  0.51100000000E-03 0.  1.
         12    1    3    3    0    0  0.10492510387E+02  0.13291154824E+02  0.21712301908E+02  0.27534916469E+02  0.00000000000E+00 0. -1.
</event>
<event>
 7    1  0.3611369E-013  0.7246146E+02  0.7816164E-02  0.1226708E+00
        -11   -1    0    0    0    0  0.00000000000E+00  0.00000000000E+00  0.45593999997E+02  0.45594000000E+02  0.51100000000E-03 0. -1.
         11   -1    0    0    0    0 -0.00000000000E+00 -0.00000000000E+00 -0.45593999997E+02  0.45594000000E+02  0.51100000000E-03 0.  1.
    9900012    2    1    2    0    0 -0.12112376720E+02 -0.14112392056E+02 -0.21941272655E+01  0.72461455369E+02  0.69999850289E+02 0.  0.
        -12    1    1    2    0    0  0.12112376720E+02  0.14112392056E+02  0.21941272655E+01  0.18726544631E+02  0.00000000000E+00 0.  1.
         11    1    3    3    0    0 -0.10739788915E+02 -0.18543046849E+02  0.24599596658E+02  0.32624037279E+02  0.51100000000E-03 0. -1.
        -11    1    3    3    0    0 -0.75044179163E+01  0.10783092408E+02 -0.17137149687E+01  0.13248705197E+02  0.51100000000E-03 0.  1.
        -12    1    3    3    0    0  0.61318301116E+01 -0.63524376156E+01 -0.25080008954E+02  0.26588712893E+02  0.00000000000E+00 0.  1.
</event>
<event>
 7    1  0.3611369E-013  0.7246156E+02  0.7816164E-02  0.1226708E+00
        -11   -1    0    0    0    0  0.00000000000E+00  0.00000000000E+00  0.45593999997E+02  0.45594000000E+02  0.51100000000E-03 0.  1.
         11   -1    0    0    0    0 -0.00000000000E+00 -0.00000000000E+00 -0.45593999997E+02  0.45594000000E+02  0.51100000000E-03 0. -1.
    9900012    2    1    2    0    0 -0.67504354296E+01 -0.13980531372E+02 -0.10471676169E+02  0.72461557794E+02  0.69999983716E+02 0.  0.
        -12    1    1    2    0    0  0.67504354296E+01  0.13980531372E+02  0.10471676169E+02  0.18726442206E+02  0.00000000000E+00 0.  1.
         11    1    3    3    0    0  0.11721807877E+02 -0.51174551247E+01  0.16107699273E+01  0.12891225965E+02  0.51100000000E-03 0. -1.
        -11    1    3    3    0    0  0.74529687195E+01 -0.12279521261E+02  0.15793804522E+02  0.21348949545E+02  0.51100000000E-03 0.  1.
         12    1    3    3    0    0 -0.25925212027E+02  0.34164450140E+01 -0.27876250618E+02  0.38221382284E+02  0.00000000000E+00 0. -1.
</event>
<event>
 7    1  0.3611369E-013  0.7246156E+02  0.7816164E-02  0.1226708E+00
        -11   -1    0    0    0    0  0.00000000000E+00  0.00000000000E+00  0.45593999997E+02  0.45594000000E+02  0.51100000000E-03 0. -1.
         11   -1    0    0    0    0 -0.00000000000E+00 -0.00000000000E+00 -0.45593999997E+02  0.45594000000E+02  0.51100000000E-03 0.  1.
    9900012    2    1    2    0    0 -0.12804213393E+01  0.56718603292E+01  0.17800840823E+02  0.72461563809E+02  0.69999991552E+02 0.  0.
        -12    1    1    2    0    0  0.12804213393E+01 -0.56718603292E+01 -0.17800840823E+02  0.18726436191E+02  0.00000000000E+00 0.  1.
         11    1    3    3    0    0 -0.53384726393E+01  0.19765430196E+01  0.84603174332E+01  0.10197204703E+02  0.51100000000E-03 0. -1.
        -11    1    3    3    0    0  0.15752197712E+02  0.27925728432E+02  0.13953836528E+02  0.34966950043E+02  0.51100000000E-03 0.  1.
         12    1    3    3    0    0 -0.11694146412E+02 -0.24230411122E+02 -0.46133131383E+01  0.27297409063E+02  0.00000000000E+00 0. -1.
</event>
<event>
 7    1  0.3611369E-013  0.7246162E+02  0.7816164E-02  0.1226708E+00
        -11   -1    0    0    0    0  0.00000000000E+00  0.00000000000E+00  0.45593999997E+02  0.45594000000E+02  0.51100000000E-03 0.  1.
         11   -1    0    0    0    0 -0.00000000000E+00 -0.00000000000E+00 -0.45593999997E+02  0.45594000000E+02  0.51100000000E-03 0. -1.
    9900012    2    1    2    0    0  0.18438535000E+02 -0.28954794452E+00  0.32579004022E+01  0.72461619517E+02  0.70000064121E+02 0.  0.
        -12    1    1    2    0    0 -0.18438535000E+02  0.28954794452E+00 -0.32579004022E+01  0.18726380483E+02  0.00000000000E+00 0.  1.
         11    1    3    3    0    0  0.83651602751E+01  0.35961234541E+01 -0.16515516664E+01  0.92539523174E+01  0.51100000000E-03 0. -1.
        -11    1    3    3    0    0 -0.95524100663E+01  0.24488370316E+02  0.10409954934E+02  0.28271823089E+02  0.51100000000E-03 0.  1.
         12    1    3    3    0    0  0.19625784792E+02 -0.28374041715E+02 -0.55005028658E+01  0.34935844110E+02  0.00000000000E+00 0. -1.
</event>
<event>
 7    1  0.3611369E-013  0.7246158E+02  0.7816164E-02  0.1226708E+00
        -11   -1    0    0    0    0  0.00000000000E+00  0.00000000000E+00  0.45593999997E+02  0.45594000000E+02  0.51100000000E-03 0.  1.
         11   -1    0    0    0    0 -0.00000000000E+00 -0.00000000000E+00 -0.45593999997E+02  0.45594000000E+02  0.51100000000E-03 0. -1.
    9900012    2    1    2    0    0  0.11394333252E+02 -0.11319755697E+02 -0.96286665637E+01  0.72461576981E+02  0.70000008711E+02 0.  0.
        -12    1    1    2    0    0 -0.11394333252E+02  0.11319755697E+02  0.96286665637E+01  0.18726423019E+02  0.00000000000E+00 0.  1.
         11    1    3    3    0    0 -0.23433377497E+02 -0.80134696371E+01 -0.19637778170E+02  0.31606663985E+02  0.51100000000E-03 0. -1.
        -11    1    3    3    0    0  0.13333471193E+01 -0.54700779156E+01 -0.57985708825E+00  0.56600177956E+01  0.51100000000E-03 0.  1.
        -12    1    3    3    0    0  0.33494363630E+02  0.21637918557E+01  0.10588968695E+02  0.35194895200E+02  0.00000000000E+00 0.  1.
</event>
<event>
 7    1  0.3611369E-013  0.7246160E+02  0.7816164E-02  0.1226708E+00
        -11   -1    0    0    0    0  0.00000000000E+00  0.00000000000E+00  0.45593999997E+02  0.45594000000E+02  0.51100000000E-03 0.  1.
         11   -1    0    0    0    0 -0.00000000000E+00 -0.00000000000E+00 -0.45593999997E+02  0.45594000000E+02  0.51100000000E-03 0. -1.
    9900012    2    1    2    0    0 -0.72775887158E+01  0.13182926591E+02  0.11132163142E+02  0.72461603997E+02  0.70000043905E+02 0.  0.
        -12    1    1    2    0    0  0.72775887158E+01 -0.13182926591E+02 -0.11132163142E+02  0.18726396003E+02  0.00000000000E+00 0.  1.
         11    1    3    3    0    0  0.75250549386E+01  0.75071487899E+00  0.12142435907E+02  0.14304851438E+02  0.51100000000E-03 0. -1.
        -11    1    3    3    0    0  0.19640565011E+02 -0.37970248720E+01 -0.16897166478E+01  0.20075465983E+02  0.51100000000E-03 0.  1.
         12    1    3    3    0    0 -0.34443208666E+02  0.16229236584E+02  0.67944388290E+00  0.38081286576E+02  0.00000000000E+00 0. -1.
</event>
<event>
 7    1  0.3611369E-013  0.7246160E+02  0.7816164E-02  0.1226708E+00
        -11   -1    0    0    0    0  0.00000000000E+00  0.00000000000E+00  0.45593999997E+02  0.45594000000E+02  0.51100000000E-03 0. -1.
         11   -1    0    0    0    0 -0.00000000000E+00 -0.00000000000E+00 -0.45593999997E+02  0.45594000000E+02  0.51100000000E-03 0.  1.
    9900012    2    1    2    0    0 -0.55755487792E+01 -0.10115001268E+02  0.14740350578E+02  0.72461603390E+02  0.70000043113E+02 0.  0.
        -12    1    1    2    0    0  0.55755487792E+01  0.10115001268E+02 -0.14740350578E+02  0.18726396610E+02  0.00000000000E+00 0.  1.
         11    1    3    3    0    0 -0.48385647656E+01  0.20560673138E+00 -0.18375672723E+02  0.19003140040E+02  0.51100000000E-03 0. -1.
        -11    1    3    3    0    0  0.84954354824E+01 -0.23758398806E+02  0.16312862092E+02  0.30045688672E+02  0.51100000000E-03 0.  1.
         12    1    3    3    0    0 -0.92324194959E+01  0.13437790806E+02  0.16803161208E+02  0.23412774677E+02  0.00000000000E+00 0. -1.
</event>
<event>
 7    1  0.3611369E-013  0.7246160E+02  0.7816164E-02  0.1226708E+00
        -11   -1    0    0    0    0  0.00000000000E+00  0.00000000000E+00  0.45593999997E+02  0.45594000000E+02  0.51100000000E-03 0.  1.
         11   -1    0    0    0    0 -0.00000000000E+00 -0.00000000000E+00 -0.45593999997E+02  0.45594000000E+02  0.51100000000E-03 0. -1.
    9900012    2    1    2    0    0 -0.54914486085E+01  0.16445444762E+02  0.70759604390E+01  0.72461604795E+02  0.70000044943E+02 0.  0.
        -12    1    1    2    0    0  0.54914486085E+01 -0.16445444762E+02 -0.70759604390E+01  0.18726395205E+02  0.00000000000E+00 0.  1.
         11    1    3    3    0    0 -0.10002301778E+02 -0.30047562642E-01 -0.82065659190E+01  0.12938109142E+02  0.51100000000E-03 0. -1.
        -11    1    3    3    0    0  0.26084437710E+02 -0.55806432767E+01  0.72309060496E+01  0.27637428834E+02  0.51100000000E-03 0.  1.
         12    1    3    3    0    0 -0.21573584540E+02  0.22056135602E+02  0.80516203084E+01  0.31886066819E+02  0.00000000000E+00 0. -1.
</event>
<event>
 7    1  0.3611369E-013  0.7246156E+02  0.7816164E-02  0.1226708E+00
        -11   -1    0    0    0    0  0.00000000000E+00  0.00000000000E+00  0.45593999997E+02  0.45594000000E+02  0.51100000000E-03 0.  1.
         11   -1    0    0    0    0 -0.00000000000E+00 -0.00000000000E+00 -0.45593999997E+02  0.45594000000E+02  0.51100000000E-03 0. -1.
    9900012    2    1    2    0    0  0.56913330013E+00  0.10761079315E+02  0.15315176880E+02  0.72461564578E+02  0.69999992554E+02 0.  0.
        -12    1    1    2    0    0 -0.56913330013E+00 -0.10761079315E+02 -0.15315176880E+02  0.18726435422E+02  0.00000000000E+00 0.  1.
         11    1    3    3    0    0  0.12061917311E+02  0.44029346678E+01 -0.20784984962E+02  0.24431358600E+02  0.51100000000E-03 0. -1.
        -11    1    3    3    0    0  0.30997844076E+01  0.14292639494E+02  0.20941368702E+02  0.25542692311E+02  0.51100000000E-03 0.  1.
        -12    1    3    3    0    0 -0.14592568419E+02 -0.79344948471E+01  0.15158793139E+02  0.22487513668E+02  0.00000000000E+00 0.  1.
</event>
<event>
 7    1  0.3611369E-013  0.7246151E+02  0.7816164E-02  0.1226708E+00
        -11   -1    0    0    0    0  0.00000000000E+00  0.00000000000E+00  0.45593999997E+02  0.45594000000E+02  0.51100000000E-03 0. -1.
         11   -1    0    0    0    0 -0.00000000000E+00 -0.00000000000E+00 -0.45593999997E+02  0.45594000000E+02  0.51100000000E-03 0.  1.
    9900012    2    1    2    0    0 -0.90489622946E+00 -0.17440115062E+02  0.67605327985E+01  0.72461514631E+02  0.69999927488E+02 0.  0.
        -12    1    1    2    0    0  0.90489622946E+00  0.17440115062E+02 -0.67605327985E+01  0.18726485369E+02  0.00000000000E+00 0.  1.
         11    1    3    3    0    0  0.89024106684E+01  0.14489720659E+01 -0.87150118528E+01  0.12542083862E+02  0.51100000000E-03 0. -1.
        -11    1    3    3    0    0 -0.12783932820E+02 -0.17940667976E+01 -0.18037197272E+02  0.22180804758E+02  0.51100000000E-03 0.  1.
         12    1    3    3    0    0  0.29766259221E+01 -0.17095020330E+02  0.33512741923E+02  0.37738626011E+02  0.00000000000E+00 0. -1.
</event>
<event>
 7    1  0.3611369E-013  0.7246148E+02  0.7816164E-02  0.1226708E+00
        -11   -1    0    0    0    0  0.00000000000E+00  0.00000000000E+00  0.45593999997E+02  0.45594000000E+02  0.51100000000E-03 0.  1.
         11   -1    0    0    0    0 -0.00000000000E+00 -0.00000000000E+00 -0.45593999997E+02  0.45594000000E+02  0.51100000000E-03 0. -1.
    9900012    2    1    2    0    0  0.69044689162E+01 -0.14223542574E+02 -0.10035019193E+02  0.72461482316E+02  0.69999885391E+02 0.  0.
        -12    1    1    2    0    0 -0.69044689162E+01  0.14223542574E+02  0.10035019193E+02  0.18726517684E+02  0.00000000000E+00 0.  1.
         11    1    3    3    0    0  0.92378467768E+01  0.54034662346E+01 -0.74040374216E+01  0.13013647868E+02  0.51100000000E-03 0. -1.
        -11    1    3    3    0    0 -0.19862118933E+02  0.11440598601E+02 -0.57761194195E+01  0.23637991045E+02  0.51100000000E-03 0.  1.
        -12    1    3    3    0    0  0.17528741072E+02 -0.31067607409E+02  0.31451376478E+01  0.35809843403E+02  0.00000000000E+00 0.  1.
</event>
<event>
 7    1  0.3611369E-013  0.7246161E+02  0.7816164E-02  0.1226708E+00
        -11   -1    0    0    0    0  0.00000000000E+00  0.00000000000E+00  0.45593999997E+02  0.45594000000E+02  0.51100000000E-03 0.  1.
         11   -1    0    0    0    0 -0.00000000000E+00 -0.00000000000E+00 -0.45593999997E+02  0.45594000000E+02  0.51100000000E-03 0. -1.
    9900012    2    1    2    0    0  0.11165826009E+01 -0.18128200670E+02  0.45606247036E+01  0.72461609159E+02  0.70000050629E+02 0.  0.
        -12    1    1    2    0    0 -0.11165826009E+01  0.18128200670E+02 -0.45606247036E+01  0.18726390841E+02  0.00000000000E+00 0.  1.
         11    1    3    3    0    0 -0.51810520785E+01 -0.14780138691E+01 -0.14690617969E+02  0.15647430531E+02  0.51100000000E-03 0. -1.
        -11    1    3    3    0    0 -0.13662095288E+02  0.58919267191E+01  0.22023313143E+02  0.26578073109E+02  0.51100000000E-03 0.  1.
         12    1    3    3    0    0  0.19959729968E+02 -0.22542113520E+02 -0.27720704701E+01  0.30236105520E+02  0.00000000000E+00 0. -1.
</event>
<event>
 7    1  0.3611369E-013  0.7246157E+02  0.7816164E-02  0.1226708E+00
        -11   -1    0    0    0    0  0.00000000000E+00  0.00000000000E+00  0.45593999997E+02  0.45594000000E+02  0.51100000000E-03 0. -1.
         11   -1    0    0    0    0 -0.00000000000E+00 -0.00000000000E+00 -0.45593999997E+02  0.45594000000E+02  0.51100000000E-03 0.  1.
    9900012    2    1    2    0    0 -0.14385240081E+02  0.51980588469E+01  0.10803902972E+02  0.72461567681E+02  0.69999996596E+02 0.  0.
        -12    1    1    2    0    0  0.14385240081E+02 -0.51980588469E+01 -0.10803902972E+02  0.18726432319E+02  0.00000000000E+00 0.  1.
         11    1    3    3    0    0  0.10629998854E+01 -0.30934680733E+01  0.19731887291E+02  0.20001172211E+02  0.51100000000E-03 0. -1.
        -11    1    3    3    0    0 -0.23093607274E+02 -0.50796214976E+01  0.11967425078E+02  0.26501632303E+02  0.51100000000E-03 0.  1.
         12    1    3    3    0    0  0.76453673074E+01  0.13371148418E+02 -0.20895409397E+02  0.25958763167E+02  0.00000000000E+00 0. -1.
</event>
<event>
 7    1  0.3611369E-013  0.7246137E+02  0.7816164E-02  0.1226709E+00
        -11   -1    0    0    0    0  0.00000000000E+00  0.00000000000E+00  0.45593999997E+02  0.45594000000E+02  0.51100000000E-03 0.  1.
         11   -1    0    0    0    0 -0.00000000000E+00 -0.00000000000E+00 -0.45593999997E+02  0.45594000000E+02  0.51100000000E-03 0. -1.
    9900012    2    1    2    0    0 -0.90167924004E+01  0.10291688279E+02 -0.12785355830E+02  0.72461368789E+02  0.69999737501E+02 0.  0.
        -12    1    1    2    0    0  0.90167924004E+01 -0.10291688279E+02  0.12785355830E+02  0.18726631211E+02  0.00000000000E+00 0.  1.
         11    1    3    3    0    0  0.17452798835E+01 -0.22344331207E+01 -0.88211134018E+00  0.29693120281E+01  0.51100000000E-03 0. -1.
        -11    1    3    3    0    0 -0.78714639743E+01  0.24807032459E+02  0.21517567792E+02  0.33769135738E+02  0.51100000000E-03 0.  1.
         12    1    3    3    0    0 -0.28906083096E+01 -0.12280911060E+02 -0.33420812282E+02  0.35722921023E+02  0.00000000000E+00 0. -1.
</event>
<event>
 7    1  0.3611369E-013  0.7246162E+02  0.7816164E-02  0.1226708E+00
        -11   -1    0    0    0    0  0.00000000000E+00  0.00000000000E+00  0.45593999997E+02  0.45594000000E+02  0.51100000000E-03 0.  1.
         11   -1    0    0    0    0 -0.00000000000E+00 -0.00000000000E+00 -0.45593999997E+02  0.45594000000E+02  0.51100000000E-03 0. -1.
    9900012    2    1    2    0    0  0.18657002111E+02  0.54443232061E+00  0.15156502753E+01  0.72461619408E+02  0.70000063980E+02 0.  0.
        -12    1    1    2    0    0 -0.18657002111E+02 -0.54443232061E+00 -0.15156502753E+01  0.18726380592E+02  0.00000000000E+00 0.  1.
         11    1    3    3    0    0 -0.18561280565E+01 -0.80444180320E+00 -0.73678894924E+00  0.21529505786E+01  0.51100000000E-03 0. -1.
        -11    1    3    3    0    0  0.65462850712E+01  0.28243758578E+02  0.19969672248E+02  0.35204425244E+02  0.51100000000E-03 0.  1.
         12    1    3    3    0    0  0.13966845096E+02 -0.26894884454E+02 -0.17717233023E+02  0.35104243586E+02  0.00000000000E+00 0. -1.
</event>
<event>
 7    1  0.3611369E-013  0.7246153E+02  0.7816164E-02  0.1226708E+00
        -11   -1    0    0    0    0  0.00000000000E+00  0.00000000000E+00  0.45593999997E+02  0.45594000000E+02  0.51100000000E-03 0. -1.
         11   -1    0    0    0    0 -0.00000000000E+00 -0.00000000000E+00 -0.45593999997E+02  0.45594000000E+02  0.51100000000E-03 0.  1.
    9900012    2    1    2    0    0  0.65350243552E+01 -0.12673631346E+02  0.12138915010E+02  0.72461528564E+02  0.69999945639E+02 0.  0.
        -12    1    1    2    0    0 -0.65350243552E+01  0.12673631346E+02 -0.12138915010E+02  0.18726471436E+02  0.00000000000E+00 0.  1.
         11    1    3    3    0    0 -0.52008434263E+00  0.15913951672E+02 -0.34575197718E+01  0.16293519840E+02  0.51100000000E-03 0. -1.
        -11    1    3    3    0    0  0.25320898520E+02 -0.14273514634E+02  0.16942754282E+01  0.29116175769E+02  0.51100000000E-03 0.  1.
         12    1    3    3    0    0 -0.18265789823E+02 -0.14314068384E+02  0.13902159353E+02  0.27051832955E+02  0.00000000000E+00 0. -1.
</event>
<event>
 7    1  0.3611369E-013  0.7246163E+02  0.7816164E-02  0.1226708E+00
        -11   -1    0    0    0    0  0.00000000000E+00  0.00000000000E+00  0.45593999997E+02  0.45594000000E+02  0.51100000000E-03 0. -1.
         11   -1    0    0    0    0 -0.00000000000E+00 -0.00000000000E+00 -0.45593999997E+02  0.45594000000E+02  0.51100000000E-03 0.  1.
    9900012    2    1    2    0    0 -0.56451796058E+01  0.17746160017E+02  0.19704173226E+01  0.72461633760E+02  0.70000082675E+02 0.  0.
        -12    1    1    2    0    0  0.56451796058E+01 -0.17746160017E+02 -0.19704173226E+01  0.18726366240E+02  0.00000000000E+00 0.  1.
         11    1    3    3    0    0  0.23436387818E+02  0.10674749324E+02  0.10368142155E+02  0.27761716790E+02  0.51100000000E-03 0. -1.
        -11    1    3    3    0    0 -0.34992899782E+01  0.88813898512E+01 -0.15396704570E+02  0.18115811545E+02  0.51100000000E-03 0.  1.
        -12    1    3    3    0    0 -0.25582277446E+02 -0.18099791582E+01  0.69989797379E+01  0.26584105425E+02  0.00000000000E+00 0.  1.
</event>
<event>
 7    1  0.3611369E-013  0.7246154E+02  0.7816164E-02  0.1226708E+00
        -11   -1    0    0    0    0  0.00000000000E+00  0.00000000000E+00  0.45593999997E+02  0.45594000000E+02  0.51100000000E-03 0.  1.
         11   -1    0    0    0    0 -0.00000000000E+00 -0.00000000000E+00 -0.45593999997E+02  0.45594000000E+02  0.51100000000E-03 0. -1.
    9900012    2    1    2    0    0 -0.24718448282E+01  0.46777298777E+01 -0.17963546676E+02  0.72461543238E+02  0.69999964755E+02 0.  0.
        -12    1    1    2    0    0  0.24718448282E+01 -0.46777298777E+01  0.17963546676E+02  0.18726456762E+02  0.00000000000E+00 0.  1.
         11    1    3    3    0    0  0.24511890131E+02 -0.43433730567E+01 -0.62310200780E+01  0.25661708025E+02  0.51100000000E-03 0.  1.
        -11    1    3    3    0    0 -0.66434157786E+01 -0.58290271680E+01 -0.18688033370E+02  0.20672569324E+02  0.51100000000E-03 0. -1.
        -12    1    3    3    0    0 -0.20340319180E+02  0.14850130102E+02  0.69555067722E+01  0.26127265890E+02  0.00000000000E+00 0.  1.
</event>
<event>
 7    1  0.3611369E-013  0.7246158E+02  0.7816164E-02  0.1226708E+00
        -11   -1    0    0    0    0  0.00000000000E+00  0.00000000000E+00  0.45593999997E+02  0.45594000000E+02  0.51100000000E-03 0.  1.
         11   -1    0    0    0    0 -0.00000000000E+00 -0.00000000000E+00 -0.45593999997E+02  0.45594000000E+02  0.51100000000E-03 0. -1.
    9900012    2    1    2    0    0 -0.10445721033E+02 -0.11377194055E+02 -0.10588910566E+02  0.72461583914E+02  0.70000017742E+02 0.  0.
        -12    1    1    2    0    0  0.10445721033E+02  0.11377194055E+02  0.10588910566E+02  0.18726416086E+02  0.00000000000E+00 0.  1.
         11    1    3    3    0    0  0.11179447508E+02  0.11766990666E+02  0.24471528502E+01  0.16414343522E+02  0.51100000000E-03 0.  1.
        -11    1    3    3    0    0 -0.44080411353E+01 -0.26510754045E+02  0.85772094063E+01  0.28210271678E+02  0.51100000000E-03 0. -1.
         12    1    3    3    0    0 -0.17217127406E+02  0.33665693229E+01 -0.21613272822E+02  0.27836968714E+02  0.00000000000E+00 0. -1.
</event>
<event>
 7    1  0.3611369E-013  0.7246164E+02  0.7816164E-02  0.1226708E+00
        -11   -1    0    0    0    0  0.00000000000E+00  0.00000000000E+00  0.45593999997E+02  0.45594000000E+02  0.51100000000E-03 0.  1.
         11   -1    0    0    0    0 -0.00000000000E+00 -0.00000000000E+00 -0.45593999997E+02  0.45594000000E+02  0.51100000000E-03 0. -1.
    9900012    2    1    2    0    0  0.75229764274E+00  0.78157787189E+01 -0.17000713254E+02  0.72461638904E+02  0.70000089377E+02 0.  0.
        -12    1    1    2    0    0 -0.75229764274E+00 -0.78157787189E+01  0.17000713254E+02  0.18726361096E+02  0.00000000000E+00 0.  1.
         11    1    3    3    0    0 -0.22699586763E+02 -0.27986583123E+01 -0.53328385122E+01  0.23484950381E+02  0.51100000000E-03 0. -1.
        -11    1    3    3    0    0 -0.37614325048E+01  0.90067158454E+01  0.10133999138E+02  0.14070083284E+02  0.51100000000E-03 0.  1.
        -12    1    3    3    0    0  0.27213316910E+02  0.16077211858E+01 -0.21801873880E+02  0.34906605240E+02  0.00000000000E+00 0.  1.
</event>
<event>
 7    1  0.3611369E-013  0.7246152E+02  0.7816164E-02  0.1226708E+00
        -11   -1    0    0    0    0  0.00000000000E+00  0.00000000000E+00  0.45593999997E+02  0.45594000000E+02  0.51100000000E-03 0. -1.
         11   -1    0    0    0    0 -0.00000000000E+00 -0.00000000000E+00 -0.45593999997E+02  0.45594000000E+02  0.51100000000E-03 0.  1.
    9900012    2    1    2    0    0 -0.13047040747E+02 -0.51292692573E+01  0.12415563601E+02  0.72461524226E+02  0.69999939988E+02 0.  0.
        -12    1    1    2    0    0  0.13047040747E+02  0.51292692573E+01 -0.12415563601E+02  0.18726475774E+02  0.00000000000E+00 0.  1.
         11    1    3    3    0    0  0.52499895350E+01  0.22446747798E+02  0.16967537879E+02  0.28623700298E+02  0.51100000000E-03 0. -1.
        -11    1    3    3    0    0 -0.45852443313E+01  0.57236366701E+01  0.99474373657E+00  0.74009457282E+01  0.51100000000E-03 0.  1.
        -12    1    3    3    0    0 -0.13711785951E+02 -0.33299653726E+02 -0.55467180143E+01  0.36436878200E+02  0.00000000000E+00 0.  1.
</event>
<event>
 7    1  0.3611369E-013  0.7246161E+02  0.7816164E-02  0.1226708E+00
        -11   -1    0    0    0    0  0.00000000000E+00  0.00000000000E+00  0.45593999997E+02  0.45594000000E+02  0.51100000000E-03 0.  1.
         11   -1    0    0    0    0 -0.00000000000E+00 -0.00000000000E+00 -0.45593999997E+02  0.45594000000E+02  0.51100000000E-03 0. -1.
    9900012    2    1    2    0    0 -0.79644013969E+01  0.97731227939E+01 -0.13846738667E+02  0.72461607116E+02  0.70000047967E+02 0.  0.
        -12    1    1    2    0    0  0.79644013969E+01 -0.97731227939E+01  0.13846738667E+02  0.18726392884E+02  0.00000000000E+00 0.  1.
         11    1    3    3    0    0  0.10515703012E+01 -0.15625652272E+02  0.67450727947E+01  0.17051768714E+02  0.51100000000E-03 0. -1.
        -11    1    3    3    0    0 -0.66546236395E+01  0.42225203830E+01  0.13251239865E+02  0.15417816071E+02  0.51100000000E-03 0.  1.
         12    1    3    3    0    0 -0.23613480586E+01  0.21176254682E+02 -0.33843051326E+02  0.39992022331E+02  0.00000000000E+00 0. -1.
</event>
<event>
 7    1  0.3611369E-013  0.7246175E+02  0.7816164E-02  0.1226708E+00
        -11   -1    0    0    0    0  0.00000000000E+00  0.00000000000E+00  0.45593999997E+02  0.45594000000E+02  0.51100000000E-03 0.  1.
         11   -1    0    0    0    0 -0.00000000000E+00 -0.00000000000E+00 -0.45593999997E+02  0.45594000000E+02  0.51100000000E-03 0. -1.
    9900012    2    1    2    0    0 -0.57962698789E+01  0.67124348071E+01 -0.16492994672E+02  0.72461751075E+02  0.70000235500E+02 0.  0.
        -12    1    1    2    0    0  0.57962698789E+01 -0.67124348071E+01  0.16492994672E+02  0.18726248925E+02  0.00000000000E+00 0.  1.
         11    1    3    3    0    0  0.41059904917E+01  0.13699240323E+02 -0.11144732639E+02  0.18131006845E+02  0.51100000000E-03 0. -1.
        -11    1    3    3    0    0  0.37273021984E+01 -0.18119960428E+02 -0.22924907256E+02  0.29458056972E+02  0.51100000000E-03 0.  1.
        -12    1    3    3    0    0 -0.13629562569E+02  0.11133154913E+02  0.17576645223E+02  0.24872687258E+02  0.00000000000E+00 0.  1.
</event>
<event>
 7    1  0.3611369E-013  0.7246164E+02  0.7816164E-02  0.1226708E+00
        -11   -1    0    0    0    0  0.00000000000E+00  0.00000000000E+00  0.45593999997E+02  0.45594000000E+02  0.51100000000E-03 0. -1.
         11   -1    0    0    0    0 -0.00000000000E+00 -0.00000000000E+00 -0.45593999997E+02  0.45594000000E+02  0.51100000000E-03 0.  1.
    9900012    2    1    2    0    0  0.74124995023E+01  0.16536366981E+02  0.47201858006E+01  0.72461635276E+02  0.70000084650E+02 0.  0.
        -12    1    1    2    0    0 -0.74124995023E+01 -0.16536366981E+02 -0.47201858006E+01  0.18726364724E+02  0.00000000000E+00 0.  1.
         11    1    3    3    0    0  0.11632874264E+01  0.21215186853E+02  0.51426570173E+01  0.21860565233E+02  0.51100000000E-03 0. -1.
        -11    1    3    3    0    0 -0.82942473217E+01  0.13425907996E+02 -0.16129198726E+02  0.22565473537E+02  0.51100000000E-03 0.  1.
         12    1    3    3    0    0  0.14543459398E+02 -0.18104727868E+02  0.15706727509E+02  0.28035596506E+02  0.00000000000E+00 0. -1.
</event>
<event>
 7    1  0.3611369E-013  0.7246157E+02  0.7816164E-02  0.1226708E+00
        -11   -1    0    0    0    0  0.00000000000E+00  0.00000000000E+00  0.45593999997E+02  0.45594000000E+02  0.51100000000E-03 0.  1.
         11   -1    0    0    0    0 -0.00000000000E+00 -0.00000000000E+00 -0.45593999997E+02  0.45594000000E+02  0.51100000000E-03 0. -1.
    9900012    2    1    2    0    0  0.12778118117E+02 -0.65455652320E+01 -0.12023075530E+02  0.72461572897E+02  0.70000003391E+02 0.  0.
        -12    1    1    2    0    0 -0.12778118117E+02  0.65455652320E+01  0.12023075530E+02  0.18726427103E+02  0.00000000000E+00 0.  1.
         11    1    3    3    0    0 -0.80898259581E+01  0.25756702541E+02 -0.58930686551E+01  0.27632974292E+02  0.51100000000E-03 0. -1.
        -11    1    3    3    0    0 -0.42388942532E+01 -0.90748476421E+01 -0.31312454614E+01  0.10494083220E+02  0.51100000000E-03 0.  1.
        -12    1    3    3    0    0  0.25106838328E+02 -0.23227420130E+02 -0.29987614139E+01  0.34334515386E+02  0.00000000000E+00 0.  1.
</event>
<event>
 7    1  0.3611369E-013  0.7246152E+02  0.7816164E-02  0.1226708E+00
        -11   -1    0    0    0    0  0.00000000000E+00  0.00000000000E+00  0.45593999997E+02  0.45594000000E+02  0.51100000000E-03 0.  1.
         11   -1    0    0    0    0 -0.00000000000E+00 -0.00000000000E+00 -0.45593999997E+02  0.45594000000E+02  0.51100000000E-03 0. -1.
    9900012    2    1    2    0    0 -0.54520613700E+01 -0.69388973014E+01 -0.16516896562E+02  0.72461517656E+02  0.69999931428E+02 0.  0.
        -12    1    1    2    0    0  0.54520613700E+01  0.69388973014E+01  0.16516896562E+02  0.18726482344E+02  0.00000000000E+00 0.  1.
         11    1    3    3    0    0 -0.30244834614E+01 -0.66262220777E+01  0.62806079185E+01  0.96177105029E+01  0.51100000000E-03 0. -1.
        -11    1    3    3    0    0 -0.25599867050E+02 -0.15718301843E+02 -0.69959097593E+01  0.30844139790E+02  0.51100000000E-03 0.  1.
         12    1    3    3    0    0  0.23172289141E+02  0.15405626619E+02 -0.15801594721E+02  0.31999667362E+02  0.00000000000E+00 0. -1.
</event>
<event>
 7    1  0.3611369E-013  0.7246186E+02  0.7816164E-02  0.1226707E+00
        -11   -1    0    0    0    0  0.00000000000E+00  0.00000000000E+00  0.45593999997E+02  0.45594000000E+02  0.51100000000E-03 0. -1.
         11   -1    0    0    0    0 -0.00000000000E+00 -0.00000000000E+00 -0.45593999997E+02  0.45594000000E+02  0.51100000000E-03 0.  1.
    9900012    2    1    2    0    0  0.14549718664E+02  0.11726909865E+02 -0.12056283987E+01  0.72461861369E+02  0.70000379178E+02 0.  0.
        -12    1    1    2    0    0 -0.14549718664E+02 -0.11726909865E+02  0.12056283987E+01  0.18726138631E+02  0.00000000000E+00 0.  1.
         11    1    3    3    0    0  0.13791382437E+02  0.30073346570E+02 -0.25942363970E+01  0.33186419906E+02  0.51100000000E-03 0. -1.
        -11    1    3    3    0    0 -0.23247763260E+01  0.79557615792E+01 -0.76639037030E+01  0.11288673416E+02  0.51100000000E-03 0.  1.
        -12    1    3    3    0    0  0.30831125531E+01 -0.26302198284E+02  0.90525117013E+01  0.27986768047E+02  0.00000000000E+00 0.  1.
</event>
<event>
 7    1  0.3611369E-013  0.7246152E+02  0.7816164E-02  0.1226708E+00
        -11   -1    0    0    0    0  0.00000000000E+00  0.00000000000E+00  0.45593999997E+02  0.45594000000E+02  0.51100000000E-03 0. -1.
         11   -1    0    0    0    0 -0.00000000000E+00 -0.00000000000E+00 -0.45593999997E+02  0.45594000000E+02  0.51100000000E-03 0.  1.
    9900012    2    1    2    0    0 -0.15025095079E+02 -0.43791831078E+01  0.10283501569E+02  0.72461517914E+02  0.69999931764E+02 0.  0.
        -12    1    1    2    0    0  0.15025095079E+02  0.43791831078E+01 -0.10283501569E+02  0.18726482086E+02  0.00000000000E+00 0.  1.
         11    1    3    3    0    0  0.11089450629E+02  0.25947030231E+02  0.12631179279E+02  0.30915545981E+02  0.51100000000E-03 0. -1.
        -11    1    3    3    0    0 -0.28364958419E+01 -0.47783193231E+01 -0.41517094886E+01  0.69364786566E+01  0.51100000000E-03 0.  1.
        -12    1    3    3    0    0 -0.23278049866E+02 -0.25547894015E+02  0.18040317783E+01  0.34609493276E+02  0.00000000000E+00 0.  1.
</event>
<event>
 7    1  0.3611369E-013  0.7246158E+02  0.7816164E-02  0.1226708E+00
        -11   -1    0    0    0    0  0.00000000000E+00  0.00000000000E+00  0.45593999997E+02  0.45594000000E+02  0.51100000000E-03 0.  1.
         11   -1    0    0    0    0 -0.00000000000E+00 -0.00000000000E+00 -0.45593999997E+02  0.45594000000E+02  0.51100000000E-03 0. -1.
    9900012    2    1    2    0    0 -0.37573938798E+01  0.18170592325E+02 -0.25279273477E+01  0.72461578802E+02  0.70000011083E+02 0.  0.
        -12    1    1    2    0    0  0.37573938798E+01 -0.18170592325E+02  0.25279273477E+01  0.18726421198E+02  0.00000000000E+00 0.  1.
         11    1    3    3    0    0 -0.13302875564E+02 -0.88973474317E+00  0.11703700638E+02  0.17740764783E+02  0.51100000000E-03 0. -1.
        -11    1    3    3    0    0  0.12565357533E+02  0.80714213156E+01  0.16314610898E+02  0.22117924428E+02  0.51100000000E-03 0.  1.
         12    1    3    3    0    0 -0.30198758491E+01  0.10988905752E+02 -0.30546238884E+02  0.32602889591E+02  0.00000000000E+00 0. -1.
</event>
<event>
 7    1  0.3611369E-013  0.7246158E+02  0.7816164E-02  0.1226708E+00
        -11   -1    0    0    0    0  0.00000000000E+00  0.00000000000E+00  0.45593999997E+02  0.45594000000E+02  0.51100000000E-03 0.  1.
         11   -1    0    0    0    0 -0.00000000000E+00 -0.00000000000E+00 -0.45593999997E+02  0.45594000000E+02  0.51100000000E-03 0. -1.
    9900012    2    1    2    0    0 -0.43190191004E+00 -0.48458409287E+00 -0.18715170537E+02  0.72461575642E+02  0.70000006966E+02 0.  0.
        -12    1    1    2    0    0  0.43190191004E+00  0.48458409287E+00  0.18715170537E+02  0.18726424358E+02  0.00000000000E+00 0.  1.
         11    1    3    3    0    0 -0.15534747567E+01 -0.78584567625E+01 -0.13592185825E+02  0.15777076480E+02  0.51100000000E-03 0. -1.
        -11    1    3    3    0    0  0.18375739580E+02 -0.76119388322E+01 -0.20948257425E+02  0.28886656215E+02  0.51100000000E-03 0.  1.
         12    1    3    3    0    0 -0.17254166733E+02  0.14985811502E+02  0.15825272713E+02  0.27797842946E+02  0.00000000000E+00 0. -1.
</event>
<event>
 7    1  0.3611369E-013  0.7246159E+02  0.7816164E-02  0.1226708E+00
        -11   -1    0    0    0    0  0.00000000000E+00  0.00000000000E+00  0.45593999997E+02  0.45594000000E+02  0.51100000000E-03 0. -1.
         11   -1    0    0    0    0 -0.00000000000E+00 -0.00000000000E+00 -0.45593999997E+02  0.45594000000E+02  0.51100000000E-03 0.  1.
    9900012    2    1    2    0    0 -0.22046619599E+01  0.17939317322E+02 -0.48988488310E+01  0.72461591903E+02  0.70000028150E+02 0.  0.
        -12    1    1    2    0    0  0.22046619599E+01 -0.17939317322E+02  0.48988488310E+01  0.18726408097E+02  0.00000000000E+00 0.  1.
         11    1    3    3    0    0  0.21696023735E+01 -0.44294012951E+01 -0.19699346618E+01  0.53110651592E+01  0.51100000000E-03 0. -1.
        -11    1    3    3    0    0 -0.25692739699E+01 -0.22258516974E+02 -0.16830128891E+01  0.22469429883E+02  0.51100000000E-03 0.  1.
         12    1    3    3    0    0 -0.18049903635E+01  0.44627235591E+02 -0.12459012800E+01  0.44681096861E+02  0.00000000000E+00 0. -1.
</event>
<event>
 7    1  0.3611369E-013  0.7246169E+02  0.7816164E-02  0.1226708E+00
        -11   -1    0    0    0    0  0.00000000000E+00  0.00000000000E+00  0.45593999997E+02  0.45594000000E+02  0.51100000000E-03 0.  1.
         11   -1    0    0    0    0 -0.00000000000E+00 -0.00000000000E+00 -0.45593999997E+02  0.45594000000E+02  0.51100000000E-03 0. -1.
    9900012    2    1    2    0    0 -0.26842715016E+01 -0.13699138960E+02 -0.12482111271E+02  0.72461686334E+02  0.70000151163E+02 0.  0.
        -12    1    1    2    0    0  0.26842715016E+01  0.13699138960E+02  0.12482111271E+02  0.18726313666E+02  0.00000000000E+00 0.  1.
         11    1    3    3    0    0 -0.10363410188E+02 -0.73014073688E+01 -0.91071135031E+01  0.15609302896E+02  0.51100000000E-03 0. -1.
        -11    1    3    3    0    0  0.11460829469E+02  0.18182209702E+02 -0.17971226132E+02  0.28016215495E+02  0.51100000000E-03 0.  1.
         12    1    3    3    0    0 -0.37816907827E+01 -0.24579941293E+02  0.14596228364E+02  0.28836167942E+02  0.00000000000E+00 0. -1.
</event>
<event>
 7    1  0.3611369E-013  0.7246163E+02  0.7816164E-02  0.1226708E+00
        -11   -1    0    0    0    0  0.00000000000E+00  0.00000000000E+00  0.45593999997E+02  0.45594000000E+02  0.51100000000E-03 0. -1.
         11   -1    0    0    0    0 -0.00000000000E+00 -0.00000000000E+00 -0.45593999997E+02  0.45594000000E+02  0.51100000000E-03 0.  1.
    9900012    2    1    2    0    0  0.11387562149E+02  0.12037241638E+02  0.87238306392E+01  0.72461628783E+02  0.70000076192E+02 0.  0.
        -12    1    1    2    0    0 -0.11387562149E+02 -0.12037241638E+02 -0.87238306392E+01  0.18726371217E+02  0.00000000000E+00 0.  1.
         11    1    3    3    0    0 -0.37684265540E+01 -0.11172630404E+02 -0.54892093688E+01  0.13006157334E+02  0.51100000000E-03 0. -1.
        -11    1    3    3    0    0 -0.17843539491E+02  0.39753311093E+01 -0.10771595960E+01  0.18312712307E+02  0.51100000000E-03 0.  1.
         12    1    3    3    0    0  0.32999528194E+02  0.19234540932E+02  0.15290199604E+02  0.41142759142E+02  0.00000000000E+00 0. -1.
</event>
<event>
 7    1  0.3611369E-013  0.7246156E+02  0.7816164E-02  0.1226708E+00
        -11   -1    0    0    0    0  0.00000000000E+00  0.00000000000E+00  0.45593999997E+02  0.45594000000E+02  0.51100000000E-03 0.  1.
         11   -1    0    0    0    0 -0.00000000000E+00 -0.00000000000E+00 -0.45593999997E+02  0.45594000000E+02  0.51100000000E-03 0. -1.
    9900012    2    1    2    0    0 -0.51990776783E+01  0.64126439897E+01 -0.16808547850E+02  0.72461556331E+02  0.69999981810E+02 0.  0.
        -12    1    1    2    0    0  0.51990776783E+01 -0.64126439897E+01  0.16808547850E+02  0.18726443669E+02  0.00000000000E+00 0.  1.
         11    1    3    3    0    0 -0.58343004843E+01 -0.29105063296E+01  0.13792081646E+00  0.65214363179E+01  0.51100000000E-03 0. -1.
        -11    1    3    3    0    0  0.14514348613E+02 -0.68695181497E+01  0.18546736978E+02  0.24532387737E+02  0.51100000000E-03 0.  1.
         12    1    3    3    0    0 -0.13879125807E+02  0.16192668469E+02 -0.35493205645E+02  0.41407732276E+02  0.00000000000E+00 0. -1.
</event>
<event>
 7    1  0.3611369E-013  0.7246095E+02  0.7816164E-02  0.1226710E+00
        -11   -1    0    0    0    0  0.00000000000E+00  0.00000000000E+00  0.45593999997E+02  0.45594000000E+02  0.51100000000E-03 0.  1.
         11   -1    0    0    0    0 -0.00000000000E+00 -0.00000000000E+00 -0.45593999997E+02  0.45594000000E+02  0.51100000000E-03 0. -1.
    9900012    2    1    2    0    0  0.12072367508E+02 -0.97154137295E+01 -0.10515278555E+02  0.72460949931E+02  0.69999191857E+02 0.  0.
        -12    1    1    2    0    0 -0.12072367508E+02  0.97154137295E+01  0.10515278555E+02  0.18727050069E+02  0.00000000000E+00 0.  1.
         11    1    3    3    0    0 -0.20833219768E+01  0.67571767985E+01 -0.23417564793E+02  0.24461848046E+02  0.51100000000E-03 0. -1.
        -11    1    3    3    0    0  0.95966961983E+01 -0.87206231749E+01 -0.14326610122E+02  0.19323498760E+02  0.51100000000E-03 0.  1.
        -12    1    3    3    0    0  0.45589932862E+01 -0.77519673531E+01  0.27228896360E+02  0.28675603125E+02  0.00000000000E+00 0.  1.
</event>
<event>
 7    1  0.3611369E-013  0.7246162E+02  0.7816164E-02  0.1226708E+00
        -11   -1    0    0    0    0  0.00000000000E+00  0.00000000000E+00  0.45593999997E+02  0.45594000000E+02  0.51100000000E-03 0. -1.
         11   -1    0    0    0    0 -0.00000000000E+00 -0.00000000000E+00 -0.45593999997E+02  0.45594000000E+02  0.51100000000E-03 0.  1.
    9900012    2    1    2    0    0 -0.12348652740E+02  0.69518194339E+01 -0.12241745093E+02  0.72461619121E+02  0.70000063605E+02 0.  0.
        -12    1    1    2    0    0  0.12348652740E+02 -0.69518194339E+01  0.12241745093E+02  0.18726380879E+02  0.00000000000E+00 0.  1.
         11    1    3    3    0    0 -0.10384170024E+02 -0.12683936870E+02  0.39972027436E+01  0.16872784940E+02  0.51100000000E-03 0. -1.
        -11    1    3    3    0    0 -0.22133280843E+02 -0.31030163197E+01 -0.34551176720E+01  0.22615230919E+02  0.51100000000E-03 0.  1.
        -12    1    3    3    0    0  0.20168798128E+02  0.22738772623E+02 -0.12783830164E+02  0.32973603261E+02  0.00000000000E+00 0.  1.
</event>
<event>
 7    1  0.3611369E-013  0.7246159E+02  0.7816164E-02  0.1226708E+00
        -11   -1    0    0    0    0  0.00000000000E+00  0.00000000000E+00  0.45593999997E+02  0.45594000000E+02  0.51100000000E-03 0. -1.
         11   -1    0    0    0    0 -0.00000000000E+00 -0.00000000000E+00 -0.45593999997E+02  0.45594000000E+02  0.51100000000E-03 0.  1.
    9900012    2    1    2    0    0 -0.28077819226E+00  0.55960296166E+01  0.17868524777E+02  0.72461586527E+02  0.70000021145E+02 0.  0.
        -12    1    1    2    0    0  0.28077819226E+00 -0.55960296166E+01 -0.17868524777E+02  0.18726413473E+02  0.00000000000E+00 0.  1.
         11    1    3    3    0    0  0.11802775968E+02  0.61318886943E+01  0.23352566617E+02  0.26874671112E+02  0.51100000000E-03 0. -1.
        -11    1    3    3    0    0  0.72176757171E+01 -0.16156970605E+02  0.53627976031E+01  0.18490595996E+02  0.51100000000E-03 0.  1.
         12    1    3    3    0    0 -0.19301229877E+02  0.15621111527E+02 -0.10846839443E+02  0.27096319419E+02  0.00000000000E+00 0. -1.
</event>
<event>
 7    1  0.3611369E-013  0.7246162E+02  0.7816164E-02  0.1226708E+00
        -11   -1    0    0    0    0  0.00000000000E+00  0.00000000000E+00  0.45593999997E+02  0.45594000000E+02  0.51100000000E-03 0. -1.
         11   -1    0    0    0    0 -0.00000000000E+00 -0.00000000000E+00 -0.45593999997E+02  0.45594000000E+02  0.51100000000E-03 0.  1.
    9900012    2    1    2    0    0 -0.14131059028E+02 -0.11926831055E+02  0.29565437530E+01  0.72461620766E+02  0.70000065749E+02 0.  0.
        -12    1    1    2    0    0  0.14131059028E+02  0.11926831055E+02 -0.29565437530E+01  0.18726379234E+02  0.00000000000E+00 0.  1.
         11    1    3    3    0    0  0.72691384991E+01 -0.53741521335E+01  0.60020338466E+01  0.10851096545E+02  0.51100000000E-03 0. -1.
        -11    1    3    3    0    0  0.34915300155E-01  0.12200289292E+02  0.21033175754E+02  0.24315483965E+02  0.51100000000E-03 0.  1.
         12    1    3    3    0    0 -0.21435112827E+02 -0.18752968214E+02 -0.24078665847E+02  0.37295040256E+02  0.00000000000E+00 0. -1.
</event>
<event>
 7    1  0.3611369E-013  0.7246157E+02  0.7816164E-02  0.1226708E+00
        -11   -1    0    0    0    0  0.00000000000E+00  0.00000000000E+00  0.45593999997E+02  0.45594000000E+02  0.51100000000E-03 0.  1.
         11   -1    0    0    0    0 -0.00000000000E+00 -0.00000000000E+00 -0.45593999997E+02  0.45594000000E+02  0.51100000000E-03 0. -1.
    9900012    2    1    2    0    0 -0.49844935513E+01  0.74779205572E+01 -0.16429080421E+02  0.72461570674E+02  0.70000000494E+02 0.  0.
        -12    1    1    2    0    0  0.49844935513E+01 -0.74779205572E+01  0.16429080421E+02  0.18726429326E+02  0.00000000000E+00 0.  1.
         11    1    3    3    0    0 -0.14705499261E+02 -0.16490986875E+02 -0.24546164260E+02  0.33026028172E+02  0.51100000000E-03 0. -1.
        -11    1    3    3    0    0 -0.56023463934E+01  0.21268202820E+02  0.23838059024E+00  0.21994989472E+02  0.51100000000E-03 0.  1.
        -12    1    3    3    0    0  0.15323352104E+02  0.27007046122E+01  0.78787032489E+01  0.17440553030E+02  0.00000000000E+00 0.  1.
</event>
<event>
 7    1  0.3611369E-013  0.7246152E+02  0.7816164E-02  0.1226708E+00
        -11   -1    0    0    0    0  0.00000000000E+00  0.00000000000E+00  0.45593999997E+02  0.45594000000E+02  0.51100000000E-03 0.  1.
         11   -1    0    0    0    0 -0.00000000000E+00 -0.00000000000E+00 -0.45593999997E+02  0.45594000000E+02  0.51100000000E-03 0. -1.
    9900012    2    1    2    0    0  0.12613740304E+02 -0.42866060407E+01 -0.13160531621E+02  0.72461520663E+02  0.69999935346E+02 0.  0.
        -12    1    1    2    0    0 -0.12613740304E+02  0.42866060407E+01  0.13160531621E+02  0.18726479337E+02  0.00000000000E+00 0.  1.
         11    1    3    3    0    0  0.81671177148E+01  0.15732417556E+02 -0.16168874840E+02  0.23992567344E+02  0.51100000000E-03 0. -1.
        -11    1    3    3    0    0  0.12267452552E+01  0.97630458925E+01  0.13520820362E+02  0.16722277134E+02  0.51100000000E-03 0.  1.
         12    1    3    3    0    0  0.32198773344E+01 -0.29782069489E+02 -0.10512477143E+02  0.31746676185E+02  0.00000000000E+00 0. -1.
</event>
<event>
 7    1  0.3611369E-013  0.7246141E+02  0.7816164E-02  0.1226708E+00
        -11   -1    0    0    0    0  0.00000000000E+00  0.00000000000E+00  0.45593999997E+02  0.45594000000E+02  0.51100000000E-03 0.  1.
         11   -1    0    0    0    0 -0.00000000000E+00 -0.00000000000E+00 -0.45593999997E+02  0.45594000000E+02  0.51100000000E-03 0. -1.
    9900012    2    1    2    0    0  0.11410863620E+02 -0.77830022379E+00 -0.14828068647E+02  0.72461409825E+02  0.69999790958E+02 0.  0.
        -12    1    1    2    0    0 -0.11410863620E+02  0.77830022379E+00  0.14828068647E+02  0.18726590175E+02  0.00000000000E+00 0.  1.
         11    1    3    3    0    0 -0.11254112659E+02  0.10000563303E+02 -0.20869716479E+02  0.25733468175E+02  0.51100000000E-03 0. -1.
        -11    1    3    3    0    0  0.30517690311E+02 -0.68468072189E+01 -0.59772681032E+01  0.31842360548E+02  0.51100000000E-03 0.  1.
         12    1    3    3    0    0 -0.78527140321E+01 -0.39320563081E+01  0.12018915935E+02  0.14885581102E+02  0.00000000000E+00 0. -1.
</event>
<event>
 7    1  0.3611369E-013  0.7246147E+02  0.7816164E-02  0.1226708E+00
        -11   -1    0    0    0    0  0.00000000000E+00  0.00000000000E+00  0.45593999997E+02  0.45594000000E+02  0.51100000000E-03 0.  1.
         11   -1    0    0    0    0 -0.00000000000E+00 -0.00000000000E+00 -0.45593999997E+02  0.45594000000E+02  0.51100000000E-03 0. -1.
    9900012    2    1    2    0    0 -0.15798071573E+02  0.94153938780E+01  0.35290355691E+01  0.72461473377E+02  0.69999873747E+02 0.  0.
        -12    1    1    2    0    0  0.15798071573E+02 -0.94153938780E+01 -0.35290355691E+01  0.18726526623E+02  0.00000000000E+00 0.  1.
         11    1    3    3    0    0  0.79111311795E+01  0.10898262080E+02 -0.18477628817E+02  0.22864402023E+02  0.51100000000E-03 0. -1.
        -11    1    3    3    0    0 -0.23865684031E+02  0.84797339565E+01 -0.12306488334E+00  0.25327690528E+02  0.51100000000E-03 0.  1.
        -12    1    3    3    0    0  0.15648127832E+00 -0.99626021581E+01  0.22129729270E+02  0.24269380826E+02  0.00000000000E+00 0.  1.
</event>
<event>
 7    1  0.3611369E-013  0.7246154E+02  0.7816164E-02  0.1226708E+00
        -11   -1    0    0    0    0  0.00000000000E+00  0.00000000000E+00  0.45593999997E+02  0.45594000000E+02  0.51100000000E-03 0. -1.
         11   -1    0    0    0    0 -0.00000000000E+00 -0.00000000000E+00 -0.45593999997E+02  0.45594000000E+02  0.51100000000E-03 0.  1.
    9900012    2    1    2    0    0  0.12949289516E+02 -0.27744994043E+01  0.13240023656E+02  0.72461543519E+02  0.69999965120E+02 0.  0.
        -12    1    1    2    0    0 -0.12949289516E+02  0.27744994043E+01 -0.13240023656E+02  0.18726456481E+02  0.00000000000E+00 0.  1.
         11    1    3    3    0    0  0.14880143133E+02 -0.23884818395E+02  0.55156516363E+01  0.28676220509E+02  0.51100000000E-03 0. -1.
        -11    1    3    3    0    0 -0.37344682196E+01 -0.26609769279E+01 -0.11998412897E+02  0.12844802973E+02  0.51100000000E-03 0.  1.
         12    1    3    3    0    0  0.18036146025E+01  0.23771295919E+02  0.19722784917E+02  0.30940520037E+02  0.00000000000E+00 0. -1.
</event>
<event>
 7    1  0.3611369E-013  0.7246156E+02  0.7816164E-02  0.1226708E+00
        -11   -1    0    0    0    0  0.00000000000E+00  0.00000000000E+00  0.45593999997E+02  0.45594000000E+02  0.51100000000E-03 0. -1.
         11   -1    0    0    0    0 -0.00000000000E+00 -0.00000000000E+00 -0.45593999997E+02  0.45594000000E+02  0.51100000000E-03 0.  1.
    9900012    2    1    2    0    0 -0.13585947507E+02 -0.60788353633E+01  0.11364394779E+02  0.72461556726E+02  0.69999982324E+02 0.  0.
        -12    1    1    2    0    0  0.13585947507E+02  0.60788353633E+01 -0.11364394779E+02  0.18726443274E+02  0.00000000000E+00 0.  1.
         11    1    3    3    0    0 -0.21440317148E+02  0.31946691422E+00  0.35548308838E+01  0.21735364763E+02  0.51100000000E-03 0. -1.
        -11    1    3    3    0    0 -0.69281830370E+01 -0.14678911962E+02 -0.15141908048E+02  0.22197917834E+02  0.51100000000E-03 0.  1.
        -12    1    3    3    0    0  0.14782552678E+02  0.82806096844E+01  0.22951471942E+02  0.28528274128E+02  0.00000000000E+00 0.  1.
</event>
<event>
 7    1  0.3611369E-013  0.7246163E+02  0.7816164E-02  0.1226708E+00
        -11   -1    0    0    0    0  0.00000000000E+00  0.00000000000E+00  0.45593999997E+02  0.45594000000E+02  0.51100000000E-03 0.  1.
         11   -1    0    0    0    0 -0.00000000000E+00 -0.00000000000E+00 -0.45593999997E+02  0.45594000000E+02  0.51100000000E-03 0. -1.
    9900012    2    1    2    0    0  0.21213556311E+01 -0.14517775830E+02 -0.11636615678E+02  0.72461633849E+02  0.70000082792E+02 0.  0.
        -12    1    1    2    0    0 -0.21213556311E+01  0.14517775830E+02  0.11636615678E+02  0.18726366151E+02  0.00000000000E+00 0.  1.
         11    1    3    3    0    0 -0.23968718551E+01  0.21929543519E+01  0.10033846818E+02  0.10546664198E+02  0.51100000000E-03 0. -1.
        -11    1    3    3    0    0 -0.86993898240E+00 -0.35045016518E+02 -0.29761418427E+01  0.35181918610E+02  0.51100000000E-03 0.  1.
         12    1    3    3    0    0  0.53881664686E+01  0.18334286336E+02 -0.18694320653E+02  0.26733051042E+02  0.00000000000E+00 0. -1.
</event>
<event>
 7    1  0.3611369E-013  0.7246099E+02  0.7816164E-02  0.1226710E+00
        -11   -1    0    0    0    0  0.00000000000E+00  0.00000000000E+00  0.45593999997E+02  0.45594000000E+02  0.51100000000E-03 0.  1.
         11   -1    0    0    0    0 -0.00000000000E+00 -0.00000000000E+00 -0.45593999997E+02  0.45594000000E+02  0.51100000000E-03 0. -1.
    9900012    2    1    2    0    0 -0.65043613775E+01 -0.14303900101E+02 -0.10187858331E+02  0.72460994570E+02  0.69999250008E+02 0.  0.
        -12    1    1    2    0    0  0.65043613775E+01  0.14303900101E+02  0.10187858331E+02  0.18727005430E+02  0.00000000000E+00 0.  1.
         11    1    3    3    0    0 -0.15362508353E+01 -0.10958224071E+01 -0.27196203352E+02  0.27261591487E+02  0.51100000000E-03 0. -1.
        -11    1    3    3    0    0 -0.55138110781E+01 -0.19275036776E+01 -0.12394661324E+02  0.13702007613E+02  0.51100000000E-03 0.  1.
        -12    1    3    3    0    0  0.54570053586E+00 -0.11280574016E+02  0.29403006346E+02  0.31497395470E+02  0.00000000000E+00 0.  1.
</event>
<event>
 7    1  0.3611369E-013  0.7246161E+02  0.7816164E-02  0.1226708E+00
        -11   -1    0    0    0    0  0.00000000000E+00  0.00000000000E+00  0.45593999997E+02  0.45594000000E+02  0.51100000000E-03 0.  1.
         11   -1    0    0    0    0 -0.00000000000E+00 -0.00000000000E+00 -0.45593999997E+02  0.45594000000E+02  0.51100000000E-03 0. -1.
    9900012    2    1    2    0    0  0.52617367964E+01 -0.99186023036E+01 -0.14987097626E+02  0.72461611106E+02  0.70000053165E+02 0.  0.
        -12    1    1    2    0    0 -0.52617367964E+01  0.99186023036E+01  0.14987097626E+02  0.18726388894E+02  0.00000000000E+00 0.  1.
         11    1    3    3    0    0 -0.57333876783E+01 -0.52899255714E+01  0.21292372581E+02  0.22676423378E+02  0.51100000000E-03 0. -1.
        -11    1    3    3    0    0 -0.40278079504E+01 -0.63069352406E+01  0.27170509306E+01  0.79613463079E+01  0.51100000000E-03 0.  1.
         12    1    3    3    0    0  0.15022932425E+02  0.16782585084E+01 -0.38996521138E+02  0.41823841420E+02  0.00000000000E+00 0. -1.
</event>
<event>
 7    1  0.3611369E-013  0.7246167E+02  0.7816164E-02  0.1226708E+00
        -11   -1    0    0    0    0  0.00000000000E+00  0.00000000000E+00  0.45593999997E+02  0.45594000000E+02  0.51100000000E-03 0.  1.
         11   -1    0    0    0    0 -0.00000000000E+00 -0.00000000000E+00 -0.45593999997E+02  0.45594000000E+02  0.51100000000E-03 0. -1.
    9900012    2    1    2    0    0  0.10504432974E+00 -0.17722941662E+02  0.60466327073E+01  0.72461669272E+02  0.70000128936E+02 0.  0.
        -12    1    1    2    0    0 -0.10504432974E+00  0.17722941662E+02 -0.60466327073E+01  0.18726330728E+02  0.00000000000E+00 0.  1.
         11    1    3    3    0    0  0.31625734102E+01 -0.17592983984E+02 -0.72245828657E+01  0.19279770587E+02  0.51100000000E-03 0. -1.
        -11    1    3    3    0    0  0.15741669620E+02 -0.15602027827E+02  0.17788193737E+02  0.28419065280E+02  0.51100000000E-03 0.  1.
         12    1    3    3    0    0 -0.18799198700E+02  0.15472070149E+02 -0.45169781642E+01  0.24762833404E+02  0.00000000000E+00 0. -1.
</event>
<event>
 7    1  0.3611369E-013  0.7246186E+02  0.7816164E-02  0.1226707E+00
        -11   -1    0    0    0    0  0.00000000000E+00  0.00000000000E+00  0.45593999997E+02  0.45594000000E+02  0.51100000000E-03 0.  1.
         11   -1    0    0    0    0 -0.00000000000E+00 -0.00000000000E+00 -0.45593999997E+02  0.45594000000E+02  0.51100000000E-03 0. -1.
    9900012    2    1    2    0    0  0.18014993836E+02  0.48313351122E+01 -0.16692626150E+01  0.72461862129E+02  0.70000380168E+02 0.  0.
        -12    1    1    2    0    0 -0.18014993836E+02 -0.48313351122E+01  0.16692626150E+01  0.18726137871E+02  0.00000000000E+00 0.  1.
         11    1    3    3    0    0  0.11308064952E+02  0.24020450367E+01  0.72639399316E+01  0.13653094041E+02  0.51100000000E-03 0. -1.
        -11    1    3    3    0    0 -0.83333677694E+01 -0.18602044971E+02  0.13606628535E+02  0.24507579151E+02  0.51100000000E-03 0.  1.
         12    1    3    3    0    0  0.15040296654E+02  0.21031335047E+02 -0.22539831081E+02  0.34301188937E+02  0.00000000000E+00 0. -1.
</event>
<event>
 7    1  0.3611369E-013  0.7246155E+02  0.7816164E-02  0.1226708E+00
        -11   -1    0    0    0    0  0.00000000000E+00  0.00000000000E+00  0.45593999997E+02  0.45594000000E+02  0.51100000000E-03 0. -1.
         11   -1    0    0    0    0 -0.00000000000E+00 -0.00000000000E+00 -0.45593999997E+02  0.45594000000E+02  0.51100000000E-03 0.  1.
    9900012    2    1    2    0    0 -0.12900710093E+02 -0.13549796658E+02  0.80913536197E+00  0.72461547842E+02  0.69999970752E+02 0.  0.
        -12    1    1    2    0    0  0.12900710093E+02  0.13549796658E+02 -0.80913536197E+00  0.18726452158E+02  0.00000000000E+00 0.  1.
         11    1    3    3    0    0  0.16996942404E+02 -0.22763098912E+01  0.25337219339E+01  0.17334860394E+02  0.51100000000E-03 0.  1.
        -11    1    3    3    0    0 -0.13235740744E+02 -0.26893481392E+02  0.68232207929E+01  0.30740860702E+02  0.51100000000E-03 0. -1.
        -12    1    3    3    0    0 -0.16661911753E+02  0.15619994625E+02 -0.85478073649E+01  0.24385826746E+02  0.00000000000E+00 0.  1.
</event>
<event>
 7    1  0.3611369E-013  0.7246161E+02  0.7816164E-02  0.1226708E+00
        -11   -1    0    0    0    0  0.00000000000E+00  0.00000000000E+00  0.45593999997E+02  0.45594000000E+02  0.51100000000E-03 0.  1.
         11   -1    0    0    0    0 -0.00000000000E+00 -0.00000000000E+00 -0.45593999997E+02  0.45594000000E+02  0.51100000000E-03 0. -1.
    9900012    2    1    2    0    0  0.15539389307E+02 -0.77100876699E+01 -0.70540401415E+01  0.72461613423E+02  0.70000056183E+02 0.  0.
        -12    1    1    2    0    0 -0.15539389307E+02  0.77100876699E+01  0.70540401415E+01  0.18726386577E+02  0.00000000000E+00 0.  1.
         11    1    3    3    0    0  0.15567948687E+01  0.81459331916E+01 -0.30499707672E+02  0.31607151187E+02  0.51100000000E-03 0. -1.
        -11    1    3    3    0    0  0.69555343062E+01  0.67521483783E+01  0.54894269917E+01  0.11140232231E+02  0.51100000000E-03 0.  1.
         12    1    3    3    0    0  0.70270601321E+01 -0.22608169240E+02  0.17956240539E+02  0.29714230005E+02  0.00000000000E+00 0. -1.
</event>
<event>
 7    1  0.3611369E-013  0.7246159E+02  0.7816164E-02  0.1226708E+00
        -11   -1    0    0    0    0  0.00000000000E+00  0.00000000000E+00  0.45593999997E+02  0.45594000000E+02  0.51100000000E-03 0.  1.
         11   -1    0    0    0    0 -0.00000000000E+00 -0.00000000000E+00 -0.45593999997E+02  0.45594000000E+02  0.51100000000E-03 0. -1.
    9900012    2    1    2    0    0  0.11027046002E+02 -0.13844706115E+02 -0.61161248857E+01  0.72461585112E+02  0.70000019302E+02 0.  0.
        -12    1    1    2    0    0 -0.11027046002E+02  0.13844706115E+02  0.61161248857E+01  0.18726414888E+02  0.00000000000E+00 0.  1.
         11    1    3    3    0    0  0.11194599649E+02  0.11213206879E+01  0.37899820257E+01  0.11871831595E+02  0.51100000000E-03 0.  1.
        -11    1    3    3    0    0  0.21316076091E+02  0.10148062418E+01  0.13310010037E+02  0.25150771341E+02  0.51100000000E-03 0. -1.
         12    1    3    3    0    0 -0.21483629738E+02 -0.15980833045E+02 -0.23216116948E+02  0.35438982176E+02  0.00000000000E+00 0. -1.
</event>
<event>
 7    1  0.3611369E-013  0.7246170E+02  0.7816164E-02  0.1226708E+00
        -11   -1    0    0    0    0  0.00000000000E+00  0.00000000000E+00  0.45593999997E+02  0.45594000000E+02  0.51100000000E-03 0. -1.
         11   -1    0    0    0    0 -0.00000000000E+00 -0.00000000000E+00 -0.45593999997E+02  0.45594000000E+02  0.51100000000E-03 0.  1.
    9900012    2    1    2    0    0 -0.57555191417E+01 -0.21557896550E+01  0.17689002315E+02  0.72461702114E+02  0.70000171719E+02 0.  0.
        -12    1    1    2    0    0  0.57555191417E+01  0.21557896550E+01 -0.17689002315E+02  0.18726297886E+02  0.00000000000E+00 0.  1.
         11    1    3    3    0    0 -0.21114797068E+02 -0.37600396776E+01 -0.51297411253E+01  0.22051911434E+02  0.51100000000E-03 0. -1.
        -11    1    3    3    0    0  0.82888989741E+01  0.21921317766E+02  0.12080392841E+02  0.26366378406E+02  0.51100000000E-03 0.  1.
         12    1    3    3    0    0  0.70703789525E+01 -0.20317067743E+02  0.10738350599E+02  0.24043412274E+02  0.00000000000E+00 0. -1.
</event>
<event>
 7    1  0.3611369E-013  0.7246155E+02  0.7816164E-02  0.1226708E+00
        -11   -1    0    0    0    0  0.00000000000E+00  0.00000000000E+00  0.45593999997E+02  0.45594000000E+02  0.51100000000E-03 0.  1.
         11   -1    0    0    0    0 -0.00000000000E+00 -0.00000000000E+00 -0.45593999997E+02  0.45594000000E+02  0.51100000000E-03 0. -1.
    9900012    2    1    2    0    0 -0.78256110692E-01 -0.52330346055E+01 -0.17980244990E+02  0.72461548518E+02  0.69999971633E+02 0.  0.
        -12    1    1    2    0    0  0.78256110692E-01  0.52330346055E+01  0.17980244990E+02  0.18726451482E+02  0.00000000000E+00 0.  1.
         11    1    3    3    0    0  0.70888323792E+01 -0.27334035282E+02 -0.15593363928E+02  0.32257619691E+02  0.51100000000E-03 0. -1.
        -11    1    3    3    0    0 -0.42336409320E+01 -0.82432501069E+01  0.17753291696E+01  0.94353951580E+01  0.51100000000E-03 0.  1.
        -12    1    3    3    0    0 -0.29334475579E+01  0.30344250783E+02 -0.41622102310E+01  0.30768533669E+02  0.00000000000E+00 0.  1.
</event>
<event>
 7    1  0.3611369E-013  0.7246157E+02  0.7816164E-02  0.1226708E+00
        -11   -1    0    0    0    0  0.00000000000E+00  0.00000000000E+00  0.45593999997E+02  0.45594000000E+02  0.51100000000E-03 0.  1.
         11   -1    0    0    0    0 -0.00000000000E+00 -0.00000000000E+00 -0.45593999997E+02  0.45594000000E+02  0.51100000000E-03 0. -1.
    9900012    2    1    2    0    0 -0.12732469319E+02 -0.51526144489E+01 -0.12728477606E+02  0.72461565401E+02  0.69999993625E+02 0.  0.
        -12    1    1    2    0    0  0.12732469319E+02  0.51526144489E+01  0.12728477606E+02  0.18726434599E+02  0.00000000000E+00 0.  1.
         11    1    3    3    0    0  0.99395502031E+01  0.39001927563E+01 -0.51079413381E+01  0.11836267433E+02  0.51100000000E-03 0. -1.
        -11    1    3    3    0    0 -0.42482365685E+01  0.13970020041E+02  0.16857554557E+02  0.22302155048E+02  0.51100000000E-03 0.  1.
         12    1    3    3    0    0 -0.18423782954E+02 -0.23022827246E+02 -0.24478090825E+02  0.38323142919E+02  0.00000000000E+00 0. -1.
</event>
<event>
 7    1  0.3611369E-013  0.7246162E+02  0.7816164E-02  0.1226708E+00
        -11   -1    0    0    0    0  0.00000000000E+00  0.00000000000E+00  0.45593999997E+02  0.45594000000E+02  0.51100000000E-03 0. -1.
         11   -1    0    0    0    0 -0.00000000000E+00 -0.00000000000E+00 -0.45593999997E+02  0.45594000000E+02  0.51100000000E-03 0.  1.
    9900012    2    1    2    0    0  0.14316504133E+02  0.59183547827E+01 -0.10520843137E+02  0.72461618763E+02  0.70000063139E+02 0.  0.
        -12    1    1    2    0    0 -0.14316504133E+02 -0.59183547827E+01  0.10520843137E+02  0.18726381237E+02  0.00000000000E+00 0.  1.
         11    1    3    3    0    0 -0.12827253073E+01 -0.16824787185E+02  0.23156856569E+01  0.17031771732E+02  0.51100000000E-03 0. -1.
        -11    1    3    3    0    0  0.30874533247E+02  0.10191104908E+02 -0.14478165945E+02  0.35590907713E+02  0.51100000000E-03 0.  1.
         12    1    3    3    0    0 -0.15275303806E+02  0.12552037060E+02  0.16416371509E+01  0.19838939318E+02  0.00000000000E+00 0. -1.
</event>
<event>
 7    1  0.3611369E-013  0.7246154E+02  0.7816164E-02  0.1226708E+00
        -11   -1    0    0    0    0  0.00000000000E+00  0.00000000000E+00  0.45593999997E+02  0.45594000000E+02  0.51100000000E-03 0.  1.
         11   -1    0    0    0    0 -0.00000000000E+00 -0.00000000000E+00 -0.45593999997E+02  0.45594000000E+02  0.51100000000E-03 0. -1.
    9900012    2    1    2    0    0  0.40455203663E-01  0.12746764644E+02  0.13718546612E+02  0.72461543671E+02  0.69999965318E+02 0.  0.
        -12    1    1    2    0    0 -0.40455203663E-01 -0.12746764644E+02 -0.13718546612E+02  0.18726456329E+02  0.00000000000E+00 0.  1.
         11    1    3    3    0    0 -0.95094262750E+01 -0.10011234901E+02 -0.13899427009E+02  0.19592041337E+02  0.51100000000E-03 0. -1.
        -11    1    3    3    0    0  0.50705387436E+01 -0.53913288708E+01 -0.54656673166E+01  0.92005602884E+01  0.51100000000E-03 0.  1.
        -12    1    3    3    0    0  0.44793427350E+01  0.28149328416E+02  0.33083640937E+02  0.43668942045E+02  0.00000000000E+00 0.  1.
</event>
<event>
 7    1  0.3611369E-013  0.7246161E+02  0.7816164E-02  0.1226708E+00
        -11   -1    0    0    0    0  0.00000000000E+00  0.00000000000E+00  0.45593999997E+02  0.45594000000E+02  0.51100000000E-03 0.  1.
         11   -1    0    0    0    0 -0.00000000000E+00 -0.00000000000E+00 -0.45593999997E+02  0.45594000000E+02  0.51100000000E-03 0. -1.
    9900012    2    1    2    0    0  0.11454245740E+02  0.14863496316E+01 -0.14740040523E+02  0.72461607520E+02  0.70000048493E+02 0.  0.
        -12    1    1    2    0    0 -0.11454245740E+02 -0.14863496316E+01  0.14740040523E+02  0.18726392480E+02  0.00000000000E+00 0.  1.
         11    1    3    3    0    0 -0.76153472865E+01  0.17841343108E+02 -0.15315777622E+02  0.24715988401E+02  0.51100000000E-03 0. -1.
        -11    1    3    3    0    0  0.15126733865E+02  0.11879139867E+02  0.13386896605E+00  0.19234083357E+02  0.51100000000E-03 0.  1.
        -12    1    3    3    0    0  0.39428591614E+01 -0.28234133344E+02  0.44186813280E+00  0.28511535762E+02  0.00000000000E+00 0.  1.
</event>
<event>
 7    1  0.3611369E-013  0.7246157E+02  0.7816164E-02  0.1226708E+00
        -11   -1    0    0    0    0  0.00000000000E+00  0.00000000000E+00  0.45593999997E+02  0.45594000000E+02  0.51100000000E-03 0. -1.
         11   -1    0    0    0    0 -0.00000000000E+00 -0.00000000000E+00 -0.45593999997E+02  0.45594000000E+02  0.51100000000E-03 0.  1.
    9900012    2    1    2    0    0  0.11408328333E+02 -0.58357569590E+01  0.13655512515E+02  0.72461573841E+02  0.70000004620E+02 0.  0.
        -12    1    1    2    0    0 -0.11408328333E+02  0.58357569590E+01 -0.13655512515E+02  0.18726426159E+02  0.00000000000E+00 0.  1.
         11    1    3    3    0    0  0.16109612679E-01 -0.51560661616E+01 -0.86000084410E+01  0.10027234077E+02  0.51100000000E-03 0. -1.
        -11    1    3    3    0    0 -0.23223982649E+02  0.28430749906E+01  0.68340282385E+01  0.24374995133E+02  0.51100000000E-03 0.  1.
         12    1    3    3    0    0  0.34616201370E+02 -0.35227657880E+01  0.15421492718E+02  0.38059344631E+02  0.00000000000E+00 0. -1.
</event>
<event>
 7    1  0.7364055E-013  0.7246153E+02  0.7816164E-02  0.1226708E+00
        -11   -1    0    0    0    0  0.00000000000E+00  0.00000000000E+00  0.45593999997E+02  0.45594000000E+02  0.51100000000E-03 0. -1.
         11   -1    0    0    0    0 -0.00000000000E+00 -0.00000000000E+00 -0.45593999997E+02  0.45594000000E+02  0.51100000000E-03 0.  1.
    9900012    2    1    2    0    0  0.48437965908E+01 -0.83009277210E+01  0.16072118702E+02  0.72461527668E+02  0.69999944471E+02 0.  0.
        -12    1    1    2    0    0 -0.48437965908E+01  0.83009277210E+01 -0.16072118702E+02  0.18726472332E+02  0.00000000000E+00 0.  1.
         11    1    3    3    0    0  0.13865608727E+02 -0.14312691479E+02  0.33971815885E+02  0.39385181445E+02  0.51100000000E-03 0. -1.
        -11    1    3    3    0    0 -0.18173360170E+01 -0.89637681753E+01 -0.12725034888E+02  0.15670940088E+02  0.51100000000E-03 0.  1.
        -12    1    3    3    0    0 -0.72044761188E+01  0.14975531933E+02 -0.51746622951E+01  0.17405406134E+02  0.00000000000E+00 0.  1.
</event>
<event>
 7    1  0.3611369E-013  0.7246154E+02  0.7816164E-02  0.1226708E+00
        -11   -1    0    0    0    0  0.00000000000E+00  0.00000000000E+00  0.45593999997E+02  0.45594000000E+02  0.51100000000E-03 0. -1.
         11   -1    0    0    0    0 -0.00000000000E+00 -0.00000000000E+00 -0.45593999997E+02  0.45594000000E+02  0.51100000000E-03 0.  1.
    9900012    2    1    2    0    0  0.41441394086E+01  0.17896691638E+02  0.36352074464E+01  0.72461542882E+02  0.69999964290E+02 0.  0.
        -12    1    1    2    0    0 -0.41441394086E+01 -0.17896691638E+02 -0.36352074464E+01  0.18726457118E+02  0.00000000000E+00 0.  1.
         11    1    3    3    0    0  0.18666023619E+02  0.96732432210E+00 -0.79554553873E+01  0.20313675807E+02  0.51100000000E-03 0.  1.
        -11    1    3    3    0    0 -0.26361178530E+02 -0.16179509369E+00 -0.33096974050E+01  0.26568628273E+02  0.51100000000E-03 0. -1.
         12    1    3    3    0    0  0.11839294319E+02  0.17091162409E+02  0.14900360239E+02  0.25579238802E+02  0.00000000000E+00 0. -1.
</event>
<event>
 7    1  0.3611369E-013  0.7246159E+02  0.7816164E-02  0.1226708E+00
        -11   -1    0    0    0    0  0.00000000000E+00  0.00000000000E+00  0.45593999997E+02  0.45594000000E+02  0.51100000000E-03 0. -1.
         11   -1    0    0    0    0 -0.00000000000E+00 -0.00000000000E+00 -0.45593999997E+02  0.45594000000E+02  0.51100000000E-03 0.  1.
    9900012    2    1    2    0    0 -0.47028138015E+01 -0.18098996039E+02  0.99418997353E+00  0.72461587397E+02  0.70000022280E+02 0.  0.
        -12    1    1    2    0    0  0.47028138015E+01  0.18098996039E+02 -0.99418997353E+00  0.18726412603E+02  0.00000000000E+00 0.  1.
         11    1    3    3    0    0  0.37360833646E+01 -0.18091769554E+02  0.24149564624E+01  0.18630685964E+02  0.51100000000E-03 0. -1.
        -11    1    3    3    0    0  0.15082898748E+02 -0.17003971997E+02  0.66993296602E+01  0.23696200465E+02  0.51100000000E-03 0.  1.
        -12    1    3    3    0    0 -0.23521795914E+02  0.16996745512E+02 -0.81200961490E+01  0.30134700969E+02  0.00000000000E+00 0.  1.
</event>
<event>
 7    1  0.3611369E-013  0.7246154E+02  0.7816164E-02  0.1226708E+00
        -11   -1    0    0    0    0  0.00000000000E+00  0.00000000000E+00  0.45593999997E+02  0.45594000000E+02  0.51100000000E-03 0. -1.
         11   -1    0    0    0    0 -0.00000000000E+00 -0.00000000000E+00 -0.45593999997E+02  0.45594000000E+02  0.51100000000E-03 0.  1.
    9900012    2    1    2    0    0 -0.17302914155E+01  0.84023671768E+01  0.16645921537E+02  0.72461537804E+02  0.69999957676E+02 0.  0.
        -12    1    1    2    0    0  0.17302914155E+01 -0.84023671768E+01 -0.16645921537E+02  0.18726462196E+02  0.00000000000E+00 0.  1.
         11    1    3    3    0    0 -0.32153621605E+02  0.12689673264E+02  0.11339458864E+02  0.36379479346E+02  0.51100000000E-03 0. -1.
        -11    1    3    3    0    0 -0.12587839327E+01 -0.33008746493E+01 -0.11859935205E+01  0.37265119525E+01  0.51100000000E-03 0.  1.
        -12    1    3    3    0    0  0.31682114123E+02 -0.98643143776E+00  0.64924561930E+01  0.32355546506E+02  0.00000000000E+00 0.  1.
</event>
<event>
 7    1  0.3611369E-013  0.7246156E+02  0.7816164E-02  0.1226708E+00
        -11   -1    0    0    0    0  0.00000000000E+00  0.00000000000E+00  0.45593999997E+02  0.45594000000E+02  0.51100000000E-03 0.  1.
         11   -1    0    0    0    0 -0.00000000000E+00 -0.00000000000E+00 -0.45593999997E+02  0.45594000000E+02  0.51100000000E-03 0. -1.
    9900012    2    1    2    0    0  0.18297878008E+02 -0.34782003409E+01  0.19414431973E+01  0.72461563636E+02  0.69999991326E+02 0.  0.
        -12    1    1    2    0    0 -0.18297878008E+02  0.34782003409E+01 -0.19414431973E+01  0.18726436364E+02  0.00000000000E+00 0.  1.
         11    1    3    3    0    0  0.19948279727E+02  0.12764884767E+02  0.27227055993E+01  0.23838818621E+02  0.51100000000E-03 0. -1.
        -11    1    3    3    0    0 -0.10799898392E+02  0.59774508044E+01 -0.15977669308E+02  0.20190434373E+02  0.51100000000E-03 0.  1.
        -12    1    3    3    0    0  0.91494966726E+01 -0.22220535912E+02  0.15196406906E+02  0.28432310642E+02  0.00000000000E+00 0.  1.
</event>
<event>
 7    1  0.3723853E-013  0.7246149E+02  0.7816164E-02  0.1226708E+00
        -11   -1    0    0    0    0  0.00000000000E+00  0.00000000000E+00  0.45593999997E+02  0.45594000000E+02  0.51100000000E-03 0. -1.
         11   -1    0    0    0    0 -0.00000000000E+00 -0.00000000000E+00 -0.45593999997E+02  0.45594000000E+02  0.51100000000E-03 0.  1.
    9900012    2    1    2    0    0 -0.44934231574E+01  0.17995504220E+02 -0.25793560562E+01  0.72461492011E+02  0.69999898021E+02 0.  0.
        -12    1    1    2    0    0  0.44934231574E+01 -0.17995504220E+02  0.25793560562E+01  0.18726507989E+02  0.00000000000E+00 0.  1.
         11    1    3    3    0    0  0.17554062298E+02  0.27652622537E+02 -0.12253768746E+02  0.34970952018E+02  0.51100000000E-03 0. -1.
        -11    1    3    3    0    0  0.29365127334E+01 -0.10789270174E+02  0.22939084623E+01  0.11414616692E+02  0.51100000000E-03 0.  1.
        -12    1    3    3    0    0 -0.24983998189E+02  0.11321518580E+01  0.73805042276E+01  0.26075923301E+02  0.00000000000E+00 0.  1.
</event>
<event>
 7    1  0.3611369E-013  0.7246157E+02  0.7816164E-02  0.1226708E+00
        -11   -1    0    0    0    0  0.00000000000E+00  0.00000000000E+00  0.45593999997E+02  0.45594000000E+02  0.51100000000E-03 0. -1.
         11   -1    0    0    0    0 -0.00000000000E+00 -0.00000000000E+00 -0.45593999997E+02  0.45594000000E+02  0.51100000000E-03 0.  1.
    9900012    2    1    2    0    0  0.12819220979E+02 -0.12225337452E+02 -0.60735424079E+01  0.72461568955E+02  0.69999998255E+02 0.  0.
        -12    1    1    2    0    0 -0.12819220979E+02  0.12225337452E+02  0.60735424079E+01  0.18726431045E+02  0.00000000000E+00 0.  1.
         11    1    3    3    0    0 -0.50581545601E+01 -0.41579995593E+01  0.31699052387E+01  0.72747637331E+01  0.51100000000E-03 0. -1.
        -11    1    3    3    0    0 -0.86448053129E+01  0.23225483011E+01  0.21492018518E+02  0.23281618280E+02  0.51100000000E-03 0.  1.
        -12    1    3    3    0    0  0.26522180852E+02 -0.10389886194E+02 -0.30735466165E+02  0.41905186941E+02  0.00000000000E+00 0.  1.
</event>
<event>
 7    1  0.3611369E-013  0.7246157E+02  0.7816164E-02  0.1226708E+00
        -11   -1    0    0    0    0  0.00000000000E+00  0.00000000000E+00  0.45593999997E+02  0.45594000000E+02  0.51100000000E-03 0.  1.
         11   -1    0    0    0    0 -0.00000000000E+00 -0.00000000000E+00 -0.45593999997E+02  0.45594000000E+02  0.51100000000E-03 0. -1.
    9900012    2    1    2    0    0  0.18253660060E+02 -0.25107428092E+01 -0.33435251219E+01  0.72461572276E+02  0.70000002582E+02 0.  0.
        -12    1    1    2    0    0 -0.18253660060E+02  0.25107428092E+01  0.33435251219E+01  0.18726427724E+02  0.00000000000E+00 0.  1.
         11    1    3    3    0    0 -0.17865076572E+01  0.10755618206E+02 -0.17538996663E+02  0.20651666683E+02  0.51100000000E-03 0. -1.
        -11    1    3    3    0    0 -0.12732041612E+02  0.13220576753E+01  0.88006462737E+01  0.15533965855E+02  0.51100000000E-03 0.  1.
        -12    1    3    3    0    0  0.32772209329E+02 -0.14588418690E+02  0.53948252673E+01  0.36275939738E+02  0.00000000000E+00 0.  1.
</event>
<event>
 7    1  0.3611369E-013  0.7246154E+02  0.7816164E-02  0.1226708E+00
        -11   -1    0    0    0    0  0.00000000000E+00  0.00000000000E+00  0.45593999997E+02  0.45594000000E+02  0.51100000000E-03 0. -1.
         11   -1    0    0    0    0 -0.00000000000E+00 -0.00000000000E+00 -0.45593999997E+02  0.45594000000E+02  0.51100000000E-03 0.  1.
    9900012    2    1    2    0    0  0.11435415657E+01 -0.87124604832E+01  0.16536791708E+02  0.72461544517E+02  0.69999966420E+02 0.  0.
        -12    1    1    2    0    0 -0.11435415657E+01  0.87124604832E+01 -0.16536791708E+02  0.18726455483E+02  0.00000000000E+00 0.  1.
         11    1    3    3    0    0  0.52920202422E+01  0.12055667749E+02  0.51395586166E+01  0.14133635985E+02  0.51100000000E-03 0. -1.
        -11    1    3    3    0    0 -0.46661081934E+01 -0.36989182502E+01 -0.20933698748E+02  0.21764059948E+02  0.51100000000E-03 0.  1.
         12    1    3    3    0    0  0.51762951691E+00 -0.17069209982E+02  0.32330931839E+02  0.36563848584E+02  0.00000000000E+00 0. -1.
</event>
<event>
 7    1  0.3611369E-013  0.7246159E+02  0.7816164E-02  0.1226708E+00
        -11   -1    0    0    0    0  0.00000000000E+00  0.00000000000E+00  0.45593999997E+02  0.45594000000E+02  0.51100000000E-03 0. -1.
         11   -1    0    0    0    0 -0.00000000000E+00 -0.00000000000E+00 -0.45593999997E+02  0.45594000000E+02  0.51100000000E-03 0.  1.
    9900012    2    1    2    0    0  0.13120518711E+02 -0.31611322029E+01  0.12982201070E+02  0.72461593172E+02  0.70000029803E+02 0.  0.
        -12    1    1    2    0    0 -0.13120518711E+02  0.31611322029E+01 -0.12982201070E+02  0.18726406828E+02  0.00000000000E+00 0.  1.
         11    1    3    3    0    0  0.24755610664E+02 -0.16791480381E+02 -0.39810320829E+01  0.30176856851E+02  0.51100000000E-03 0.  1.
        -11    1    3    3    0    0  0.26748666061E+01  0.21796904523E+02  0.12257331176E+02  0.25149594947E+02  0.51100000000E-03 0. -1.
         12    1    3    3    0    0 -0.14309958559E+02 -0.81665563453E+01  0.47059019771E+01  0.17135141374E+02  0.00000000000E+00 0. -1.
</event>
<event>
 7    1  0.3611369E-013  0.7246153E+02  0.7816164E-02  0.1226708E+00
        -11   -1    0    0    0    0  0.00000000000E+00  0.00000000000E+00  0.45593999997E+02  0.45594000000E+02  0.51100000000E-03 0. -1.
         11   -1    0    0    0    0 -0.00000000000E+00 -0.00000000000E+00 -0.45593999997E+02  0.45594000000E+02  0.51100000000E-03 0.  1.
    9900012    2    1    2    0    0  0.11084038139E+02  0.12820108092E+01  0.15039320489E+02  0.72461531728E+02  0.69999949760E+02 0.  0.
        -12    1    1    2    0    0 -0.11084038139E+02 -0.12820108092E+01 -0.15039320489E+02  0.18726468272E+02  0.00000000000E+00 0.  1.
         11    1    3    3    0    0 -0.10544460592E+01  0.49296787745E+01  0.62661856689E+00  0.50799842914E+01  0.51100000000E-03 0. -1.
        -11    1    3    3    0    0  0.13556392585E+02  0.17413397181E+02 -0.18151603797E+02  0.28574164940E+02  0.51100000000E-03 0.  1.
         12    1    3    3    0    0 -0.14179083869E+01 -0.21061065147E+02  0.32564305719E+02  0.38807382497E+02  0.00000000000E+00 0. -1.
</event>
<event>
 7    1  0.3611369E-013  0.7246154E+02  0.7816164E-02  0.1226708E+00
        -11   -1    0    0    0    0  0.00000000000E+00  0.00000000000E+00  0.45593999997E+02  0.45594000000E+02  0.51100000000E-03 0. -1.
         11   -1    0    0    0    0 -0.00000000000E+00 -0.00000000000E+00 -0.45593999997E+02  0.45594000000E+02  0.51100000000E-03 0.  1.
    9900012    2    1    2    0    0  0.39809345406E+01 -0.69266664555E+01  0.16936754527E+02  0.72461542729E+02  0.69999964092E+02 0.  0.
        -12    1    1    2    0    0 -0.39809345406E+01  0.69266664555E+01 -0.16936754527E+02  0.18726457271E+02  0.00000000000E+00 0.  1.
         11    1    3    3    0    0  0.84384073890E+01 -0.13317318749E+02  0.13732537788E+01  0.15825407550E+02  0.51100000000E-03 0. -1.
        -11    1    3    3    0    0 -0.11156002764E+02 -0.17423159993E+02 -0.82742835665E+01  0.22281980850E+02  0.51100000000E-03 0.  1.
         12    1    3    3    0    0  0.66985299152E+01  0.23813812287E+02  0.23837784315E+02  0.34354154329E+02  0.00000000000E+00 0. -1.
</event>
<event>
 7    1  0.3611369E-013  0.7246159E+02  0.7816164E-02  0.1226708E+00
        -11   -1    0    0    0    0  0.00000000000E+00  0.00000000000E+00  0.45593999997E+02  0.45594000000E+02  0.51100000000E-03 0. -1.
         11   -1    0    0    0    0 -0.00000000000E+00 -0.00000000000E+00 -0.45593999997E+02  0.45594000000E+02  0.51100000000E-03 0.  1.
    9900012    2    1    2    0    0 -0.43930345523E+01 -0.13702016111E+02  0.11984766093E+02  0.72461585063E+02  0.70000019239E+02 0.  0.
        -12    1    1    2    0    0  0.43930345523E+01  0.13702016111E+02 -0.11984766093E+02  0.18726414937E+02  0.00000000000E+00 0.  1.
         11    1    3    3    0    0  0.27887336404E+01 -0.16128615802E+02  0.30230544283E+02  0.34377246703E+02  0.51100000000E-03 0. -1.
        -11    1    3    3    0    0 -0.17817885046E+02  0.27570322670E+01 -0.13029434678E+01  0.18076944331E+02  0.51100000000E-03 0.  1.
        -12    1    3    3    0    0  0.10636116853E+02 -0.33043257599E+00 -0.16942834722E+02  0.20007394029E+02  0.00000000000E+00 0.  1.
</event>
<event>
 7    1  0.3611369E-013  0.7246157E+02  0.7816164E-02  0.1226708E+00
        -11   -1    0    0    0    0  0.00000000000E+00  0.00000000000E+00  0.45593999997E+02  0.45594000000E+02  0.51100000000E-03 0.  1.
         11   -1    0    0    0    0 -0.00000000000E+00 -0.00000000000E+00 -0.45593999997E+02  0.45594000000E+02  0.51100000000E-03 0. -1.
    9900012    2    1    2    0    0 -0.48884981287E+01 -0.17821430784E+02  0.30295963531E+01  0.72461567793E+02  0.69999996741E+02 0.  0.
        -12    1    1    2    0    0  0.48884981287E+01  0.17821430784E+02 -0.30295963531E+01  0.18726432207E+02  0.00000000000E+00 0.  1.
         11    1    3    3    0    0  0.17936410201E+02 -0.29476058600E+02 -0.17555187779E+01  0.34549018625E+02  0.51100000000E-03 0. -1.
        -11    1    3    3    0    0 -0.59023714576E+01 -0.90814087560E+01  0.91804013293E+00  0.10869810107E+02  0.51100000000E-03 0.  1.
        -12    1    3    3    0    0 -0.16922536872E+02  0.20736036572E+02  0.38670749981E+01  0.27042739061E+02  0.00000000000E+00 0.  1.
</event>
<event>
 7    1  0.3611369E-013  0.7246150E+02  0.7816164E-02  0.1226708E+00
        -11   -1    0    0    0    0  0.00000000000E+00  0.00000000000E+00  0.45593999997E+02  0.45594000000E+02  0.51100000000E-03 0.  1.
         11   -1    0    0    0    0 -0.00000000000E+00 -0.00000000000E+00 -0.45593999997E+02  0.45594000000E+02  0.51100000000E-03 0. -1.
    9900012    2    1    2    0    0 -0.59464439147E+01 -0.14617075729E+02 -0.10082795349E+02  0.72461498454E+02  0.69999906415E+02 0.  0.
        -12    1    1    2    0    0  0.59464439147E+01  0.14617075729E+02  0.10082795349E+02  0.18726501546E+02  0.00000000000E+00 0.  1.
         11    1    3    3    0    0 -0.12676532616E+02 -0.81808326703E+01  0.23487920960E+01  0.15268835153E+02  0.51100000000E-03 0. -1.
        -11    1    3    3    0    0 -0.17755609394E+02 -0.16994604885E+02  0.53355966414E+01  0.25150484129E+02  0.51100000000E-03 0.  1.
         12    1    3    3    0    0  0.24485698096E+02  0.10558361827E+02 -0.17767184087E+02  0.32042179172E+02  0.00000000000E+00 0. -1.
</event>
<event>
 7    1  0.3611369E-013  0.7246158E+02  0.7816164E-02  0.1226708E+00
        -11   -1    0    0    0    0  0.00000000000E+00  0.00000000000E+00  0.45593999997E+02  0.45594000000E+02  0.51100000000E-03 0.  1.
         11   -1    0    0    0    0 -0.00000000000E+00 -0.00000000000E+00 -0.45593999997E+02  0.45594000000E+02  0.51100000000E-03 0. -1.
    9900012    2    1    2    0    0 -0.57863299842E+01 -0.11072681630E+02 -0.13949659294E+02  0.72461577822E+02  0.70000009806E+02 0.  0.
        -12    1    1    2    0    0  0.57863299842E+01  0.11072681630E+02  0.13949659294E+02  0.18726422178E+02  0.00000000000E+00 0.  1.
         11    1    3    3    0    0 -0.27385296217E+01 -0.18274596084E+02  0.14120828666E+02  0.23256358464E+02  0.51100000000E-03 0. -1.
        -11    1    3    3    0    0  0.12434569205E+02 -0.10940413503E+02 -0.11484749868E+02  0.20154667914E+02  0.51100000000E-03 0.  1.
         12    1    3    3    0    0 -0.15482369568E+02  0.18142327957E+02 -0.16585738093E+02  0.29050551444E+02  0.00000000000E+00 0. -1.
</event>
<event>
 7    1  0.3611369E-013  0.7246155E+02  0.7816164E-02  0.1226708E+00
        -11   -1    0    0    0    0  0.00000000000E+00  0.00000000000E+00  0.45593999997E+02  0.45594000000E+02  0.51100000000E-03 0. -1.
         11   -1    0    0    0    0 -0.00000000000E+00 -0.00000000000E+00 -0.45593999997E+02  0.45594000000E+02  0.51100000000E-03 0.  1.
    9900012    2    1    2    0    0  0.59421996885E+01  0.14905353804E+02  0.96540539129E+01  0.72461546355E+02  0.69999968815E+02 0.  0.
        -12    1    1    2    0    0 -0.59421996885E+01 -0.14905353804E+02 -0.96540539129E+01  0.18726453645E+02  0.00000000000E+00 0.  1.
         11    1    3    3    0    0  0.25791364818E+01  0.86898694852E+01  0.28636919898E+01  0.95061300609E+01  0.51100000000E-03 0. -1.
        -11    1    3    3    0    0  0.27768132629E+02 -0.13450683032E+02  0.68821906217E+01  0.31612570471E+02  0.51100000000E-03 0.  1.
         12    1    3    3    0    0 -0.24405069423E+02  0.19666167351E+02 -0.91828698592E-01  0.31342845823E+02  0.00000000000E+00 0. -1.
</event>
<event>
 7    1  0.3611369E-013  0.7246157E+02  0.7816164E-02  0.1226708E+00
        -11   -1    0    0    0    0  0.00000000000E+00  0.00000000000E+00  0.45593999997E+02  0.45594000000E+02  0.51100000000E-03 0.  1.
         11   -1    0    0    0    0 -0.00000000000E+00 -0.00000000000E+00 -0.45593999997E+02  0.45594000000E+02  0.51100000000E-03 0. -1.
    9900012    2    1    2    0    0  0.53159599006E+01 -0.96529536767E+01  0.15140685346E+02  0.72461566888E+02  0.69999995562E+02 0.  0.
        -12    1    1    2    0    0 -0.53159599006E+01  0.96529536767E+01 -0.15140685346E+02  0.18726433112E+02  0.00000000000E+00 0.  1.
         11    1    3    3    0    0  0.71206821006E+01  0.33880594114E+01  0.23015473120E+01  0.82146320942E+01  0.51100000000E-03 0. -1.
        -11    1    3    3    0    0  0.13294330845E+02  0.75260545117E+01  0.29884317225E+02  0.33562674885E+02  0.51100000000E-03 0.  1.
         12    1    3    3    0    0 -0.15099053045E+02 -0.20567067600E+02 -0.17045179191E+02  0.30684259909E+02  0.00000000000E+00 0. -1.
</event>
<event>
 7    1  0.3611369E-013  0.7246152E+02  0.7816164E-02  0.1226708E+00
        -11   -1    0    0    0    0  0.00000000000E+00  0.00000000000E+00  0.45593999997E+02  0.45594000000E+02  0.51100000000E-03 0. -1.
         11   -1    0    0    0    0 -0.00000000000E+00 -0.00000000000E+00 -0.45593999997E+02  0.45594000000E+02  0.51100000000E-03 0.  1.
    9900012    2    1    2    0    0  0.47948508220E+01  0.12974617558E+02  0.12623384609E+02  0.72461517838E+02  0.69999931666E+02 0.  0.
        -12    1    1    2    0    0 -0.47948508220E+01 -0.12974617558E+02 -0.12623384609E+02  0.18726482162E+02  0.00000000000E+00 0.  1.
         11    1    3    3    0    0  0.77280799506E+01  0.94737464305E+01  0.15442525295E+02  0.19696362072E+02  0.51100000000E-03 0. -1.
        -11    1    3    3    0    0 -0.80551497181E+01 -0.23679964142E+02 -0.20286588995E+01  0.25094652736E+02  0.51100000000E-03 0.  1.
         12    1    3    3    0    0  0.51219205894E+01  0.27180835269E+02 -0.79048178659E+00  0.27670503030E+02  0.00000000000E+00 0. -1.
</event>
<event>
 7    1  0.3611369E-013  0.7246155E+02  0.7816164E-02  0.1226708E+00
        -11   -1    0    0    0    0  0.00000000000E+00  0.00000000000E+00  0.45593999997E+02  0.45594000000E+02  0.51100000000E-03 0.  1.
         11   -1    0    0    0    0 -0.00000000000E+00 -0.00000000000E+00 -0.45593999997E+02  0.45594000000E+02  0.51100000000E-03 0. -1.
    9900012    2    1    2    0    0  0.32507710060E+01 -0.65719561740E+00  0.18430425706E+02  0.72461547856E+02  0.69999970770E+02 0.  0.
        -12    1    1    2    0    0 -0.32507710060E+01  0.65719561740E+00 -0.18430425706E+02  0.18726452144E+02  0.00000000000E+00 0.  1.
         11    1    3    3    0    0 -0.19491941769E+02  0.20003864914E+02 -0.57868591404E+01  0.28523291262E+02  0.51100000000E-03 0. -1.
        -11    1    3    3    0    0  0.39611000749E+00  0.54797082029E+00 -0.28493927673E+01  0.29285174682E+01  0.51100000000E-03 0.  1.
        -12    1    3    3    0    0  0.22346602767E+02 -0.21209031352E+02  0.27066677614E+02  0.41009739126E+02  0.00000000000E+00 0.  1.
</event>
<event>
 7    1  0.3611369E-013  0.7246160E+02  0.7816164E-02  0.1226708E+00
        -11   -1    0    0    0    0  0.00000000000E+00  0.00000000000E+00  0.45593999997E+02  0.45594000000E+02  0.51100000000E-03 0.  1.
         11   -1    0    0    0    0 -0.00000000000E+00 -0.00000000000E+00 -0.45593999997E+02  0.45594000000E+02  0.51100000000E-03 0. -1.
    9900012    2    1    2    0    0 -0.18401676338E+02 -0.31892185529E+00 -0.34575591516E+01  0.72461598357E+02  0.70000036557E+02 0.  0.
        -12    1    1    2    0    0  0.18401676338E+02  0.31892185529E+00  0.34575591516E+01  0.18726401643E+02  0.00000000000E+00 0.  1.
         11    1    3    3    0    0  0.17100671871E+02  0.68419471172E+01  0.96791679349E+01  0.20807006295E+02  0.51100000000E-03 0. -1.
        -11    1    3    3    0    0  0.42750313198E+01 -0.65043826524E+01 -0.86233603824E+01  0.11616592918E+02  0.51100000000E-03 0.  1.
        -12    1    3    3    0    0 -0.39777379529E+02 -0.65648632004E+00 -0.45133667041E+01  0.40037999144E+02  0.00000000000E+00 0.  1.
</event>
<event>
 7    1  0.3611369E-013  0.7246178E+02  0.7816164E-02  0.1226707E+00
        -11   -1    0    0    0    0  0.00000000000E+00  0.00000000000E+00  0.45593999997E+02  0.45594000000E+02  0.51100000000E-03 0. -1.
         11   -1    0    0    0    0 -0.00000000000E+00 -0.00000000000E+00 -0.45593999997E+02  0.45594000000E+02  0.51100000000E-03 0.  1.
    9900012    2    1    2    0    0 -0.97721162353E+00  0.16866551630E+02  0.80768690720E+01  0.72461779868E+02  0.70000273008E+02 0.  0.
        -12    1    1    2    0    0  0.97721162353E+00 -0.16866551630E+02 -0.80768690720E+01  0.18726220132E+02  0.00000000000E+00 0.  1.
         11    1    3    3    0    0 -0.15591451019E+01 -0.56458333441E+00 -0.35413210640E+00  0.16956112763E+01  0.51100000000E-03 0. -1.
        -11    1    3    3    0    0  0.20661795884E+01  0.20028671470E+02 -0.27847664091E+02  0.34364359074E+02  0.51100000000E-03 0.  1.
         12    1    3    3    0    0 -0.14842461100E+01 -0.25975365056E+01  0.36278665270E+02  0.36401809518E+02  0.00000000000E+00 0. -1.
</event>
<event>
 7    1  0.3611369E-013  0.7246153E+02  0.7816164E-02  0.1226708E+00
        -11   -1    0    0    0    0  0.00000000000E+00  0.00000000000E+00  0.45593999997E+02  0.45594000000E+02  0.51100000000E-03 0.  1.
         11   -1    0    0    0    0 -0.00000000000E+00 -0.00000000000E+00 -0.45593999997E+02  0.45594000000E+02  0.51100000000E-03 0. -1.
    9900012    2    1    2    0    0 -0.10304803250E+02 -0.28262019139E+01 -0.15378695265E+02  0.72461530623E+02  0.69999948321E+02 0.  0.
        -12    1    1    2    0    0  0.10304803250E+02  0.28262019139E+01  0.15378695265E+02  0.18726469377E+02  0.00000000000E+00 0.  1.
         11    1    3    3    0    0 -0.15799275361E+02 -0.48953875947E+01 -0.22871269015E+00  0.16541893222E+02  0.51100000000E-03 0. -1.
        -11    1    3    3    0    0 -0.14179496350E+02  0.16424561162E+02  0.72023431897E+01  0.22862591143E+02  0.51100000000E-03 0.  1.
        -12    1    3    3    0    0  0.19673968461E+02 -0.14355375481E+02 -0.22352325764E+02  0.33057046257E+02  0.00000000000E+00 0.  1.
</event>
<event>
 7    1  0.3611369E-013  0.7246157E+02  0.7816164E-02  0.1226708E+00
        -11   -1    0    0    0    0  0.00000000000E+00  0.00000000000E+00  0.45593999997E+02  0.45594000000E+02  0.51100000000E-03 0. -1.
         11   -1    0    0    0    0 -0.00000000000E+00 -0.00000000000E+00 -0.45593999997E+02  0.45594000000E+02  0.51100000000E-03 0.  1.
    9900012    2    1    2    0    0  0.13173926632E+02 -0.44389077653E+01  0.12546832292E+02  0.72461568263E+02  0.69999997353E+02 0.  0.
        -12    1    1    2    0    0 -0.13173926632E+02  0.44389077653E+01 -0.12546832292E+02  0.18726431737E+02  0.00000000000E+00 0.  1.
         11    1    3    3    0    0 -0.36002909405E+01  0.72436599016E+01  0.17787559203E+01  0.82823110610E+01  0.51100000000E-03 0. -1.
        -11    1    3    3    0    0  0.33266613112E+02 -0.44133809061E+01 -0.11552059451E+02  0.35490781293E+02  0.51100000000E-03 0.  1.
         12    1    3    3    0    0 -0.16492395540E+02 -0.72691867608E+01  0.22320135823E+02  0.28688475908E+02  0.00000000000E+00 0. -1.
</event>
<event>
 7    1  0.3611369E-013  0.7246156E+02  0.7816164E-02  0.1226708E+00
        -11   -1    0    0    0    0  0.00000000000E+00  0.00000000000E+00  0.45593999997E+02  0.45594000000E+02  0.51100000000E-03 0.  1.
         11   -1    0    0    0    0 -0.00000000000E+00 -0.00000000000E+00 -0.45593999997E+02  0.45594000000E+02  0.51100000000E-03 0. -1.
    9900012    2    1    2    0    0 -0.14049092795E+02 -0.11437677197E+02  0.47415433513E+01  0.72461556094E+02  0.69999981501E+02 0.  0.
        -12    1    1    2    0    0  0.14049092795E+02  0.11437677197E+02 -0.47415433513E+01  0.18726443906E+02  0.00000000000E+00 0.  1.
         11    1    3    3    0    0  0.92512487467E+01 -0.76155839240E+01 -0.10589773363E+01  0.12029304017E+02  0.51100000000E-03 0. -1.
        -11    1    3    3    0    0  0.12465838650E+02 -0.39661362073E+01 -0.14319306510E+02  0.19395100125E+02  0.51100000000E-03 0.  1.
         12    1    3    3    0    0 -0.35766180191E+02  0.14404293419E+00  0.20119827198E+02  0.41037151952E+02  0.00000000000E+00 0. -1.
</event>
<event>
 7    1  0.3611369E-013  0.7246155E+02  0.7816164E-02  0.1226708E+00
        -11   -1    0    0    0    0  0.00000000000E+00  0.00000000000E+00  0.45593999997E+02  0.45594000000E+02  0.51100000000E-03 0.  1.
         11   -1    0    0    0    0 -0.00000000000E+00 -0.00000000000E+00 -0.45593999997E+02  0.45594000000E+02  0.51100000000E-03 0. -1.
    9900012    2    1    2    0    0 -0.16490282040E+02 -0.88083504815E+01  0.10786011261E+01  0.72461552917E+02  0.69999977363E+02 0.  0.
        -12    1    1    2    0    0  0.16490282040E+02  0.88083504815E+01 -0.10786011261E+01  0.18726447083E+02  0.00000000000E+00 0.  1.
         11    1    3    3    0    0 -0.39438032423E+02  0.20272757449E+01 -0.55586073150E+01  0.39879397737E+02  0.51100000000E-03 0.  1.
        -11    1    3    3    0    0  0.87324822803E+01  0.44306815237E+00 -0.58805745594E+01  0.10537253607E+02  0.51100000000E-03 0. -1.
        -12    1    3    3    0    0  0.14215268103E+02 -0.11278694379E+02  0.12517783000E+02  0.22044901573E+02  0.00000000000E+00 0.  1.
</event>
<event>
 7    1  0.3611369E-013  0.7246160E+02  0.7816164E-02  0.1226708E+00
        -11   -1    0    0    0    0  0.00000000000E+00  0.00000000000E+00  0.45593999997E+02  0.45594000000E+02  0.51100000000E-03 0.  1.
         11   -1    0    0    0    0 -0.00000000000E+00 -0.00000000000E+00 -0.45593999997E+02  0.45594000000E+02  0.51100000000E-03 0. -1.
    9900012    2    1    2    0    0 -0.66423089655E+01  0.47962621154E+01 -0.16839046791E+02  0.72461604311E+02  0.70000044313E+02 0.  0.
        -12    1    1    2    0    0  0.66423089655E+01 -0.47962621154E+01  0.16839046791E+02  0.18726395689E+02  0.00000000000E+00 0.  1.
         11    1    3    3    0    0  0.87213644225E+01 -0.10500279935E+02 -0.29221090360E+02  0.32251979756E+02  0.51100000000E-03 0. -1.
        -11    1    3    3    0    0 -0.42200422578E+01 -0.32217157108E+01 -0.85873912163E+01  0.10096112962E+02  0.51100000000E-03 0.  1.
        -12    1    3    3    0    0 -0.11143631130E+02  0.18518257761E+02  0.20969434786E+02  0.30113511593E+02  0.00000000000E+00 0.  1.
</event>
<event>
 7    1  0.3611369E-013  0.7246158E+02  0.7816164E-02  0.1226708E+00
        -11   -1    0    0    0    0  0.00000000000E+00  0.00000000000E+00  0.45593999997E+02  0.45594000000E+02  0.51100000000E-03 0. -1.
         11   -1    0    0    0    0 -0.00000000000E+00 -0.00000000000E+00 -0.45593999997E+02  0.45594000000E+02  0.51100000000E-03 0.  1.
    9900012    2    1    2    0    0 -0.12309850332E+02  0.24440000197E+01  0.13898678213E+02  0.72461579964E+02  0.70000012596E+02 0.  0.
        -12    1    1    2    0    0  0.12309850332E+02 -0.24440000197E+01 -0.13898678213E+02  0.18726420036E+02  0.00000000000E+00 0.  1.
         11    1    3    3    0    0  0.31446811341E+01  0.35657392591E+00 -0.13359175197E+01  0.34352351128E+01  0.51100000000E-03 0. -1.
        -11    1    3    3    0    0 -0.35418453790E+02  0.15146749881E+02 -0.35189003803E+01  0.38681695425E+02  0.51100000000E-03 0.  1.
         12    1    3    3    0    0  0.19963922323E+02 -0.13059323787E+02  0.18753496113E+02  0.30344649426E+02  0.00000000000E+00 0. -1.
</event>
<event>
 7    1  0.3611369E-013  0.7246180E+02  0.7816164E-02  0.1226707E+00
        -11   -1    0    0    0    0  0.00000000000E+00  0.00000000000E+00  0.45593999997E+02  0.45594000000E+02  0.51100000000E-03 0. -1.
         11   -1    0    0    0    0 -0.00000000000E+00 -0.00000000000E+00 -0.45593999997E+02  0.45594000000E+02  0.51100000000E-03 0.  1.
    9900012    2    1    2    0    0  0.17116154678E+02 -0.65392503758E+01  0.38660322019E+01  0.72461795061E+02  0.70000292799E+02 0.  0.
        -12    1    1    2    0    0 -0.17116154678E+02  0.65392503758E+01 -0.38660322019E+01  0.18726204939E+02  0.00000000000E+00 0.  1.
         11    1    3    3    0    0  0.56106681913E+01  0.25866401293E+01  0.93635665500E+00  0.62487653787E+01  0.51100000000E-03 0. -1.
        -11    1    3    3    0    0  0.35786076502E+02 -0.51498866417E+01 -0.11188261857E+02  0.37846291859E+02  0.51100000000E-03 0.  1.
         12    1    3    3    0    0 -0.24280590015E+02 -0.39760038635E+01  0.14117937404E+02  0.28366737823E+02  0.00000000000E+00 0. -1.
</event>
<event>
 7    1  0.3611369E-013  0.7246155E+02  0.7816164E-02  0.1226708E+00
        -11   -1    0    0    0    0  0.00000000000E+00  0.00000000000E+00  0.45593999997E+02  0.45594000000E+02  0.51100000000E-03 0.  1.
         11   -1    0    0    0    0 -0.00000000000E+00 -0.00000000000E+00 -0.45593999997E+02  0.45594000000E+02  0.51100000000E-03 0. -1.
    9900012    2    1    2    0    0  0.40615693590E+01 -0.76323961407E+01 -0.16611146363E+02  0.72461548121E+02  0.69999971114E+02 0.  0.
        -12    1    1    2    0    0 -0.40615693590E+01  0.76323961407E+01  0.16611146363E+02  0.18726451879E+02  0.00000000000E+00 0.  1.
         11    1    3    3    0    0  0.22223294192E+02 -0.23868757332E+01  0.29943011623E+01  0.22550783140E+02  0.51100000000E-03 0. -1.
        -11    1    3    3    0    0  0.65682609545E+01  0.60558072421E+01  0.73910489310E+01  0.11594932422E+02  0.51100000000E-03 0.  1.
        -12    1    3    3    0    0 -0.24729985788E+02 -0.11301327650E+02 -0.26996496456E+02  0.38315832558E+02  0.00000000000E+00 0.  1.
</event>
<event>
 7    1  0.3611369E-013  0.7246158E+02  0.7816164E-02  0.1226708E+00
        -11   -1    0    0    0    0  0.00000000000E+00  0.00000000000E+00  0.45593999997E+02  0.45594000000E+02  0.51100000000E-03 0.  1.
         11   -1    0    0    0    0 -0.00000000000E+00 -0.00000000000E+00 -0.45593999997E+02  0.45594000000E+02  0.51100000000E-03 0. -1.
    9900012    2    1    2    0    0  0.16438228545E+02 -0.66972817189E+01 -0.59673938930E+01  0.72461582030E+02  0.70000015288E+02 0.  0.
        -12    1    1    2    0    0 -0.16438228545E+02  0.66972817189E+01  0.59673938930E+01  0.18726417970E+02  0.00000000000E+00 0.  1.
         11    1    3    3    0    0  0.43283780699E+01  0.14301353386E+02 -0.10166138134E+02  0.18072463313E+02  0.51100000000E-03 0. -1.
        -11    1    3    3    0    0  0.98532145681E+01  0.43182718232E+01 -0.17783777175E+02  0.20784514421E+02  0.51100000000E-03 0.  1.
        -12    1    3    3    0    0  0.22566359070E+01 -0.25316906928E+02  0.21982521416E+02  0.33604604295E+02  0.00000000000E+00 0.  1.
</event>
<event>
 7    1  0.3611369E-013  0.7246166E+02  0.7816164E-02  0.1226708E+00
        -11   -1    0    0    0    0  0.00000000000E+00  0.00000000000E+00  0.45593999997E+02  0.45594000000E+02  0.51100000000E-03 0.  1.
         11   -1    0    0    0    0 -0.00000000000E+00 -0.00000000000E+00 -0.45593999997E+02  0.45594000000E+02  0.51100000000E-03 0. -1.
    9900012    2    1    2    0    0  0.19169184713E+01 -0.14156371076E+02 -0.12107784443E+02  0.72461658591E+02  0.70000115022E+02 0.  0.
        -12    1    1    2    0    0 -0.19169184713E+01  0.14156371076E+02  0.12107784443E+02  0.18726341409E+02  0.00000000000E+00 0.  1.
         11    1    3    3    0    0  0.81516746764E+01 -0.20079356619E+02  0.84451133616E+00  0.21687405606E+02  0.51100000000E-03 0. -1.
        -11    1    3    3    0    0  0.17027975739E+02  0.10944451066E+02 -0.17244866553E+02  0.26591697757E+02  0.51100000000E-03 0.  1.
        -12    1    3    3    0    0 -0.23262731944E+02 -0.50214655235E+01  0.42925707735E+01  0.24182555228E+02  0.00000000000E+00 0.  1.
</event>
<event>
 7    1  0.3611369E-013  0.7246154E+02  0.7816164E-02  0.1226708E+00
        -11   -1    0    0    0    0  0.00000000000E+00  0.00000000000E+00  0.45593999997E+02  0.45594000000E+02  0.51100000000E-03 0. -1.
         11   -1    0    0    0    0 -0.00000000000E+00 -0.00000000000E+00 -0.45593999997E+02  0.45594000000E+02  0.51100000000E-03 0.  1.
    9900012    2    1    2    0    0  0.95716909768E+01  0.12037657549E+02  0.10684461564E+02  0.72461543145E+02  0.69999964634E+02 0.  0.
        -12    1    1    2    0    0 -0.95716909768E+01 -0.12037657549E+02 -0.10684461564E+02  0.18726456855E+02  0.00000000000E+00 0.  1.
         11    1    3    3    0    0 -0.49167449125E+01  0.78648607103E+01  0.11265453965E+02  0.14592493544E+02  0.51100000000E-03 0. -1.
        -11    1    3    3    0    0  0.23636199952E+01 -0.24759907148E+02  0.65031086483E+01  0.25708561294E+02  0.51100000000E-03 0.  1.
         12    1    3    3    0    0  0.12124815894E+02  0.28932703987E+02 -0.70841010498E+01  0.32160488307E+02  0.00000000000E+00 0. -1.
</event>
<event>
 7    1  0.3611369E-013  0.7246155E+02  0.7816164E-02  0.1226708E+00
        -11   -1    0    0    0    0  0.00000000000E+00  0.00000000000E+00  0.45593999997E+02  0.45594000000E+02  0.51100000000E-03 0.  1.
         11   -1    0    0    0    0 -0.00000000000E+00 -0.00000000000E+00 -0.45593999997E+02  0.45594000000E+02  0.51100000000E-03 0. -1.
    9900012    2    1    2    0    0 -0.24388525594E+01 -0.70173637266E+01 -0.17189781291E+02  0.72461548753E+02  0.69999971939E+02 0.  0.
        -12    1    1    2    0    0  0.24388525594E+01  0.70173637266E+01  0.17189781291E+02  0.18726451247E+02  0.00000000000E+00 0.  1.
         11    1    3    3    0    0  0.10736453943E+02  0.94501180310E+01 -0.33704051186E+02  0.36613375161E+02  0.51100000000E-03 0. -1.
        -11    1    3    3    0    0  0.34077122291E+01  0.31373823781E+01 -0.10351134979E+01  0.47462754911E+01  0.51100000000E-03 0.  1.
        -12    1    3    3    0    0 -0.16583018731E+02 -0.19604864136E+02  0.17549383393E+02  0.31101898101E+02  0.00000000000E+00 0.  1.
</event>
<event>
 7    1  0.3611369E-013  0.7246155E+02  0.7816164E-02  0.1226708E+00
        -11   -1    0    0    0    0  0.00000000000E+00  0.00000000000E+00  0.45593999997E+02  0.45594000000E+02  0.51100000000E-03 0.  1.
         11   -1    0    0    0    0 -0.00000000000E+00 -0.00000000000E+00 -0.45593999997E+02  0.45594000000E+02  0.51100000000E-03 0. -1.
    9900012    2    1    2    0    0 -0.89329461793E+01  0.12304400905E+02 -0.10930876243E+02  0.72461551738E+02  0.69999975827E+02 0.  0.
        -12    1    1    2    0    0  0.89329461793E+01 -0.12304400905E+02  0.10930876243E+02  0.18726448262E+02  0.00000000000E+00 0.  1.
         11    1    3    3    0    0  0.71046406070E+01 -0.80497376734E+01  0.82352135605E+01  0.13531183888E+02  0.51100000000E-03 0. -1.
        -11    1    3    3    0    0 -0.11861086838E+02 -0.15270258662E+02 -0.10611074880E+02  0.22055862961E+02  0.51100000000E-03 0.  1.
        -12    1    3    3    0    0 -0.41764999485E+01  0.35624397240E+02 -0.85550149235E+01  0.36874504890E+02  0.00000000000E+00 0.  1.
</event>
<event>
 7    1  0.3611369E-013  0.7246154E+02  0.7816164E-02  0.1226708E+00
        -11   -1    0    0    0    0  0.00000000000E+00  0.00000000000E+00  0.45593999997E+02  0.45594000000E+02  0.51100000000E-03 0.  1.
         11   -1    0    0    0    0 -0.00000000000E+00 -0.00000000000E+00 -0.45593999997E+02  0.45594000000E+02  0.51100000000E-03 0. -1.
    9900012    2    1    2    0    0 -0.12138742255E+02 -0.29256307335E+01 -0.13956069001E+02  0.72461541694E+02  0.69999962743E+02 0.  0.
        -12    1    1    2    0    0  0.12138742255E+02  0.29256307335E+01  0.13956069001E+02  0.18726458306E+02  0.00000000000E+00 0.  1.
         11    1    3    3    0    0 -0.73300179696E+01  0.21409505379E+02 -0.18137904759E+01  0.22702112681E+02  0.51100000000E-03 0. -1.
        -11    1    3    3    0    0 -0.21104057937E+02 -0.46963334855E+01 -0.28978688994E+00  0.21622228986E+02  0.51100000000E-03 0.  1.
         12    1    3    3    0    0  0.16295333652E+02 -0.19638802627E+02 -0.11852491635E+02  0.28137200028E+02  0.00000000000E+00 0. -1.
</event>
<event>
 7    1  0.3611369E-013  0.7246155E+02  0.7816164E-02  0.1226708E+00
        -11   -1    0    0    0    0  0.00000000000E+00  0.00000000000E+00  0.45593999997E+02  0.45594000000E+02  0.51100000000E-03 0.  1.
         11   -1    0    0    0    0 -0.00000000000E+00 -0.00000000000E+00 -0.45593999997E+02  0.45594000000E+02  0.51100000000E-03 0. -1.
    9900012    2    1    2    0    0 -0.15171246630E+02 -0.49052529594E+01 -0.98209839655E+01  0.72461549270E+02  0.69999972612E+02 0.  0.
        -12    1    1    2    0    0  0.15171246630E+02  0.49052529594E+01  0.98209839655E+01  0.18726450730E+02  0.00000000000E+00 0.  1.
         11    1    3    3    0    0 -0.28977170642E+01 -0.27674333885E+02  0.99334921609E+01  0.29545554436E+02  0.51100000000E-03 0. -1.
        -11    1    3    3    0    0  0.31519724888E+01  0.18238509322E+01  0.55421186534E+01  0.66314736087E+01  0.51100000000E-03 0.  1.
        -12    1    3    3    0    0 -0.15425502055E+02  0.20945229993E+02 -0.25296594780E+02  0.36284521225E+02  0.00000000000E+00 0.  1.
</event>
<event>
 7    1  0.3611369E-013  0.7246155E+02  0.7816164E-02  0.1226708E+00
        -11   -1    0    0    0    0  0.00000000000E+00  0.00000000000E+00  0.45593999997E+02  0.45594000000E+02  0.51100000000E-03 0. -1.
         11   -1    0    0    0    0 -0.00000000000E+00 -0.00000000000E+00 -0.45593999997E+02  0.45594000000E+02  0.51100000000E-03 0.  1.
    9900012    2    1    2    0    0  0.15814295201E+02  0.21380733487E+01  0.97988045482E+01  0.72461551834E+02  0.69999975952E+02 0.  0.
        -12    1    1    2    0    0 -0.15814295201E+02 -0.21380733487E+01 -0.97988045482E+01  0.18726448166E+02  0.00000000000E+00 0.  1.
         11    1    3    3    0    0  0.22687009209E+02 -0.12443315144E+02 -0.38016309548E+00  0.25878195510E+02  0.51100000000E-03 0.  1.
        -11    1    3    3    0    0  0.82663841880E+01  0.25161545369E+02  0.93789313888E+01  0.28096277817E+02  0.51100000000E-03 0. -1.
         12    1    3    3    0    0 -0.15139098196E+02 -0.10580156876E+02  0.80003625493E+00  0.18487078507E+02  0.00000000000E+00 0. -1.
</event>
<event>
 7    1  0.3611369E-013  0.7246162E+02  0.7816164E-02  0.1226708E+00
        -11   -1    0    0    0    0  0.00000000000E+00  0.00000000000E+00  0.45593999997E+02  0.45594000000E+02  0.51100000000E-03 0.  1.
         11   -1    0    0    0    0 -0.00000000000E+00 -0.00000000000E+00 -0.45593999997E+02  0.45594000000E+02  0.51100000000E-03 0. -1.
    9900012    2    1    2    0    0 -0.38508376642E+00  0.46411747245E+01 -0.18138045618E+02  0.72461615107E+02  0.70000058377E+02 0.  0.
        -12    1    1    2    0    0  0.38508376642E+00 -0.46411747245E+01  0.18138045618E+02  0.18726384893E+02  0.00000000000E+00 0.  1.
         11    1    3    3    0    0 -0.28167557679E+01  0.18617041198E+01 -0.20796828472E+02  0.21069127415E+02  0.51100000000E-03 0. -1.
        -11    1    3    3    0    0  0.10855140234E+02 -0.22113465911E+02 -0.19528810722E+01  0.24711397954E+02  0.51100000000E-03 0.  1.
         12    1    3    3    0    0 -0.84234682326E+01  0.24892936516E+02  0.46116639265E+01  0.26681089738E+02  0.00000000000E+00 0. -1.
</event>
<event>
 7    1  0.3611369E-013  0.7246157E+02  0.7816164E-02  0.1226708E+00
        -11   -1    0    0    0    0  0.00000000000E+00  0.00000000000E+00  0.45593999997E+02  0.45594000000E+02  0.51100000000E-03 0.  1.
         11   -1    0    0    0    0 -0.00000000000E+00 -0.00000000000E+00 -0.45593999997E+02  0.45594000000E+02  0.51100000000E-03 0. -1.
    9900012    2    1    2    0    0 -0.11387462942E+02  0.12348139704E+02 -0.82781835303E+01  0.72461569776E+02  0.69999999324E+02 0.  0.
        -12    1    1    2    0    0  0.11387462942E+02 -0.12348139704E+02  0.82781835303E+01  0.18726430224E+02  0.00000000000E+00 0.  1.
         11    1    3    3    0    0  0.17828524364E+02 -0.77701114010E+01  0.10408832309E+02  0.22058438351E+02  0.51100000000E-03 0. -1.
        -11    1    3    3    0    0 -0.31617643485E+01  0.23607737898E+01  0.81132564784E+01  0.90219142995E+01  0.51100000000E-03 0.  1.
         12    1    3    3    0    0 -0.26054222957E+02  0.17757477315E+02 -0.26800272318E+02  0.41381217125E+02  0.00000000000E+00 0. -1.
</event>
<event>
 7    1  0.3611369E-013  0.7246157E+02  0.7816164E-02  0.1226708E+00
        -11   -1    0    0    0    0  0.00000000000E+00  0.00000000000E+00  0.45593999997E+02  0.45594000000E+02  0.51100000000E-03 0. -1.
         11   -1    0    0    0    0 -0.00000000000E+00 -0.00000000000E+00 -0.45593999997E+02  0.45594000000E+02  0.51100000000E-03 0.  1.
    9900012    2    1    2    0    0  0.11027106429E+02 -0.13592399073E+02  0.66579879687E+01  0.72461569680E+02  0.69999999200E+02 0.  0.
        -12    1    1    2    0    0 -0.11027106429E+02  0.13592399073E+02 -0.66579879687E+01  0.18726430320E+02  0.00000000000E+00 0.  1.
         11    1    3    3    0    0  0.20457938210E+02 -0.57914091217E+01  0.44854856158E+01  0.21729869693E+02  0.51100000000E-03 0. -1.
        -11    1    3    3    0    0 -0.10001048045E+01 -0.14044440857E+02 -0.21006737294E+02  0.25288921302E+02  0.51100000000E-03 0.  1.
        -12    1    3    3    0    0 -0.84307269769E+01  0.62434509065E+01  0.23179239647E+02  0.25442778685E+02  0.00000000000E+00 0.  1.
</event>
<event>
 7    1  0.3611369E-013  0.7246158E+02  0.7816164E-02  0.1226708E+00
        -11   -1    0    0    0    0  0.00000000000E+00  0.00000000000E+00  0.45593999997E+02  0.45594000000E+02  0.51100000000E-03 0. -1.
         11   -1    0    0    0    0 -0.00000000000E+00 -0.00000000000E+00 -0.45593999997E+02  0.45594000000E+02  0.51100000000E-03 0.  1.
    9900012    2    1    2    0    0 -0.13911552291E+02  0.11574959214E+02 -0.48132950974E+01  0.72461580757E+02  0.70000013629E+02 0.  0.
        -12    1    1    2    0    0  0.13911552291E+02 -0.11574959214E+02  0.48132950974E+01  0.18726419243E+02  0.00000000000E+00 0.  1.
         11    1    3    3    0    0 -0.21730427447E+02  0.36232629205E+02 -0.21674791033E+01  0.42304998074E+02  0.51100000000E-03 0. -1.
        -11    1    3    3    0    0  0.88960828562E+00  0.11787643985E+01 -0.30667131957E+01  0.34037653407E+01  0.51100000000E-03 0.  1.
        -12    1    3    3    0    0  0.69292668702E+01 -0.25836434389E+02  0.42089720157E+00  0.26752817342E+02  0.00000000000E+00 0.  1.
</event>
<event>
 7    1  0.3611369E-013  0.7246157E+02  0.7816164E-02  0.1226708E+00
        -11   -1    0    0    0    0  0.00000000000E+00  0.00000000000E+00  0.45593999997E+02  0.45594000000E+02  0.51100000000E-03 0. -1.
         11   -1    0    0    0    0 -0.00000000000E+00 -0.00000000000E+00 -0.45593999997E+02  0.45594000000E+02  0.51100000000E-03 0.  1.
    9900012    2    1    2    0    0  0.47181629790E+01  0.15247311584E+02  0.97947700141E+01  0.72461572363E+02  0.70000002694E+02 0.  0.
        -12    1    1    2    0    0 -0.47181629790E+01 -0.15247311584E+02 -0.97947700141E+01  0.18726427637E+02  0.00000000000E+00 0.  1.
         11    1    3    3    0    0  0.24573593303E+02 -0.27629362615E+01  0.45187680417E+01  0.25137911000E+02  0.51100000000E-03 0.  1.
        -11    1    3    3    0    0  0.61516898143E+01  0.18644577298E+02  0.79290297098E+01  0.21173876891E+02  0.51100000000E-03 0. -1.
        -12    1    3    3    0    0 -0.26007120138E+02 -0.63432945293E+00 -0.26530277375E+01  0.26149784471E+02  0.00000000000E+00 0.  1.
</event>
<event>
 7    1  0.3611369E-013  0.7246159E+02  0.7816164E-02  0.1226708E+00
        -11   -1    0    0    0    0  0.00000000000E+00  0.00000000000E+00  0.45593999997E+02  0.45594000000E+02  0.51100000000E-03 0.  1.
         11   -1    0    0    0    0 -0.00000000000E+00 -0.00000000000E+00 -0.45593999997E+02  0.45594000000E+02  0.51100000000E-03 0. -1.
    9900012    2    1    2    0    0  0.13287753057E+02 -0.38956765008E+01 -0.12607049200E+02  0.72461591742E+02  0.70000027940E+02 0.  0.
        -12    1    1    2    0    0 -0.13287753057E+02  0.38956765008E+01  0.12607049200E+02  0.18726408258E+02  0.00000000000E+00 0.  1.
         11    1    3    3    0    0  0.24404785044E+02  0.20301823086E+02 -0.24017153713E+02  0.39806798746E+02  0.51100000000E-03 0. -1.
        -11    1    3    3    0    0  0.35350794783E+01 -0.38931093236E+01  0.37895430895E+01  0.64817994578E+01  0.51100000000E-03 0.  1.
        -12    1    3    3    0    0 -0.14652111465E+02 -0.20304390263E+02  0.76205614237E+01  0.26172993538E+02  0.00000000000E+00 0.  1.
</event>
<event>
 7    1  0.3611369E-013  0.7246079E+02  0.7816164E-02  0.1226710E+00
        -11   -1    0    0    0    0  0.00000000000E+00  0.00000000000E+00  0.45593999997E+02  0.45594000000E+02  0.51100000000E-03 0. -1.
         11   -1    0    0    0    0 -0.00000000000E+00 -0.00000000000E+00 -0.45593999997E+02  0.45594000000E+02  0.51100000000E-03 0.  1.
    9900012    2    1    2    0    0 -0.78069426303E+01 -0.16549059833E+02  0.39860479017E+01  0.72460792187E+02  0.69998986364E+02 0.  0.
        -12    1    1    2    0    0  0.78069426303E+01  0.16549059833E+02 -0.39860479017E+01  0.18727207813E+02  0.00000000000E+00 0.  1.
         11    1    3    3    0    0 -0.69793408564E+01  0.63232846555E+01  0.12377017717E+02  0.15552674865E+02  0.51100000000E-03 0. -1.
        -11    1    3    3    0    0  0.40503154792E+01  0.16067221878E+02 -0.58863827306E+01  0.17584373070E+02  0.51100000000E-03 0.  1.
         12    1    3    3    0    0 -0.48779172531E+01 -0.38939566367E+02 -0.25045870845E+01  0.39323744252E+02  0.00000000000E+00 0. -1.
</event>
<event>
 7    1  0.3611369E-013  0.7246160E+02  0.7816164E-02  0.1226708E+00
        -11   -1    0    0    0    0  0.00000000000E+00  0.00000000000E+00  0.45593999997E+02  0.45594000000E+02  0.51100000000E-03 0.  1.
         11   -1    0    0    0    0 -0.00000000000E+00 -0.00000000000E+00 -0.45593999997E+02  0.45594000000E+02  0.51100000000E-03 0. -1.
    9900012    2    1    2    0    0  0.10159317447E+02  0.32901377420E+01 -0.15383151593E+02  0.72461599110E+02  0.70000037538E+02 0.  0.
        -12    1    1    2    0    0 -0.10159317447E+02 -0.32901377420E+01  0.15383151593E+02  0.18726400890E+02  0.00000000000E+00 0.  1.
         11    1    3    3    0    0 -0.64105989866E+01 -0.26263517961E+01 -0.13185932073E+00  0.69289891229E+01  0.51100000000E-03 0. -1.
        -11    1    3    3    0    0  0.11386013060E+02  0.17710730180E+02  0.19359089505E+02  0.28602195783E+02  0.51100000000E-03 0.  1.
         12    1    3    3    0    0  0.51839033733E+01 -0.11794240642E+02 -0.34610381777E+02  0.36930414204E+02  0.00000000000E+00 0. -1.
</event>
<event>
 7    1  0.3611369E-013  0.7246154E+02  0.7816164E-02  0.1226708E+00
        -11   -1    0    0    0    0  0.00000000000E+00  0.00000000000E+00  0.45593999997E+02  0.45594000000E+02  0.51100000000E-03 0. -1.
         11   -1    0    0    0    0 -0.00000000000E+00 -0.00000000000E+00 -0.45593999997E+02  0.45594000000E+02  0.51100000000E-03 0.  1.
    9900012    2    1    2    0    0 -0.17904686985E+00  0.18685448373E+02 -0.12256592734E+01  0.72461540662E+02  0.69999961399E+02 0.  0.
        -12    1    1    2    0    0  0.17904686985E+00 -0.18685448373E+02  0.12256592734E+01  0.18726459338E+02  0.00000000000E+00 0.  1.
         11    1    3    3    0    0 -0.45203799381E+01  0.46773998573E+01  0.10356847073E+02  0.12230134332E+02  0.51100000000E-03 0. -1.
        -11    1    3    3    0    0 -0.18028062125E+02  0.25890898739E+02  0.17682011715E+01  0.31598673978E+02  0.51100000000E-03 0.  1.
         12    1    3    3    0    0  0.22369395193E+02 -0.11882850224E+02 -0.13350707518E+02  0.28632732353E+02  0.00000000000E+00 0. -1.
</event>
<event>
 7    1  0.3611369E-013  0.7246157E+02  0.7816164E-02  0.1226708E+00
        -11   -1    0    0    0    0  0.00000000000E+00  0.00000000000E+00  0.45593999997E+02  0.45594000000E+02  0.51100000000E-03 0.  1.
         11   -1    0    0    0    0 -0.00000000000E+00 -0.00000000000E+00 -0.45593999997E+02  0.45594000000E+02  0.51100000000E-03 0. -1.
    9900012    2    1    2    0    0 -0.17595343469E+02 -0.19656109543E+01 -0.61007797279E+01  0.72461568106E+02  0.69999997149E+02 0.  0.
        -12    1    1    2    0    0  0.17595343469E+02  0.19656109543E+01  0.61007797279E+01  0.18726431894E+02  0.00000000000E+00 0.  1.
         11    1    3    3    0    0 -0.29904861412E+02  0.39236985066E+01  0.96770468449E+01  0.31675564430E+02  0.51100000000E-03 0. -1.
        -11    1    3    3    0    0  0.52866626813E+01 -0.38742150685E+01  0.11123112442E+02  0.12910537377E+02  0.51100000000E-03 0.  1.
         12    1    3    3    0    0  0.70228552627E+01 -0.20150943924E+01 -0.26900939015E+02  0.27875466298E+02  0.00000000000E+00 0. -1.
</event>
<event>
 7    1  0.3611369E-013  0.7246159E+02  0.7816164E-02  0.1226708E+00
        -11   -1    0    0    0    0  0.00000000000E+00  0.00000000000E+00  0.45593999997E+02  0.45594000000E+02  0.51100000000E-03 0.  1.
         11   -1    0    0    0    0 -0.00000000000E+00 -0.00000000000E+00 -0.45593999997E+02  0.45594000000E+02  0.51100000000E-03 0. -1.
    9900012    2    1    2    0    0 -0.16462178175E+02  0.87275710987E+01  0.18720354407E+01  0.72461592863E+02  0.70000029400E+02 0.  0.
        -12    1    1    2    0    0  0.16462178175E+02 -0.87275710987E+01 -0.18720354407E+01  0.18726407137E+02  0.00000000000E+00 0.  1.
         11    1    3    3    0    0  0.59234038794E+01  0.24476473383E+00  0.45051497960E+01  0.74460055224E+01  0.51100000000E-03 0. -1.
        -11    1    3    3    0    0  0.20112194981E+02  0.78438567294E+00 -0.76574241870E+01  0.21534897104E+02  0.51100000000E-03 0.  1.
         12    1    3    3    0    0 -0.42497777036E+02  0.76984206919E+01  0.50243098317E+01  0.43480690237E+02  0.00000000000E+00 0. -1.
</event>
<event>
 7    1  0.3611369E-013  0.7246159E+02  0.7816164E-02  0.1226708E+00
        -11   -1    0    0    0    0  0.00000000000E+00  0.00000000000E+00  0.45593999997E+02  0.45594000000E+02  0.51100000000E-03 0.  1.
         11   -1    0    0    0    0 -0.00000000000E+00 -0.00000000000E+00 -0.45593999997E+02  0.45594000000E+02  0.51100000000E-03 0. -1.
    9900012    2    1    2    0    0 -0.46606506387E+01 -0.16131864735E+02 -0.82897262202E+01  0.72461593911E+02  0.70000030765E+02 0.  0.
        -12    1    1    2    0    0  0.46606506387E+01  0.16131864735E+02  0.82897262202E+01  0.18726406089E+02  0.00000000000E+00 0.  1.
         11    1    3    3    0    0  0.15025020775E+02  0.16303209825E+01 -0.19530766996E+02  0.24695344815E+02  0.51100000000E-03 0. -1.
        -11    1    3    3    0    0 -0.25233206500E+02 -0.12541589626E+02 -0.60955259085E+01  0.28829873690E+02  0.51100000000E-03 0.  1.
        -12    1    3    3    0    0  0.55475350868E+01 -0.52205960918E+01  0.17336566685E+02  0.18936375406E+02  0.00000000000E+00 0.  1.
</event>
<event>
 7    1  0.3611369E-013  0.7246157E+02  0.7816164E-02  0.1226708E+00
        -11   -1    0    0    0    0  0.00000000000E+00  0.00000000000E+00  0.45593999997E+02  0.45594000000E+02  0.51100000000E-03 0. -1.
         11   -1    0    0    0    0 -0.00000000000E+00 -0.00000000000E+00 -0.45593999997E+02  0.45594000000E+02  0.51100000000E-03 0.  1.
    9900012    2    1    2    0    0 -0.59533064024E+01  0.29284567154E+00  0.17752506340E+02  0.72461572229E+02  0.70000002520E+02 0.  0.
        -12    1    1    2    0    0  0.59533064024E+01 -0.29284567154E+00 -0.17752506340E+02  0.18726427771E+02  0.00000000000E+00 0.  1.
         11    1    3    3    0    0 -0.94730840364E+01  0.22988243732E+02  0.43664424593E+01  0.25244098143E+02  0.51100000000E-03 0. -1.
        -11    1    3    3    0    0 -0.13368708470E+02 -0.16907154952E+02 -0.44202960558E+01  0.22002574218E+02  0.51100000000E-03 0.  1.
         12    1    3    3    0    0  0.16888486104E+02 -0.57882431092E+01  0.17806359936E+02  0.25214899868E+02  0.00000000000E+00 0. -1.
</event>
<event>
 7    1  0.3611369E-013  0.7246157E+02  0.7816164E-02  0.1226708E+00
        -11   -1    0    0    0    0  0.00000000000E+00  0.00000000000E+00  0.45593999997E+02  0.45594000000E+02  0.51100000000E-03 0.  1.
         11   -1    0    0    0    0 -0.00000000000E+00 -0.00000000000E+00 -0.45593999997E+02  0.45594000000E+02  0.51100000000E-03 0. -1.
    9900012    2    1    2    0    0  0.11148158626E+02 -0.11199370604E+02 -0.10048478412E+02  0.72461567850E+02  0.69999996815E+02 0.  0.
        -12    1    1    2    0    0 -0.11148158626E+02  0.11199370604E+02  0.10048478412E+02  0.18726432150E+02  0.00000000000E+00 0.  1.
         11    1    3    3    0    0  0.89452592456E+01  0.17946131981E+02 -0.11806310952E+02  0.23269514275E+02  0.51100000000E-03 0. -1.
        -11    1    3    3    0    0  0.18225884105E+02 -0.34463536450E+01  0.34197698624E+01  0.18861469482E+02  0.51100000000E-03 0.  1.
         12    1    3    3    0    0 -0.16022984724E+02 -0.25699148940E+02 -0.16619373228E+01  0.30330584093E+02  0.00000000000E+00 0. -1.
</event>
<event>
 7    1  0.3611369E-013  0.7246158E+02  0.7816164E-02  0.1226708E+00
        -11   -1    0    0    0    0  0.00000000000E+00  0.00000000000E+00  0.45593999997E+02  0.45594000000E+02  0.51100000000E-03 0.  1.
         11   -1    0    0    0    0 -0.00000000000E+00 -0.00000000000E+00 -0.45593999997E+02  0.45594000000E+02  0.51100000000E-03 0. -1.
    9900012    2    1    2    0    0 -0.49241749328E+01  0.12243043331E+01 -0.18025884443E+02  0.72461576695E+02  0.70000008338E+02 0.  0.
        -12    1    1    2    0    0  0.49241749328E+01 -0.12243043331E+01  0.18025884443E+02  0.18726423305E+02  0.00000000000E+00 0.  1.
         11    1    3    3    0    0 -0.15762468034E+02 -0.86685283584E+01  0.39014572777E+00  0.17993081903E+02  0.51100000000E-03 0. -1.
        -11    1    3    3    0    0 -0.17741707741E+02  0.10899780724E+02 -0.15010239920E+02  0.25668671880E+02  0.51100000000E-03 0.  1.
         12    1    3    3    0    0  0.28580000842E+02 -0.10069480320E+01 -0.34057902502E+01  0.28799822911E+02  0.00000000000E+00 0. -1.
</event>
<event>
 7    1  0.3611369E-013  0.7246173E+02  0.7816164E-02  0.1226708E+00
        -11   -1    0    0    0    0  0.00000000000E+00  0.00000000000E+00  0.45593999997E+02  0.45594000000E+02  0.51100000000E-03 0.  1.
         11   -1    0    0    0    0 -0.00000000000E+00 -0.00000000000E+00 -0.45593999997E+02  0.45594000000E+02  0.51100000000E-03 0. -1.
    9900012    2    1    2    0    0 -0.11646574586E+02 -0.10789895110E+02 -0.99301910481E+01  0.72461728873E+02  0.70000206578E+02 0.  0.
        -12    1    1    2    0    0  0.11646574586E+02  0.10789895110E+02  0.99301910481E+01  0.18726271127E+02  0.00000000000E+00 0.  1.
         11    1    3    3    0    0 -0.17269613118E+02 -0.20322831929E+02 -0.25319852976E+02  0.36774338741E+02  0.51100000000E-03 0. -1.
        -11    1    3    3    0    0  0.26771080959E+00 -0.10232608335E+02  0.28296365660E+00  0.10240020073E+02  0.51100000000E-03 0.  1.
        -12    1    3    3    0    0  0.53553277225E+01  0.19765545154E+02  0.15106698271E+02  0.25447370059E+02  0.00000000000E+00 0.  1.
</event>
<event>
 7    1  0.3611369E-013  0.7246198E+02  0.7816164E-02  0.1226707E+00
        -11   -1    0    0    0    0  0.00000000000E+00  0.00000000000E+00  0.45593999997E+02  0.45594000000E+02  0.51100000000E-03 0.  1.
         11   -1    0    0    0    0 -0.00000000000E+00 -0.00000000000E+00 -0.45593999997E+02  0.45594000000E+02  0.51100000000E-03 0. -1.
    9900012    2    1    2    0    0 -0.25912511234E+01 -0.32716176025E+01 -0.18255020684E+02  0.72461979486E+02  0.70000533045E+02 0.  0.
        -12    1    1    2    0    0  0.25912511234E+01  0.32716176025E+01  0.18255020684E+02  0.18726020514E+02  0.00000000000E+00 0.  1.
         11    1    3    3    0    0  0.48050160071E+00 -0.14960195836E+02 -0.10592167245E+02  0.18336639508E+02  0.51100000000E-03 0. -1.
        -11    1    3    3    0    0 -0.26548776653E+02 -0.12105393812E+01 -0.13859132570E+01  0.26612472699E+02  0.51100000000E-03 0.  1.
         12    1    3    3    0    0  0.23477023929E+02  0.12899117615E+02 -0.62769401826E+01  0.27512867278E+02  0.00000000000E+00 0. -1.
</event>
<event>
 7    1  0.3611369E-013  0.7246155E+02  0.7816164E-02  0.1226708E+00
        -11   -1    0    0    0    0  0.00000000000E+00  0.00000000000E+00  0.45593999997E+02  0.45594000000E+02  0.51100000000E-03 0.  1.
         11   -1    0    0    0    0 -0.00000000000E+00 -0.00000000000E+00 -0.45593999997E+02  0.45594000000E+02  0.51100000000E-03 0. -1.
    9900012    2    1    2    0    0  0.15414782576E+02 -0.99963958784E+01 -0.36244034829E+01  0.72461554715E+02  0.69999979705E+02 0.  0.
        -12    1    1    2    0    0 -0.15414782576E+02  0.99963958784E+01  0.36244034829E+01  0.18726445285E+02  0.00000000000E+00 0.  1.
         11    1    3    3    0    0 -0.15133841565E+01 -0.97274318212E-01 -0.27348375868E+01  0.31271601791E+01  0.51100000000E-03 0. -1.
        -11    1    3    3    0    0  0.29252292608E+02  0.11501970080E+02  0.19773097680E+02  0.37134449379E+02  0.51100000000E-03 0.  1.
         12    1    3    3    0    0 -0.12324125876E+02 -0.21401091640E+02 -0.20662663576E+02  0.32199945156E+02  0.00000000000E+00 0. -1.
</event>
<event>
 7    1  0.3611369E-013  0.7246161E+02  0.7816164E-02  0.1226708E+00
        -11   -1    0    0    0    0  0.00000000000E+00  0.00000000000E+00  0.45593999997E+02  0.45594000000E+02  0.51100000000E-03 0.  1.
         11   -1    0    0    0    0 -0.00000000000E+00 -0.00000000000E+00 -0.45593999997E+02  0.45594000000E+02  0.51100000000E-03 0. -1.
    9900012    2    1    2    0    0 -0.13175162530E+02  0.10471248436E+02 -0.82125397910E+01  0.72461607894E+02  0.70000048980E+02 0.  0.
        -12    1    1    2    0    0  0.13175162530E+02 -0.10471248436E+02  0.82125397910E+01  0.18726392106E+02  0.00000000000E+00 0.  1.
         11    1    3    3    0    0 -0.92390573876E+01  0.23549133906E+01  0.31775516738E+01  0.10050006636E+02  0.51100000000E-03 0. -1.
        -11    1    3    3    0    0 -0.93198211054E+01  0.36331016961E+01  0.24175146387E+02  0.26162878214E+02  0.51100000000E-03 0.  1.
         12    1    3    3    0    0  0.53837159627E+01  0.44832333490E+01 -0.35565237851E+02  0.36248723043E+02  0.00000000000E+00 0. -1.
</event>
<event>
 7    1  0.3611369E-013  0.7246154E+02  0.7816164E-02  0.1226708E+00
        -11   -1    0    0    0    0  0.00000000000E+00  0.00000000000E+00  0.45593999997E+02  0.45594000000E+02  0.51100000000E-03 0.  1.
         11   -1    0    0    0    0 -0.00000000000E+00 -0.00000000000E+00 -0.45593999997E+02  0.45594000000E+02  0.51100000000E-03 0. -1.
    9900012    2    1    2    0    0 -0.44724184391E+01  0.16107253705E+02 -0.84400346513E+01  0.72461539215E+02  0.69999959513E+02 0.  0.
        -12    1    1    2    0    0  0.44724184391E+01 -0.16107253705E+02  0.84400346513E+01  0.18726460785E+02  0.00000000000E+00 0.  1.
         11    1    3    3    0    0  0.16180168856E+02  0.46444400763E+01  0.11346317640E+02  0.20300433791E+02  0.51100000000E-03 0. -1.
        -11    1    3    3    0    0 -0.98135443061E+01  0.24943209632E+02 -0.12878207983E+01  0.26835197806E+02  0.51100000000E-03 0.  1.
        -12    1    3    3    0    0 -0.10839042990E+02 -0.13480396003E+02 -0.18498531492E+02  0.25325907619E+02  0.00000000000E+00 0.  1.
</event>
<event>
 7    1  0.3611369E-013  0.7246158E+02  0.7816164E-02  0.1226708E+00
        -11   -1    0    0    0    0  0.00000000000E+00  0.00000000000E+00  0.45593999997E+02  0.45594000000E+02  0.51100000000E-03 0. -1.
         11   -1    0    0    0    0 -0.00000000000E+00 -0.00000000000E+00 -0.45593999997E+02  0.45594000000E+02  0.51100000000E-03 0.  1.
    9900012    2    1    2    0    0  0.32383508596E+01 -0.81527560777E+01  0.16544624326E+02  0.72461576368E+02  0.70000007912E+02 0.  0.
        -12    1    1    2    0    0 -0.32383508596E+01  0.81527560777E+01 -0.16544624326E+02  0.18726423632E+02  0.00000000000E+00 0.  1.
         11    1    3    3    0    0 -0.64713546504E+01  0.16889689533E+02  0.28541152331E+01  0.18310816955E+02  0.51100000000E-03 0. -1.
        -11    1    3    3    0    0 -0.11089722317E+02 -0.28587650723E+02  0.39675804455E+01  0.30918884356E+02  0.51100000000E-03 0.  1.
         12    1    3    3    0    0  0.20799427827E+02  0.35452051127E+01  0.97229286473E+01  0.23231875058E+02  0.00000000000E+00 0. -1.
</event>
<event>
 7    1  0.3611369E-013  0.7246159E+02  0.7816164E-02  0.1226708E+00
        -11   -1    0    0    0    0  0.00000000000E+00  0.00000000000E+00  0.45593999997E+02  0.45594000000E+02  0.51100000000E-03 0.  1.
         11   -1    0    0    0    0 -0.00000000000E+00 -0.00000000000E+00 -0.45593999997E+02  0.45594000000E+02  0.51100000000E-03 0. -1.
    9900012    2    1    2    0    0  0.60884215711E+01  0.16937682755E+02 -0.51695740971E+01  0.72461588953E+02  0.70000024307E+02 0.  0.
        -12    1    1    2    0    0 -0.60884215711E+01 -0.16937682755E+02  0.51695740971E+01  0.18726411047E+02  0.00000000000E+00 0.  1.
         11    1    3    3    0    0  0.52776952172E+01 -0.10118196243E+02  0.54193428619E+01  0.12633338408E+02  0.51100000000E-03 0. -1.
        -11    1    3    3    0    0  0.16501353924E+02 -0.29132960998E+01  0.10678741999E+02  0.19870015260E+02  0.51100000000E-03 0.  1.
         12    1    3    3    0    0 -0.15690627570E+02  0.29969175098E+02 -0.21267658958E+02  0.39958235286E+02  0.00000000000E+00 0. -1.
</event>
<event>
 7    1  0.3611369E-013  0.7246169E+02  0.7816164E-02  0.1226708E+00
        -11   -1    0    0    0    0  0.00000000000E+00  0.00000000000E+00  0.45593999997E+02  0.45594000000E+02  0.51100000000E-03 0. -1.
         11   -1    0    0    0    0 -0.00000000000E+00 -0.00000000000E+00 -0.45593999997E+02  0.45594000000E+02  0.51100000000E-03 0.  1.
    9900012    2    1    2    0    0  0.47989393394E+01 -0.76759217193E+01  0.16392836856E+02  0.72461689813E+02  0.70000155696E+02 0.  0.
        -12    1    1    2    0    0 -0.47989393394E+01  0.76759217193E+01 -0.16392836856E+02  0.18726310187E+02  0.00000000000E+00 0.  1.
         11    1    3    3    0    0 -0.16465960277E+02 -0.25438903613E+02  0.45843084816E+01  0.30647700556E+02  0.51100000000E-03 0. -1.
        -11    1    3    3    0    0  0.23197356326E+00 -0.68863528869E+01  0.54677383308E+01  0.87961258820E+01  0.51100000000E-03 0.  1.
        -12    1    3    3    0    0  0.21032926053E+02  0.24649334780E+02  0.63407900435E+01  0.33017863375E+02  0.00000000000E+00 0.  1.
</event>
<event>
 7    1  0.3611369E-013  0.7246157E+02  0.7816164E-02  0.1226708E+00
        -11   -1    0    0    0    0  0.00000000000E+00  0.00000000000E+00  0.45593999997E+02  0.45594000000E+02  0.51100000000E-03 0. -1.
         11   -1    0    0    0    0 -0.00000000000E+00 -0.00000000000E+00 -0.45593999997E+02  0.45594000000E+02  0.51100000000E-03 0.  1.
    9900012    2    1    2    0    0 -0.40153677404E+01  0.50002525454E+01  0.17594132843E+02  0.72461569104E+02  0.69999998450E+02 0.  0.
        -12    1    1    2    0    0  0.40153677404E+01 -0.50002525454E+01 -0.17594132843E+02  0.18726430896E+02  0.00000000000E+00 0.  1.
         11    1    3    3    0    0 -0.48385311424E+01 -0.14312531684E+02  0.13025094571E+02  0.19947757660E+02  0.51100000000E-03 0. -1.
        -11    1    3    3    0    0  0.54776252156E+00 -0.74874021074E+01 -0.16692489915E+02  0.18303017618E+02  0.51100000000E-03 0.  1.
         12    1    3    3    0    0  0.27540088044E+00  0.26800186337E+02  0.21261528187E+02  0.34210793826E+02  0.00000000000E+00 0. -1.
</event>
<event>
 7    1  0.3611369E-013  0.7246150E+02  0.7816164E-02  0.1226708E+00
        -11   -1    0    0    0    0  0.00000000000E+00  0.00000000000E+00  0.45593999997E+02  0.45594000000E+02  0.51100000000E-03 0. -1.
         11   -1    0    0    0    0 -0.00000000000E+00 -0.00000000000E+00 -0.45593999997E+02  0.45594000000E+02  0.51100000000E-03 0.  1.
    9900012    2    1    2    0    0 -0.69124025804E+01  0.11553412016E+02  0.13016108107E+02  0.72461502493E+02  0.69999911676E+02 0.  0.
        -12    1    1    2    0    0  0.69124025804E+01 -0.11553412016E+02 -0.13016108107E+02  0.18726497507E+02  0.00000000000E+00 0.  1.
         11    1    3    3    0    0 -0.11026123430E+02 -0.10758956699E+02 -0.67486700439E+01  0.16818891009E+02  0.51100000000E-03 0.  1.
        -11    1    3    3    0    0  0.85678829117E+01 -0.12558576798E+02 -0.22078486523E+00  0.15204447211E+02  0.51100000000E-03 0. -1.
         12    1    3    3    0    0 -0.44541620626E+01  0.34870945513E+02  0.19985563016E+02  0.40438164273E+02  0.00000000000E+00 0. -1.
</event>
<event>
 7    1  0.3611369E-013  0.7246157E+02  0.7816164E-02  0.1226708E+00
        -11   -1    0    0    0    0  0.00000000000E+00  0.00000000000E+00  0.45593999997E+02  0.45594000000E+02  0.51100000000E-03 0.  1.
         11   -1    0    0    0    0 -0.00000000000E+00 -0.00000000000E+00 -0.45593999997E+02  0.45594000000E+02  0.51100000000E-03 0. -1.
    9900012    2    1    2    0    0  0.87944931837E+00 -0.12771755840E+02 -0.13667042551E+02  0.72461568668E+02  0.69999997881E+02 0.  0.
        -12    1    1    2    0    0 -0.87944931837E+00  0.12771755840E+02  0.13667042551E+02  0.18726431332E+02  0.00000000000E+00 0.  1.
         11    1    3    3    0    0 -0.13002374610E+02 -0.19602835580E+02  0.57489236641E+01  0.24215347031E+02  0.51100000000E-03 0. -1.
        -11    1    3    3    0    0  0.98787064251E+01  0.74703089564E+00  0.12249362255E+02  0.15754166804E+02  0.51100000000E-03 0.  1.
         12    1    3    3    0    0  0.40031175033E+01  0.60840488442E+01 -0.31665328470E+02  0.32492054832E+02  0.00000000000E+00 0. -1.
</event>
<event>
 7    1  0.3611369E-013  0.7246156E+02  0.7816164E-02  0.1226708E+00
        -11   -1    0    0    0    0  0.00000000000E+00  0.00000000000E+00  0.45593999997E+02  0.45594000000E+02  0.51100000000E-03 0. -1.
         11   -1    0    0    0    0 -0.00000000000E+00 -0.00000000000E+00 -0.45593999997E+02  0.45594000000E+02  0.51100000000E-03 0.  1.
    9900012    2    1    2    0    0  0.13542851184E+01 -0.55104668744E+00  0.18669271989E+02  0.72461562613E+02  0.69999989993E+02 0.  0.
        -12    1    1    2    0    0 -0.13542851184E+01  0.55104668744E+00 -0.18669271989E+02  0.18726437387E+02  0.00000000000E+00 0.  1.
         11    1    3    3    0    0 -0.10846237881E+01  0.63503325984E+01  0.20240231916E+01  0.67527626209E+01  0.51100000000E-03 0. -1.
        -11    1    3    3    0    0  0.22394315391E+02  0.18551411006E+02  0.16356574081E+02  0.33364617907E+02  0.51100000000E-03 0.  1.
         12    1    3    3    0    0 -0.19955406485E+02 -0.25452790292E+02  0.28867471665E+00  0.32344182085E+02  0.00000000000E+00 0. -1.
</event>
<event>
 7    1  0.3611369E-013  0.7246151E+02  0.7816164E-02  0.1226708E+00
        -11   -1    0    0    0    0  0.00000000000E+00  0.00000000000E+00  0.45593999997E+02  0.45594000000E+02  0.51100000000E-03 0.  1.
         11   -1    0    0    0    0 -0.00000000000E+00 -0.00000000000E+00 -0.45593999997E+02  0.45594000000E+02  0.51100000000E-03 0. -1.
    9900012    2    1    2    0    0 -0.14437684493E+02  0.43903546965E+01 -0.11088711222E+02  0.72461509020E+02  0.69999920179E+02 0.  0.
        -12    1    1    2    0    0  0.14437684493E+02 -0.43903546965E+01  0.11088711222E+02  0.18726490980E+02  0.00000000000E+00 0.  1.
         11    1    3    3    0    0 -0.21054350376E+02 -0.70328994096E+01 -0.22140283850E+02  0.31351866182E+02  0.51100000000E-03 0. -1.
        -11    1    3    3    0    0  0.42063643214E+01 -0.13549337158E+02  0.15080915800E+01  0.14267178372E+02  0.51100000000E-03 0.  1.
        -12    1    3    3    0    0  0.24103015623E+01  0.24972591264E+02  0.95434810485E+01  0.26842464466E+02  0.00000000000E+00 0.  1.
</event>
<event>
 7    1  0.3611369E-013  0.7246151E+02  0.7816164E-02  0.1226708E+00
        -11   -1    0    0    0    0  0.00000000000E+00  0.00000000000E+00  0.45593999997E+02  0.45594000000E+02  0.51100000000E-03 0. -1.
         11   -1    0    0    0    0 -0.00000000000E+00 -0.00000000000E+00 -0.45593999997E+02  0.45594000000E+02  0.51100000000E-03 0.  1.
    9900012    2    1    2    0    0  0.14624226215E+02  0.56631168957E+01  0.10234374842E+02  0.72461513043E+02  0.69999925419E+02 0.  0.
        -12    1    1    2    0    0 -0.14624226215E+02 -0.56631168957E+01 -0.10234374842E+02  0.18726486957E+02  0.00000000000E+00 0.  1.
         11    1    3    3    0    0 -0.22784433532E+02  0.14963245285E+01  0.10542508885E+02  0.25149828873E+02  0.51100000000E-03 0. -1.
        -11    1    3    3    0    0  0.65249173306E+01 -0.64813558951E+01  0.94808874730E+01  0.13208699707E+02  0.51100000000E-03 0.  1.
        -12    1    3    3    0    0  0.30883742416E+02  0.10648148262E+02 -0.97890215164E+01  0.34102984463E+02  0.00000000000E+00 0.  1.
</event>
<event>
 7    1  0.3611369E-013  0.7246163E+02  0.7816164E-02  0.1226708E+00
        -11   -1    0    0    0    0  0.00000000000E+00  0.00000000000E+00  0.45593999997E+02  0.45594000000E+02  0.51100000000E-03 0. -1.
         11   -1    0    0    0    0 -0.00000000000E+00 -0.00000000000E+00 -0.45593999997E+02  0.45594000000E+02  0.51100000000E-03 0.  1.
    9900012    2    1    2    0    0 -0.17180602728E+02  0.12080688071E+01  0.73515005298E+01  0.72461625541E+02  0.70000071969E+02 0.  0.
        -12    1    1    2    0    0  0.17180602728E+02 -0.12080688071E+01 -0.73515005298E+01  0.18726374459E+02  0.00000000000E+00 0.  1.
         11    1    3    3    0    0  0.69276797669E+01 -0.50169846988E+01  0.15733962907E+02  0.17908670287E+02  0.51100000000E-03 0. -1.
        -11    1    3    3    0    0  0.82732443364E+01  0.82568205874E+01 -0.17323829304E+02  0.20898246818E+02  0.51100000000E-03 0.  1.
         12    1    3    3    0    0 -0.32381526831E+02 -0.20317670814E+01  0.89413669267E+01  0.33654708436E+02  0.00000000000E+00 0. -1.
</event>
<event>
 7    1  0.3611369E-013  0.7246155E+02  0.7816164E-02  0.1226708E+00
        -11   -1    0    0    0    0  0.00000000000E+00  0.00000000000E+00  0.45593999997E+02  0.45594000000E+02  0.51100000000E-03 0.  1.
         11   -1    0    0    0    0 -0.00000000000E+00 -0.00000000000E+00 -0.45593999997E+02  0.45594000000E+02  0.51100000000E-03 0. -1.
    9900012    2    1    2    0    0  0.48772402382E+01 -0.16553817289E+02 -0.72707264621E+01  0.72461553395E+02  0.69999977985E+02 0.  0.
        -12    1    1    2    0    0 -0.48772402382E+01  0.16553817289E+02  0.72707264621E+01  0.18726446605E+02  0.00000000000E+00 0.  1.
         11    1    3    3    0    0  0.75047261346E+01  0.26766626280E+01  0.16484651302E+01  0.81365149005E+01  0.51100000000E-03 0. -1.
        -11    1    3    3    0    0  0.35594963865E+01  0.81251115737E+01  0.21313899403E+02  0.23086137846E+02  0.51100000000E-03 0.  1.
         12    1    3    3    0    0 -0.61869822829E+01 -0.27355591491E+02 -0.30233090995E+02  0.41238900648E+02  0.00000000000E+00 0. -1.
</event>
<event>
 7    1  0.3611369E-013  0.7246156E+02  0.7816164E-02  0.1226708E+00
        -11   -1    0    0    0    0  0.00000000000E+00  0.00000000000E+00  0.45593999997E+02  0.45594000000E+02  0.51100000000E-03 0. -1.
         11   -1    0    0    0    0 -0.00000000000E+00 -0.00000000000E+00 -0.45593999997E+02  0.45594000000E+02  0.51100000000E-03 0.  1.
    9900012    2    1    2    0    0 -0.10111065955E+02 -0.14133978261E+02 -0.69768583293E+01  0.72461560179E+02  0.69999986822E+02 0.  0.
        -12    1    1    2    0    0  0.10111065955E+02  0.14133978261E+02  0.69768583293E+01  0.18726439821E+02  0.00000000000E+00 0.  1.
         11    1    3    3    0    0 -0.26963540365E+01  0.32390418999E+01 -0.54526806816E+01  0.68915487661E+01  0.51100000000E-03 0. -1.
        -11    1    3    3    0    0 -0.62612270358E+01  0.17903757759E+02 -0.18419448999E+02  0.26439054590E+02  0.51100000000E-03 0.  1.
         12    1    3    3    0    0 -0.11534848829E+01 -0.35276777920E+02  0.16895271351E+02  0.39130956823E+02  0.00000000000E+00 0. -1.
</event>
<event>
 7    1  0.3611369E-013  0.7246155E+02  0.7816164E-02  0.1226708E+00
        -11   -1    0    0    0    0  0.00000000000E+00  0.00000000000E+00  0.45593999997E+02  0.45594000000E+02  0.51100000000E-03 0.  1.
         11   -1    0    0    0    0 -0.00000000000E+00 -0.00000000000E+00 -0.45593999997E+02  0.45594000000E+02  0.51100000000E-03 0. -1.
    9900012    2    1    2    0    0  0.40852313469E+01  0.16080652858E+02 -0.86835038248E+01  0.72461554791E+02  0.69999979804E+02 0.  0.
        -12    1    1    2    0    0 -0.40852313469E+01 -0.16080652858E+02  0.86835038248E+01  0.18726445209E+02  0.00000000000E+00 0.  1.
         11    1    3    3    0    0  0.24093083197E+02  0.87255958792E+01  0.14462821010E+02  0.29424239552E+02  0.51100000000E-03 0. -1.
        -11    1    3    3    0    0 -0.15779022018E+01 -0.10501775944E+02 -0.65947724077E+01  0.12500723847E+02  0.51100000000E-03 0.  1.
         12    1    3    3    0    0 -0.18429949648E+02  0.17856832923E+02 -0.16551552427E+02  0.30536591392E+02  0.00000000000E+00 0. -1.
</event>
<event>
 7    1  0.3611369E-013  0.7246156E+02  0.7816164E-02  0.1226708E+00
        -11   -1    0    0    0    0  0.00000000000E+00  0.00000000000E+00  0.45593999997E+02  0.45594000000E+02  0.51100000000E-03 0.  1.
         11   -1    0    0    0    0 -0.00000000000E+00 -0.00000000000E+00 -0.45593999997E+02  0.45594000000E+02  0.51100000000E-03 0. -1.
    9900012    2    1    2    0    0 -0.11211848598E+02  0.10374379007E+02 -0.10832650498E+02  0.72461558652E+02  0.69999984833E+02 0.  0.
        -12    1    1    2    0    0  0.11211848598E+02 -0.10374379007E+02  0.10832650498E+02  0.18726441348E+02  0.00000000000E+00 0.  1.
         11    1    3    3    0    0  0.15098537069E+01  0.17960544529E+01 -0.11149661783E+02  0.11393876774E+02  0.51100000000E-03 0. -1.
        -11    1    3    3    0    0 -0.10585823442E+02  0.32414322454E+02 -0.91918692701E+01  0.35316262813E+02  0.51100000000E-03 0.  1.
         12    1    3    3    0    0 -0.21358788633E+01 -0.23835997900E+02  0.95088805553E+01  0.25751419065E+02  0.00000000000E+00 0. -1.
</event>
<event>
 7    1  0.3611369E-013  0.7246161E+02  0.7816164E-02  0.1226708E+00
        -11   -1    0    0    0    0  0.00000000000E+00  0.00000000000E+00  0.45593999997E+02  0.45594000000E+02  0.51100000000E-03 0.  1.
         11   -1    0    0    0    0 -0.00000000000E+00 -0.00000000000E+00 -0.45593999997E+02  0.45594000000E+02  0.51100000000E-03 0. -1.
    9900012    2    1    2    0    0  0.70606692320E+01 -0.29576587313E+01  0.17090259821E+02  0.72461607504E+02  0.70000048472E+02 0.  0.
        -12    1    1    2    0    0 -0.70606692320E+01  0.29576587313E+01 -0.17090259821E+02  0.18726392496E+02  0.00000000000E+00 0.  1.
         11    1    3    3    0    0 -0.13960280240E+02  0.20593145723E+02  0.15189598462E+02  0.29149459289E+02  0.51100000000E-03 0. -1.
        -11    1    3    3    0    0 -0.30563446538E+01 -0.39765099491E+01 -0.90993333121E+01  0.10389982724E+02  0.51100000000E-03 0.  1.
        -12    1    3    3    0    0  0.24077294126E+02 -0.19574294506E+02  0.10999994671E+02  0.32922165490E+02  0.00000000000E+00 0.  1.
</event>
<event>
 7    1  0.3611369E-013  0.7246160E+02  0.7816164E-02  0.1226708E+00
        -11   -1    0    0    0    0  0.00000000000E+00  0.00000000000E+00  0.45593999997E+02  0.45594000000E+02  0.51100000000E-03 0.  1.
         11   -1    0    0    0    0 -0.00000000000E+00 -0.00000000000E+00 -0.45593999997E+02  0.45594000000E+02  0.51100000000E-03 0. -1.
    9900012    2    1    2    0    0 -0.16065065104E+02  0.96104660899E+01  0.48042288556E+00  0.72461596677E+02  0.70000034368E+02 0.  0.
        -12    1    1    2    0    0  0.16065065104E+02 -0.96104660899E+01 -0.48042288556E+00  0.18726403323E+02  0.00000000000E+00 0.  1.
         11    1    3    3    0    0 -0.31044543887E+02 -0.12352600155E+02  0.32936446275E+01  0.33573777430E+02  0.51100000000E-03 0. -1.
        -11    1    3    3    0    0 -0.83248565709E+01  0.65593268494E+01  0.11990346646E+01  0.10666100038E+02  0.51100000000E-03 0.  1.
        -12    1    3    3    0    0  0.23304335353E+02  0.15403739396E+02 -0.40122564066E+01  0.28221719208E+02  0.00000000000E+00 0.  1.
</event>
<event>
 7    1  0.3611369E-013  0.7246157E+02  0.7816164E-02  0.1226708E+00
        -11   -1    0    0    0    0  0.00000000000E+00  0.00000000000E+00  0.45593999997E+02  0.45594000000E+02  0.51100000000E-03 0.  1.
         11   -1    0    0    0    0 -0.00000000000E+00 -0.00000000000E+00 -0.45593999997E+02  0.45594000000E+02  0.51100000000E-03 0. -1.
    9900012    2    1    2    0    0  0.37442870232E+01  0.18006874117E+02  0.35230427521E+01  0.72461573993E+02  0.70000004818E+02 0.  0.
        -12    1    1    2    0    0 -0.37442870232E+01 -0.18006874117E+02 -0.35230427521E+01  0.18726426007E+02  0.00000000000E+00 0.  1.
         11    1    3    3    0    0 -0.13720652576E+02 -0.19239204254E+01  0.28597978527E+02  0.31777384301E+02  0.51100000000E-03 0. -1.
        -11    1    3    3    0    0 -0.17660835445E+01  0.99578380553E+01 -0.56335300902E+01  0.11576452451E+02  0.51100000000E-03 0.  1.
        -12    1    3    3    0    0  0.19231023144E+02  0.99729564867E+01 -0.19441405685E+02  0.29107737240E+02  0.00000000000E+00 0.  1.
</event>
<event>
 7    1  0.3611369E-013  0.7246158E+02  0.7816164E-02  0.1226708E+00
        -11   -1    0    0    0    0  0.00000000000E+00  0.00000000000E+00  0.45593999997E+02  0.45594000000E+02  0.51100000000E-03 0.  1.
         11   -1    0    0    0    0 -0.00000000000E+00 -0.00000000000E+00 -0.45593999997E+02  0.45594000000E+02  0.51100000000E-03 0. -1.
    9900012    2    1    2    0    0  0.70982115079E+01  0.75416713626E+01  0.15601842684E+02  0.72461577258E+02  0.70000009072E+02 0.  0.
        -12    1    1    2    0    0 -0.70982115079E+01 -0.75416713626E+01 -0.15601842684E+02  0.18726422742E+02  0.00000000000E+00 0.  1.
         11    1    3    3    0    0  0.55135682204E+01  0.21939459119E+01  0.78821785220E+01  0.98661832386E+01  0.51100000000E-03 0. -1.
        -11    1    3    3    0    0  0.44557698787E+01  0.31948057595E+02  0.13918260164E+02  0.35131897693E+02  0.51100000000E-03 0.  1.
         12    1    3    3    0    0 -0.28711265912E+01 -0.26600332144E+02 -0.61985960012E+01  0.27463496326E+02  0.00000000000E+00 0. -1.
</event>
<event>
 7    1  0.3611369E-013  0.7246173E+02  0.7816164E-02  0.1226708E+00
        -11   -1    0    0    0    0  0.00000000000E+00  0.00000000000E+00  0.45593999997E+02  0.45594000000E+02  0.51100000000E-03 0. -1.
         11   -1    0    0    0    0 -0.00000000000E+00 -0.00000000000E+00 -0.45593999997E+02  0.45594000000E+02  0.51100000000E-03 0.  1.
    9900012    2    1    2    0    0  0.51111354345E+01  0.17501681023E+02  0.42709180638E+01  0.72461727409E+02  0.70000204670E+02 0.  0.
        -12    1    1    2    0    0 -0.51111354345E+01 -0.17501681023E+02 -0.42709180638E+01  0.18726272591E+02  0.00000000000E+00 0.  1.
         11    1    3    3    0    0 -0.68858908755E+01 -0.72025670171E+01  0.81014427537E+01  0.12842345570E+02  0.51100000000E-03 0. -1.
        -11    1    3    3    0    0  0.13501092247E+02  0.34042600979E+01  0.22043174563E+02  0.26072399654E+02  0.51100000000E-03 0.  1.
        -12    1    3    3    0    0 -0.15040659368E+01  0.21299987942E+02 -0.25873699253E+02  0.33546982185E+02  0.00000000000E+00 0.  1.
</event>
<event>
 7    1  0.3611369E-013  0.7246155E+02  0.7816164E-02  0.1226708E+00
        -11   -1    0    0    0    0  0.00000000000E+00  0.00000000000E+00  0.45593999997E+02  0.45594000000E+02  0.51100000000E-03 0.  1.
         11   -1    0    0    0    0 -0.00000000000E+00 -0.00000000000E+00 -0.45593999997E+02  0.45594000000E+02  0.51100000000E-03 0. -1.
    9900012    2    1    2    0    0  0.30162836662E+01  0.10186053127E+02 -0.15421621560E+02  0.72461546599E+02  0.69999969132E+02 0.  0.
        -12    1    1    2    0    0 -0.30162836662E+01 -0.10186053127E+02  0.15421621560E+02  0.18726453401E+02  0.00000000000E+00 0.  1.
         11    1    3    3    0    0  0.56440093529E+00 -0.17957897257E+02 -0.22016940369E+02  0.28417429261E+02  0.51100000000E-03 0.  1.
        -11    1    3    3    0    0 -0.12295247992E+02  0.61377144882E+00  0.21872334308E+01  0.12503352707E+02  0.51100000000E-03 0. -1.
        -12    1    3    3    0    0  0.14747130723E+02  0.27530178935E+02  0.44080853778E+01  0.31540764631E+02  0.00000000000E+00 0.  1.
</event>
<event>
 7    1  0.3611369E-013  0.7246158E+02  0.7816164E-02  0.1226708E+00
        -11   -1    0    0    0    0  0.00000000000E+00  0.00000000000E+00  0.45593999997E+02  0.45594000000E+02  0.51100000000E-03 0.  1.
         11   -1    0    0    0    0 -0.00000000000E+00 -0.00000000000E+00 -0.45593999997E+02  0.45594000000E+02  0.51100000000E-03 0. -1.
    9900012    2    1    2    0    0  0.86809213474E+01 -0.88319220967E+01 -0.14046978294E+02  0.72461579025E+02  0.70000011373E+02 0.  0.
        -12    1    1    2    0    0 -0.86809213474E+01  0.88319220967E+01  0.14046978294E+02  0.18726420975E+02  0.00000000000E+00 0.  1.
         11    1    3    3    0    0 -0.30039172848E+01 -0.25126501530E+02 -0.19321685975E+02  0.31838532432E+02  0.51100000000E-03 0. -1.
        -11    1    3    3    0    0 -0.97793705138E+01 -0.41564798019E+01  0.10859014172E+01  0.10681366679E+02  0.51100000000E-03 0.  1.
        -12    1    3    3    0    0  0.21464209146E+02  0.20451059236E+02  0.41888062645E+01  0.29941679914E+02  0.00000000000E+00 0.  1.
</event>
<event>
 7    1  0.3611369E-013  0.7246155E+02  0.7816164E-02  0.1226708E+00
        -11   -1    0    0    0    0  0.00000000000E+00  0.00000000000E+00  0.45593999997E+02  0.45594000000E+02  0.51100000000E-03 0. -1.
         11   -1    0    0    0    0 -0.00000000000E+00 -0.00000000000E+00 -0.45593999997E+02  0.45594000000E+02  0.51100000000E-03 0.  1.
    9900012    2    1    2    0    0  0.12667093273E+02  0.31005089711E+01  0.13439175762E+02  0.72461552045E+02  0.69999976226E+02 0.  0.
        -12    1    1    2    0    0 -0.12667093273E+02 -0.31005089711E+01 -0.13439175762E+02  0.18726447955E+02  0.00000000000E+00 0.  1.
         11    1    3    3    0    0  0.16014465502E+02 -0.73913893308E+01  0.13013678595E+02  0.21919205560E+02  0.51100000000E-03 0. -1.
        -11    1    3    3    0    0  0.89551079146E+01 -0.15768522376E+02 -0.87383730380E+01  0.20129565800E+02  0.51100000000E-03 0.  1.
        -12    1    3    3    0    0 -0.12302480143E+02  0.26260420678E+02  0.91638702044E+01  0.30412780685E+02  0.00000000000E+00 0.  1.
</event>
<event>
 7    1  0.3611369E-013  0.7246155E+02  0.7816164E-02  0.1226708E+00
        -11   -1    0    0    0    0  0.00000000000E+00  0.00000000000E+00  0.45593999997E+02  0.45594000000E+02  0.51100000000E-03 0.  1.
         11   -1    0    0    0    0 -0.00000000000E+00 -0.00000000000E+00 -0.45593999997E+02  0.45594000000E+02  0.51100000000E-03 0. -1.
    9900012    2    1    2    0    0 -0.12323206286E+02  0.79459584277E+01 -0.11648180652E+02  0.72461553967E+02  0.69999978731E+02 0.  0.
        -12    1    1    2    0    0  0.12323206286E+02 -0.79459584277E+01  0.11648180652E+02  0.18726446033E+02  0.00000000000E+00 0.  1.
         11    1    3    3    0    0 -0.11304917732E+02  0.14909371399E+02 -0.62554506106E+01  0.19728689340E+02  0.51100000000E-03 0. -1.
        -11    1    3    3    0    0  0.11513738839E+01  0.85364796493E+01  0.20635668474E+02  0.22361304976E+02  0.51100000000E-03 0.  1.
         12    1    3    3    0    0 -0.21696624377E+01 -0.15499892621E+02 -0.26028398516E+02  0.30371559651E+02  0.00000000000E+00 0. -1.
</event>
<event>
 7    1  0.3611369E-013  0.7246158E+02  0.7816164E-02  0.1226708E+00
        -11   -1    0    0    0    0  0.00000000000E+00  0.00000000000E+00  0.45593999997E+02  0.45594000000E+02  0.51100000000E-03 0.  1.
         11   -1    0    0    0    0 -0.00000000000E+00 -0.00000000000E+00 -0.45593999997E+02  0.45594000000E+02  0.51100000000E-03 0. -1.
    9900012    2    1    2    0    0 -0.25404383244E+00 -0.11534705186E+02 -0.14750079903E+02  0.72461579650E+02  0.70000012188E+02 0.  0.
        -12    1    1    2    0    0  0.25404383244E+00  0.11534705186E+02  0.14750079903E+02  0.18726420350E+02  0.00000000000E+00 0.  1.
         11    1    3    3    0    0 -0.25361435915E+02 -0.10930838743E+01 -0.15086773865E+02  0.29529781745E+02  0.51100000000E-03 0. -1.
        -11    1    3    3    0    0  0.73362062811E+00 -0.76160632269E+01 -0.12940225886E+02  0.15033032447E+02  0.51100000000E-03 0.  1.
        -12    1    3    3    0    0  0.24373771454E+02 -0.28255580843E+01  0.13276919849E+02  0.27898765458E+02  0.00000000000E+00 0.  1.
</event>
<event>
 7    1  0.3611369E-013  0.7246147E+02  0.7816164E-02  0.1226708E+00
        -11   -1    0    0    0    0  0.00000000000E+00  0.00000000000E+00  0.45593999997E+02  0.45594000000E+02  0.51100000000E-03 0.  1.
         11   -1    0    0    0    0 -0.00000000000E+00 -0.00000000000E+00 -0.45593999997E+02  0.45594000000E+02  0.51100000000E-03 0. -1.
    9900012    2    1    2    0    0 -0.18528101192E+02 -0.81086582547E+00 -0.25951598788E+01  0.72461470905E+02  0.69999870527E+02 0.  0.
        -12    1    1    2    0    0  0.18528101192E+02  0.81086582547E+00  0.25951598788E+01  0.18726529095E+02  0.00000000000E+00 0.  1.
         11    1    3    3    0    0 -0.12820550011E+02  0.85249589258E+01  0.63756833204E+01  0.16664056089E+02  0.51100000000E-03 0. -1.
        -11    1    3    3    0    0 -0.21715065116E+02 -0.14797252859E+02  0.11973317435E+02  0.28876687411E+02  0.51100000000E-03 0.  1.
         12    1    3    3    0    0  0.16007513935E+02  0.54614281076E+01 -0.20944160634E+02  0.26920727405E+02  0.00000000000E+00 0. -1.
</event>
<event>
 7    1  0.3611369E-013  0.7246153E+02  0.7816164E-02  0.1226708E+00
        -11   -1    0    0    0    0  0.00000000000E+00  0.00000000000E+00  0.45593999997E+02  0.45594000000E+02  0.51100000000E-03 0. -1.
         11   -1    0    0    0    0 -0.00000000000E+00 -0.00000000000E+00 -0.45593999997E+02  0.45594000000E+02  0.51100000000E-03 0.  1.
    9900012    2    1    2    0    0 -0.16779614884E+02  0.54807209700E+01 -0.62519406277E+01  0.72461533712E+02  0.69999952345E+02 0.  0.
        -12    1    1    2    0    0  0.16779614884E+02 -0.54807209700E+01  0.62519406277E+01  0.18726466288E+02  0.00000000000E+00 0.  1.
         11    1    3    3    0    0  0.12675440395E+02  0.11537149780E+02  0.16637370184E+02  0.23886705531E+02  0.51100000000E-03 0. -1.
        -11    1    3    3    0    0 -0.64789412413E+01 -0.14574511743E+02 -0.14497942825E+01  0.16015460526E+02  0.51100000000E-03 0.  1.
        -12    1    3    3    0    0 -0.22976114037E+02  0.85180829327E+01 -0.21439516529E+02  0.32559367655E+02  0.00000000000E+00 0.  1.
</event>
<event>
 7    1  0.3611369E-013  0.7246149E+02  0.7816164E-02  0.1226708E+00
        -11   -1    0    0    0    0  0.00000000000E+00  0.00000000000E+00  0.45593999997E+02  0.45594000000E+02  0.51100000000E-03 0. -1.
         11   -1    0    0    0    0 -0.00000000000E+00 -0.00000000000E+00 -0.45593999997E+02  0.45594000000E+02  0.51100000000E-03 0.  1.
    9900012    2    1    2    0    0 -0.81185686089E+01 -0.12547400397E+02  0.11284219982E+02  0.72461493824E+02  0.69999900382E+02 0.  0.
        -12    1    1    2    0    0  0.81185686089E+01  0.12547400397E+02 -0.11284219982E+02  0.18726506176E+02  0.00000000000E+00 0.  1.
         11    1    3    3    0    0  0.76148888074E+01  0.52065260572E+01  0.12220564159E+02  0.15311323710E+02  0.51100000000E-03 0. -1.
        -11    1    3    3    0    0 -0.34260061780E+02 -0.63742935993E+01  0.32825102656E+01  0.35002261726E+02  0.51100000000E-03 0.  1.
         12    1    3    3    0    0  0.18526604363E+02 -0.11379632855E+02 -0.42188544421E+01  0.22147908387E+02  0.00000000000E+00 0. -1.
</event>
<event>
 7    1  0.3611369E-013  0.7246159E+02  0.7816164E-02  0.1226708E+00
        -11   -1    0    0    0    0  0.00000000000E+00  0.00000000000E+00  0.45593999997E+02  0.45594000000E+02  0.51100000000E-03 0.  1.
         11   -1    0    0    0    0 -0.00000000000E+00 -0.00000000000E+00 -0.45593999997E+02  0.45594000000E+02  0.51100000000E-03 0. -1.
    9900012    2    1    2    0    0 -0.10599666496E+02 -0.14147152222E+02 -0.61792948306E+01  0.72461587358E+02  0.70000022229E+02 0.  0.
        -12    1    1    2    0    0  0.10599666496E+02  0.14147152222E+02  0.61792948306E+01  0.18726412642E+02  0.00000000000E+00 0.  1.
         11    1    3    3    0    0  0.21948348364E+02 -0.10001870072E+02  0.94163299055E+01  0.25892753233E+02  0.51100000000E-03 0. -1.
        -11    1    3    3    0    0  0.40278193986E+00 -0.74354652778E+01 -0.10786002481E+02  0.13106724494E+02  0.51100000000E-03 0.  1.
        -12    1    3    3    0    0 -0.32950796800E+02  0.32901831279E+01 -0.48096222556E+01  0.33462109632E+02  0.00000000000E+00 0.  1.
</event>
<event>
 7    1  0.3611369E-013  0.7246152E+02  0.7816164E-02  0.1226708E+00
        -11   -1    0    0    0    0  0.00000000000E+00  0.00000000000E+00  0.45593999997E+02  0.45594000000E+02  0.51100000000E-03 0. -1.
         11   -1    0    0    0    0 -0.00000000000E+00 -0.00000000000E+00 -0.45593999997E+02  0.45594000000E+02  0.51100000000E-03 0.  1.
    9900012    2    1    2    0    0  0.11156758651E+02 -0.26201643842E+01  0.14810212773E+02  0.72461523359E+02  0.69999938858E+02 0.  0.
        -12    1    1    2    0    0 -0.11156758651E+02  0.26201643842E+01 -0.14810212773E+02  0.18726476641E+02  0.00000000000E+00 0.  1.
         11    1    3    3    0    0  0.67173685356E+01 -0.14020532292E+02 -0.15519015072E+02  0.21966752032E+02  0.51100000000E-03 0. -1.
        -11    1    3    3    0    0  0.81572497492E+01 -0.12513096019E+02  0.17819627904E+02  0.23252041510E+02  0.51100000000E-03 0.  1.
        -12    1    3    3    0    0 -0.37178596343E+01  0.23913463927E+02  0.12509599941E+02  0.27242729818E+02  0.00000000000E+00 0.  1.
</event>
<event>
 7    1  0.3611369E-013  0.7246174E+02  0.7816164E-02  0.1226708E+00
        -11   -1    0    0    0    0  0.00000000000E+00  0.00000000000E+00  0.45593999997E+02  0.45594000000E+02  0.51100000000E-03 0.  1.
         11   -1    0    0    0    0 -0.00000000000E+00 -0.00000000000E+00 -0.45593999997E+02  0.45594000000E+02  0.51100000000E-03 0. -1.
    9900012    2    1    2    0    0  0.76135289371E+01  0.66636888670E+01 -0.15757604766E+02  0.72461743563E+02  0.70000225714E+02 0.  0.
        -12    1    1    2    0    0 -0.76135289371E+01 -0.66636888670E+01  0.15757604766E+02  0.18726256437E+02  0.00000000000E+00 0.  1.
         11    1    3    3    0    0  0.25578417677E+01 -0.20442546616E+01 -0.20689667384E+02  0.20947168504E+02  0.51100000000E-03 0. -1.
        -11    1    3    3    0    0 -0.13986728824E+02 -0.11671716724E+02 -0.90202343727E+01  0.20327867150E+02  0.51100000000E-03 0.  1.
        -12    1    3    3    0    0  0.19042415993E+02  0.20379660253E+02  0.13952296991E+02  0.31186707909E+02  0.00000000000E+00 0.  1.
</event>
<event>
 7    1  0.3611369E-013  0.7246154E+02  0.7816164E-02  0.1226708E+00
        -11   -1    0    0    0    0  0.00000000000E+00  0.00000000000E+00  0.45593999997E+02  0.45594000000E+02  0.51100000000E-03 0. -1.
         11   -1    0    0    0    0 -0.00000000000E+00 -0.00000000000E+00 -0.45593999997E+02  0.45594000000E+02  0.51100000000E-03 0.  1.
    9900012    2    1    2    0    0 -0.30318460057E+01  0.91142357452E+01 -0.16075408252E+02  0.72461544545E+02  0.69999966457E+02 0.  0.
        -12    1    1    2    0    0  0.30318460057E+01 -0.91142357452E+01  0.16075408252E+02  0.18726455455E+02  0.00000000000E+00 0.  1.
         11    1    3    3    0    0 -0.11011680593E+02  0.14156985685E+02  0.23277973144E+01  0.18085795359E+02  0.51100000000E-03 0. -1.
        -11    1    3    3    0    0  0.10673934830E+02  0.17847761001E+02 -0.22856057422E+02  0.30901048828E+02  0.51100000000E-03 0.  1.
         12    1    3    3    0    0 -0.26941002428E+01 -0.22890510941E+02  0.44528518552E+01  0.23474700358E+02  0.00000000000E+00 0. -1.
</event>
<event>
 7    1  0.3611369E-013  0.7246153E+02  0.7816164E-02  0.1226708E+00
        -11   -1    0    0    0    0  0.00000000000E+00  0.00000000000E+00  0.45593999997E+02  0.45594000000E+02  0.51100000000E-03 0. -1.
         11   -1    0    0    0    0 -0.00000000000E+00 -0.00000000000E+00 -0.45593999997E+02  0.45594000000E+02  0.51100000000E-03 0.  1.
    9900012    2    1    2    0    0  0.16306405345E+02  0.27707829888E+01 -0.87809253292E+01  0.72461528275E+02  0.69999945262E+02 0.  0.
        -12    1    1    2    0    0 -0.16306405345E+02 -0.27707829888E+01  0.87809253292E+01  0.18726471725E+02  0.00000000000E+00 0.  1.
         11    1    3    3    0    0 -0.45447058609E+01  0.56081018992E+00 -0.42608008134E+00  0.45989568304E+01  0.51100000000E-03 0. -1.
        -11    1    3    3    0    0 -0.12494417143E+02  0.17899654497E+02 -0.19595465033E+02  0.29334115651E+02  0.51100000000E-03 0.  1.
         12    1    3    3    0    0  0.33345528349E+02 -0.15689681699E+02  0.11240619785E+02  0.38528455794E+02  0.00000000000E+00 0. -1.
</event>
<event>
 7    1  0.3611369E-013  0.7246152E+02  0.7816164E-02  0.1226708E+00
        -11   -1    0    0    0    0  0.00000000000E+00  0.00000000000E+00  0.45593999997E+02  0.45594000000E+02  0.51100000000E-03 0.  1.
         11   -1    0    0    0    0 -0.00000000000E+00 -0.00000000000E+00 -0.45593999997E+02  0.45594000000E+02  0.51100000000E-03 0. -1.
    9900012    2    1    2    0    0 -0.50315335880E+01 -0.12610585422E+01 -0.17993738067E+02  0.72461515853E+02  0.69999929080E+02 0.  0.
        -12    1    1    2    0    0  0.50315335880E+01  0.12610585422E+01  0.17993738067E+02  0.18726484147E+02  0.00000000000E+00 0.  1.
         11    1    3    3    0    0  0.19161137487E+02  0.95524495711E+01 -0.39976335895E+00  0.21413974260E+02  0.51100000000E-03 0. -1.
        -11    1    3    3    0    0  0.10552155677E+02 -0.99086730296E+00 -0.90668868811E+01  0.13947696778E+02  0.51100000000E-03 0.  1.
         12    1    3    3    0    0 -0.34744826752E+02 -0.98226408103E+01 -0.85270878268E+01  0.37099844815E+02  0.00000000000E+00 0. -1.
</event>
<event>
 7    1  0.3611369E-013  0.7246134E+02  0.7816164E-02  0.1226709E+00
        -11   -1    0    0    0    0  0.00000000000E+00  0.00000000000E+00  0.45593999997E+02  0.45594000000E+02  0.51100000000E-03 0.  1.
         11   -1    0    0    0    0 -0.00000000000E+00 -0.00000000000E+00 -0.45593999997E+02  0.45594000000E+02  0.51100000000E-03 0. -1.
    9900012    2    1    2    0    0  0.14572989106E+01 -0.13678873633E+02 -0.12706398107E+02  0.72461338343E+02  0.69999697839E+02 0.  0.
        -12    1    1    2    0    0 -0.14572989106E+01  0.13678873633E+02  0.12706398107E+02  0.18726661657E+02  0.00000000000E+00 0.  1.
         11    1    3    3    0    0  0.13612064210E+02  0.18985242682E+02  0.51651051149E+01  0.23925008732E+02  0.51100000000E-03 0. -1.
        -11    1    3    3    0    0  0.66339801227E+01 -0.17016782991E+02 -0.15528539546E+02  0.23973237919E+02  0.51100000000E-03 0.  1.
        -12    1    3    3    0    0 -0.18788745422E+02 -0.15647333324E+02 -0.23429636760E+01  0.24563091692E+02  0.00000000000E+00 0.  1.
</event>
<event>
 7    1  0.3611369E-013  0.7246150E+02  0.7816164E-02  0.1226708E+00
        -11   -1    0    0    0    0  0.00000000000E+00  0.00000000000E+00  0.45593999997E+02  0.45594000000E+02  0.51100000000E-03 0.  1.
         11   -1    0    0    0    0 -0.00000000000E+00 -0.00000000000E+00 -0.45593999997E+02  0.45594000000E+02  0.51100000000E-03 0. -1.
    9900012    2    1    2    0    0 -0.18081202259E+02  0.29768781737E+01 -0.38587681445E+01  0.72461500851E+02  0.69999909537E+02 0.  0.
        -12    1    1    2    0    0  0.18081202259E+02 -0.29768781737E+01  0.38587681445E+01  0.18726499149E+02  0.00000000000E+00 0.  1.
         11    1    3    3    0    0 -0.59952431267E+01 -0.11876661820E+02  0.13992147559E+02  0.19307465647E+02  0.51100000000E-03 0. -1.
        -11    1    3    3    0    0 -0.18048745456E+02  0.28392833576E+02 -0.59472094901E+01  0.34165472513E+02  0.51100000000E-03 0.  1.
         12    1    3    3    0    0  0.59627863240E+01 -0.13539293583E+02 -0.11903706213E+02  0.18988562691E+02  0.00000000000E+00 0. -1.
</event>
<event>
 7    1  0.3611369E-013  0.7246155E+02  0.7816164E-02  0.1226708E+00
        -11   -1    0    0    0    0  0.00000000000E+00  0.00000000000E+00  0.45593999997E+02  0.45594000000E+02  0.51100000000E-03 0. -1.
         11   -1    0    0    0    0 -0.00000000000E+00 -0.00000000000E+00 -0.45593999997E+02  0.45594000000E+02  0.51100000000E-03 0.  1.
    9900012    2    1    2    0    0 -0.10982426285E+02 -0.12775597329E+02  0.81762020769E+01  0.72461552002E+02  0.69999976170E+02 0.  0.
        -12    1    1    2    0    0  0.10982426285E+02  0.12775597329E+02 -0.81762020769E+01  0.18726447998E+02  0.00000000000E+00 0.  1.
         11    1    3    3    0    0  0.12822822186E+02 -0.73521295124E+00  0.26321406580E+01  0.13110815062E+02  0.51100000000E-03 0. -1.
        -11    1    3    3    0    0  0.60404026622E+01 -0.25600790830E+02  0.28767063212E+01  0.26460581909E+02  0.51100000000E-03 0.  1.
        -12    1    3    3    0    0 -0.29845651134E+02  0.13560406452E+02  0.26673550978E+01  0.32890155031E+02  0.00000000000E+00 0.  1.
</event>
<event>
 7    1  0.3611369E-013  0.7246157E+02  0.7816164E-02  0.1226708E+00
        -11   -1    0    0    0    0  0.00000000000E+00  0.00000000000E+00  0.45593999997E+02  0.45594000000E+02  0.51100000000E-03 0.  1.
         11   -1    0    0    0    0 -0.00000000000E+00 -0.00000000000E+00 -0.45593999997E+02  0.45594000000E+02  0.51100000000E-03 0. -1.
    9900012    2    1    2    0    0  0.56181449396E+00 -0.75828763675E+01 -0.17113261148E+02  0.72461565298E+02  0.69999993491E+02 0.  0.
        -12    1    1    2    0    0 -0.56181449396E+00  0.75828763675E+01  0.17113261148E+02  0.18726434702E+02  0.00000000000E+00 0.  1.
         11    1    3    3    0    0  0.15897317631E+01  0.24246259532E+02 -0.26855701468E+02  0.36216530065E+02  0.51100000000E-03 0. -1.
        -11    1    3    3    0    0  0.63327362584E+01 -0.15824063066E+02  0.26254540229E+01  0.17245217585E+02  0.51100000000E-03 0.  1.
        -12    1    3    3    0    0 -0.73606535275E+01 -0.16005072833E+02  0.71169862966E+01  0.18999817649E+02  0.00000000000E+00 0.  1.
</event>
<event>
 7    1  0.3611369E-013  0.7246129E+02  0.7816164E-02  0.1226709E+00
        -11   -1    0    0    0    0  0.00000000000E+00  0.00000000000E+00  0.45593999997E+02  0.45594000000E+02  0.51100000000E-03 0. -1.
         11   -1    0    0    0    0 -0.00000000000E+00 -0.00000000000E+00 -0.45593999997E+02  0.45594000000E+02  0.51100000000E-03 0.  1.
    9900012    2    1    2    0    0 -0.11563983090E+02  0.26759391677E+01  0.14484592646E+02  0.72461287009E+02  0.69999630968E+02 0.  0.
        -12    1    1    2    0    0  0.11563983090E+02 -0.26759391677E+01 -0.14484592646E+02  0.18726712991E+02  0.00000000000E+00 0.  1.
         11    1    3    3    0    0 -0.14729630148E+02  0.22263819575E+02  0.97676496330E+01  0.28426161295E+02  0.51100000000E-03 0. -1.
        -11    1    3    3    0    0 -0.16452614157E+02 -0.95819284059E+01  0.98291448105E+01  0.21426944545E+02  0.51100000000E-03 0.  1.
        -12    1    3    3    0    0  0.19618261215E+02 -0.10005952001E+02 -0.51122017979E+01  0.22608181169E+02  0.00000000000E+00 0.  1.
</event>
<event>
 7    1  0.3775290E-013  0.7246153E+02  0.7816164E-02  0.1226708E+00
        -11   -1    0    0    0    0  0.00000000000E+00  0.00000000000E+00  0.45593999997E+02  0.45594000000E+02  0.51100000000E-03 0.  1.
         11   -1    0    0    0    0 -0.00000000000E+00 -0.00000000000E+00 -0.45593999997E+02  0.45594000000E+02  0.51100000000E-03 0. -1.
    9900012    2    1    2    0    0  0.73497540902E-01 -0.17244280242E+02  0.73013753017E+01  0.72461529850E+02  0.69999947314E+02 0.  0.
        -12    1    1    2    0    0 -0.73497540902E-01  0.17244280242E+02 -0.73013753017E+01  0.18726470150E+02  0.00000000000E+00 0.  1.
         11    1    3    3    0    0  0.10949246025E+02 -0.36137315375E+02 -0.27583473476E+00  0.37760662548E+02  0.51100000000E-03 0. -1.
        -11    1    3    3    0    0  0.77610707683E+01  0.71655852646E+01  0.70031601165E+01  0.12673755700E+02  0.51100000000E-03 0.  1.
        -12    1    3    3    0    0 -0.18636819252E+02  0.11727449868E+02  0.57404991998E+00  0.22027111602E+02  0.00000000000E+00 0.  1.
</event>
<event>
 7    1  0.3611369E-013  0.7246153E+02  0.7816164E-02  0.1226708E+00
        -11   -1    0    0    0    0  0.00000000000E+00  0.00000000000E+00  0.45593999997E+02  0.45594000000E+02  0.51100000000E-03 0.  1.
         11   -1    0    0    0    0 -0.00000000000E+00 -0.00000000000E+00 -0.45593999997E+02  0.45594000000E+02  0.51100000000E-03 0. -1.
    9900012    2    1    2    0    0 -0.10800240116E+02  0.17763057090E+00 -0.15297186528E+02  0.72461530636E+02  0.69999948338E+02 0.  0.
        -12    1    1    2    0    0  0.10800240116E+02 -0.17763057090E+00  0.15297186528E+02  0.18726469364E+02  0.00000000000E+00 0.  1.
         11    1    3    3    0    0  0.21123115472E+01 -0.75659671984E+01 -0.22476180586E+02  0.23809334592E+02  0.51100000000E-03 0. -1.
        -11    1    3    3    0    0 -0.16655440455E+02  0.13386512907E+02 -0.14576989557E+02  0.25866794339E+02  0.51100000000E-03 0.  1.
         12    1    3    3    0    0  0.37428887920E+01 -0.56429151373E+01  0.21755983616E+02  0.22785401705E+02  0.00000000000E+00 0. -1.
</event>
<event>
 7    1  0.3611369E-013  0.7246155E+02  0.7816164E-02  0.1226708E+00
        -11   -1    0    0    0    0  0.00000000000E+00  0.00000000000E+00  0.45593999997E+02  0.45594000000E+02  0.51100000000E-03 0.  1.
         11   -1    0    0    0    0 -0.00000000000E+00 -0.00000000000E+00 -0.45593999997E+02  0.45594000000E+02  0.51100000000E-03 0. -1.
    9900012    2    1    2    0    0 -0.10296860269E+02  0.90418560115E+01 -0.12763205833E+02  0.72461550399E+02  0.69999974082E+02 0.  0.
        -12    1    1    2    0    0  0.10296860269E+02 -0.90418560115E+01  0.12763205833E+02  0.18726449601E+02  0.00000000000E+00 0.  1.
         11    1    3    3    0    0 -0.21652663702E+02  0.80293387381E+01 -0.26762706492E+02  0.35348982800E+02  0.51100000000E-03 0. -1.
        -11    1    3    3    0    0 -0.87325976994E+01 -0.61814283667E+01 -0.14113077366E+01  0.10791668500E+02  0.51100000000E-03 0.  1.
        -12    1    3    3    0    0  0.20088401132E+02  0.71939456401E+01  0.15410808396E+02  0.26320899098E+02  0.00000000000E+00 0.  1.
</event>
<event>
 7    1  0.3611369E-013  0.7246150E+02  0.7816164E-02  0.1226708E+00
        -11   -1    0    0    0    0  0.00000000000E+00  0.00000000000E+00  0.45593999997E+02  0.45594000000E+02  0.51100000000E-03 0.  1.
         11   -1    0    0    0    0 -0.00000000000E+00 -0.00000000000E+00 -0.45593999997E+02  0.45594000000E+02  0.51100000000E-03 0. -1.
    9900012    2    1    2    0    0 -0.24619517175E+01 -0.22155265234E+01 -0.18431282401E+02  0.72461496456E+02  0.69999903812E+02 0.  0.
        -12    1    1    2    0    0  0.24619517175E+01  0.22155265234E+01  0.18431282401E+02  0.18726503544E+02  0.00000000000E+00 0.  1.
         11    1    3    3    0    0  0.75152947240E+01  0.28548526434E+02 -0.92570250951E+01  0.30938495927E+02  0.51100000000E-03 0. -1.
        -11    1    3    3    0    0  0.70365760977E+01 -0.12619412150E+02 -0.82371624019E+01  0.16631711003E+02  0.51100000000E-03 0.  1.
        -12    1    3    3    0    0 -0.17013822539E+02 -0.18144640807E+02 -0.93709490360E+00  0.24891289526E+02  0.00000000000E+00 0.  1.
</event>
<event>
 7    1  0.3611369E-013  0.7246166E+02  0.7816164E-02  0.1226708E+00
        -11   -1    0    0    0    0  0.00000000000E+00  0.00000000000E+00  0.45593999997E+02  0.45594000000E+02  0.51100000000E-03 0.  1.
         11   -1    0    0    0    0 -0.00000000000E+00 -0.00000000000E+00 -0.45593999997E+02  0.45594000000E+02  0.51100000000E-03 0. -1.
    9900012    2    1    2    0    0 -0.49056513217E+01  0.16222383586E+02  0.79652213706E+01  0.72461657709E+02  0.70000113874E+02 0.  0.
        -12    1    1    2    0    0  0.49056513217E+01 -0.16222383586E+02 -0.79652213706E+01  0.18726342291E+02  0.00000000000E+00 0.  1.
         11    1    3    3    0    0  0.22076855814E+01 -0.21660710739E+02  0.13676929997E+00  0.21773354621E+02  0.51100000000E-03 0. -1.
        -11    1    3    3    0    0  0.11851323774E+02  0.67930947549E+01  0.19191378936E+01  0.13794314121E+02  0.51100000000E-03 0.  1.
        -12    1    3    3    0    0 -0.18964660677E+02  0.31089999570E+02  0.59093141771E+01  0.36893988967E+02  0.00000000000E+00 0.  1.
</event>
<event>
 7    1  0.3611369E-013  0.7246157E+02  0.7816164E-02  0.1226708E+00
        -11   -1    0    0    0    0  0.00000000000E+00  0.00000000000E+00  0.45593999997E+02  0.45594000000E+02  0.51100000000E-03 0. -1.
         11   -1    0    0    0    0 -0.00000000000E+00 -0.00000000000E+00 -0.45593999997E+02  0.45594000000E+02  0.51100000000E-03 0.  1.
    9900012    2    1    2    0    0 -0.11581715047E+02 -0.14633785800E+02  0.15477261367E+01  0.72461567706E+02  0.69999996628E+02 0.  0.
        -12    1    1    2    0    0  0.11581715047E+02  0.14633785800E+02 -0.15477261367E+01  0.18726432294E+02  0.00000000000E+00 0.  1.
         11    1    3    3    0    0  0.55513716008E+00 -0.96409694274E+01 -0.85843065357E+01  0.12920788975E+02  0.51100000000E-03 0. -1.
        -11    1    3    3    0    0  0.90417549049E+01  0.14556056059E+00 -0.20234633875E+02  0.22163369057E+02  0.51100000000E-03 0.  1.
         12    1    3    3    0    0 -0.21178607112E+02 -0.51383769336E+01  0.30366666548E+02  0.37377409674E+02  0.00000000000E+00 0. -1.
</event>
<event>
 7    1  0.3611369E-013  0.7246162E+02  0.7816164E-02  0.1226708E+00
        -11   -1    0    0    0    0  0.00000000000E+00  0.00000000000E+00  0.45593999997E+02  0.45594000000E+02  0.51100000000E-03 0.  1.
         11   -1    0    0    0    0 -0.00000000000E+00 -0.00000000000E+00 -0.45593999997E+02  0.45594000000E+02  0.51100000000E-03 0. -1.
    9900012    2    1    2    0    0 -0.27414616625E+01  0.37728443088E+01 -0.18136351188E+02  0.72461622864E+02  0.70000068481E+02 0.  0.
        -12    1    1    2    0    0  0.27414616625E+01 -0.37728443088E+01  0.18136351188E+02  0.18726377136E+02  0.00000000000E+00 0.  1.
         11    1    3    3    0    0  0.49603030824E-01  0.13940786571E+02 -0.30886310761E+01  0.14278922679E+02  0.51100000000E-03 0. -1.
        -11    1    3    3    0    0 -0.25757797559E+02 -0.93791453630E+01  0.47860602857E+01  0.27826945146E+02  0.51100000000E-03 0.  1.
         12    1    3    3    0    0  0.22966732866E+02 -0.78879689953E+00 -0.19833780398E+02  0.30355755039E+02  0.00000000000E+00 0. -1.
</event>
<event>
 7    1  0.3611369E-013  0.7246158E+02  0.7816164E-02  0.1226708E+00
        -11   -1    0    0    0    0  0.00000000000E+00  0.00000000000E+00  0.45593999997E+02  0.45594000000E+02  0.51100000000E-03 0.  1.
         11   -1    0    0    0    0 -0.00000000000E+00 -0.00000000000E+00 -0.45593999997E+02  0.45594000000E+02  0.51100000000E-03 0. -1.
    9900012    2    1    2    0    0 -0.48281437857E+01  0.16774874522E+02  0.67802125065E+01  0.72461583651E+02  0.70000017399E+02 0.  0.
        -12    1    1    2    0    0  0.48281437857E+01 -0.16774874522E+02 -0.67802125065E+01  0.18726416349E+02  0.00000000000E+00 0.  1.
         11    1    3    3    0    0  0.11568887064E+02  0.16841865059E+02  0.32447293103E+01  0.20688543572E+02  0.51100000000E-03 0. -1.
        -11    1    3    3    0    0  0.16611060590E+02 -0.16451184678E+01 -0.53937367148E+01  0.17542124863E+02  0.51100000000E-03 0.  1.
        -12    1    3    3    0    0 -0.33008091440E+02  0.15781279315E+01  0.89292199110E+01  0.34230915216E+02  0.00000000000E+00 0.  1.
</event>
<event>
 7    1  0.3611369E-013  0.7246154E+02  0.7816164E-02  0.1226708E+00
        -11   -1    0    0    0    0  0.00000000000E+00  0.00000000000E+00  0.45593999997E+02  0.45594000000E+02  0.51100000000E-03 0. -1.
         11   -1    0    0    0    0 -0.00000000000E+00 -0.00000000000E+00 -0.45593999997E+02  0.45594000000E+02  0.51100000000E-03 0.  1.
    9900012    2    1    2    0    0  0.17870306635E+02  0.54577177854E+01  0.12432654994E+01  0.72461541398E+02  0.69999962357E+02 0.  0.
        -12    1    1    2    0    0 -0.17870306635E+02 -0.54577177854E+01 -0.12432654994E+01  0.18726458602E+02  0.00000000000E+00 0.  1.
         11    1    3    3    0    0  0.15625518544E+02  0.97374424986E+01  0.96786520141E+00  0.18436685697E+02  0.51100000000E-03 0. -1.
        -11    1    3    3    0    0  0.13971368737E+02  0.17218714549E+02  0.13732861749E+02  0.26082077509E+02  0.51100000000E-03 0.  1.
         12    1    3    3    0    0 -0.11726580646E+02 -0.21498439262E+02 -0.13457461451E+02  0.27942778192E+02  0.00000000000E+00 0. -1.
</event>
<event>
 7    1  0.3611369E-013  0.7246237E+02  0.7816164E-02  0.1226706E+00
        -11   -1    0    0    0    0  0.00000000000E+00  0.00000000000E+00  0.45593999997E+02  0.45594000000E+02  0.51100000000E-03 0. -1.
         11   -1    0    0    0    0 -0.00000000000E+00 -0.00000000000E+00 -0.45593999997E+02  0.45594000000E+02  0.51100000000E-03 0.  1.
    9900012    2    1    2    0    0  0.47699705189E+01 -0.93954925482E+01  0.15479701221E+02  0.72462374540E+02  0.70001047671E+02 0.  0.
        -12    1    1    2    0    0 -0.47699705189E+01  0.93954925482E+01 -0.15479701221E+02  0.18725625460E+02  0.00000000000E+00 0.  1.
         11    1    3    3    0    0  0.16211606901E+02  0.14254157452E+02  0.51372866842E+01  0.22189838163E+02  0.51100000000E-03 0.  1.
        -11    1    3    3    0    0  0.37297633834E+01 -0.25467227339E+02 -0.74732354201E+01  0.26801866561E+02  0.51100000000E-03 0. -1.
        -12    1    3    3    0    0 -0.15171399765E+02  0.18175773394E+01  0.17815649957E+02  0.23470669816E+02  0.00000000000E+00 0.  1.
</event>
<event>
 7    1  0.3611369E-013  0.7246154E+02  0.7816164E-02  0.1226708E+00
        -11   -1    0    0    0    0  0.00000000000E+00  0.00000000000E+00  0.45593999997E+02  0.45594000000E+02  0.51100000000E-03 0.  1.
         11   -1    0    0    0    0 -0.00000000000E+00 -0.00000000000E+00 -0.45593999997E+02  0.45594000000E+02  0.51100000000E-03 0. -1.
    9900012    2    1    2    0    0 -0.11949593666E+02  0.95369493376E+01  0.10813601229E+02  0.72461543768E+02  0.69999965445E+02 0.  0.
        -12    1    1    2    0    0  0.11949593666E+02 -0.95369493376E+01 -0.10813601229E+02  0.18726456232E+02  0.00000000000E+00 0.  1.
         11    1    3    3    0    0  0.41070680329E+01  0.21741336840E+02 -0.37501439417E+01  0.22441419636E+02  0.51100000000E-03 0. -1.
        -11    1    3    3    0    0  0.93103579629E+01  0.59588061776E+01  0.15224180951E+02  0.18813979440E+02  0.51100000000E-03 0.  1.
        -12    1    3    3    0    0 -0.25367019662E+02 -0.18163193680E+02 -0.66043578025E+00  0.31206144693E+02  0.00000000000E+00 0.  1.
</event>
<event>
 7    1  0.3611369E-013  0.7246159E+02  0.7816164E-02  0.1226708E+00
        -11   -1    0    0    0    0  0.00000000000E+00  0.00000000000E+00  0.45593999997E+02  0.45594000000E+02  0.51100000000E-03 0. -1.
         11   -1    0    0    0    0 -0.00000000000E+00 -0.00000000000E+00 -0.45593999997E+02  0.45594000000E+02  0.51100000000E-03 0.  1.
    9900012    2    1    2    0    0  0.14619529526E+02  0.20734298059E+01  0.11517321010E+02  0.72461589827E+02  0.70000025445E+02 0.  0.
        -12    1    1    2    0    0 -0.14619529526E+02 -0.20734298059E+01 -0.11517321010E+02  0.18726410173E+02  0.00000000000E+00 0.  1.
         11    1    3    3    0    0 -0.13216183226E+02 -0.12803831354E+02 -0.83414833611E+01  0.20203612086E+02  0.51100000000E-03 0. -1.
        -11    1    3    3    0    0  0.23004956119E+02 -0.76864309546E+01  0.15472102385E+02  0.28769692027E+02  0.51100000000E-03 0.  1.
        -12    1    3    3    0    0  0.48307566332E+01  0.22563692114E+02  0.43867019860E+01  0.23488285714E+02  0.00000000000E+00 0.  1.
</event>
<event>
 7    1  0.3611369E-013  0.7246127E+02  0.7816164E-02  0.1226709E+00
        -11   -1    0    0    0    0  0.00000000000E+00  0.00000000000E+00  0.45593999997E+02  0.45594000000E+02  0.51100000000E-03 0. -1.
         11   -1    0    0    0    0 -0.00000000000E+00 -0.00000000000E+00 -0.45593999997E+02  0.45594000000E+02  0.51100000000E-03 0.  1.
    9900012    2    1    2    0    0 -0.18674136212E+02 -0.12674621707E+01  0.60060583902E+00  0.72461266409E+02  0.69999604132E+02 0.  0.
        -12    1    1    2    0    0  0.18674136212E+02  0.12674621707E+01 -0.60060583902E+00  0.18726733591E+02  0.00000000000E+00 0.  1.
         11    1    3    3    0    0 -0.24147492118E+01 -0.10909177475E+02  0.36998443676E+01  0.11769877465E+02  0.51100000000E-03 0. -1.
        -11    1    3    3    0    0  0.21311924801E+02  0.81963823108E+01  0.10893986769E+01  0.22859694037E+02  0.51100000000E-03 0.  1.
         12    1    3    3    0    0 -0.37571311801E+02  0.14453329933E+01 -0.41886372055E+01  0.37831694907E+02  0.00000000000E+00 0. -1.
</event>
<event>
 7    1  0.3611369E-013  0.7246157E+02  0.7816164E-02  0.1226708E+00
        -11   -1    0    0    0    0  0.00000000000E+00  0.00000000000E+00  0.45593999997E+02  0.45594000000E+02  0.51100000000E-03 0. -1.
         11   -1    0    0    0    0 -0.00000000000E+00 -0.00000000000E+00 -0.45593999997E+02  0.45594000000E+02  0.51100000000E-03 0.  1.
    9900012    2    1    2    0    0  0.15614338143E+02  0.43369194673E+01  0.93841798386E+01  0.72461567949E+02  0.69999996945E+02 0.  0.
        -12    1    1    2    0    0 -0.15614338143E+02 -0.43369194673E+01 -0.93841798386E+01  0.18726432051E+02  0.00000000000E+00 0.  1.
         11    1    3    3    0    0  0.19651554593E+02 -0.42893430400E+01  0.17458409107E+02  0.26634153083E+02  0.51100000000E-03 0. -1.
        -11    1    3    3    0    0 -0.77523194800E+01 -0.85637039184E+01  0.13646743092E+02  0.17879291916E+02  0.51100000000E-03 0.  1.
        -12    1    3    3    0    0  0.37151030299E+01  0.17189966426E+02 -0.21720972360E+02  0.27948122951E+02  0.00000000000E+00 0.  1.
</event>
<event>
 7    1  0.3611369E-013  0.7246158E+02  0.7816164E-02  0.1226708E+00
        -11   -1    0    0    0    0  0.00000000000E+00  0.00000000000E+00  0.45593999997E+02  0.45594000000E+02  0.51100000000E-03 0.  1.
         11   -1    0    0    0    0 -0.00000000000E+00 -0.00000000000E+00 -0.45593999997E+02  0.45594000000E+02  0.51100000000E-03 0. -1.
    9900012    2    1    2    0    0 -0.53341239876E+00  0.27346728552E+01 -0.18517986078E+02  0.72461580887E+02  0.70000013798E+02 0.  0.
        -12    1    1    2    0    0  0.53341239876E+00 -0.27346728552E+01  0.18517986078E+02  0.18726419113E+02  0.00000000000E+00 0.  1.
         11    1    3    3    0    0 -0.15522315492E+02  0.57861633694E+01  0.36992022170E+01  0.16973687345E+02  0.51100000000E-03 0. -1.
        -11    1    3    3    0    0  0.22597147010E+02  0.14693095267E+02 -0.12461310923E+01  0.26982789783E+02  0.51100000000E-03 0.  1.
         12    1    3    3    0    0 -0.76082439169E+01 -0.17744585782E+02 -0.20971057203E+02  0.28505103758E+02  0.00000000000E+00 0. -1.
</event>
<event>
 7    1  0.3611369E-013  0.7246167E+02  0.7816164E-02  0.1226708E+00
        -11   -1    0    0    0    0  0.00000000000E+00  0.00000000000E+00  0.45593999997E+02  0.45594000000E+02  0.51100000000E-03 0.  1.
         11   -1    0    0    0    0 -0.00000000000E+00 -0.00000000000E+00 -0.45593999997E+02  0.45594000000E+02  0.51100000000E-03 0. -1.
    9900012    2    1    2    0    0  0.12939145024E+02  0.11673425281E+02 -0.68545634822E+01  0.72461671682E+02  0.70000132076E+02 0.  0.
        -12    1    1    2    0    0 -0.12939145024E+02 -0.11673425281E+02  0.68545634822E+01  0.18726328318E+02  0.00000000000E+00 0.  1.
         11    1    3    3    0    0 -0.15306952502E+01 -0.18873782399E+02 -0.47015817557E+01  0.19510703761E+02  0.51100000000E-03 0. -1.
        -11    1    3    3    0    0 -0.99829641199E+01  0.12929206908E+02 -0.13045157287E+02  0.20904547180E+02  0.51100000000E-03 0.  1.
        -12    1    3    3    0    0  0.24452804394E+02  0.17618000771E+02  0.10892175560E+02  0.32046420742E+02  0.00000000000E+00 0.  1.
</event>
<event>
 7    1  0.3611369E-013  0.7246156E+02  0.7816164E-02  0.1226708E+00
        -11   -1    0    0    0    0  0.00000000000E+00  0.00000000000E+00  0.45593999997E+02  0.45594000000E+02  0.51100000000E-03 0. -1.
         11   -1    0    0    0    0 -0.00000000000E+00 -0.00000000000E+00 -0.45593999997E+02  0.45594000000E+02  0.51100000000E-03 0.  1.
    9900012    2    1    2    0    0 -0.82009383259E+01  0.10588831004E+02  0.13088190489E+02  0.72461562492E+02  0.69999989836E+02 0.  0.
        -12    1    1    2    0    0  0.82009383259E+01 -0.10588831004E+02 -0.13088190489E+02  0.18726437508E+02  0.00000000000E+00 0.  1.
         11    1    3    3    0    0  0.34180186605E+01  0.27972429846E+02 -0.21009301830E+01  0.28258690538E+02  0.51100000000E-03 0.  1.
        -11    1    3    3    0    0 -0.23930257876E+01  0.11176679659E+02  0.53294152726E+01  0.12611399923E+02  0.51100000000E-03 0. -1.
         12    1    3    3    0    0 -0.92259311988E+01 -0.28560278501E+02  0.98597053994E+01  0.31591472031E+02  0.00000000000E+00 0. -1.
</event>
<event>
 7    1  0.3611369E-013  0.7246158E+02  0.7816164E-02  0.1226708E+00
        -11   -1    0    0    0    0  0.00000000000E+00  0.00000000000E+00  0.45593999997E+02  0.45594000000E+02  0.51100000000E-03 0. -1.
         11   -1    0    0    0    0 -0.00000000000E+00 -0.00000000000E+00 -0.45593999997E+02  0.45594000000E+02  0.51100000000E-03 0.  1.
    9900012    2    1    2    0    0 -0.13991628676E+02  0.46855647994E+01  0.11530771940E+02  0.72461577704E+02  0.70000009652E+02 0.  0.
        -12    1    1    2    0    0  0.13991628676E+02 -0.46855647994E+01 -0.11530771940E+02  0.18726422296E+02  0.00000000000E+00 0.  1.
         11    1    3    3    0    0 -0.12515254234E+01 -0.66106067073E+01  0.55851052376E+00  0.67511755413E+01  0.51100000000E-03 0. -1.
        -11    1    3    3    0    0  0.48577006359E+01  0.13746860265E+02 -0.23081175232E+02  0.27300440893E+02  0.51100000000E-03 0.  1.
         12    1    3    3    0    0 -0.17597803888E+02 -0.24506887581E+01  0.34053436649E+02  0.38409961269E+02  0.00000000000E+00 0. -1.
</event>
<event>
 7    1  0.3611369E-013  0.7246160E+02  0.7816164E-02  0.1226708E+00
        -11   -1    0    0    0    0  0.00000000000E+00  0.00000000000E+00  0.45593999997E+02  0.45594000000E+02  0.51100000000E-03 0.  1.
         11   -1    0    0    0    0 -0.00000000000E+00 -0.00000000000E+00 -0.45593999997E+02  0.45594000000E+02  0.51100000000E-03 0. -1.
    9900012    2    1    2    0    0 -0.15380411115E+02  0.96513195758E+01  0.45796412776E+01  0.72461598054E+02  0.70000036162E+02 0.  0.
        -12    1    1    2    0    0  0.15380411115E+02 -0.96513195758E+01 -0.45796412776E+01  0.18726401946E+02  0.00000000000E+00 0.  1.
         11    1    3    3    0    0  0.11427742303E+01 -0.10120806067E+02 -0.81189772784E+00  0.10217427590E+02  0.51100000000E-03 0. -1.
        -11    1    3    3    0    0 -0.13939869508E+02  0.13856420749E+02  0.30519140741E+02  0.36300665417E+02  0.51100000000E-03 0.  1.
         12    1    3    3    0    0 -0.25833158372E+01  0.59157048939E+01 -0.25127601736E+02  0.25943505047E+02  0.00000000000E+00 0. -1.
</event>
<event>
 7    1  0.3611369E-013  0.7246159E+02  0.7816164E-02  0.1226708E+00
        -11   -1    0    0    0    0  0.00000000000E+00  0.00000000000E+00  0.45593999997E+02  0.45594000000E+02  0.51100000000E-03 0.  1.
         11   -1    0    0    0    0 -0.00000000000E+00 -0.00000000000E+00 -0.45593999997E+02  0.45594000000E+02  0.51100000000E-03 0. -1.
    9900012    2    1    2    0    0 -0.33006013874E+01 -0.23293198963E+01 -0.18285480743E+02  0.72461587992E+02  0.70000023054E+02 0.  0.
        -12    1    1    2    0    0  0.33006013874E+01  0.23293198963E+01  0.18285480743E+02  0.18726412008E+02  0.00000000000E+00 0.  1.
         11    1    3    3    0    0  0.40857280652E+01 -0.65623139584E+01  0.10102725745E+02  0.12720935738E+02  0.51100000000E-03 0. -1.
        -11    1    3    3    0    0  0.69513370788E+01 -0.23187039768E-02  0.13543647883E+02  0.15223386312E+02  0.51100000000E-03 0.  1.
         12    1    3    3    0    0 -0.14337666531E+02  0.42353127660E+01 -0.41931854372E+02  0.44517265941E+02  0.00000000000E+00 0. -1.
</event>
<event>
 7    1  0.3611369E-013  0.7246158E+02  0.7816164E-02  0.1226708E+00
        -11   -1    0    0    0    0  0.00000000000E+00  0.00000000000E+00  0.45593999997E+02  0.45594000000E+02  0.51100000000E-03 0.  1.
         11   -1    0    0    0    0 -0.00000000000E+00 -0.00000000000E+00 -0.45593999997E+02  0.45594000000E+02  0.51100000000E-03 0. -1.
    9900012    2    1    2    0    0 -0.15816276340E+02 -0.10024339738E+02 -0.19230203087E+00  0.72461575768E+02  0.70000007131E+02 0.  0.
        -12    1    1    2    0    0  0.15816276340E+02  0.10024339738E+02  0.19230203087E+00  0.18726424232E+02  0.00000000000E+00 0.  1.
         11    1    3    3    0    0  0.20051463470E+02  0.10522432504E+02 -0.12950544071E+02  0.26086382752E+02  0.51100000000E-03 0. -1.
        -11    1    3    3    0    0 -0.13673805025E+02 -0.17424018966E+02  0.55749709327E+01  0.22839651529E+02  0.51100000000E-03 0.  1.
        -12    1    3    3    0    0 -0.22193934785E+02 -0.31227532764E+01  0.71832711074E+01  0.23535541487E+02  0.00000000000E+00 0.  1.
</event>
<event>
 7    1  0.3611369E-013  0.7246160E+02  0.7816164E-02  0.1226708E+00
        -11   -1    0    0    0    0  0.00000000000E+00  0.00000000000E+00  0.45593999997E+02  0.45594000000E+02  0.51100000000E-03 0. -1.
         11   -1    0    0    0    0 -0.00000000000E+00 -0.00000000000E+00 -0.45593999997E+02  0.45594000000E+02  0.51100000000E-03 0.  1.
    9900012    2    1    2    0    0 -0.92063510260E+01 -0.16230463133E+02  0.15790513779E+01  0.72461595220E+02  0.70000032471E+02 0.  0.
        -12    1    1    2    0    0  0.92063510260E+01  0.16230463133E+02 -0.15790513779E+01  0.18726404780E+02  0.00000000000E+00 0.  1.
         11    1    3    3    0    0 -0.24286564338E+02 -0.11134342991E+02  0.37720966920E+01  0.26982207376E+02  0.51100000000E-03 0. -1.
        -11    1    3    3    0    0  0.25358416438E+02 -0.45831436884E+01  0.11608688362E+02  0.28263335544E+02  0.51100000000E-03 0.  1.
         12    1    3    3    0    0 -0.10278203127E+02 -0.51297645385E+00 -0.13801733676E+02  0.17216052301E+02  0.00000000000E+00 0. -1.
</event>
<event>
 7    1  0.3611369E-013  0.7246154E+02  0.7816164E-02  0.1226708E+00
        -11   -1    0    0    0    0  0.00000000000E+00  0.00000000000E+00  0.45593999997E+02  0.45594000000E+02  0.51100000000E-03 0.  1.
         11   -1    0    0    0    0 -0.00000000000E+00 -0.00000000000E+00 -0.45593999997E+02  0.45594000000E+02  0.51100000000E-03 0. -1.
    9900012    2    1    2    0    0  0.97767443476E+01 -0.15545630267E+02 -0.36645334066E+01  0.72461543968E+02  0.69999965705E+02 0.  0.
        -12    1    1    2    0    0 -0.97767443476E+01  0.15545630267E+02  0.36645334066E+01  0.18726456032E+02  0.00000000000E+00 0.  1.
         11    1    3    3    0    0 -0.17635182219E+01 -0.23050298529E+02  0.96127303007E+00  0.23137638274E+02  0.51100000000E-03 0. -1.
        -11    1    3    3    0    0 -0.17108090089E+02  0.10828372368E+02 -0.12326328526E+01  0.20284471367E+02  0.51100000000E-03 0.  1.
         12    1    3    3    0    0  0.28648352659E+02 -0.33237041062E+01 -0.33931735840E+01  0.29039434327E+02  0.00000000000E+00 0. -1.
</event>
<event>
 7    1  0.3611369E-013  0.7246154E+02  0.7816164E-02  0.1226708E+00
        -11   -1    0    0    0    0  0.00000000000E+00  0.00000000000E+00  0.45593999997E+02  0.45594000000E+02  0.51100000000E-03 0.  1.
         11   -1    0    0    0    0 -0.00000000000E+00 -0.00000000000E+00 -0.45593999997E+02  0.45594000000E+02  0.51100000000E-03 0. -1.
    9900012    2    1    2    0    0 -0.14127526608E+02 -0.11610320410E+02 -0.40365749738E+01  0.72461535155E+02  0.69999954224E+02 0.  0.
        -12    1    1    2    0    0  0.14127526608E+02  0.11610320410E+02  0.40365749738E+01  0.18726464845E+02  0.00000000000E+00 0.  1.
         11    1    3    3    0    0 -0.29832120813E+01 -0.12367623238E+02  0.43750580224E+01  0.13453579146E+02  0.51100000000E-03 0. -1.
        -11    1    3    3    0    0  0.21944211585E+02 -0.62391578804E+01 -0.10519077341E+02  0.25122231221E+02  0.51100000000E-03 0.  1.
         12    1    3    3    0    0 -0.33088526112E+02  0.69964607080E+01  0.21074443452E+01  0.33885724788E+02  0.00000000000E+00 0. -1.
</event>
<event>
 7    1  0.4081032E-013  0.7246164E+02  0.7816164E-02  0.1226708E+00
        -11   -1    0    0    0    0  0.00000000000E+00  0.00000000000E+00  0.45593999997E+02  0.45594000000E+02  0.51100000000E-03 0. -1.
         11   -1    0    0    0    0 -0.00000000000E+00 -0.00000000000E+00 -0.45593999997E+02  0.45594000000E+02  0.51100000000E-03 0.  1.
    9900012    2    1    2    0    0 -0.91849340965E+01 -0.14920248013E+02  0.66105815009E+01  0.72461638823E+02  0.70000089272E+02 0.  0.
        -12    1    1    2    0    0  0.91849340965E+01  0.14920248013E+02 -0.66105815009E+01  0.18726361177E+02  0.00000000000E+00 0.  1.
         11    1    3    3    0    0  0.34241897353E+01 -0.16366115158E+02  0.18819578068E+02  0.25174417960E+02  0.51100000000E-03 0. -1.
        -11    1    3    3    0    0 -0.46970905914E+01 -0.20988024110E+02 -0.27291946373E+01  0.21679675268E+02  0.51100000000E-03 0.  1.
        -12    1    3    3    0    0 -0.79120332405E+01  0.22433891254E+02 -0.94798019300E+01  0.25607545596E+02  0.00000000000E+00 0.  1.
</event>
<event>
 7    1  0.3611369E-013  0.7246156E+02  0.7816164E-02  0.1226708E+00
        -11   -1    0    0    0    0  0.00000000000E+00  0.00000000000E+00  0.45593999997E+02  0.45594000000E+02  0.51100000000E-03 0. -1.
         11   -1    0    0    0    0 -0.00000000000E+00 -0.00000000000E+00 -0.45593999997E+02  0.45594000000E+02  0.51100000000E-03 0.  1.
    9900012    2    1    2    0    0  0.15069123601E+02 -0.97562785647E+01 -0.53306918309E+01  0.72461555251E+02  0.69999980403E+02 0.  0.
        -12    1    1    2    0    0 -0.15069123601E+02  0.97562785647E+01  0.53306918309E+01  0.18726444749E+02  0.00000000000E+00 0.  1.
         11    1    3    3    0    0 -0.16885371139E+02  0.74419350637E+00 -0.68095313678E+01  0.18221945565E+02  0.51100000000E-03 0. -1.
        -11    1    3    3    0    0  0.10152881231E+02  0.11923957046E+02  0.13556187849E+02  0.20713087124E+02  0.51100000000E-03 0.  1.
        -12    1    3    3    0    0  0.21801613509E+02 -0.22424429118E+02 -0.12077348312E+02  0.33526522562E+02  0.00000000000E+00 0.  1.
</event>
<event>
 7    1  0.3611369E-013  0.7246155E+02  0.7816164E-02  0.1226708E+00
        -11   -1    0    0    0    0  0.00000000000E+00  0.00000000000E+00  0.45593999997E+02  0.45594000000E+02  0.51100000000E-03 0.  1.
         11   -1    0    0    0    0 -0.00000000000E+00 -0.00000000000E+00 -0.45593999997E+02  0.45594000000E+02  0.51100000000E-03 0. -1.
    9900012    2    1    2    0    0 -0.27199123546E+01 -0.17331665496E+02 -0.65494428308E+01  0.72461554703E+02  0.69999979689E+02 0.  0.
        -12    1    1    2    0    0  0.27199123546E+01  0.17331665496E+02  0.65494428308E+01  0.18726445297E+02  0.00000000000E+00 0.  1.
         11    1    3    3    0    0 -0.97909934243E+01  0.31704316444E+01 -0.25841722152E+01  0.10610991252E+02  0.51100000000E-03 0. -1.
        -11    1    3    3    0    0  0.64239015548E+01  0.19558002021E+02  0.40776328848E+01  0.20985924913E+02  0.51100000000E-03 0.  1.
         12    1    3    3    0    0  0.64717951489E+00 -0.40060099161E+02 -0.80429035005E+01  0.40864638538E+02  0.00000000000E+00 0. -1.
</event>
<event>
 7    1  0.3611369E-013  0.7246144E+02  0.7816164E-02  0.1226708E+00
        -11   -1    0    0    0    0  0.00000000000E+00  0.00000000000E+00  0.45593999997E+02  0.45594000000E+02  0.51100000000E-03 0.  1.
         11   -1    0    0    0    0 -0.00000000000E+00 -0.00000000000E+00 -0.45593999997E+02  0.45594000000E+02  0.51100000000E-03 0. -1.
    9900012    2    1    2    0    0  0.59758784495E+01 -0.17114959066E+02  0.46958693514E+01  0.72461437688E+02  0.69999827255E+02 0.  0.
        -12    1    1    2    0    0 -0.59758784495E+01  0.17114959066E+02 -0.46958693514E+01  0.18726562312E+02  0.00000000000E+00 0.  1.
         11    1    3    3    0    0  0.97828369693E+01  0.50180712154E+01  0.94218885371E+01  0.14479534584E+02  0.51100000000E-03 0. -1.
        -11    1    3    3    0    0 -0.20159693151E+02 -0.31330555124E+02  0.36515889512E+01  0.37434623205E+02  0.51100000000E-03 0.  1.
         12    1    3    3    0    0  0.16352734632E+02  0.91975248429E+01 -0.83776081369E+01  0.20547279899E+02  0.00000000000E+00 0. -1.
</event>
<event>
 7    1  0.3611369E-013  0.7246160E+02  0.7816164E-02  0.1226708E+00
        -11   -1    0    0    0    0  0.00000000000E+00  0.00000000000E+00  0.45593999997E+02  0.45594000000E+02  0.51100000000E-03 0.  1.
         11   -1    0    0    0    0 -0.00000000000E+00 -0.00000000000E+00 -0.45593999997E+02  0.45594000000E+02  0.51100000000E-03 0. -1.
    9900012    2    1    2    0    0 -0.80856667800E+01 -0.82060499845E+01 -0.14763499218E+02  0.72461596908E+02  0.70000034669E+02 0.  0.
        -12    1    1    2    0    0  0.80856667800E+01  0.82060499845E+01  0.14763499218E+02  0.18726403092E+02  0.00000000000E+00 0.  1.
         11    1    3    3    0    0 -0.66718228419E+01  0.75215114345E+01  0.35389014806E+01  0.10658807543E+02  0.51100000000E-03 0. -1.
        -11    1    3    3    0    0 -0.28329065301E+02 -0.97983029327E+01 -0.26130715628E+01  0.30089380592E+02  0.51100000000E-03 0.  1.
         12    1    3    3    0    0  0.26915221363E+02 -0.59292584862E+01 -0.15689329136E+02  0.31713408772E+02  0.00000000000E+00 0. -1.
</event>
<event>
 7    1  0.3611369E-013  0.7246158E+02  0.7816164E-02  0.1226708E+00
        -11   -1    0    0    0    0  0.00000000000E+00  0.00000000000E+00  0.45593999997E+02  0.45594000000E+02  0.51100000000E-03 0.  1.
         11   -1    0    0    0    0 -0.00000000000E+00 -0.00000000000E+00 -0.45593999997E+02  0.45594000000E+02  0.51100000000E-03 0. -1.
    9900012    2    1    2    0    0 -0.42464563895E-02  0.14486017721E+01 -0.18670302022E+02  0.72461584360E+02  0.70000018323E+02 0.  0.
        -12    1    1    2    0    0  0.42464563895E-02 -0.14486017721E+01  0.18670302022E+02  0.18726415640E+02  0.00000000000E+00 0.  1.
         11    1    3    3    0    0  0.95872148050E+01 -0.11464695419E+02 -0.51270769245E+01  0.15800026798E+02  0.51100000000E-03 0. -1.
        -11    1    3    3    0    0  0.20367482139E+02  0.97805347762E+01 -0.13918173750E+02  0.26536931812E+02  0.51100000000E-03 0.  1.
        -12    1    3    3    0    0 -0.29958943401E+02  0.31327624154E+01  0.37494865173E+00  0.30124625749E+02  0.00000000000E+00 0.  1.
</event>
<event>
 7    1  0.3611369E-013  0.7246158E+02  0.7816164E-02  0.1226708E+00
        -11   -1    0    0    0    0  0.00000000000E+00  0.00000000000E+00  0.45593999997E+02  0.45594000000E+02  0.51100000000E-03 0. -1.
         11   -1    0    0    0    0 -0.00000000000E+00 -0.00000000000E+00 -0.45593999997E+02  0.45594000000E+02  0.51100000000E-03 0.  1.
    9900012    2    1    2    0    0 -0.14771546419E+01 -0.11652614153E+01  0.18631662540E+02  0.72461583658E+02  0.70000017408E+02 0.  0.
        -12    1    1    2    0    0  0.14771546419E+01  0.11652614153E+01 -0.18631662540E+02  0.18726416342E+02  0.00000000000E+00 0.  1.
         11    1    3    3    0    0 -0.65005768975E+01  0.14910125210E+01  0.45518819338E+01  0.80746670358E+01  0.51100000000E-03 0. -1.
        -11    1    3    3    0    0 -0.14266953275E+02 -0.19756680119E+02 -0.12475437207E+02  0.27377160167E+02  0.51100000000E-03 0.  1.
         12    1    3    3    0    0  0.19290375531E+02  0.17100406183E+02  0.26555217813E+02  0.37009756455E+02  0.00000000000E+00 0. -1.
</event>
<event>
 7    1  0.3611369E-013  0.7246155E+02  0.7816164E-02  0.1226708E+00
        -11   -1    0    0    0    0  0.00000000000E+00  0.00000000000E+00  0.45593999997E+02  0.45594000000E+02  0.51100000000E-03 0.  1.
         11   -1    0    0    0    0 -0.00000000000E+00 -0.00000000000E+00 -0.45593999997E+02  0.45594000000E+02  0.51100000000E-03 0. -1.
    9900012    2    1    2    0    0 -0.12080652185E+02 -0.11855032495E+02 -0.80122361354E+01  0.72461551309E+02  0.69999975268E+02 0.  0.
        -12    1    1    2    0    0  0.12080652185E+02  0.11855032495E+02  0.80122361354E+01  0.18726448691E+02  0.00000000000E+00 0.  1.
         11    1    3    3    0    0  0.50162542060E-01 -0.10386928523E+02 -0.67428235621E+01  0.12383717951E+02  0.51100000000E-03 0. -1.
        -11    1    3    3    0    0  0.21713896252E+02  0.10077920597E+02 -0.37561100780E+01  0.24231511244E+02  0.51100000000E-03 0.  1.
         12    1    3    3    0    0 -0.33844710979E+02 -0.11546024569E+02  0.24866975046E+01  0.35846322114E+02  0.00000000000E+00 0. -1.
</event>
<event>
 7    1  0.3611369E-013  0.7246204E+02  0.7816164E-02  0.1226707E+00
        -11   -1    0    0    0    0  0.00000000000E+00  0.00000000000E+00  0.45593999997E+02  0.45594000000E+02  0.51100000000E-03 0. -1.
         11   -1    0    0    0    0 -0.00000000000E+00 -0.00000000000E+00 -0.45593999997E+02  0.45594000000E+02  0.51100000000E-03 0.  1.
    9900012    2    1    2    0    0  0.16661184341E+02 -0.84092645207E+01 -0.15332174185E+01  0.72462040770E+02  0.70000612880E+02 0.  0.
        -12    1    1    2    0    0 -0.16661184341E+02  0.84092645207E+01  0.15332174185E+01  0.18725959230E+02  0.00000000000E+00 0.  1.
         11    1    3    3    0    0  0.58818803204E+01 -0.25606419427E+02  0.14196893132E+02  0.29863640214E+02  0.51100000000E-03 0. -1.
        -11    1    3    3    0    0  0.16405702536E+02 -0.37439744101E+01 -0.11822281283E+02  0.20565280330E+02  0.51100000000E-03 0.  1.
        -12    1    3    3    0    0 -0.56263985151E+01  0.20941129317E+02 -0.39078292672E+01  0.22033120226E+02  0.00000000000E+00 0.  1.
</event>
<event>
 7    1  0.3611369E-013  0.7246172E+02  0.7816164E-02  0.1226708E+00
        -11   -1    0    0    0    0  0.00000000000E+00  0.00000000000E+00  0.45593999997E+02  0.45594000000E+02  0.51100000000E-03 0. -1.
         11   -1    0    0    0    0 -0.00000000000E+00 -0.00000000000E+00 -0.45593999997E+02  0.45594000000E+02  0.51100000000E-03 0.  1.
    9900012    2    1    2    0    0  0.12069094514E+02  0.20418628611E+01 -0.14171843611E+02  0.72461724404E+02  0.70000200757E+02 0.  0.
        -12    1    1    2    0    0 -0.12069094514E+02 -0.20418628611E+01  0.14171843611E+02  0.18726275596E+02  0.00000000000E+00 0.  1.
         11    1    3    3    0    0  0.13429302467E+01 -0.91721128961E+01  0.15573261410E+02  0.18123398904E+02  0.51100000000E-03 0. -1.
        -11    1    3    3    0    0  0.19318542443E+02  0.20532247328E+02 -0.30634102491E+02  0.41632048930E+02  0.51100000000E-03 0.  1.
         12    1    3    3    0    0 -0.85923781750E+01 -0.93182715710E+01  0.88899746883E+00  0.12706276570E+02  0.00000000000E+00 0. -1.
</event>
<event>
 7    1  0.3611369E-013  0.7246176E+02  0.7816164E-02  0.1226707E+00
        -11   -1    0    0    0    0  0.00000000000E+00  0.00000000000E+00  0.45593999997E+02  0.45594000000E+02  0.51100000000E-03 0. -1.
         11   -1    0    0    0    0 -0.00000000000E+00 -0.00000000000E+00 -0.45593999997E+02  0.45594000000E+02  0.51100000000E-03 0.  1.
    9900012    2    1    2    0    0 -0.29587400293E+01 -0.10647589199E+02  0.15117757116E+02  0.72461764966E+02  0.70000253596E+02 0.  0.
        -12    1    1    2    0    0  0.29587400293E+01  0.10647589199E+02 -0.15117757116E+02  0.18726235034E+02  0.00000000000E+00 0.  1.
         11    1    3    3    0    0 -0.32740475569E+02 -0.13615035335E+00  0.31770800068E+01  0.32894545369E+02  0.51100000000E-03 0. -1.
        -11    1    3    3    0    0  0.13612759874E+02  0.45041977797E+01 -0.28377394228E+00  0.14341393131E+02  0.51100000000E-03 0.  1.
        -12    1    3    3    0    0  0.16168975666E+02 -0.15015636626E+02  0.12224451052E+02  0.25225826466E+02  0.00000000000E+00 0.  1.
</event>
<event>
 7    1  0.3611369E-013  0.7246156E+02  0.7816164E-02  0.1226708E+00
        -11   -1    0    0    0    0  0.00000000000E+00  0.00000000000E+00  0.45593999997E+02  0.45594000000E+02  0.51100000000E-03 0.  1.
         11   -1    0    0    0    0 -0.00000000000E+00 -0.00000000000E+00 -0.45593999997E+02  0.45594000000E+02  0.51100000000E-03 0. -1.
    9900012    2    1    2    0    0  0.87943205621E+01 -0.13021236827E+02 -0.10187576621E+02  0.72461564139E+02  0.69999991981E+02 0.  0.
        -12    1    1    2    0    0 -0.87943205621E+01  0.13021236827E+02  0.10187576621E+02  0.18726435861E+02  0.00000000000E+00 0.  1.
         11    1    3    3    0    0  0.25545917637E+00 -0.24695345611E+01  0.32284950039E+01  0.40727190660E+01  0.51100000000E-03 0. -1.
        -11    1    3    3    0    0  0.13916920345E+02 -0.69009206214E+01  0.24996567173E+02  0.29430116344E+02  0.51100000000E-03 0.  1.
         12    1    3    3    0    0 -0.53780589595E+01 -0.36507816448E+01 -0.38412638798E+02  0.38958728729E+02  0.00000000000E+00 0. -1.
</event>
<event>
 7    1  0.3611369E-013  0.7246157E+02  0.7816164E-02  0.1226708E+00
        -11   -1    0    0    0    0  0.00000000000E+00  0.00000000000E+00  0.45593999997E+02  0.45594000000E+02  0.51100000000E-03 0.  1.
         11   -1    0    0    0    0 -0.00000000000E+00 -0.00000000000E+00 -0.45593999997E+02  0.45594000000E+02  0.51100000000E-03 0. -1.
    9900012    2    1    2    0    0  0.94714805297E+01  0.15568400098E+02 -0.43122074769E+01  0.72461570592E+02  0.70000000388E+02 0.  0.
        -12    1    1    2    0    0 -0.94714805297E+01 -0.15568400098E+02  0.43122074769E+01  0.18726429408E+02  0.00000000000E+00 0.  1.
         11    1    3    3    0    0  0.17016108432E+02 -0.74085128392E+00  0.13831327535E+02  0.21940884860E+02  0.51100000000E-03 0.  1.
        -11    1    3    3    0    0  0.17075750996E+02  0.14352432586E+02 -0.10596355508E+02  0.24695269659E+02  0.51100000000E-03 0. -1.
        -12    1    3    3    0    0 -0.24620378898E+02  0.19568187962E+01 -0.75471795038E+01  0.25825416073E+02  0.00000000000E+00 0.  1.
</event>
<event>
 7    1  0.3611369E-013  0.7246157E+02  0.7816164E-02  0.1226708E+00
        -11   -1    0    0    0    0  0.00000000000E+00  0.00000000000E+00  0.45593999997E+02  0.45594000000E+02  0.51100000000E-03 0.  1.
         11   -1    0    0    0    0 -0.00000000000E+00 -0.00000000000E+00 -0.45593999997E+02  0.45594000000E+02  0.51100000000E-03 0. -1.
    9900012    2    1    2    0    0 -0.16845595330E+02  0.75401056539E+01  0.31704812784E+01  0.72461568764E+02  0.69999998007E+02 0.  0.
        -12    1    1    2    0    0  0.16845595330E+02 -0.75401056539E+01 -0.31704812784E+01  0.18726431236E+02  0.00000000000E+00 0.  1.
         11    1    3    3    0    0 -0.14548535919E+02  0.86699361281E+00 -0.21592738611E+01  0.14733432702E+02  0.51100000000E-03 0. -1.
        -11    1    3    3    0    0 -0.57098541618E+01 -0.22573075358E+02 -0.90235500500E+01  0.24971396065E+02  0.51100000000E-03 0.  1.
        -12    1    3    3    0    0  0.34127947510E+01  0.29246187399E+02  0.14353305190E+02  0.32756739997E+02  0.00000000000E+00 0.  1.
</event>
<event>
 7    1  0.3611369E-013  0.7246157E+02  0.7816164E-02  0.1226708E+00
        -11   -1    0    0    0    0  0.00000000000E+00  0.00000000000E+00  0.45593999997E+02  0.45594000000E+02  0.51100000000E-03 0. -1.
         11   -1    0    0    0    0 -0.00000000000E+00 -0.00000000000E+00 -0.45593999997E+02  0.45594000000E+02  0.51100000000E-03 0.  1.
    9900012    2    1    2    0    0  0.21498765313E+01 -0.61876229660E+01  0.17543386229E+02  0.72461573554E+02  0.70000004246E+02 0.  0.
        -12    1    1    2    0    0 -0.21498765313E+01  0.61876229660E+01 -0.17543386229E+02  0.18726426446E+02  0.00000000000E+00 0.  1.
         11    1    3    3    0    0  0.35518330102E+01 -0.89337574586E+01  0.42849558245E+02  0.43914828727E+02  0.51100000000E-03 0. -1.
        -11    1    3    3    0    0 -0.23977238347E+01 -0.46396026300E+00  0.52486928298E+00  0.24979645190E+01  0.51100000000E-03 0.  1.
        -12    1    3    3    0    0  0.99576735580E+00  0.32100947557E+01 -0.25831041299E+02  0.26048780308E+02  0.00000000000E+00 0.  1.
</event>
<event>
 7    1  0.3611369E-013  0.7246150E+02  0.7816164E-02  0.1226708E+00
        -11   -1    0    0    0    0  0.00000000000E+00  0.00000000000E+00  0.45593999997E+02  0.45594000000E+02  0.51100000000E-03 0.  1.
         11   -1    0    0    0    0 -0.00000000000E+00 -0.00000000000E+00 -0.45593999997E+02  0.45594000000E+02  0.51100000000E-03 0. -1.
    9900012    2    1    2    0    0  0.99810309441E+01 -0.32378835897E+01 -0.15510547938E+02  0.72461495623E+02  0.69999902727E+02 0.  0.
        -12    1    1    2    0    0 -0.99810309441E+01  0.32378835897E+01  0.15510547938E+02  0.18726504377E+02  0.00000000000E+00 0.  1.
         11    1    3    3    0    0 -0.97995998047E+01 -0.24328408323E+01 -0.27077939809E+01  0.10453851891E+02  0.51100000000E-03 0. -1.
        -11    1    3    3    0    0 -0.80352912217E+01  0.22764652819E+02 -0.65760072873E+01  0.25020775269E+02  0.51100000000E-03 0.  1.
         12    1    3    3    0    0  0.27815921971E+02 -0.23569695576E+02 -0.62267466698E+01  0.36986868463E+02  0.00000000000E+00 0. -1.
</event>
<event>
 7    1  0.3611369E-013  0.7246150E+02  0.7816164E-02  0.1226708E+00
        -11   -1    0    0    0    0  0.00000000000E+00  0.00000000000E+00  0.45593999997E+02  0.45594000000E+02  0.51100000000E-03 0. -1.
         11   -1    0    0    0    0 -0.00000000000E+00 -0.00000000000E+00 -0.45593999997E+02  0.45594000000E+02  0.51100000000E-03 0.  1.
    9900012    2    1    2    0    0  0.16329638410E+02  0.81247252082E+01  0.42442264195E+01  0.72461502511E+02  0.69999911700E+02 0.  0.
        -12    1    1    2    0    0 -0.16329638410E+02 -0.81247252082E+01 -0.42442264195E+01  0.18726497489E+02  0.00000000000E+00 0.  1.
         11    1    3    3    0    0  0.36739257784E+02 -0.13825052097E+02 -0.46183756466E+01  0.39525112547E+02  0.51100000000E-03 0. -1.
        -11    1    3    3    0    0 -0.62527537808E+01  0.22262370812E+01 -0.10362485360E+01  0.67176538073E+01  0.51100000000E-03 0.  1.
        -12    1    3    3    0    0 -0.14156865594E+02  0.19723540224E+02  0.98988506021E+01  0.26218736156E+02  0.00000000000E+00 0.  1.
</event>
<event>
 7    1  0.3611369E-013  0.7246156E+02  0.7816164E-02  0.1226708E+00
        -11   -1    0    0    0    0  0.00000000000E+00  0.00000000000E+00  0.45593999997E+02  0.45594000000E+02  0.51100000000E-03 0. -1.
         11   -1    0    0    0    0 -0.00000000000E+00 -0.00000000000E+00 -0.45593999997E+02  0.45594000000E+02  0.51100000000E-03 0.  1.
    9900012    2    1    2    0    0 -0.11197525935E+02  0.14293803364E+02 -0.45806290745E+01  0.72461559751E+02  0.69999986266E+02 0.  0.
        -12    1    1    2    0    0  0.11197525935E+02 -0.14293803364E+02  0.45806290745E+01  0.18726440249E+02  0.00000000000E+00 0.  1.
         11    1    3    3    0    0 -0.57427723667E+01  0.15499833454E+02  0.13822365568E+02  0.21547205427E+02  0.51100000000E-03 0. -1.
        -11    1    3    3    0    0 -0.55911652650E+01 -0.20007396048E+02  0.45269661489E+01  0.21261478040E+02  0.51100000000E-03 0.  1.
        -12    1    3    3    0    0  0.13641169633E+00  0.18801365958E+02 -0.22929960791E+02  0.29652876284E+02  0.00000000000E+00 0.  1.
</event>
<event>
 7    1  0.3611369E-013  0.7246152E+02  0.7816164E-02  0.1226708E+00
        -11   -1    0    0    0    0  0.00000000000E+00  0.00000000000E+00  0.45593999997E+02  0.45594000000E+02  0.51100000000E-03 0. -1.
         11   -1    0    0    0    0 -0.00000000000E+00 -0.00000000000E+00 -0.45593999997E+02  0.45594000000E+02  0.51100000000E-03 0.  1.
    9900012    2    1    2    0    0 -0.10536552400E+02  0.15448822154E+02 -0.99795041028E+00  0.72461522823E+02  0.69999938160E+02 0.  0.
        -12    1    1    2    0    0  0.10536552400E+02 -0.15448822154E+02  0.99795041028E+00  0.18726477177E+02  0.00000000000E+00 0.  1.
         11    1    3    3    0    0  0.10864565018E+02  0.70182876103E+01  0.24760781603E+02  0.27935487106E+02  0.51100000000E-03 0. -1.
        -11    1    3    3    0    0  0.64594903576E+01  0.49675881774E+01 -0.44857532862E+01  0.93018240570E+01  0.51100000000E-03 0.  1.
        -12    1    3    3    0    0 -0.27860607775E+02  0.34629463668E+01 -0.21272978727E+02  0.35224211660E+02  0.00000000000E+00 0.  1.
</event>
<event>
 7    1  0.3611369E-013  0.7246131E+02  0.7816164E-02  0.1226709E+00
        -11   -1    0    0    0    0  0.00000000000E+00  0.00000000000E+00  0.45593999997E+02  0.45594000000E+02  0.51100000000E-03 0.  1.
         11   -1    0    0    0    0 -0.00000000000E+00 -0.00000000000E+00 -0.45593999997E+02  0.45594000000E+02  0.51100000000E-03 0. -1.
    9900012    2    1    2    0    0  0.13026277641E+02  0.13127258596E+02 -0.29461697492E+01  0.72461314666E+02  0.69999666995E+02 0.  0.
        -12    1    1    2    0    0 -0.13026277641E+02 -0.13127258596E+02  0.29461697492E+01  0.18726685334E+02  0.00000000000E+00 0.  1.
         11    1    3    3    0    0  0.41164358048E+00  0.22546588901E+02  0.44232025769E+01  0.22980053151E+02  0.51100000000E-03 0. -1.
        -11    1    3    3    0    0  0.58993015159E+01  0.18653712038E+02 -0.64551229684E+01  0.20601731577E+02  0.51100000000E-03 0.  1.
        -12    1    3    3    0    0  0.67153325446E+01 -0.28073042343E+02 -0.91424935771E+00  0.28879529938E+02  0.00000000000E+00 0.  1.
</event>
<event>
 7    1  0.3611369E-013  0.7246158E+02  0.7816164E-02  0.1226708E+00
        -11   -1    0    0    0    0  0.00000000000E+00  0.00000000000E+00  0.45593999997E+02  0.45594000000E+02  0.51100000000E-03 0. -1.
         11   -1    0    0    0    0 -0.00000000000E+00 -0.00000000000E+00 -0.45593999997E+02  0.45594000000E+02  0.51100000000E-03 0.  1.
    9900012    2    1    2    0    0 -0.75370229810E+01  0.98604072389E+01  0.14023002999E+02  0.72461575904E+02  0.70000007307E+02 0.  0.
        -12    1    1    2    0    0  0.75370229810E+01 -0.98604072389E+01 -0.14023002999E+02  0.18726424096E+02  0.00000000000E+00 0.  1.
         11    1    3    3    0    0 -0.38121266714E+01  0.25094581299E+01  0.51418025782E+01  0.68751599166E+01  0.51100000000E-03 0. -1.
        -11    1    3    3    0    0 -0.23463471475E+02 -0.15976262322E+02 -0.94912187214E+01  0.29930898492E+02  0.51100000000E-03 0.  1.
         12    1    3    3    0    0  0.19738575166E+02  0.23327211431E+02  0.18372419142E+02  0.35655517495E+02  0.00000000000E+00 0. -1.
</event>
<event>
 7    1  0.3611369E-013  0.7246156E+02  0.7816164E-02  0.1226708E+00
        -11   -1    0    0    0    0  0.00000000000E+00  0.00000000000E+00  0.45593999997E+02  0.45594000000E+02  0.51100000000E-03 0.  1.
         11   -1    0    0    0    0 -0.00000000000E+00 -0.00000000000E+00 -0.45593999997E+02  0.45594000000E+02  0.51100000000E-03 0. -1.
    9900012    2    1    2    0    0  0.36217700236E+01 -0.67417273698E+00 -0.18360492458E+02  0.72461563866E+02  0.69999991626E+02 0.  0.
        -12    1    1    2    0    0 -0.36217700236E+01  0.67417273698E+00  0.18360492458E+02  0.18726436134E+02  0.00000000000E+00 0.  1.
         11    1    3    3    0    0  0.24563788576E+00  0.23223017164E+01 -0.46340202713E+01  0.51891779087E+01  0.51100000000E-03 0. -1.
        -11    1    3    3    0    0  0.45679177424E+01  0.31197023605E+02 -0.46145262656E+01  0.31865561461E+02  0.51100000000E-03 0.  1.
         12    1    3    3    0    0 -0.11917856046E+01 -0.34193498058E+02 -0.91119459214E+01  0.35406824496E+02  0.00000000000E+00 0. -1.
</event>
<event>
 7    1  0.3611369E-013  0.7246145E+02  0.7816164E-02  0.1226708E+00
        -11   -1    0    0    0    0  0.00000000000E+00  0.00000000000E+00  0.45593999997E+02  0.45594000000E+02  0.51100000000E-03 0. -1.
         11   -1    0    0    0    0 -0.00000000000E+00 -0.00000000000E+00 -0.45593999997E+02  0.45594000000E+02  0.51100000000E-03 0.  1.
    9900012    2    1    2    0    0 -0.12935421345E+02 -0.14511658901E+01  0.13463012189E+02  0.72461449196E+02  0.69999842247E+02 0.  0.
        -12    1    1    2    0    0  0.12935421345E+02  0.14511658901E+01 -0.13463012189E+02  0.18726550804E+02  0.00000000000E+00 0.  1.
         11    1    3    3    0    0  0.24202032158E+02  0.17236970652E-01  0.15437489843E+02  0.28706353837E+02  0.51100000000E-03 0. -1.
        -11    1    3    3    0    0 -0.11454982055E+01  0.41380393333E+01  0.50808613725E+01  0.66521190767E+01  0.51100000000E-03 0.  1.
        -12    1    3    3    0    0 -0.35991955298E+02 -0.56064421941E+01 -0.70553390263E+01  0.37102976282E+02  0.00000000000E+00 0.  1.
</event>
<event>
 7    1  0.3611369E-013  0.7246157E+02  0.7816164E-02  0.1226708E+00
        -11   -1    0    0    0    0  0.00000000000E+00  0.00000000000E+00  0.45593999997E+02  0.45594000000E+02  0.51100000000E-03 0.  1.
         11   -1    0    0    0    0 -0.00000000000E+00 -0.00000000000E+00 -0.45593999997E+02  0.45594000000E+02  0.51100000000E-03 0. -1.
    9900012    2    1    2    0    0 -0.17376878235E+02  0.24675099926E+01 -0.65295115225E+01  0.72461574194E+02  0.70000005080E+02 0.  0.
        -12    1    1    2    0    0  0.17376878235E+02 -0.24675099926E+01  0.65295115225E+01  0.18726425806E+02  0.00000000000E+00 0.  1.
         11    1    3    3    0    0 -0.39532223792E+00 -0.74112369187E+01  0.17701605717E+02  0.19194518946E+02  0.51100000000E-03 0. -1.
        -11    1    3    3    0    0  0.10343522913E+02 -0.41182687528E+00  0.53927926622E+01  0.11672201189E+02  0.51100000000E-03 0.  1.
         12    1    3    3    0    0 -0.27325078910E+02  0.10290573787E+02 -0.29623909902E+02  0.41594854059E+02  0.00000000000E+00 0. -1.
</event>
<event>
 7    1  0.3611369E-013  0.7246154E+02  0.7816164E-02  0.1226708E+00
        -11   -1    0    0    0    0  0.00000000000E+00  0.00000000000E+00  0.45593999997E+02  0.45594000000E+02  0.51100000000E-03 0. -1.
         11   -1    0    0    0    0 -0.00000000000E+00 -0.00000000000E+00 -0.45593999997E+02  0.45594000000E+02  0.51100000000E-03 0.  1.
    9900012    2    1    2    0    0  0.83322289322E+01 -0.43739344331E+01  0.16190211835E+02  0.72461540092E+02  0.69999960656E+02 0.  0.
        -12    1    1    2    0    0 -0.83322289322E+01  0.43739344331E+01 -0.16190211835E+02  0.18726459908E+02  0.00000000000E+00 0.  1.
         11    1    3    3    0    0  0.22379640903E+01 -0.34788931145E+02 -0.11312143674E+00  0.34861024228E+02  0.51100000000E-03 0. -1.
        -11    1    3    3    0    0 -0.36482255336E+01  0.29893095655E+01  0.30769516056E+01  0.56314432134E+01  0.51100000000E-03 0.  1.
        -12    1    3    3    0    0  0.97424903755E+01  0.27425687146E+02  0.13226381667E+02  0.31969072651E+02  0.00000000000E+00 0.  1.
</event>
<event>
 7    1  0.3611369E-013  0.7246157E+02  0.7816164E-02  0.1226708E+00
        -11   -1    0    0    0    0  0.00000000000E+00  0.00000000000E+00  0.45593999997E+02  0.45594000000E+02  0.51100000000E-03 0. -1.
         11   -1    0    0    0    0 -0.00000000000E+00 -0.00000000000E+00 -0.45593999997E+02  0.45594000000E+02  0.51100000000E-03 0.  1.
    9900012    2    1    2    0    0 -0.16837315939E+02  0.14988572312E+01  0.80583755958E+01  0.72461569526E+02  0.69999999000E+02 0.  0.
        -12    1    1    2    0    0  0.16837315939E+02 -0.14988572312E+01 -0.80583755958E+01  0.18726430474E+02  0.00000000000E+00 0.  1.
         11    1    3    3    0    0  0.89742244605E+01 -0.92175563755E+01 -0.57669886447E+01  0.14098163302E+02  0.51100000000E-03 0. -1.
        -11    1    3    3    0    0 -0.82353515123E+01 -0.19368122037E+02  0.47758650426E+00  0.21051680572E+02  0.51100000000E-03 0.  1.
         12    1    3    3    0    0 -0.17576188888E+02  0.30084535643E+02  0.13347777736E+02  0.37311725653E+02  0.00000000000E+00 0. -1.
</event>
<event>
 7    1  0.3611369E-013  0.7246157E+02  0.7816164E-02  0.1226708E+00
        -11   -1    0    0    0    0  0.00000000000E+00  0.00000000000E+00  0.45593999997E+02  0.45594000000E+02  0.51100000000E-03 0.  1.
         11   -1    0    0    0    0 -0.00000000000E+00 -0.00000000000E+00 -0.45593999997E+02  0.45594000000E+02  0.51100000000E-03 0. -1.
    9900012    2    1    2    0    0  0.11262703738E+02  0.41096885425E+01 -0.14385443606E+02  0.72461574203E+02  0.70000005092E+02 0.  0.
        -12    1    1    2    0    0 -0.11262703738E+02 -0.41096885425E+01  0.14385443606E+02  0.18726425797E+02  0.00000000000E+00 0.  1.
         11    1    3    3    0    0  0.40389961164E+01  0.42494985190E+00  0.15750075539E+02  0.16265268266E+02  0.51100000000E-03 0. -1.
        -11    1    3    3    0    0  0.81315911067E+01 -0.90441491112E+01  0.89369717912E+01  0.15092676109E+02  0.51100000000E-03 0.  1.
         12    1    3    3    0    0 -0.90788348560E+00  0.12728887802E+02 -0.39072490936E+02  0.41103629828E+02  0.00000000000E+00 0. -1.
</event>
<event>
 7    1  0.3611369E-013  0.7246156E+02  0.7816164E-02  0.1226708E+00
        -11   -1    0    0    0    0  0.00000000000E+00  0.00000000000E+00  0.45593999997E+02  0.45594000000E+02  0.51100000000E-03 0.  1.
         11   -1    0    0    0    0 -0.00000000000E+00 -0.00000000000E+00 -0.45593999997E+02  0.45594000000E+02  0.51100000000E-03 0. -1.
    9900012    2    1    2    0    0  0.17759735174E+01  0.10553691974E+02 -0.15367013465E+02  0.72461558825E+02  0.69999985059E+02 0.  0.
        -12    1    1    2    0    0 -0.17759735174E+01 -0.10553691974E+02  0.15367013465E+02  0.18726441175E+02  0.00000000000E+00 0.  1.
         11    1    3    3    0    0 -0.11861076650E+02 -0.50362774194E+01  0.51771179898E+01  0.13887108428E+02  0.51100000000E-03 0. -1.
        -11    1    3    3    0    0  0.21612186728E+02 -0.45031222317E+01  0.73646792549E+01  0.23272370438E+02  0.51100000000E-03 0.  1.
        -12    1    3    3    0    0 -0.79751365602E+01  0.20093091625E+02 -0.27908810710E+02  0.35302079960E+02  0.00000000000E+00 0.  1.
</event>
<event>
 7    1  0.3611369E-013  0.7246158E+02  0.7816164E-02  0.1226708E+00
        -11   -1    0    0    0    0  0.00000000000E+00  0.00000000000E+00  0.45593999997E+02  0.45594000000E+02  0.51100000000E-03 0.  1.
         11   -1    0    0    0    0 -0.00000000000E+00 -0.00000000000E+00 -0.45593999997E+02  0.45594000000E+02  0.51100000000E-03 0. -1.
    9900012    2    1    2    0    0  0.91507681296E+01 -0.15855795779E+02  0.39415502525E+01  0.72461584552E+02  0.70000018573E+02 0.  0.
        -12    1    1    2    0    0 -0.91507681296E+01  0.15855795779E+02 -0.39415502525E+01  0.18726415448E+02  0.00000000000E+00 0.  1.
         11    1    3    3    0    0 -0.45983544420E+01  0.19911233837E+01  0.45371666715E+00  0.50314307089E+01  0.51100000000E-03 0. -1.
        -11    1    3    3    0    0 -0.42443142968E+01  0.18788577147E+02  0.15674705107E+02  0.24833872342E+02  0.51100000000E-03 0.  1.
         12    1    3    3    0    0  0.17993436868E+02 -0.36635496310E+02 -0.12186871522E+02  0.42596281501E+02  0.00000000000E+00 0. -1.
</event>
<event>
 7    1  0.3611369E-013  0.7246157E+02  0.7816164E-02  0.1226708E+00
        -11   -1    0    0    0    0  0.00000000000E+00  0.00000000000E+00  0.45593999997E+02  0.45594000000E+02  0.51100000000E-03 0.  1.
         11   -1    0    0    0    0 -0.00000000000E+00 -0.00000000000E+00 -0.45593999997E+02  0.45594000000E+02  0.51100000000E-03 0. -1.
    9900012    2    1    2    0    0  0.22896465895E+01 -0.17841384257E+02 -0.52078508776E+01  0.72461569895E+02  0.69999999479E+02 0.  0.
        -12    1    1    2    0    0 -0.22896465895E+01  0.17841384257E+02  0.52078508776E+01  0.18726430105E+02  0.00000000000E+00 0.  1.
         11    1    3    3    0    0 -0.24394745165E+02  0.18787511254E+00  0.10981420455E+00  0.24395715775E+02  0.51100000000E-03 0. -1.
        -11    1    3    3    0    0  0.11033333950E+02  0.67617255957E+01 -0.12380568999E+02  0.17909044645E+02  0.51100000000E-03 0.  1.
        -12    1    3    3    0    0  0.15651057805E+02 -0.24790984966E+02  0.70629039172E+01  0.30156809475E+02  0.00000000000E+00 0.  1.
</event>
<event>
 7    1  0.3611369E-013  0.7246156E+02  0.7816164E-02  0.1226708E+00
        -11   -1    0    0    0    0  0.00000000000E+00  0.00000000000E+00  0.45593999997E+02  0.45594000000E+02  0.51100000000E-03 0. -1.
         11   -1    0    0    0    0 -0.00000000000E+00 -0.00000000000E+00 -0.45593999997E+02  0.45594000000E+02  0.51100000000E-03 0.  1.
    9900012    2    1    2    0    0  0.11866981782E+02 -0.12905003061E+01  0.14428752801E+02  0.72461560000E+02  0.69999986590E+02 0.  0.
        -12    1    1    2    0    0 -0.11866981782E+02  0.12905003061E+01 -0.14428752801E+02  0.18726440000E+02  0.00000000000E+00 0.  1.
         11    1    3    3    0    0  0.16737310759E+01 -0.19760820226E+02  0.24110548402E+01  0.19977601893E+02  0.51100000000E-03 0. -1.
        -11    1    3    3    0    0  0.21644671636E+02 -0.11534689426E+01 -0.70808063529E+01  0.22802634052E+02  0.51100000000E-03 0.  1.
         12    1    3    3    0    0 -0.11451420930E+02  0.19623788862E+02  0.19098504314E+02  0.29681324055E+02  0.00000000000E+00 0. -1.
</event>
<event>
 7    1  0.3611369E-013  0.7246160E+02  0.7816164E-02  0.1226708E+00
        -11   -1    0    0    0    0  0.00000000000E+00  0.00000000000E+00  0.45593999997E+02  0.45594000000E+02  0.51100000000E-03 0.  1.
         11   -1    0    0    0    0 -0.00000000000E+00 -0.00000000000E+00 -0.45593999997E+02  0.45594000000E+02  0.51100000000E-03 0. -1.
    9900012    2    1    2    0    0  0.17268936255E+02  0.62094972998E+01 -0.37287971987E+01  0.72461602999E+02  0.70000042603E+02 0.  0.
        -12    1    1    2    0    0 -0.17268936255E+02 -0.62094972998E+01  0.37287971987E+01  0.18726397001E+02  0.00000000000E+00 0.  1.
         11    1    3    3    0    0 -0.47926032460E+01  0.29093984260E+01 -0.65296287651E+01  0.86063753779E+01  0.51100000000E-03 0. -1.
        -11    1    3    3    0    0 -0.20081930708E+02 -0.19606201948E+01 -0.47244542044E+01  0.20723137800E+02  0.51100000000E-03 0.  1.
         12    1    3    3    0    0  0.42143470209E+02  0.52607190686E+01  0.75252857708E+01  0.43132089821E+02  0.00000000000E+00 0. -1.
</event>
<event>
 7    1  0.3611369E-013  0.7246157E+02  0.7816164E-02  0.1226708E+00
        -11   -1    0    0    0    0  0.00000000000E+00  0.00000000000E+00  0.45593999997E+02  0.45594000000E+02  0.51100000000E-03 0. -1.
         11   -1    0    0    0    0 -0.00000000000E+00 -0.00000000000E+00 -0.45593999997E+02  0.45594000000E+02  0.51100000000E-03 0.  1.
    9900012    2    1    2    0    0 -0.62392230441E+01  0.17552468539E+02 -0.19136601986E+01  0.72461570779E+02  0.70000000632E+02 0.  0.
        -12    1    1    2    0    0  0.62392230441E+01 -0.17552468539E+02  0.19136601986E+01  0.18726429221E+02  0.00000000000E+00 0.  1.
         11    1    3    3    0    0 -0.34233228459E+01 -0.10257967199E+02  0.18659679444E+02  0.21566841854E+02  0.51100000000E-03 0. -1.
        -11    1    3    3    0    0  0.98349990519E+01  0.27522698134E+02 -0.32005049660E+01  0.29401859655E+02  0.51100000000E-03 0.  1.
        -12    1    3    3    0    0 -0.12650899250E+02  0.28773760415E+00 -0.17372834676E+02  0.21492869270E+02  0.00000000000E+00 0.  1.
</event>
<event>
 7    1  0.3611369E-013  0.7246170E+02  0.7816164E-02  0.1226708E+00
        -11   -1    0    0    0    0  0.00000000000E+00  0.00000000000E+00  0.45593999997E+02  0.45594000000E+02  0.51100000000E-03 0.  1.
         11   -1    0    0    0    0 -0.00000000000E+00 -0.00000000000E+00 -0.45593999997E+02  0.45594000000E+02  0.51100000000E-03 0. -1.
    9900012    2    1    2    0    0  0.43393844512E+01 -0.23237576088E+01 -0.18067766796E+02  0.72461700210E+02  0.70000169239E+02 0.  0.
        -12    1    1    2    0    0 -0.43393844512E+01  0.23237576088E+01  0.18067766796E+02  0.18726299790E+02  0.00000000000E+00 0.  1.
         11    1    3    3    0    0 -0.43312112301E+01  0.94627649705E+01 -0.10514408498E+02  0.14793785788E+02  0.51100000000E-03 0. -1.
        -11    1    3    3    0    0  0.31122805479E+02 -0.14400598753E+02 -0.17837051663E+01  0.34339305027E+02  0.51100000000E-03 0.  1.
         12    1    3    3    0    0 -0.22452209798E+02  0.26140761739E+01 -0.57696531313E+01  0.23328609395E+02  0.00000000000E+00 0. -1.
</event>
<event>
 7    1  0.3611369E-013  0.7246155E+02  0.7816164E-02  0.1226708E+00
        -11   -1    0    0    0    0  0.00000000000E+00  0.00000000000E+00  0.45593999997E+02  0.45594000000E+02  0.51100000000E-03 0. -1.
         11   -1    0    0    0    0 -0.00000000000E+00 -0.00000000000E+00 -0.45593999997E+02  0.45594000000E+02  0.51100000000E-03 0.  1.
    9900012    2    1    2    0    0  0.87817264656E+01 -0.10555639775E+02  0.12733413222E+02  0.72461546437E+02  0.69999968921E+02 0.  0.
        -12    1    1    2    0    0 -0.87817264656E+01  0.10555639775E+02 -0.12733413222E+02  0.18726453563E+02  0.00000000000E+00 0.  1.
         11    1    3    3    0    0  0.14080333030E+02 -0.82585402180E+00 -0.20077802510E+01  0.14246718741E+02  0.51100000000E-03 0. -1.
        -11    1    3    3    0    0 -0.74306798405E+01 -0.14893368463E+01 -0.20554608815E+02  0.21907192220E+02  0.51100000000E-03 0.  1.
         12    1    3    3    0    0  0.21320732761E+01 -0.82404489067E+01  0.35295802289E+02  0.36307635476E+02  0.00000000000E+00 0. -1.
</event>
<event>
 7    1  0.3611369E-013  0.7246155E+02  0.7816164E-02  0.1226708E+00
        -11   -1    0    0    0    0  0.00000000000E+00  0.00000000000E+00  0.45593999997E+02  0.45594000000E+02  0.51100000000E-03 0.  1.
         11   -1    0    0    0    0 -0.00000000000E+00 -0.00000000000E+00 -0.45593999997E+02  0.45594000000E+02  0.51100000000E-03 0. -1.
    9900012    2    1    2    0    0 -0.50535412274E+01  0.34980933201E+01 -0.17689124177E+02  0.72461546787E+02  0.69999969377E+02 0.  0.
        -12    1    1    2    0    0  0.50535412274E+01 -0.34980933201E+01  0.17689124177E+02  0.18726453213E+02  0.00000000000E+00 0.  1.
         11    1    3    3    0    0  0.13113287621E+01  0.53848940141E+00 -0.17572901487E+02  0.17629986412E+02  0.51100000000E-03 0. -1.
        -11    1    3    3    0    0  0.48541569633E+01 -0.10920586353E+02  0.22825777448E+02  0.25765057006E+02  0.51100000000E-03 0.  1.
         12    1    3    3    0    0 -0.11219026953E+02  0.13880190272E+02 -0.22942000138E+02  0.29066503369E+02  0.00000000000E+00 0. -1.
</event>
<event>
 7    1  0.3611369E-013  0.7246157E+02  0.7816164E-02  0.1226708E+00
        -11   -1    0    0    0    0  0.00000000000E+00  0.00000000000E+00  0.45593999997E+02  0.45594000000E+02  0.51100000000E-03 0. -1.
         11   -1    0    0    0    0 -0.00000000000E+00 -0.00000000000E+00 -0.45593999997E+02  0.45594000000E+02  0.51100000000E-03 0.  1.
    9900012    2    1    2    0    0  0.48922734944E+01  0.18053574558E+02  0.90177967139E+00  0.72461572128E+02  0.70000002388E+02 0.  0.
        -12    1    1    2    0    0 -0.48922734944E+01 -0.18053574558E+02 -0.90177967139E+00  0.18726427872E+02  0.00000000000E+00 0.  1.
         11    1    3    3    0    0  0.63506028171E+01 -0.84170005981E+01  0.13079118206E+02  0.16799981801E+02  0.51100000000E-03 0. -1.
        -11    1    3    3    0    0  0.37822553970E+00 -0.60349736300E+01 -0.21062707361E+02  0.21913502753E+02  0.51100000000E-03 0.  1.
         12    1    3    3    0    0 -0.18365548624E+01  0.32505548786E+02  0.88853688260E+01  0.33748087573E+02  0.00000000000E+00 0. -1.
</event>
<event>
 7    1  0.3611369E-013  0.7246156E+02  0.7816164E-02  0.1226708E+00
        -11   -1    0    0    0    0  0.00000000000E+00  0.00000000000E+00  0.45593999997E+02  0.45594000000E+02  0.51100000000E-03 0.  1.
         11   -1    0    0    0    0 -0.00000000000E+00 -0.00000000000E+00 -0.45593999997E+02  0.45594000000E+02  0.51100000000E-03 0. -1.
    9900012    2    1    2    0    0  0.43370594584E+01 -0.16153043799E+02 -0.84230943378E+01  0.72461563421E+02  0.69999991047E+02 0.  0.
        -12    1    1    2    0    0 -0.43370594584E+01  0.16153043799E+02  0.84230943378E+01  0.18726436579E+02  0.00000000000E+00 0.  1.
         11    1    3    3    0    0  0.84912196355E+01 -0.55382083679E+01 -0.15899043786E+02  0.18856090698E+02  0.51100000000E-03 0. -1.
        -11    1    3    3    0    0 -0.18746520232E+02 -0.49181460539E+01 -0.16170532029E+02  0.25240964478E+02  0.51100000000E-03 0.  1.
        -12    1    3    3    0    0  0.14592360055E+02 -0.56966893770E+01  0.23646481477E+02  0.28364508246E+02  0.00000000000E+00 0.  1.
</event>
<event>
 7    1  0.3611369E-013  0.7246146E+02  0.7816164E-02  0.1226708E+00
        -11   -1    0    0    0    0  0.00000000000E+00  0.00000000000E+00  0.45593999997E+02  0.45594000000E+02  0.51100000000E-03 0. -1.
         11   -1    0    0    0    0 -0.00000000000E+00 -0.00000000000E+00 -0.45593999997E+02  0.45594000000E+02  0.51100000000E-03 0.  1.
    9900012    2    1    2    0    0  0.42487089598E+01  0.16581267623E+01  0.18162667474E+02  0.72461457287E+02  0.69999852787E+02 0.  0.
        -12    1    1    2    0    0 -0.42487089598E+01 -0.16581267623E+01 -0.18162667474E+02  0.18726542713E+02  0.00000000000E+00 0.  1.
         11    1    3    3    0    0 -0.41196673013E+01 -0.70440908068E+01 -0.34407174027E+01  0.88560380800E+01  0.51100000000E-03 0. -1.
        -11    1    3    3    0    0  0.82212011681E+01  0.23830821136E+02 -0.11120880427E+02  0.27553042779E+02  0.51100000000E-03 0.  1.
         12    1    3    3    0    0  0.14717509303E+00 -0.15128603567E+02  0.32724265304E+02  0.36052376428E+02  0.00000000000E+00 0. -1.
</event>
<event>
 7    1  0.3611369E-013  0.7246155E+02  0.7816164E-02  0.1226708E+00
        -11   -1    0    0    0    0  0.00000000000E+00  0.00000000000E+00  0.45593999997E+02  0.45594000000E+02  0.51100000000E-03 0. -1.
         11   -1    0    0    0    0 -0.00000000000E+00 -0.00000000000E+00 -0.45593999997E+02  0.45594000000E+02  0.51100000000E-03 0.  1.
    9900012    2    1    2    0    0  0.83614501702E+01 -0.13670377929E+02 -0.96895214883E+01  0.72461550568E+02  0.69999974302E+02 0.  0.
        -12    1    1    2    0    0 -0.83614501702E+01  0.13670377929E+02  0.96895214883E+01  0.18726449432E+02  0.00000000000E+00 0.  1.
         11    1    3    3    0    0  0.72244482002E+01 -0.33730187585E+02  0.89582341240E+01  0.35639418699E+02  0.51100000000E-03 0. -1.
        -11    1    3    3    0    0  0.12079121865E+02  0.58811032659E+01 -0.10933459483E+02  0.17321463483E+02  0.51100000000E-03 0.  1.
        -12    1    3    3    0    0 -0.10942119895E+02  0.14178706391E+02 -0.77142961297E+01  0.19500668386E+02  0.00000000000E+00 0.  1.
</event>
<event>
 7    1  0.3611369E-013  0.7246161E+02  0.7816164E-02  0.1226708E+00
        -11   -1    0    0    0    0  0.00000000000E+00  0.00000000000E+00  0.45593999997E+02  0.45594000000E+02  0.51100000000E-03 0.  1.
         11   -1    0    0    0    0 -0.00000000000E+00 -0.00000000000E+00 -0.45593999997E+02  0.45594000000E+02  0.51100000000E-03 0. -1.
    9900012    2    1    2    0    0 -0.60074179907E+00 -0.94435522250E+01 -0.16159705765E+02  0.72461610606E+02  0.70000052513E+02 0.  0.
        -12    1    1    2    0    0  0.60074179907E+00  0.94435522250E+01  0.16159705765E+02  0.18726389394E+02  0.00000000000E+00 0.  1.
         11    1    3    3    0    0 -0.70166389723E+01 -0.20342512247E+02 -0.10570858968E+01  0.21544569103E+02  0.51100000000E-03 0. -1.
        -11    1    3    3    0    0 -0.19695404887E+02  0.89721513563E+01 -0.22772165384E+01  0.21762219304E+02  0.51100000000E-03 0.  1.
         12    1    3    3    0    0  0.26111302060E+02  0.19268086653E+01 -0.12825403330E+02  0.29154822199E+02  0.00000000000E+00 0. -1.
</event>
<event>
 7    1  0.3611369E-013  0.7246177E+02  0.7816164E-02  0.1226707E+00
        -11   -1    0    0    0    0  0.00000000000E+00  0.00000000000E+00  0.45593999997E+02  0.45594000000E+02  0.51100000000E-03 0.  1.
         11   -1    0    0    0    0 -0.00000000000E+00 -0.00000000000E+00 -0.45593999997E+02  0.45594000000E+02  0.51100000000E-03 0. -1.
    9900012    2    1    2    0    0 -0.17034291093E+01 -0.13909739021E+02 -0.12421314906E+02  0.72461773088E+02  0.70000264177E+02 0.  0.
        -12    1    1    2    0    0  0.17034291093E+01  0.13909739021E+02  0.12421314906E+02  0.18726226912E+02  0.00000000000E+00 0.  1.
         11    1    3    3    0    0  0.12062238272E+02  0.83487562517E+01  0.12607286078E+01  0.14723748163E+02  0.51100000000E-03 0. -1.
        -11    1    3    3    0    0  0.31312144393E+01 -0.10751593451E+01  0.16701733986E+02  0.17026696387E+02  0.51100000000E-03 0.  1.
        -12    1    3    3    0    0 -0.16896881820E+02 -0.21183335927E+02 -0.30383777499E+02  0.40711328538E+02  0.00000000000E+00 0.  1.
</event>
<event>
 7    1  0.3611369E-013  0.7246153E+02  0.7816164E-02  0.1226708E+00
        -11   -1    0    0    0    0  0.00000000000E+00  0.00000000000E+00  0.45593999997E+02  0.45594000000E+02  0.51100000000E-03 0.  1.
         11   -1    0    0    0    0 -0.00000000000E+00 -0.00000000000E+00 -0.45593999997E+02  0.45594000000E+02  0.51100000000E-03 0. -1.
    9900012    2    1    2    0    0  0.10315113655E+02 -0.15377064918E+02  0.27973089231E+01  0.72461531235E+02  0.69999949118E+02 0.  0.
        -12    1    1    2    0    0 -0.10315113655E+02  0.15377064918E+02 -0.27973089231E+01  0.18726468765E+02  0.00000000000E+00 0.  1.
         11    1    3    3    0    0  0.26943517077E+02 -0.15874864095E+02 -0.60954406050E+00  0.31278362597E+02  0.51100000000E-03 0. -1.
        -11    1    3    3    0    0  0.49550998357E+01 -0.13991051831E+02 -0.72937089608E+00  0.14860502276E+02  0.51100000000E-03 0.  1.
        -12    1    3    3    0    0 -0.21583503258E+02  0.14488851008E+02  0.41362238797E+01  0.26322666362E+02  0.00000000000E+00 0.  1.
</event>
<event>
 7    1  0.3611369E-013  0.7246156E+02  0.7816164E-02  0.1226708E+00
        -11   -1    0    0    0    0  0.00000000000E+00  0.00000000000E+00  0.45593999997E+02  0.45594000000E+02  0.51100000000E-03 0. -1.
         11   -1    0    0    0    0 -0.00000000000E+00 -0.00000000000E+00 -0.45593999997E+02  0.45594000000E+02  0.51100000000E-03 0.  1.
    9900012    2    1    2    0    0 -0.11774550787E+02  0.50039964915E+01  0.13674778991E+02  0.72461558598E+02  0.69999984763E+02 0.  0.
        -12    1    1    2    0    0  0.11774550787E+02 -0.50039964915E+01 -0.13674778991E+02  0.18726441402E+02  0.00000000000E+00 0.  1.
         11    1    3    3    0    0 -0.72943315718E+01  0.15833546073E+01  0.11150139911E+02  0.13417894961E+02  0.51100000000E-03 0. -1.
        -11    1    3    3    0    0 -0.22057959837E+02 -0.47213993665E+01 -0.19424594600E+02  0.29768441003E+02  0.51100000000E-03 0.  1.
         12    1    3    3    0    0  0.17577740621E+02  0.81420412506E+01  0.21949233681E+02  0.29275222633E+02  0.00000000000E+00 0. -1.
</event>
<event>
 7    1  0.3611369E-013  0.7246157E+02  0.7816164E-02  0.1226708E+00
        -11   -1    0    0    0    0  0.00000000000E+00  0.00000000000E+00  0.45593999997E+02  0.45594000000E+02  0.51100000000E-03 0.  1.
         11   -1    0    0    0    0 -0.00000000000E+00 -0.00000000000E+00 -0.45593999997E+02  0.45594000000E+02  0.51100000000E-03 0. -1.
    9900012    2    1    2    0    0  0.12557222531E+02 -0.10622197543E+01 -0.13851609502E+02  0.72461568565E+02  0.69999997747E+02 0.  0.
        -12    1    1    2    0    0 -0.12557222531E+02  0.10622197543E+01  0.13851609502E+02  0.18726431435E+02  0.00000000000E+00 0.  1.
         11    1    3    3    0    0 -0.30575381172E+01 -0.17931188641E+01  0.46496160927E+01  0.58466011211E+01  0.51100000000E-03 0. -1.
        -11    1    3    3    0    0  0.28872206474E+02  0.14180999502E+02  0.88638280238E+01  0.33365738431E+02  0.51100000000E-03 0.  1.
         12    1    3    3    0    0 -0.13257445826E+02 -0.13450100392E+02 -0.27365053619E+02  0.33249229012E+02  0.00000000000E+00 0. -1.
</event>
<event>
 7    1  0.3611369E-013  0.7246190E+02  0.7816164E-02  0.1226707E+00
        -11   -1    0    0    0    0  0.00000000000E+00  0.00000000000E+00  0.45593999997E+02  0.45594000000E+02  0.51100000000E-03 0.  1.
         11   -1    0    0    0    0 -0.00000000000E+00 -0.00000000000E+00 -0.45593999997E+02  0.45594000000E+02  0.51100000000E-03 0. -1.
    9900012    2    1    2    0    0  0.93053390322E+01  0.11719909455E+02 -0.11257058847E+02  0.72461895599E+02  0.70000423769E+02 0.  0.
        -12    1    1    2    0    0 -0.93053390322E+01 -0.11719909455E+02  0.11257058847E+02  0.18726104401E+02  0.00000000000E+00 0.  1.
         11    1    3    3    0    0  0.11501348083E+02  0.28684464020E+02 -0.25401869826E+02  0.40004180716E+02  0.51100000000E-03 0. -1.
        -11    1    3    3    0    0  0.22762663334E+00 -0.96628284001E+01 -0.56671538528E+01  0.11204405367E+02  0.51100000000E-03 0.  1.
        -12    1    3    3    0    0 -0.24236356845E+01 -0.73017261654E+01  0.19811964831E+02  0.21253309516E+02  0.00000000000E+00 0.  1.
</event>
<event>
 7    1  0.3611369E-013  0.7246154E+02  0.7816164E-02  0.1226708E+00
        -11   -1    0    0    0    0  0.00000000000E+00  0.00000000000E+00  0.45593999997E+02  0.45594000000E+02  0.51100000000E-03 0. -1.
         11   -1    0    0    0    0 -0.00000000000E+00 -0.00000000000E+00 -0.45593999997E+02  0.45594000000E+02  0.51100000000E-03 0.  1.
    9900012    2    1    2    0    0  0.11277559438E+02  0.11304098809E+02  0.97833733513E+01  0.72461537684E+02  0.69999957519E+02 0.  0.
        -12    1    1    2    0    0 -0.11277559438E+02 -0.11304098809E+02 -0.97833733513E+01  0.18726462316E+02  0.00000000000E+00 0.  1.
         11    1    3    3    0    0 -0.22250979482E+01  0.23986118880E+01  0.10281978894E+02  0.10789971738E+02  0.51100000000E-03 0. -1.
        -11    1    3    3    0    0  0.48499329531E+01 -0.25524251963E+02 -0.25895122826E+01  0.26109669896E+02  0.51100000000E-03 0.  1.
        -12    1    3    3    0    0  0.86527244327E+01  0.34429738884E+02  0.20909067402E+01  0.35561896051E+02  0.00000000000E+00 0.  1.
</event>
<event>
 7    1  0.3611369E-013  0.7246160E+02  0.7816164E-02  0.1226708E+00
        -11   -1    0    0    0    0  0.00000000000E+00  0.00000000000E+00  0.45593999997E+02  0.45594000000E+02  0.51100000000E-03 0. -1.
         11   -1    0    0    0    0 -0.00000000000E+00 -0.00000000000E+00 -0.45593999997E+02  0.45594000000E+02  0.51100000000E-03 0.  1.
    9900012    2    1    2    0    0  0.98042739730E+01 -0.10973874688E+02  0.11581378562E+02  0.72461600367E+02  0.70000039175E+02 0.  0.
        -12    1    1    2    0    0 -0.98042739730E+01  0.10973874688E+02 -0.11581378562E+02  0.18726399633E+02  0.00000000000E+00 0.  1.
         11    1    3    3    0    0 -0.38411716392E+01 -0.45973989858E+01 -0.79438145745E+01  0.99496164374E+01  0.51100000000E-03 0. -1.
        -11    1    3    3    0    0 -0.10492773094E+02  0.17018361100E+02 -0.53470135525E+01  0.20695735211E+02  0.51100000000E-03 0.  1.
         12    1    3    3    0    0  0.24138218706E+02 -0.23394836803E+02  0.24872206689E+02  0.41816248719E+02  0.00000000000E+00 0. -1.
</event>
<event>
 7    1  0.3611369E-013  0.7246161E+02  0.7816164E-02  0.1226708E+00
        -11   -1    0    0    0    0  0.00000000000E+00  0.00000000000E+00  0.45593999997E+02  0.45594000000E+02  0.51100000000E-03 0. -1.
         11   -1    0    0    0    0 -0.00000000000E+00 -0.00000000000E+00 -0.45593999997E+02  0.45594000000E+02  0.51100000000E-03 0.  1.
    9900012    2    1    2    0    0 -0.57204061978E+01 -0.15792131861E+02  0.82802822336E+01  0.72461613546E+02  0.70000056343E+02 0.  0.
        -12    1    1    2    0    0  0.57204061978E+01  0.15792131861E+02 -0.82802822336E+01  0.18726386454E+02  0.00000000000E+00 0.  1.
         11    1    3    3    0    0  0.60546814551E+01 -0.13854683025E+02 -0.21962468278E+02  0.26663859855E+02  0.51100000000E-03 0. -1.
        -11    1    3    3    0    0  0.50710593563E+01 -0.67638904905E+01 -0.23659992877E+01  0.87785995724E+01  0.51100000000E-03 0.  1.
         12    1    3    3    0    0 -0.16846147009E+02  0.48264416546E+01  0.32608749800E+02  0.37019154118E+02  0.00000000000E+00 0. -1.
</event>
<event>
 7    1  0.3611369E-013  0.7246168E+02  0.7816164E-02  0.1226708E+00
        -11   -1    0    0    0    0  0.00000000000E+00  0.00000000000E+00  0.45593999997E+02  0.45594000000E+02  0.51100000000E-03 0.  1.
         11   -1    0    0    0    0 -0.00000000000E+00 -0.00000000000E+00 -0.45593999997E+02  0.45594000000E+02  0.51100000000E-03 0. -1.
    9900012    2    1    2    0    0 -0.62030334945E+01 -0.11618715100E+02 -0.13311764449E+02  0.72461675271E+02  0.70000136751E+02 0.  0.
        -12    1    1    2    0    0  0.62030334945E+01  0.11618715100E+02  0.13311764449E+02  0.18726324729E+02  0.00000000000E+00 0.  1.
         11    1    3    3    0    0  0.11249551993E+02  0.75478421446E+01 -0.82903479272E+00  0.13572385200E+02  0.51100000000E-03 0. -1.
        -11    1    3    3    0    0  0.15020373534E+02  0.11372221613E+01 -0.13995277519E+02  0.20561436925E+02  0.51100000000E-03 0.  1.
        -12    1    3    3    0    0 -0.32472959021E+02 -0.20303779406E+02  0.15125478623E+01  0.38327853146E+02  0.00000000000E+00 0.  1.
</event>
<event>
 7    1  0.3611369E-013  0.7246155E+02  0.7816164E-02  0.1226708E+00
        -11   -1    0    0    0    0  0.00000000000E+00  0.00000000000E+00  0.45593999997E+02  0.45594000000E+02  0.51100000000E-03 0.  1.
         11   -1    0    0    0    0 -0.00000000000E+00 -0.00000000000E+00 -0.45593999997E+02  0.45594000000E+02  0.51100000000E-03 0. -1.
    9900012    2    1    2    0    0 -0.22357546780E+01 -0.18138033596E+02 -0.40857369977E+01  0.72461545223E+02  0.69999967340E+02 0.  0.
        -12    1    1    2    0    0  0.22357546780E+01  0.18138033596E+02  0.40857369977E+01  0.18726454777E+02  0.00000000000E+00 0.  1.
         11    1    3    3    0    0 -0.20487648139E+01  0.14640337821E+02 -0.70964548613E+00  0.14800017761E+02  0.51100000000E-03 0. -1.
        -11    1    3    3    0    0 -0.21816395952E+02 -0.86267225509E+01 -0.82658539245E+01  0.24873677164E+02  0.51100000000E-03 0.  1.
         12    1    3    3    0    0  0.21629406088E+02 -0.24151648866E+02  0.48897624129E+01  0.32787850297E+02  0.00000000000E+00 0. -1.
</event>
<event>
 7    1  0.3611369E-013  0.7246156E+02  0.7816164E-02  0.1226708E+00
        -11   -1    0    0    0    0  0.00000000000E+00  0.00000000000E+00  0.45593999997E+02  0.45594000000E+02  0.51100000000E-03 0. -1.
         11   -1    0    0    0    0 -0.00000000000E+00 -0.00000000000E+00 -0.45593999997E+02  0.45594000000E+02  0.51100000000E-03 0.  1.
    9900012    2    1    2    0    0 -0.12766953153E+02 -0.96537910339E+01  0.97205382844E+01  0.72461557768E+02  0.69999983682E+02 0.  0.
        -12    1    1    2    0    0  0.12766953153E+02  0.96537910339E+01 -0.97205382844E+01  0.18726442232E+02  0.00000000000E+00 0.  1.
         11    1    3    3    0    0  0.11344904726E+02  0.22274848870E+01  0.61579654486E+01  0.13099201918E+02  0.51100000000E-03 0. -1.
        -11    1    3    3    0    0  0.12497941049E+02 -0.15842596794E+02  0.90802892078E+01  0.22127766629E+02  0.51100000000E-03 0.  1.
         12    1    3    3    0    0 -0.36609798927E+02  0.39613208732E+01 -0.55177163720E+01  0.37234589221E+02  0.00000000000E+00 0. -1.
</event>
<event>
 7    1  0.3611369E-013  0.7246160E+02  0.7816164E-02  0.1226708E+00
        -11   -1    0    0    0    0  0.00000000000E+00  0.00000000000E+00  0.45593999997E+02  0.45594000000E+02  0.51100000000E-03 0.  1.
         11   -1    0    0    0    0 -0.00000000000E+00 -0.00000000000E+00 -0.45593999997E+02  0.45594000000E+02  0.51100000000E-03 0. -1.
    9900012    2    1    2    0    0 -0.45458849733E+01 -0.42053078986E+01 -0.17672816007E+02  0.72461598575E+02  0.70000036840E+02 0.  0.
        -12    1    1    2    0    0  0.45458849733E+01  0.42053078986E+01  0.17672816007E+02  0.18726401425E+02  0.00000000000E+00 0.  1.
         11    1    3    3    0    0  0.86042423046E+01 -0.21967573918E+02 -0.68603448552E+00  0.23602498449E+02  0.51100000000E-03 0. -1.
        -11    1    3    3    0    0  0.10759130114E+01  0.11821136842E+02  0.11462523106E+02  0.16501100001E+02  0.51100000000E-03 0.  1.
         12    1    3    3    0    0 -0.14226040289E+02  0.59411291772E+01 -0.28449304628E+02  0.32358000124E+02  0.00000000000E+00 0. -1.
</event>
<event>
 7    1  0.3611369E-013  0.7246157E+02  0.7816164E-02  0.1226708E+00
        -11   -1    0    0    0    0  0.00000000000E+00  0.00000000000E+00  0.45593999997E+02  0.45594000000E+02  0.51100000000E-03 0. -1.
         11   -1    0    0    0    0 -0.00000000000E+00 -0.00000000000E+00 -0.45593999997E+02  0.45594000000E+02  0.51100000000E-03 0.  1.
    9900012    2    1    2    0    0  0.10369991603E+02 -0.93576148973E+01  0.12473072051E+02  0.72461569246E+02  0.69999998634E+02 0.  0.
        -12    1    1    2    0    0 -0.10369991603E+02  0.93576148973E+01 -0.12473072051E+02  0.18726430754E+02  0.00000000000E+00 0.  1.
         11    1    3    3    0    0  0.26490351719E+01 -0.40444883528E+01 -0.39902147280E+01  0.62687388855E+01  0.51100000000E-03 0. -1.
        -11    1    3    3    0    0 -0.41013091609E+01  0.25843105954E+02 -0.48831341933E+01  0.26618261814E+02  0.51100000000E-03 0.  1.
         12    1    3    3    0    0  0.11822265592E+02 -0.31156232499E+02  0.21346420973E+02  0.39574568546E+02  0.00000000000E+00 0. -1.
</event>
<event>
 7    1  0.3611369E-013  0.7246155E+02  0.7816164E-02  0.1226708E+00
        -11   -1    0    0    0    0  0.00000000000E+00  0.00000000000E+00  0.45593999997E+02  0.45594000000E+02  0.51100000000E-03 0.  1.
         11   -1    0    0    0    0 -0.00000000000E+00 -0.00000000000E+00 -0.45593999997E+02  0.45594000000E+02  0.51100000000E-03 0. -1.
    9900012    2    1    2    0    0 -0.96584196434E+01  0.10117287650E+02 -0.12451321808E+02  0.72461548276E+02  0.69999971317E+02 0.  0.
        -12    1    1    2    0    0  0.96584196434E+01 -0.10117287650E+02  0.12451321808E+02  0.18726451724E+02  0.00000000000E+00 0.  1.
         11    1    3    3    0    0  0.15171877058E+02 -0.19018222425E+01 -0.34500453017E+01  0.15674999016E+02  0.51100000000E-03 0.  1.
        -11    1    3    3    0    0  0.16952048145E+01 -0.98638613022E+01 -0.18567969850E+02  0.21093576837E+02  0.51100000000E-03 0. -1.
        -12    1    3    3    0    0 -0.26525501515E+02  0.21882971194E+02  0.95666933436E+01  0.35692972424E+02  0.00000000000E+00 0.  1.
</event>
<event>
 7    1  0.3611369E-013  0.7246156E+02  0.7816164E-02  0.1226708E+00
        -11   -1    0    0    0    0  0.00000000000E+00  0.00000000000E+00  0.45593999997E+02  0.45594000000E+02  0.51100000000E-03 0. -1.
         11   -1    0    0    0    0 -0.00000000000E+00 -0.00000000000E+00 -0.45593999997E+02  0.45594000000E+02  0.51100000000E-03 0.  1.
    9900012    2    1    2    0    0 -0.13550837219E+02  0.87918061700E+01  0.94740970316E+01  0.72461559879E+02  0.69999986431E+02 0.  0.
        -12    1    1    2    0    0  0.13550837219E+02 -0.87918061700E+01 -0.94740970316E+01  0.18726440121E+02  0.00000000000E+00 0.  1.
         11    1    3    3    0    0  0.18390770455E+02  0.16410435237E+02  0.21308232887E+00  0.24648899102E+02  0.51100000000E-03 0. -1.
        -11    1    3    3    0    0 -0.55634358935E+01 -0.55901725386E+01 -0.11665055592E+02  0.14081028733E+02  0.51100000000E-03 0.  1.
        -12    1    3    3    0    0 -0.26378171780E+02 -0.20284565279E+01  0.20926070295E+02  0.33731632044E+02  0.00000000000E+00 0.  1.
</event>
<event>
 7    1  0.4183988E-013  0.7246160E+02  0.7816164E-02  0.1226708E+00
        -11   -1    0    0    0    0  0.00000000000E+00  0.00000000000E+00  0.45593999997E+02  0.45594000000E+02  0.51100000000E-03 0.  1.
         11   -1    0    0    0    0 -0.00000000000E+00 -0.00000000000E+00 -0.45593999997E+02  0.45594000000E+02  0.51100000000E-03 0. -1.
    9900012    2    1    2    0    0  0.17532007811E+02  0.65166622162E+01 -0.91651481569E+00  0.72461596615E+02  0.70000034288E+02 0.  0.
        -12    1    1    2    0    0 -0.17532007811E+02 -0.65166622162E+01  0.91651481569E+00  0.18726403385E+02  0.00000000000E+00 0.  1.
         11    1    3    3    0    0 -0.67446567575E+01  0.88417452381E+01 -0.17435265090E+02  0.20679828884E+02  0.51100000000E-03 0. -1.
        -11    1    3    3    0    0 -0.82726137508E+01 -0.18069545812E+01 -0.75119326755E+01  0.11319468005E+02  0.51100000000E-03 0.  1.
        -12    1    3    3    0    0  0.32549278319E+02 -0.51812844061E+00  0.24030682950E+02  0.40462299727E+02  0.00000000000E+00 0.  1.
</event>
<event>
 7    1  0.3611369E-013  0.7246159E+02  0.7816164E-02  0.1226708E+00
        -11   -1    0    0    0    0  0.00000000000E+00  0.00000000000E+00  0.45593999997E+02  0.45594000000E+02  0.51100000000E-03 0.  1.
         11   -1    0    0    0    0 -0.00000000000E+00 -0.00000000000E+00 -0.45593999997E+02  0.45594000000E+02  0.51100000000E-03 0. -1.
    9900012    2    1    2    0    0 -0.82162856609E+00 -0.27128679766E+01 -0.18510633260E+02  0.72461594316E+02  0.70000031293E+02 0.  0.
        -12    1    1    2    0    0  0.82162856609E+00  0.27128679766E+01  0.18510633260E+02  0.18726405684E+02  0.00000000000E+00 0.  1.
         11    1    3    3    0    0  0.22422266169E+02 -0.12504523009E+02 -0.97108591752E+01  0.27448531874E+02  0.51100000000E-03 0. -1.
        -11    1    3    3    0    0  0.78521194024E+01  0.67160193776E+01  0.42204341917E+01  0.11161216798E+02  0.51100000000E-03 0.  1.
        -12    1    3    3    0    0 -0.31096014138E+02  0.30756356548E+01 -0.13020208276E+02  0.33851845644E+02  0.00000000000E+00 0.  1.
</event>
<event>
 7    1  0.3611369E-013  0.7246213E+02  0.7816164E-02  0.1226707E+00
        -11   -1    0    0    0    0  0.00000000000E+00  0.00000000000E+00  0.45593999997E+02  0.45594000000E+02  0.51100000000E-03 0. -1.
         11   -1    0    0    0    0 -0.00000000000E+00 -0.00000000000E+00 -0.45593999997E+02  0.45594000000E+02  0.51100000000E-03 0.  1.
    9900012    2    1    2    0    0 -0.16660852398E+02  0.69944618308E+01  0.49144415448E+01  0.72462129269E+02  0.70000728165E+02 0.  0.
        -12    1    1    2    0    0  0.16660852398E+02 -0.69944618308E+01 -0.49144415448E+01  0.18725870731E+02  0.00000000000E+00 0.  1.
         11    1    3    3    0    0 -0.83727875045E+01  0.67212972615E+01  0.22947031360E+02  0.25334672999E+02  0.51100000000E-03 0. -1.
        -11    1    3    3    0    0 -0.20924475624E+02 -0.62661939917E+01  0.26718873178E+01  0.22005405004E+02  0.51100000000E-03 0.  1.
        -12    1    3    3    0    0  0.12636410731E+02  0.65393585610E+01 -0.20704477133E+02  0.25122051267E+02  0.00000000000E+00 0.  1.
</event>
<event>
 7    1  0.3611369E-013  0.7246162E+02  0.7816164E-02  0.1226708E+00
        -11   -1    0    0    0    0  0.00000000000E+00  0.00000000000E+00  0.45593999997E+02  0.45594000000E+02  0.51100000000E-03 0.  1.
         11   -1    0    0    0    0 -0.00000000000E+00 -0.00000000000E+00 -0.45593999997E+02  0.45594000000E+02  0.51100000000E-03 0. -1.
    9900012    2    1    2    0    0  0.17371130414E+02 -0.15603892526E+01 -0.68180841283E+01  0.72461621341E+02  0.70000066498E+02 0.  0.
        -12    1    1    2    0    0 -0.17371130414E+02  0.15603892526E+01  0.68180841283E+01  0.18726378659E+02  0.00000000000E+00 0.  1.
         11    1    3    3    0    0  0.13402027284E+01 -0.11248858625E+02 -0.10964382806E+02  0.15765489345E+02  0.51100000000E-03 0. -1.
        -11    1    3    3    0    0  0.97046665613E+01  0.18675026576E+02 -0.20704860187E+02  0.29523353575E+02  0.51100000000E-03 0.  1.
        -12    1    3    3    0    0  0.63262611245E+01 -0.89865572044E+01  0.24851158865E+02  0.27172778421E+02  0.00000000000E+00 0.  1.
</event>
<event>
 7    1  0.3611369E-013  0.7246202E+02  0.7816164E-02  0.1226707E+00
        -11   -1    0    0    0    0  0.00000000000E+00  0.00000000000E+00  0.45593999997E+02  0.45594000000E+02  0.51100000000E-03 0. -1.
         11   -1    0    0    0    0 -0.00000000000E+00 -0.00000000000E+00 -0.45593999997E+02  0.45594000000E+02  0.51100000000E-03 0.  1.
    9900012    2    1    2    0    0  0.98037441487E+01 -0.61535063230E+01 -0.14720168782E+02  0.72462017826E+02  0.70000582991E+02 0.  0.
        -12    1    1    2    0    0 -0.98037441487E+01  0.61535063230E+01  0.14720168782E+02  0.18725982174E+02  0.00000000000E+00 0.  1.
         11    1    3    3    0    0  0.25985738152E+02 -0.15934367280E+02  0.10619126514E+02  0.32278917208E+02  0.51100000000E-03 0. -1.
        -11    1    3    3    0    0 -0.14685910656E+01  0.45059749456E+01  0.44762137321E+01  0.65189768803E+01  0.51100000000E-03 0.  1.
        -12    1    3    3    0    0 -0.14713402938E+02  0.52748860114E+01 -0.29815509028E+02  0.33664123738E+02  0.00000000000E+00 0.  1.
</event>
<event>
 7    1  0.3611369E-013  0.7246159E+02  0.7816164E-02  0.1226708E+00
        -11   -1    0    0    0    0  0.00000000000E+00  0.00000000000E+00  0.45593999997E+02  0.45594000000E+02  0.51100000000E-03 0. -1.
         11   -1    0    0    0    0 -0.00000000000E+00 -0.00000000000E+00 -0.45593999997E+02  0.45594000000E+02  0.51100000000E-03 0.  1.
    9900012    2    1    2    0    0 -0.89235451586E+01 -0.15325058385E+02  0.60159123847E+01  0.72461594191E+02  0.70000031130E+02 0.  0.
        -12    1    1    2    0    0  0.89235451586E+01  0.15325058385E+02 -0.60159123847E+01  0.18726405809E+02  0.00000000000E+00 0.  1.
         11    1    3    3    0    0  0.78265690378E+01  0.26664746891E+01 -0.18241179907E+01  0.84671528199E+01  0.51100000000E-03 0. -1.
        -11    1    3    3    0    0 -0.15535019719E+02  0.15052768845E+02 -0.12684071130E+02  0.25076051289E+02  0.51100000000E-03 0.  1.
         12    1    3    3    0    0 -0.12150944771E+01 -0.33044301919E+02  0.20524101506E+02  0.38918390081E+02  0.00000000000E+00 0. -1.
</event>
<event>
 7    1  0.3611369E-013  0.7246208E+02  0.7816164E-02  0.1226707E+00
        -11   -1    0    0    0    0  0.00000000000E+00  0.00000000000E+00  0.45593999997E+02  0.45594000000E+02  0.51100000000E-03 0.  1.
         11   -1    0    0    0    0 -0.00000000000E+00 -0.00000000000E+00 -0.45593999997E+02  0.45594000000E+02  0.51100000000E-03 0. -1.
    9900012    2    1    2    0    0  0.60677768591E+01  0.17545525157E+02 -0.24487811219E+01  0.72462084855E+02  0.70000670307E+02 0.  0.
        -12    1    1    2    0    0 -0.60677768591E+01 -0.17545525157E+02  0.24487811219E+01  0.18725915145E+02  0.00000000000E+00 0.  1.
         11    1    3    3    0    0 -0.35140419100E+01 -0.16684766075E+02 -0.81760173135E+01  0.18909710968E+02  0.51100000000E-03 0. -1.
        -11    1    3    3    0    0  0.76370472587E+01  0.37541130311E+01  0.18567364134E+02  0.20424614234E+02  0.51100000000E-03 0.  1.
         12    1    3    3    0    0  0.19447715104E+01  0.30476178201E+02 -0.12840127942E+02  0.33127759652E+02  0.00000000000E+00 0. -1.
</event>
<event>
 7    1  0.3611369E-013  0.7246183E+02  0.7816164E-02  0.1226707E+00
        -11   -1    0    0    0    0  0.00000000000E+00  0.00000000000E+00  0.45593999997E+02  0.45594000000E+02  0.51100000000E-03 0. -1.
         11   -1    0    0    0    0 -0.00000000000E+00 -0.00000000000E+00 -0.45593999997E+02  0.45594000000E+02  0.51100000000E-03 0.  1.
    9900012    2    1    2    0    0 -0.85934830078E+01  0.11919034845E+02  0.11608537583E+02  0.72461828831E+02  0.70000336791E+02 0.  0.
        -12    1    1    2    0    0  0.85934830078E+01 -0.11919034845E+02 -0.11608537583E+02  0.18726171169E+02  0.00000000000E+00 0.  1.
         11    1    3    3    0    0  0.64674276039E+01 -0.25983598976E+02  0.13586691173E+02  0.30026208765E+02  0.51100000000E-03 0. -1.
        -11    1    3    3    0    0 -0.28033593970E+01  0.22946085689E+01  0.26571295195E+01  0.44927040786E+01  0.51100000000E-03 0.  1.
        -12    1    3    3    0    0 -0.12257551215E+02  0.35608025252E+02 -0.46352831094E+01  0.37942915987E+02  0.00000000000E+00 0.  1.
</event>
<event>
 7    1  0.3611369E-013  0.7246209E+02  0.7816164E-02  0.1226707E+00
        -11   -1    0    0    0    0  0.00000000000E+00  0.00000000000E+00  0.45593999997E+02  0.45594000000E+02  0.51100000000E-03 0.  1.
         11   -1    0    0    0    0 -0.00000000000E+00 -0.00000000000E+00 -0.45593999997E+02  0.45594000000E+02  0.51100000000E-03 0. -1.
    9900012    2    1    2    0    0  0.65339276471E+01 -0.80238142196E+01 -0.15607236764E+02  0.72462091623E+02  0.70000679124E+02 0.  0.
        -12    1    1    2    0    0 -0.65339276471E+01  0.80238142196E+01  0.15607236764E+02  0.18725908377E+02  0.00000000000E+00 0.  1.
         11    1    3    3    0    0 -0.19110915437E+02  0.12814239579E+02  0.80202551618E+01  0.24367115503E+02  0.51100000000E-03 0.  1.
        -11    1    3    3    0    0  0.84893720877E+01 -0.18713488222E+02 -0.22935649731E+02  0.30794611683E+02  0.51100000000E-03 0. -1.
        -12    1    3    3    0    0  0.17155470996E+02 -0.21245655770E+01 -0.69184219497E+00  0.17300364436E+02  0.00000000000E+00 0.  1.
</event>
<event>
 7    1  0.3611369E-013  0.7246134E+02  0.7816164E-02  0.1226709E+00
        -11   -1    0    0    0    0  0.00000000000E+00  0.00000000000E+00  0.45593999997E+02  0.45594000000E+02  0.51100000000E-03 0. -1.
         11   -1    0    0    0    0 -0.00000000000E+00 -0.00000000000E+00 -0.45593999997E+02  0.45594000000E+02  0.51100000000E-03 0.  1.
    9900012    2    1    2    0    0  0.14180326721E+01  0.63051651881E+01  0.17576170410E+02  0.72461342770E+02  0.69999703607E+02 0.  0.
        -12    1    1    2    0    0 -0.14180326721E+01 -0.63051651881E+01 -0.17576170410E+02  0.18726657230E+02  0.00000000000E+00 0.  1.
         11    1    3    3    0    0  0.17677727205E-01  0.35703638306E+01  0.96310142503E+01  0.10271525989E+02  0.51100000000E-03 0. -1.
        -11    1    3    3    0    0  0.15505165062E+02  0.25911902298E+02  0.15614838633E+02  0.33994999781E+02  0.51100000000E-03 0.  1.
        -12    1    3    3    0    0 -0.14104810117E+02 -0.23177100940E+02 -0.76696824733E+01  0.28194817000E+02  0.00000000000E+00 0.  1.
</event>
<event>
 7    1  0.3611369E-013  0.7246157E+02  0.7816164E-02  0.1226708E+00
        -11   -1    0    0    0    0  0.00000000000E+00  0.00000000000E+00  0.45593999997E+02  0.45594000000E+02  0.51100000000E-03 0.  1.
         11   -1    0    0    0    0 -0.00000000000E+00 -0.00000000000E+00 -0.45593999997E+02  0.45594000000E+02  0.51100000000E-03 0. -1.
    9900012    2    1    2    0    0 -0.16264096218E+01  0.18556096839E+02 -0.19248935331E+01  0.72461570729E+02  0.70000000566E+02 0.  0.
        -12    1    1    2    0    0  0.16264096218E+01 -0.18556096839E+02  0.19248935331E+01  0.18726429271E+02  0.00000000000E+00 0.  1.
         11    1    3    3    0    0  0.47287243117E+01 -0.89527071312E+01  0.53515699339E+01  0.11452122057E+02  0.51100000000E-03 0. -1.
        -11    1    3    3    0    0 -0.76143474610E+01  0.61914559979E+01  0.22395901805E+02  0.24451765428E+02  0.51100000000E-03 0.  1.
         12    1    3    3    0    0  0.12592135275E+01  0.21317347972E+02 -0.29672365272E+02  0.36557683243E+02  0.00000000000E+00 0. -1.
</event>
<event>
 7    1  0.3611369E-013  0.7246155E+02  0.7816164E-02  0.1226708E+00
        -11   -1    0    0    0    0  0.00000000000E+00  0.00000000000E+00  0.45593999997E+02  0.45594000000E+02  0.51100000000E-03 0. -1.
         11   -1    0    0    0    0 -0.00000000000E+00 -0.00000000000E+00 -0.45593999997E+02  0.45594000000E+02  0.51100000000E-03 0.  1.
    9900012    2    1    2    0    0 -0.20610885517E+01 -0.62683055256E+01  0.17525416945E+02  0.72461548674E+02  0.69999971836E+02 0.  0.
        -12    1    1    2    0    0  0.20610885517E+01  0.62683055256E+01 -0.17525416945E+02  0.18726451326E+02  0.00000000000E+00 0.  1.
         11    1    3    3    0    0 -0.33337023608E+02  0.86786128003E+01  0.46718052424E+01  0.34763504249E+02  0.51100000000E-03 0.  1.
        -11    1    3    3    0    0  0.43902434614E+01 -0.52602029500E+01  0.21340932036E+01  0.71762334681E+01  0.51100000000E-03 0. -1.
        -12    1    3    3    0    0  0.26885691594E+02 -0.96867153759E+01  0.10719518499E+02  0.30521810957E+02  0.00000000000E+00 0.  1.
</event>
<event>
 7    1  0.3611369E-013  0.7246166E+02  0.7816164E-02  0.1226708E+00
        -11   -1    0    0    0    0  0.00000000000E+00  0.00000000000E+00  0.45593999997E+02  0.45594000000E+02  0.51100000000E-03 0.  1.
         11   -1    0    0    0    0 -0.00000000000E+00 -0.00000000000E+00 -0.45593999997E+02  0.45594000000E+02  0.51100000000E-03 0. -1.
    9900012    2    1    2    0    0 -0.12341692209E+02 -0.13961246541E+02  0.18552877055E+01  0.72461658552E+02  0.70000114972E+02 0.  0.
        -12    1    1    2    0    0  0.12341692209E+02  0.13961246541E+02 -0.18552877055E+01  0.18726341448E+02  0.00000000000E+00 0.  1.
         11    1    3    3    0    0 -0.14305331770E+02 -0.14327009722E+02  0.72302710546E+01  0.21498431208E+02  0.51100000000E-03 0. -1.
        -11    1    3    3    0    0 -0.36821881026E+00 -0.30789687197E+01  0.22533790899E+02  0.22746150575E+02  0.51100000000E-03 0.  1.
         12    1    3    3    0    0  0.23318583711E+01  0.34447319011E+01 -0.27908774248E+02  0.28217076768E+02  0.00000000000E+00 0. -1.
</event>
<event>
 7    1  0.3611369E-013  0.7246160E+02  0.7816164E-02  0.1226708E+00
        -11   -1    0    0    0    0  0.00000000000E+00  0.00000000000E+00  0.45593999997E+02  0.45594000000E+02  0.51100000000E-03 0. -1.
         11   -1    0    0    0    0 -0.00000000000E+00 -0.00000000000E+00 -0.45593999997E+02  0.45594000000E+02  0.51100000000E-03 0.  1.
    9900012    2    1    2    0    0  0.51103162263E+00  0.11479075722E+02  0.14786746362E+02  0.72461596162E+02  0.70000033697E+02 0.  0.
        -12    1    1    2    0    0 -0.51103162263E+00 -0.11479075722E+02 -0.14786746362E+02  0.18726403838E+02  0.00000000000E+00 0.  1.
         11    1    3    3    0    0 -0.89311104418E+01  0.19034474212E+02  0.15273325970E+02  0.25987505242E+02  0.51100000000E-03 0. -1.
        -11    1    3    3    0    0 -0.12169552505E+02  0.78039301766E+01 -0.10778853639E+02  0.18032831736E+02  0.51100000000E-03 0.  1.
        -12    1    3    3    0    0  0.21611694569E+02 -0.15359328667E+02  0.10292274031E+02  0.28441259184E+02  0.00000000000E+00 0.  1.
</event>
<event>
 7    1  0.3611369E-013  0.7246157E+02  0.7816164E-02  0.1226708E+00
        -11   -1    0    0    0    0  0.00000000000E+00  0.00000000000E+00  0.45593999997E+02  0.45594000000E+02  0.51100000000E-03 0.  1.
         11   -1    0    0    0    0 -0.00000000000E+00 -0.00000000000E+00 -0.45593999997E+02  0.45594000000E+02  0.51100000000E-03 0. -1.
    9900012    2    1    2    0    0  0.16571908713E+02 -0.70993374362E+01  0.50646107797E+01  0.72461573945E+02  0.70000004756E+02 0.  0.
        -12    1    1    2    0    0 -0.16571908713E+02  0.70993374362E+01 -0.50646107797E+01  0.18726426055E+02  0.00000000000E+00 0.  1.
         11    1    3    3    0    0 -0.84753501954E+01 -0.19602904954E+02  0.10236062255E+02  0.23682956199E+02  0.51100000000E-03 0. -1.
        -11    1    3    3    0    0  0.69794743161E+01 -0.16255881453E+01  0.16020831410E+02  0.17550573719E+02  0.51100000000E-03 0.  1.
         12    1    3    3    0    0  0.18067784593E+02  0.14129155664E+02 -0.21192282885E+02  0.31228044027E+02  0.00000000000E+00 0. -1.
</event>
<event>
 7    1  0.3611369E-013  0.7246156E+02  0.7816164E-02  0.1226708E+00
        -11   -1    0    0    0    0  0.00000000000E+00  0.00000000000E+00  0.45593999997E+02  0.45594000000E+02  0.51100000000E-03 0.  1.
         11   -1    0    0    0    0 -0.00000000000E+00 -0.00000000000E+00 -0.45593999997E+02  0.45594000000E+02  0.51100000000E-03 0. -1.
    9900012    2    1    2    0    0  0.32083706833E+01  0.71569572235E+01 -0.17004822259E+02  0.72461557220E+02  0.69999982968E+02 0.  0.
        -12    1    1    2    0    0 -0.32083706833E+01 -0.71569572235E+01  0.17004822259E+02  0.18726442780E+02  0.00000000000E+00 0.  1.
         11    1    3    3    0    0  0.12614819915E+02 -0.50592465166E+00  0.20792488700E+02  0.24325238495E+02  0.51100000000E-03 0. -1.
        -11    1    3    3    0    0  0.29180511524E+01  0.12508595291E+02 -0.70354964307E+01  0.14645073880E+02  0.51100000000E-03 0.  1.
         12    1    3    3    0    0 -0.12324500384E+02 -0.48457134155E+01 -0.30761814528E+02  0.33491244845E+02  0.00000000000E+00 0. -1.
</event>
<event>
 7    1  0.3611369E-013  0.7246168E+02  0.7816164E-02  0.1226708E+00
        -11   -1    0    0    0    0  0.00000000000E+00  0.00000000000E+00  0.45593999997E+02  0.45594000000E+02  0.51100000000E-03 0.  1.
         11   -1    0    0    0    0 -0.00000000000E+00 -0.00000000000E+00 -0.45593999997E+02  0.45594000000E+02  0.51100000000E-03 0. -1.
    9900012    2    1    2    0    0 -0.75419307509E+01  0.12778884073E+02 -0.11423416253E+02  0.72461680647E+02  0.70000143755E+02 0.  0.
        -12    1    1    2    0    0  0.75419307509E+01 -0.12778884073E+02  0.11423416253E+02  0.18726319353E+02  0.00000000000E+00 0.  1.
         11    1    3    3    0    0 -0.22540057023E+01 -0.34679159956E+01 -0.11727825411E+02  0.12435789970E+02  0.51100000000E-03 0. -1.
        -11    1    3    3    0    0 -0.28640393709E+02 -0.38182453433E+01 -0.30531882197E+01  0.29054657249E+02  0.51100000000E-03 0.  1.
         12    1    3    3    0    0  0.23352468660E+02  0.20065045412E+02  0.33575973778E+01  0.30971233428E+02  0.00000000000E+00 0. -1.
</event>
<event>
 7    1  0.3611369E-013  0.7246159E+02  0.7816164E-02  0.1226708E+00
        -11   -1    0    0    0    0  0.00000000000E+00  0.00000000000E+00  0.45593999997E+02  0.45594000000E+02  0.51100000000E-03 0. -1.
         11   -1    0    0    0    0 -0.00000000000E+00 -0.00000000000E+00 -0.45593999997E+02  0.45594000000E+02  0.51100000000E-03 0.  1.
    9900012    2    1    2    0    0 -0.51138036744E+01 -0.10421563055E+02  0.14694167458E+02  0.72461587588E+02  0.70000022528E+02 0.  0.
        -12    1    1    2    0    0  0.51138036744E+01  0.10421563055E+02 -0.14694167458E+02  0.18726412412E+02  0.00000000000E+00 0.  1.
         11    1    3    3    0    0 -0.15924452046E+02 -0.13023903909E+02  0.26546424768E+02  0.33584563630E+02  0.51100000000E-03 0. -1.
        -11    1    3    3    0    0 -0.11817006133E+02  0.72561467594E+01 -0.55041229701E+01  0.14919405808E+02  0.51100000000E-03 0.  1.
        -12    1    3    3    0    0  0.22627654505E+02 -0.46538059051E+01 -0.63481343400E+01  0.23957618149E+02  0.00000000000E+00 0.  1.
</event>
<event>
 7    1  0.3611369E-013  0.7246155E+02  0.7816164E-02  0.1226708E+00
        -11   -1    0    0    0    0  0.00000000000E+00  0.00000000000E+00  0.45593999997E+02  0.45594000000E+02  0.51100000000E-03 0.  1.
         11   -1    0    0    0    0 -0.00000000000E+00 -0.00000000000E+00 -0.45593999997E+02  0.45594000000E+02  0.51100000000E-03 0. -1.
    9900012    2    1    2    0    0 -0.16117993425E+02 -0.83132287497E+01  0.46669705848E+01  0.72461545484E+02  0.69999967680E+02 0.  0.
        -12    1    1    2    0    0  0.16117993425E+02  0.83132287497E+01 -0.46669705848E+01  0.18726454516E+02  0.00000000000E+00 0.  1.
         11    1    3    3    0    0 -0.14688061892E+02  0.80191832817E+01 -0.11183817896E+02  0.20127698468E+02  0.51100000000E-03 0. -1.
        -11    1    3    3    0    0 -0.30837029753E+01  0.59351650904E+01 -0.13729544853E+02  0.15272059809E+02  0.51100000000E-03 0.  1.
        -12    1    3    3    0    0  0.16537714425E+01 -0.22267577122E+02  0.29580333333E+02  0.37061787207E+02  0.00000000000E+00 0.  1.
</event>
<event>
 7    1  0.3611369E-013  0.7246156E+02  0.7816164E-02  0.1226708E+00
        -11   -1    0    0    0    0  0.00000000000E+00  0.00000000000E+00  0.45593999997E+02  0.45594000000E+02  0.51100000000E-03 0. -1.
         11   -1    0    0    0    0 -0.00000000000E+00 -0.00000000000E+00 -0.45593999997E+02  0.45594000000E+02  0.51100000000E-03 0.  1.
    9900012    2    1    2    0    0  0.73624885617E+01  0.11383285511E+02  0.12918754723E+02  0.72461557454E+02  0.69999983273E+02 0.  0.
        -12    1    1    2    0    0 -0.73624885617E+01 -0.11383285511E+02 -0.12918754723E+02  0.18726442546E+02  0.00000000000E+00 0.  1.
         11    1    3    3    0    0 -0.18742054925E+02 -0.24947307054E+01  0.11799342354E+02  0.22287054188E+02  0.51100000000E-03 0. -1.
        -11    1    3    3    0    0 -0.91239721390E+00 -0.55522564402E+01 -0.12892261869E+02  0.14066642692E+02  0.51100000000E-03 0.  1.
         12    1    3    3    0    0  0.27016940701E+02  0.19430272656E+02  0.14011674238E+02  0.36107860575E+02  0.00000000000E+00 0. -1.
</event>
<event>
 7    1  0.3611369E-013  0.7246159E+02  0.7816164E-02  0.1226708E+00
        -11   -1    0    0    0    0  0.00000000000E+00  0.00000000000E+00  0.45593999997E+02  0.45594000000E+02  0.51100000000E-03 0. -1.
         11   -1    0    0    0    0 -0.00000000000E+00 -0.00000000000E+00 -0.45593999997E+02  0.45594000000E+02  0.51100000000E-03 0.  1.
    9900012    2    1    2    0    0 -0.11116850835E+02 -0.12704727147E+01 -0.15015985298E+02  0.72461593835E+02  0.70000030666E+02 0.  0.
        -12    1    1    2    0    0  0.11116850835E+02  0.12704727147E+01  0.15015985298E+02  0.18726406165E+02  0.00000000000E+00 0.  1.
         11    1    3    3    0    0 -0.28601831309E+01  0.57844186025E+01 -0.11677992085E+02  0.13342250392E+02  0.51100000000E-03 0. -1.
        -11    1    3    3    0    0  0.75624878596E+01 -0.95004045977E+01 -0.27542605639E+02  0.30100565373E+02  0.51100000000E-03 0.  1.
         12    1    3    3    0    0 -0.15819155563E+02  0.24455132805E+01  0.24204612426E+02  0.29018778070E+02  0.00000000000E+00 0. -1.
</event>
<event>
 7    1  0.3611369E-013  0.7246146E+02  0.7816164E-02  0.1226708E+00
        -11   -1    0    0    0    0  0.00000000000E+00  0.00000000000E+00  0.45593999997E+02  0.45594000000E+02  0.51100000000E-03 0.  1.
         11   -1    0    0    0    0 -0.00000000000E+00 -0.00000000000E+00 -0.45593999997E+02  0.45594000000E+02  0.51100000000E-03 0. -1.
    9900012    2    1    2    0    0  0.53209913584E+01 -0.14487199908E+01 -0.17896129787E+02  0.72461462680E+02  0.69999859812E+02 0.  0.
        -12    1    1    2    0    0 -0.53209913584E+01  0.14487199908E+01  0.17896129787E+02  0.18726537320E+02  0.00000000000E+00 0.  1.
         11    1    3    3    0    0 -0.10667249624E+02 -0.88092761175E+01  0.10962687625E+02  0.17651461143E+02  0.51100000000E-03 0. -1.
        -11    1    3    3    0    0 -0.57154693881E+01 -0.14223539503E+02 -0.54254597941E+01  0.16260728168E+02  0.51100000000E-03 0.  1.
         12    1    3    3    0    0  0.21703710371E+02  0.21584095630E+02 -0.23433357618E+02  0.38549273369E+02  0.00000000000E+00 0. -1.
</event>
<event>
 7    1  0.3611369E-013  0.7246205E+02  0.7816164E-02  0.1226707E+00
        -11   -1    0    0    0    0  0.00000000000E+00  0.00000000000E+00  0.45593999997E+02  0.45594000000E+02  0.51100000000E-03 0.  1.
         11   -1    0    0    0    0 -0.00000000000E+00 -0.00000000000E+00 -0.45593999997E+02  0.45594000000E+02  0.51100000000E-03 0. -1.
    9900012    2    1    2    0    0 -0.54332778738E+01  0.10718353170E+01 -0.17888320992E+02  0.72462045623E+02  0.70000619201E+02 0.  0.
        -12    1    1    2    0    0  0.54332778738E+01 -0.10718353170E+01  0.17888320992E+02  0.18725954377E+02  0.00000000000E+00 0.  1.
         11    1    3    3    0    0  0.12767585292E+02  0.24877061981E+02 -0.29410272974E+01  0.28116349138E+02  0.51100000000E-03 0. -1.
        -11    1    3    3    0    0 -0.19148927422E+01  0.24738828732E+00  0.74309091017E+01  0.76776575540E+01  0.51100000000E-03 0.  1.
        -12    1    3    3    0    0 -0.16285970423E+02 -0.24052614952E+02 -0.22378202797E+02  0.36668038931E+02  0.00000000000E+00 0.  1.
</event>
<event>
 7    1  0.6972229E-013  0.7246156E+02  0.7816164E-02  0.1226708E+00
        -11   -1    0    0    0    0  0.00000000000E+00  0.00000000000E+00  0.45593999997E+02  0.45594000000E+02  0.51100000000E-03 0. -1.
         11   -1    0    0    0    0 -0.00000000000E+00 -0.00000000000E+00 -0.45593999997E+02  0.45594000000E+02  0.51100000000E-03 0.  1.
    9900012    2    1    2    0    0  0.79055077452E+01 -0.12307782123E+02  0.11691917533E+02  0.72461561762E+02  0.69999988885E+02 0.  0.
        -12    1    1    2    0    0 -0.79055077452E+01  0.12307782123E+02 -0.11691917533E+02  0.18726438238E+02  0.00000000000E+00 0.  1.
         11    1    3    3    0    0  0.22417959686E+02 -0.48960957619E+00  0.11506170893E+02  0.25203107008E+02  0.51100000000E-03 0. -1.
        -11    1    3    3    0    0  0.15046482668E+02  0.16187636800E-01 -0.27043985733E+01  0.15287598720E+02  0.51100000000E-03 0.  1.
        -12    1    3    3    0    0 -0.29558934609E+02 -0.11834360183E+02  0.28901452127E+01  0.31970856033E+02  0.00000000000E+00 0.  1.
</event>
<event>
 7    1  0.3611369E-013  0.7246160E+02  0.7816164E-02  0.1226708E+00
        -11   -1    0    0    0    0  0.00000000000E+00  0.00000000000E+00  0.45593999997E+02  0.45594000000E+02  0.51100000000E-03 0. -1.
         11   -1    0    0    0    0 -0.00000000000E+00 -0.00000000000E+00 -0.45593999997E+02  0.45594000000E+02  0.51100000000E-03 0.  1.
    9900012    2    1    2    0    0  0.12244846931E+02 -0.10430875024E+02  0.95884611589E+01  0.72461601053E+02  0.70000040069E+02 0.  0.
        -12    1    1    2    0    0 -0.12244846931E+02  0.10430875024E+02 -0.95884611589E+01  0.18726398947E+02  0.00000000000E+00 0.  1.
         11    1    3    3    0    0  0.13137672210E+02 -0.35525331348E+02  0.14498813140E+02  0.40556912866E+02  0.51100000000E-03 0. -1.
        -11    1    3    3    0    0 -0.61241087872E-01 -0.16966792831E+01 -0.48095971014E+01  0.51004603321E+01  0.51100000000E-03 0.  1.
        -12    1    3    3    0    0 -0.83158419188E+00  0.26791135607E+02 -0.10075487927E+00  0.26804227855E+02  0.00000000000E+00 0.  1.
</event>
<event>
 7    1  0.3611369E-013  0.7246157E+02  0.7816164E-02  0.1226708E+00
        -11   -1    0    0    0    0  0.00000000000E+00  0.00000000000E+00  0.45593999997E+02  0.45594000000E+02  0.51100000000E-03 0.  1.
         11   -1    0    0    0    0 -0.00000000000E+00 -0.00000000000E+00 -0.45593999997E+02  0.45594000000E+02  0.51100000000E-03 0. -1.
    9900012    2    1    2    0    0  0.75359777015E+01 -0.34424228865E+01 -0.16793983663E+02  0.72461571550E+02  0.70000001635E+02 0.  0.
        -12    1    1    2    0    0 -0.75359777015E+01  0.34424228865E+01  0.16793983663E+02  0.18726428450E+02  0.00000000000E+00 0.  1.
         11    1    3    3    0    0 -0.21590879946E+02 -0.13640602796E+02 -0.14212104838E+02  0.29226974966E+02  0.51100000000E-03 0. -1.
        -11    1    3    3    0    0  0.10077205223E+02 -0.10779800777E+02 -0.20050375736E+01  0.14892090043E+02  0.51100000000E-03 0.  1.
         12    1    3    3    0    0  0.19049652424E+02  0.20977980687E+02 -0.57684125089E+00  0.28342506541E+02  0.00000000000E+00 0. -1.
</event>
<event>
 7    1  0.3611369E-013  0.7246159E+02  0.7816164E-02  0.1226708E+00
        -11   -1    0    0    0    0  0.00000000000E+00  0.00000000000E+00  0.45593999997E+02  0.45594000000E+02  0.51100000000E-03 0.  1.
         11   -1    0    0    0    0 -0.00000000000E+00 -0.00000000000E+00 -0.45593999997E+02  0.45594000000E+02  0.51100000000E-03 0. -1.
    9900012    2    1    2    0    0 -0.23874921610E+01  0.57664102945E+01 -0.17655787825E+02  0.72461589500E+02  0.70000025018E+02 0.  0.
        -12    1    1    2    0    0  0.23874921610E+01 -0.57664102945E+01  0.17655787825E+02  0.18726410500E+02  0.00000000000E+00 0.  1.
         11    1    3    3    0    0  0.21804282323E+02  0.11329950409E+02 -0.15901223064E+02  0.29268471075E+02  0.51100000000E-03 0. -1.
        -11    1    3    3    0    0 -0.16838597992E+02  0.13059496926E+02 -0.71150353965E+01  0.22465808938E+02  0.51100000000E-03 0.  1.
        -12    1    3    3    0    0 -0.73531764922E+01 -0.18623037040E+02  0.53604706351E+01  0.20727309487E+02  0.00000000000E+00 0.  1.
</event>
<event>
 7    1  0.3611369E-013  0.7246157E+02  0.7816164E-02  0.1226708E+00
        -11   -1    0    0    0    0  0.00000000000E+00  0.00000000000E+00  0.45593999997E+02  0.45594000000E+02  0.51100000000E-03 0. -1.
         11   -1    0    0    0    0 -0.00000000000E+00 -0.00000000000E+00 -0.45593999997E+02  0.45594000000E+02  0.51100000000E-03 0.  1.
    9900012    2    1    2    0    0  0.16305350781E+02  0.84336201321E+01  0.36998323137E+01  0.72461570234E+02  0.69999999921E+02 0.  0.
        -12    1    1    2    0    0 -0.16305350781E+02 -0.84336201321E+01 -0.36998323137E+01  0.18726429766E+02  0.00000000000E+00 0.  1.
         11    1    3    3    0    0 -0.72299527122E+01  0.24432310981E+02 -0.19953212202E+02  0.32362643797E+02  0.51100000000E-03 0. -1.
        -11    1    3    3    0    0  0.32055071368E+01  0.44905537539E+00  0.10179728113E+02  0.10681937626E+02  0.51100000000E-03 0.  1.
        -12    1    3    3    0    0  0.20329796357E+02 -0.16447746225E+02  0.13473316403E+02  0.29416988810E+02  0.00000000000E+00 0.  1.
</event>
<event>
 7    1  0.3611369E-013  0.7246157E+02  0.7816164E-02  0.1226708E+00
        -11   -1    0    0    0    0  0.00000000000E+00  0.00000000000E+00  0.45593999997E+02  0.45594000000E+02  0.51100000000E-03 0. -1.
         11   -1    0    0    0    0 -0.00000000000E+00 -0.00000000000E+00 -0.45593999997E+02  0.45594000000E+02  0.51100000000E-03 0.  1.
    9900012    2    1    2    0    0  0.15097864845E+02  0.10629467715E+02  0.31221954576E+01  0.72461569180E+02  0.69999998548E+02 0.  0.
        -12    1    1    2    0    0 -0.15097864845E+02 -0.10629467715E+02 -0.31221954576E+01  0.18726430820E+02  0.00000000000E+00 0.  1.
         11    1    3    3    0    0  0.12532379361E+02  0.13766314869E+02  0.23486242636E+02  0.29969577090E+02  0.51100000000E-03 0. -1.
        -11    1    3    3    0    0  0.28804822462E+01  0.16665151955E+02 -0.13118376574E+02  0.21403650900E+02  0.51100000000E-03 0.  1.
         12    1    3    3    0    0 -0.31499676156E+00 -0.19801999108E+02 -0.72456706050E+01  0.21088341190E+02  0.00000000000E+00 0. -1.
</event>
<event>
 7    1  0.3611369E-013  0.7246155E+02  0.7816164E-02  0.1226708E+00
        -11   -1    0    0    0    0  0.00000000000E+00  0.00000000000E+00  0.45593999997E+02  0.45594000000E+02  0.51100000000E-03 0. -1.
         11   -1    0    0    0    0 -0.00000000000E+00 -0.00000000000E+00 -0.45593999997E+02  0.45594000000E+02  0.51100000000E-03 0.  1.
    9900012    2    1    2    0    0 -0.74901613921E+01  0.32259485483E+01  0.16857362909E+02  0.72461549563E+02  0.69999972994E+02 0.  0.
        -12    1    1    2    0    0  0.74901613921E+01 -0.32259485483E+01 -0.16857362909E+02  0.18726450437E+02  0.00000000000E+00 0.  1.
         11    1    3    3    0    0 -0.18158486487E+02 -0.11587876059E+02  0.20599770304E+02  0.29805369313E+02  0.51100000000E-03 0. -1.
        -11    1    3    3    0    0  0.33058097892E+01 -0.13085561719E+02  0.41877632131E+00  0.13503172877E+02  0.51100000000E-03 0.  1.
        -12    1    3    3    0    0  0.73625153055E+01  0.27899386326E+02 -0.41611837164E+01  0.29153007373E+02  0.00000000000E+00 0.  1.
</event>
<event>
 7    1  0.3611369E-013  0.7246110E+02  0.7816164E-02  0.1226709E+00
        -11   -1    0    0    0    0  0.00000000000E+00  0.00000000000E+00  0.45593999997E+02  0.45594000000E+02  0.51100000000E-03 0.  1.
         11   -1    0    0    0    0 -0.00000000000E+00 -0.00000000000E+00 -0.45593999997E+02  0.45594000000E+02  0.51100000000E-03 0. -1.
    9900012    2    1    2    0    0  0.15999152746E+02  0.96829688879E+01 -0.98189394676E+00  0.72461097139E+02  0.69999383624E+02 0.  0.
        -12    1    1    2    0    0 -0.15999152746E+02 -0.96829688879E+01  0.98189394676E+00  0.18726902861E+02  0.00000000000E+00 0.  1.
         11    1    3    3    0    0  0.11336394730E+02 -0.18184404550E+01  0.11762011457E+02  0.16436711500E+02  0.51100000000E-03 0. -1.
        -11    1    3    3    0    0  0.93363700687E+01  0.73654880287E+00  0.19542802462E+02  0.21670981485E+02  0.51100000000E-03 0.  1.
         12    1    3    3    0    0 -0.46736120530E+01  0.10764860540E+02 -0.32286707866E+02  0.34353404153E+02  0.00000000000E+00 0. -1.
</event>
<event>
 7    1  0.3611369E-013  0.7246142E+02  0.7816164E-02  0.1226708E+00
        -11   -1    0    0    0    0  0.00000000000E+00  0.00000000000E+00  0.45593999997E+02  0.45594000000E+02  0.51100000000E-03 0.  1.
         11   -1    0    0    0    0 -0.00000000000E+00 -0.00000000000E+00 -0.45593999997E+02  0.45594000000E+02  0.51100000000E-03 0. -1.
    9900012    2    1    2    0    0 -0.16345127057E+02  0.70125295450E+01 -0.58605537835E+01  0.72461418898E+02  0.69999802777E+02 0.  0.
        -12    1    1    2    0    0  0.16345127057E+02 -0.70125295450E+01  0.58605537835E+01  0.18726581102E+02  0.00000000000E+00 0.  1.
         11    1    3    3    0    0 -0.20644487284E+02 -0.38105032956E+01 -0.13961227094E+02  0.25211716578E+02  0.51100000000E-03 0. -1.
        -11    1    3    3    0    0  0.98557192979E+01  0.34139091491E+01 -0.17306901965E+02  0.20206900664E+02  0.51100000000E-03 0.  1.
        -12    1    3    3    0    0 -0.55563590716E+01  0.74091236914E+01  0.25407575276E+02  0.27042801656E+02  0.00000000000E+00 0.  1.
</event>
<event>
 7    1  0.3611369E-013  0.7246167E+02  0.7816164E-02  0.1226708E+00
        -11   -1    0    0    0    0  0.00000000000E+00  0.00000000000E+00  0.45593999997E+02  0.45594000000E+02  0.51100000000E-03 0. -1.
         11   -1    0    0    0    0 -0.00000000000E+00 -0.00000000000E+00 -0.45593999997E+02  0.45594000000E+02  0.51100000000E-03 0.  1.
    9900012    2    1    2    0    0  0.69187700642E+00 -0.18434505707E+02 -0.32195801374E+01  0.72461671189E+02  0.70000131434E+02 0.  0.
        -12    1    1    2    0    0 -0.69187700642E+00  0.18434505707E+02  0.32195801374E+01  0.18726328811E+02  0.00000000000E+00 0.  1.
         11    1    3    3    0    0  0.17554805392E+01 -0.12914905916E+02  0.56585102819E+01  0.14208984679E+02  0.51100000000E-03 0. -1.
        -11    1    3    3    0    0 -0.93223679035E+01  0.44593710812E+01 -0.30967066403E+02  0.32645853269E+02  0.51100000000E-03 0.  1.
         12    1    3    3    0    0  0.82587643708E+01 -0.99789708724E+01  0.22088975984E+02  0.25606833241E+02  0.00000000000E+00 0. -1.
</event>
<event>
 7    1  0.3611369E-013  0.7246185E+02  0.7816164E-02  0.1226707E+00
        -11   -1    0    0    0    0  0.00000000000E+00  0.00000000000E+00  0.45593999997E+02  0.45594000000E+02  0.51100000000E-03 0.  1.
         11   -1    0    0    0    0 -0.00000000000E+00 -0.00000000000E+00 -0.45593999997E+02  0.45594000000E+02  0.51100000000E-03 0. -1.
    9900012    2    1    2    0    0  0.24769832418E+01 -0.17052017749E+01 -0.18483110449E+02  0.72461854349E+02  0.70000370033E+02 0.  0.
        -12    1    1    2    0    0 -0.24769832418E+01  0.17052017749E+01  0.18483110449E+02  0.18726145651E+02  0.00000000000E+00 0.  1.
         11    1    3    3    0    0  0.14642458453E+02 -0.21436718322E+02 -0.75878959846E+01  0.27046453514E+02  0.51100000000E-03 0. -1.
        -11    1    3    3    0    0 -0.18587125316E+01 -0.91669855377E+01 -0.11379266163E+02  0.14730109802E+02  0.51100000000E-03 0.  1.
        -12    1    3    3    0    0 -0.10306762680E+02  0.28898502085E+02  0.48405169878E+00  0.30685291032E+02  0.00000000000E+00 0.  1.
</event>
<event>
 7    1  0.3611369E-013  0.7246158E+02  0.7816164E-02  0.1226708E+00
        -11   -1    0    0    0    0  0.00000000000E+00  0.00000000000E+00  0.45593999997E+02  0.45594000000E+02  0.51100000000E-03 0. -1.
         11   -1    0    0    0    0 -0.00000000000E+00 -0.00000000000E+00 -0.45593999997E+02  0.45594000000E+02  0.51100000000E-03 0.  1.
    9900012    2    1    2    0    0  0.13712030403E+02 -0.12707797547E+02 -0.10820295158E+01  0.72461583254E+02  0.70000016882E+02 0.  0.
        -12    1    1    2    0    0 -0.13712030403E+02  0.12707797547E+02  0.10820295158E+01  0.18726416746E+02  0.00000000000E+00 0.  1.
         11    1    3    3    0    0  0.19740592899E+02 -0.18018837740E+01  0.49568923650E+01  0.20433026582E+02  0.51100000000E-03 0. -1.
        -11    1    3    3    0    0  0.46637165013E+01  0.18454716316E+02 -0.81589290651E+01  0.20709778600E+02  0.51100000000E-03 0.  1.
        -12    1    3    3    0    0 -0.10692278997E+02 -0.29360630090E+02  0.21200071843E+01  0.31318778071E+02  0.00000000000E+00 0.  1.
</event>
<event>
 7    1  0.3611369E-013  0.7246160E+02  0.7816164E-02  0.1226708E+00
        -11   -1    0    0    0    0  0.00000000000E+00  0.00000000000E+00  0.45593999997E+02  0.45594000000E+02  0.51100000000E-03 0.  1.
         11   -1    0    0    0    0 -0.00000000000E+00 -0.00000000000E+00 -0.45593999997E+02  0.45594000000E+02  0.51100000000E-03 0. -1.
    9900012    2    1    2    0    0  0.16027009874E+02 -0.44949261349E+01 -0.85795582791E+01  0.72461595467E+02  0.70000032792E+02 0.  0.
        -12    1    1    2    0    0 -0.16027009874E+02  0.44949261349E+01  0.85795582791E+01  0.18726404533E+02  0.00000000000E+00 0.  1.
         11    1    3    3    0    0  0.24317395390E+02 -0.79998722503E+00 -0.42289196417E+01  0.24695332752E+02  0.51100000000E-03 0. -1.
        -11    1    3    3    0    0 -0.46167067219E+01 -0.24021935650E+02  0.52012062226E+01  0.25008396985E+02  0.51100000000E-03 0.  1.
         12    1    3    3    0    0 -0.36736787938E+01  0.20326996740E+02 -0.95518448600E+01  0.22757865730E+02  0.00000000000E+00 0. -1.
</event>
<event>
 7    1  0.3611369E-013  0.7246157E+02  0.7816164E-02  0.1226708E+00
        -11   -1    0    0    0    0  0.00000000000E+00  0.00000000000E+00  0.45593999997E+02  0.45594000000E+02  0.51100000000E-03 0.  1.
         11   -1    0    0    0    0 -0.00000000000E+00 -0.00000000000E+00 -0.45593999997E+02  0.45594000000E+02  0.51100000000E-03 0. -1.
    9900012    2    1    2    0    0 -0.77720245611E+01  0.16896311500E+02  0.21884495430E+01  0.72461574300E+02  0.70000005218E+02 0.  0.
        -12    1    1    2    0    0  0.77720245611E+01 -0.16896311500E+02 -0.21884495430E+01  0.18726425700E+02  0.00000000000E+00 0.  1.
         11    1    3    3    0    0  0.71695303841E+01  0.10303024077E+02  0.37258705523E+01  0.13093379346E+02  0.51100000000E-03 0. -1.
        -11    1    3    3    0    0 -0.14632323139E+01  0.28678302826E+02  0.10831638656E+02  0.30690560406E+02  0.51100000000E-03 0.  1.
         12    1    3    3    0    0 -0.13478322631E+02 -0.22085015403E+02 -0.12369059665E+02  0.28677634548E+02  0.00000000000E+00 0. -1.
</event>
<event>
 7    1  0.3611369E-013  0.7246161E+02  0.7816164E-02  0.1226708E+00
        -11   -1    0    0    0    0  0.00000000000E+00  0.00000000000E+00  0.45593999997E+02  0.45594000000E+02  0.51100000000E-03 0.  1.
         11   -1    0    0    0    0 -0.00000000000E+00 -0.00000000000E+00 -0.45593999997E+02  0.45594000000E+02  0.51100000000E-03 0. -1.
    9900012    2    1    2    0    0  0.79777690010E+01 -0.87767252296E+01 -0.14491448489E+02  0.72461607307E+02  0.70000048216E+02 0.  0.
        -12    1    1    2    0    0 -0.79777690010E+01  0.87767252296E+01  0.14491448489E+02  0.18726392693E+02  0.00000000000E+00 0.  1.
         11    1    3    3    0    0 -0.16262103313E+02 -0.24085228150E+02 -0.42203893808E+01  0.29366067255E+02  0.51100000000E-03 0. -1.
        -11    1    3    3    0    0 -0.37767033555E+01 -0.41137291390E+01 -0.68441527787E+01  0.88333845826E+01  0.51100000000E-03 0.  1.
        -12    1    3    3    0    0  0.28016575670E+02  0.19422232060E+02 -0.34269063294E+01  0.34262155470E+02  0.00000000000E+00 0.  1.
</event>
<event>
 7    1  0.3611369E-013  0.7246160E+02  0.7816164E-02  0.1226708E+00
        -11   -1    0    0    0    0  0.00000000000E+00  0.00000000000E+00  0.45593999997E+02  0.45594000000E+02  0.51100000000E-03 0. -1.
         11   -1    0    0    0    0 -0.00000000000E+00 -0.00000000000E+00 -0.45593999997E+02  0.45594000000E+02  0.51100000000E-03 0.  1.
    9900012    2    1    2    0    0  0.15229001884E+02 -0.31073575080E+01  0.10445086122E+02  0.72461601703E+02  0.70000040916E+02 0.  0.
        -12    1    1    2    0    0 -0.15229001884E+02  0.31073575080E+01 -0.10445086122E+02  0.18726398297E+02  0.00000000000E+00 0.  1.
         11    1    3    3    0    0  0.14401168288E+02  0.11648446236E+02 -0.84497184087E+01  0.20358725137E+02  0.51100000000E-03 0.  1.
        -11    1    3    3    0    0 -0.82855693772E+01 -0.26330660384E+02  0.23932047146E+02  0.36533508140E+02  0.51100000000E-03 0. -1.
         12    1    3    3    0    0  0.91134029734E+01  0.11574856641E+02 -0.50372426153E+01  0.15569368426E+02  0.00000000000E+00 0. -1.
</event>
<event>
 7    1  0.3611369E-013  0.7246157E+02  0.7816164E-02  0.1226708E+00
        -11   -1    0    0    0    0  0.00000000000E+00  0.00000000000E+00  0.45593999997E+02  0.45594000000E+02  0.51100000000E-03 0.  1.
         11   -1    0    0    0    0 -0.00000000000E+00 -0.00000000000E+00 -0.45593999997E+02  0.45594000000E+02  0.51100000000E-03 0. -1.
    9900012    2    1    2    0    0 -0.17854092520E+02  0.12041383781E+01  0.55191088636E+01  0.72461571307E+02  0.70000001319E+02 0.  0.
        -12    1    1    2    0    0  0.17854092520E+02 -0.12041383781E+01 -0.55191088636E+01  0.18726428693E+02  0.00000000000E+00 0.  1.
         11    1    3    3    0    0 -0.21415424338E+02  0.15298131806E+02  0.51575664329E+01  0.26818906169E+02  0.51100000000E-03 0. -1.
        -11    1    3    3    0    0 -0.13588622812E+02 -0.22013146624E+02 -0.42037224308E+01  0.26208788159E+02  0.51100000000E-03 0.  1.
         12    1    3    3    0    0  0.17149954630E+02  0.79191531964E+01  0.45652648615E+01  0.19433876979E+02  0.00000000000E+00 0. -1.
</event>
<event>
 7    1  0.3611369E-013  0.7246171E+02  0.7816164E-02  0.1226708E+00
        -11   -1    0    0    0    0  0.00000000000E+00  0.00000000000E+00  0.45593999997E+02  0.45594000000E+02  0.51100000000E-03 0.  1.
         11   -1    0    0    0    0 -0.00000000000E+00 -0.00000000000E+00 -0.45593999997E+02  0.45594000000E+02  0.51100000000E-03 0. -1.
    9900012    2    1    2    0    0  0.43038279536E+01  0.44106566316E+01 -0.17683240310E+02  0.72461713266E+02  0.70000186247E+02 0.  0.
        -12    1    1    2    0    0 -0.43038279536E+01 -0.44106566316E+01  0.17683240310E+02  0.18726286734E+02  0.00000000000E+00 0.  1.
         11    1    3    3    0    0 -0.84218006577E+00  0.74952514655E+01  0.45082714226E+00  0.75558789805E+01  0.51100000000E-03 0. -1.
        -11    1    3    3    0    0 -0.22429420485E+02 -0.14046988573E+01  0.10771446480E+02  0.24921399272E+02  0.51100000000E-03 0.  1.
         12    1    3    3    0    0  0.27575428504E+02 -0.16798959766E+01 -0.28905513932E+02  0.39984435013E+02  0.00000000000E+00 0. -1.
</event>
<event>
 7    1  0.3611369E-013  0.7246159E+02  0.7816164E-02  0.1226708E+00
        -11   -1    0    0    0    0  0.00000000000E+00  0.00000000000E+00  0.45593999997E+02  0.45594000000E+02  0.51100000000E-03 0.  1.
         11   -1    0    0    0    0 -0.00000000000E+00 -0.00000000000E+00 -0.45593999997E+02  0.45594000000E+02  0.51100000000E-03 0. -1.
    9900012    2    1    2    0    0  0.38012505723E+01 -0.65696269461E+01 -0.17119258693E+02  0.72461587574E+02  0.70000022511E+02 0.  0.
        -12    1    1    2    0    0 -0.38012505723E+01  0.65696269461E+01  0.17119258693E+02  0.18726412426E+02  0.00000000000E+00 0.  1.
         11    1    3    3    0    0 -0.40761085811E+01  0.59923092244E+01  0.30371739117E+01  0.78579168128E+01  0.51100000000E-03 0. -1.
        -11    1    3    3    0    0 -0.57485070095E+01  0.14694951879E+02 -0.28877423535E+02  0.32907332524E+02  0.51100000000E-03 0.  1.
         12    1    3    3    0    0  0.13625866163E+02 -0.27256888050E+02  0.87209909305E+01  0.31696338237E+02  0.00000000000E+00 0. -1.
</event>
<event>
 7    1  0.3611369E-013  0.7246158E+02  0.7816164E-02  0.1226708E+00
        -11   -1    0    0    0    0  0.00000000000E+00  0.00000000000E+00  0.45593999997E+02  0.45594000000E+02  0.51100000000E-03 0. -1.
         11   -1    0    0    0    0 -0.00000000000E+00 -0.00000000000E+00 -0.45593999997E+02  0.45594000000E+02  0.51100000000E-03 0.  1.
    9900012    2    1    2    0    0  0.13264633186E+02 -0.10818759935E+02  0.75949262728E+01  0.72461575750E+02  0.70000007107E+02 0.  0.
        -12    1    1    2    0    0 -0.13264633186E+02  0.10818759935E+02 -0.75949262728E+01  0.18726424250E+02  0.00000000000E+00 0.  1.
         11    1    3    3    0    0  0.69907502501E+01  0.87707836010E+01 -0.79160629772E+01  0.13728120314E+02  0.51100000000E-03 0.  1.
        -11    1    3    3    0    0  0.12817055551E+01 -0.29467359356E+02 -0.98225745095E+01  0.31087795142E+02  0.51100000000E-03 0. -1.
         12    1    3    3    0    0  0.49921773808E+01  0.98778158193E+01  0.25333563759E+02  0.27645660294E+02  0.00000000000E+00 0. -1.
</event>
<event>
 7    1  0.3611369E-013  0.7246143E+02  0.7816164E-02  0.1226708E+00
        -11   -1    0    0    0    0  0.00000000000E+00  0.00000000000E+00  0.45593999997E+02  0.45594000000E+02  0.51100000000E-03 0. -1.
         11   -1    0    0    0    0 -0.00000000000E+00 -0.00000000000E+00 -0.45593999997E+02  0.45594000000E+02  0.51100000000E-03 0.  1.
    9900012    2    1    2    0    0 -0.83327662674E+01  0.54566219514E+01  0.15857958050E+02  0.72461426627E+02  0.69999812847E+02 0.  0.
        -12    1    1    2    0    0  0.83327662674E+01 -0.54566219514E+01 -0.15857958050E+02  0.18726573373E+02  0.00000000000E+00 0.  1.
         11    1    3    3    0    0  0.46691161192E+00  0.86151249706E+01  0.10464208158E+02  0.13562375801E+02  0.51100000000E-03 0. -1.
        -11    1    3    3    0    0  0.20535912407E+02  0.78502916876E+01 -0.98068902699E+01  0.24073343660E+02  0.51100000000E-03 0.  1.
         12    1    3    3    0    0 -0.29335590286E+02 -0.11008794707E+02  0.15200640161E+02  0.34825707166E+02  0.00000000000E+00 0. -1.
</event>
<event>
 7    1  0.3611369E-013  0.7246157E+02  0.7816164E-02  0.1226708E+00
        -11   -1    0    0    0    0  0.00000000000E+00  0.00000000000E+00  0.45593999997E+02  0.45594000000E+02  0.51100000000E-03 0.  1.
         11   -1    0    0    0    0 -0.00000000000E+00 -0.00000000000E+00 -0.45593999997E+02  0.45594000000E+02  0.51100000000E-03 0. -1.
    9900012    2    1    2    0    0  0.13570534269E+02 -0.60932859659E+01 -0.11375050078E+02  0.72461566851E+02  0.69999995514E+02 0.  0.
        -12    1    1    2    0    0 -0.13570534269E+02  0.60932859659E+01  0.11375050078E+02  0.18726433149E+02  0.00000000000E+00 0.  1.
         11    1    3    3    0    0  0.10995280719E+02 -0.29975676814E+01 -0.11017024242E+02  0.15851070421E+02  0.51100000000E-03 0. -1.
        -11    1    3    3    0    0 -0.64342994803E+01  0.17175084259E+02 -0.19889114879E+02  0.27054770745E+02  0.51100000000E-03 0.  1.
        -12    1    3    3    0    0  0.90095530310E+01 -0.20270802544E+02  0.19531089043E+02  0.29555725685E+02  0.00000000000E+00 0.  1.
</event>
<event>
 7    1  0.3611369E-013  0.7246162E+02  0.7816164E-02  0.1226708E+00
        -11   -1    0    0    0    0  0.00000000000E+00  0.00000000000E+00  0.45593999997E+02  0.45594000000E+02  0.51100000000E-03 0.  1.
         11   -1    0    0    0    0 -0.00000000000E+00 -0.00000000000E+00 -0.45593999997E+02  0.45594000000E+02  0.51100000000E-03 0. -1.
    9900012    2    1    2    0    0 -0.23314573030E+01  0.87891231749E+01 -0.16370494188E+02  0.72461615958E+02  0.70000059485E+02 0.  0.
        -12    1    1    2    0    0  0.23314573030E+01 -0.87891231749E+01  0.16370494188E+02  0.18726384042E+02  0.00000000000E+00 0.  1.
         11    1    3    3    0    0  0.63644366997E+01 -0.15327268412E+02 -0.71532876168E+01  0.18072098259E+02  0.51100000000E-03 0. -1.
        -11    1    3    3    0    0  0.15721502195E+02  0.15182396470E+02  0.79232726268E+01  0.23247559941E+02  0.51100000000E-03 0.  1.
         12    1    3    3    0    0 -0.24417396198E+02  0.89339951172E+01 -0.17140479198E+02  0.31141957758E+02  0.00000000000E+00 0. -1.
</event>
<event>
 7    1  0.3611369E-013  0.7246158E+02  0.7816164E-02  0.1226708E+00
        -11   -1    0    0    0    0  0.00000000000E+00  0.00000000000E+00  0.45593999997E+02  0.45594000000E+02  0.51100000000E-03 0.  1.
         11   -1    0    0    0    0 -0.00000000000E+00 -0.00000000000E+00 -0.45593999997E+02  0.45594000000E+02  0.51100000000E-03 0. -1.
    9900012    2    1    2    0    0  0.68966567473E+01 -0.17210095650E+02 -0.26320362385E+01  0.72461577989E+02  0.70000010024E+02 0.  0.
        -12    1    1    2    0    0 -0.68966567473E+01  0.17210095650E+02  0.26320362385E+01  0.18726422011E+02  0.00000000000E+00 0.  1.
         11    1    3    3    0    0  0.27281024809E+02 -0.10176330310E+01 -0.19782615443E+02  0.33714118195E+02  0.51100000000E-03 0. -1.
        -11    1    3    3    0    0 -0.12115925130E+01 -0.15076275684E+02  0.10545013709E+02  0.18437986856E+02  0.51100000000E-03 0.  1.
        -12    1    3    3    0    0 -0.19172775549E+02 -0.11161869350E+01  0.66055654957E+01  0.20309472939E+02  0.00000000000E+00 0.  1.
</event>
<event>
 7    1  0.3611369E-013  0.7246150E+02  0.7816164E-02  0.1226708E+00
        -11   -1    0    0    0    0  0.00000000000E+00  0.00000000000E+00  0.45593999997E+02  0.45594000000E+02  0.51100000000E-03 0.  1.
         11   -1    0    0    0    0 -0.00000000000E+00 -0.00000000000E+00 -0.45593999997E+02  0.45594000000E+02  0.51100000000E-03 0. -1.
    9900012    2    1    2    0    0 -0.98986825779E+01 -0.14844324943E+02  0.56871807971E+01  0.72461496717E+02  0.69999904152E+02 0.  0.
        -12    1    1    2    0    0  0.98986825779E+01  0.14844324943E+02 -0.56871807971E+01  0.18726503283E+02  0.00000000000E+00 0.  1.
         11    1    3    3    0    0  0.85963602958E+01  0.52178278626E+01 -0.74430793037E+01  0.12510897958E+02  0.51100000000E-03 0. -1.
        -11    1    3    3    0    0  0.12124630859E+02 -0.21464880633E+02  0.15641741910E+02  0.29196093305E+02  0.51100000000E-03 0.  1.
         12    1    3    3    0    0 -0.30619673732E+02  0.14027278279E+01 -0.25114818094E+01  0.30754505454E+02  0.00000000000E+00 0. -1.
</event>
<event>
 7    1  0.3611369E-013  0.7246166E+02  0.7816164E-02  0.1226708E+00
        -11   -1    0    0    0    0  0.00000000000E+00  0.00000000000E+00  0.45593999997E+02  0.45594000000E+02  0.51100000000E-03 0.  1.
         11   -1    0    0    0    0 -0.00000000000E+00 -0.00000000000E+00 -0.45593999997E+02  0.45594000000E+02  0.51100000000E-03 0. -1.
    9900012    2    1    2    0    0 -0.85916439020E+01  0.29035749241E+01 -0.16383799405E+02  0.72461655583E+02  0.70000111104E+02 0.  0.
        -12    1    1    2    0    0  0.85916439020E+01 -0.29035749241E+01  0.16383799405E+02  0.18726344417E+02  0.00000000000E+00 0.  1.
         11    1    3    3    0    0  0.16741617858E+01  0.94282747686E+01 -0.10445677697E+02  0.14170651559E+02  0.51100000000E-03 0. -1.
        -11    1    3    3    0    0 -0.92152595381E+01 -0.29330288364E+02 -0.14392612355E+02  0.33946047112E+02  0.51100000000E-03 0.  1.
         12    1    3    3    0    0 -0.10505461498E+01  0.22805588520E+02  0.84544906467E+01  0.24344956912E+02  0.00000000000E+00 0. -1.
</event>
<event>
 7    1  0.3611369E-013  0.7246154E+02  0.7816164E-02  0.1226708E+00
        -11   -1    0    0    0    0  0.00000000000E+00  0.00000000000E+00  0.45593999997E+02  0.45594000000E+02  0.51100000000E-03 0.  1.
         11   -1    0    0    0    0 -0.00000000000E+00 -0.00000000000E+00 -0.45593999997E+02  0.45594000000E+02  0.51100000000E-03 0. -1.
    9900012    2    1    2    0    0  0.13183815823E+02 -0.10375470193E+02 -0.83196655411E+01  0.72461542351E+02  0.69999963598E+02 0.  0.
        -12    1    1    2    0    0 -0.13183815823E+02  0.10375470193E+02  0.83196655411E+01  0.18726457649E+02  0.00000000000E+00 0.  1.
         11    1    3    3    0    0  0.75620342727E+01 -0.21243404010E+02 -0.72739498063E+01  0.23693394065E+02  0.51100000000E-03 0. -1.
        -11    1    3    3    0    0 -0.14454499599E+02 -0.91003657054E+01  0.82456525715E+01  0.18966813154E+02  0.51100000000E-03 0.  1.
        -12    1    3    3    0    0  0.20076281149E+02  0.19968299523E+02 -0.92913683064E+01  0.29801335131E+02  0.00000000000E+00 0.  1.
</event>
<event>
 7    1  0.3611369E-013  0.7246156E+02  0.7816164E-02  0.1226708E+00
        -11   -1    0    0    0    0  0.00000000000E+00  0.00000000000E+00  0.45593999997E+02  0.45594000000E+02  0.51100000000E-03 0.  1.
         11   -1    0    0    0    0 -0.00000000000E+00 -0.00000000000E+00 -0.45593999997E+02  0.45594000000E+02  0.51100000000E-03 0. -1.
    9900012    2    1    2    0    0  0.86918123666E+01 -0.17711430062E+01 -0.16492272165E+02  0.72461559042E+02  0.69999985342E+02 0.  0.
        -12    1    1    2    0    0 -0.86918123666E+01  0.17711430062E+01  0.16492272165E+02  0.18726440958E+02  0.00000000000E+00 0.  1.
         11    1    3    3    0    0  0.97817612709E+01  0.96841620405E+01 -0.88493847579E+01  0.16363907200E+02  0.51100000000E-03 0. -1.
        -11    1    3    3    0    0 -0.31554582490E+01 -0.30170676853E+02 -0.17315745734E+02  0.34929381745E+02  0.51100000000E-03 0.  1.
         12    1    3    3    0    0  0.20655093448E+01  0.18715371806E+02  0.96728583268E+01  0.21168270097E+02  0.00000000000E+00 0. -1.
</event>
<event>
 7    1  0.3611369E-013  0.7246156E+02  0.7816164E-02  0.1226708E+00
        -11   -1    0    0    0    0  0.00000000000E+00  0.00000000000E+00  0.45593999997E+02  0.45594000000E+02  0.51100000000E-03 0.  1.
         11   -1    0    0    0    0 -0.00000000000E+00 -0.00000000000E+00 -0.45593999997E+02  0.45594000000E+02  0.51100000000E-03 0. -1.
    9900012    2    1    2    0    0  0.26604339016E+01  0.18285728171E+02  0.30386968199E+01  0.72461563028E+02  0.69999990534E+02 0.  0.
        -12    1    1    2    0    0 -0.26604339016E+01 -0.18285728171E+02 -0.30386968199E+01  0.18726436972E+02  0.00000000000E+00 0.  1.
         11    1    3    3    0    0  0.60770415245E+01  0.13832087938E+02  0.20491180984E+02  0.25458703596E+02  0.51100000000E-03 0.  1.
        -11    1    3    3    0    0 -0.95657665151E+01 -0.16794981121E+02 -0.85323883691E+00  0.19346919565E+02  0.51100000000E-03 0. -1.
         12    1    3    3    0    0  0.61491588922E+01  0.21248621354E+02 -0.16599245327E+02  0.27655939868E+02  0.00000000000E+00 0. -1.
</event>
<event>
 7    1  0.3611369E-013  0.7246157E+02  0.7816164E-02  0.1226708E+00
        -11   -1    0    0    0    0  0.00000000000E+00  0.00000000000E+00  0.45593999997E+02  0.45594000000E+02  0.51100000000E-03 0.  1.
         11   -1    0    0    0    0 -0.00000000000E+00 -0.00000000000E+00 -0.45593999997E+02  0.45594000000E+02  0.51100000000E-03 0. -1.
    9900012    2    1    2    0    0 -0.63069753256E+01  0.46404687034E+01 -0.17010800707E+02  0.72461568726E+02  0.69999997957E+02 0.  0.
        -12    1    1    2    0    0  0.63069753256E+01 -0.46404687034E+01  0.17010800707E+02  0.18726431274E+02  0.00000000000E+00 0.  1.
         11    1    3    3    0    0 -0.26992497708E+00  0.90588060183E+01 -0.13471363700E+02  0.16236146901E+02  0.51100000000E-03 0. -1.
        -11    1    3    3    0    0 -0.74750357522E+01  0.25065700531E+02 -0.51649187700E+01  0.26661618270E+02  0.51100000000E-03 0.  1.
         12    1    3    3    0    0  0.14379854037E+01 -0.29484037846E+02  0.16254817630E+01  0.29563803556E+02  0.00000000000E+00 0. -1.
</event>
<event>
 7    1  0.3611369E-013  0.7246161E+02  0.7816164E-02  0.1226708E+00
        -11   -1    0    0    0    0  0.00000000000E+00  0.00000000000E+00  0.45593999997E+02  0.45594000000E+02  0.51100000000E-03 0. -1.
         11   -1    0    0    0    0 -0.00000000000E+00 -0.00000000000E+00 -0.45593999997E+02  0.45594000000E+02  0.51100000000E-03 0.  1.
    9900012    2    1    2    0    0 -0.97646216446E+01  0.23286760131E+01  0.15808455034E+02  0.72461606369E+02  0.70000046994E+02 0.  0.
        -12    1    1    2    0    0  0.97646216446E+01 -0.23286760131E+01 -0.15808455034E+02  0.18726393631E+02  0.00000000000E+00 0.  1.
         11    1    3    3    0    0  0.13764255853E+02 -0.19347606293E+02 -0.45154482154E+01  0.24169689309E+02  0.51100000000E-03 0. -1.
        -11    1    3    3    0    0 -0.68717764890E+01 -0.74669145675E+01  0.60595456597E+01  0.11819230903E+02  0.51100000000E-03 0.  1.
        -12    1    3    3    0    0 -0.16657101009E+02  0.29143196874E+02  0.14264357590E+02  0.36472686157E+02  0.00000000000E+00 0.  1.
</event>
<event>
 7    1  0.3611369E-013  0.7246153E+02  0.7816164E-02  0.1226708E+00
        -11   -1    0    0    0    0  0.00000000000E+00  0.00000000000E+00  0.45593999997E+02  0.45594000000E+02  0.51100000000E-03 0. -1.
         11   -1    0    0    0    0 -0.00000000000E+00 -0.00000000000E+00 -0.45593999997E+02  0.45594000000E+02  0.51100000000E-03 0.  1.
    9900012    2    1    2    0    0  0.12727762437E+02  0.13144275970E+02  0.39890634427E+01  0.72461533313E+02  0.69999951825E+02 0.  0.
        -12    1    1    2    0    0 -0.12727762437E+02 -0.13144275970E+02 -0.39890634427E+01  0.18726466687E+02  0.00000000000E+00 0.  1.
         11    1    3    3    0    0 -0.20013174251E+01  0.13364795876E+02 -0.14066299086E+01  0.13586818914E+02  0.51100000000E-03 0. -1.
        -11    1    3    3    0    0  0.15102447312E+02  0.11677475463E+02 -0.21926091647E+02  0.29072338110E+02  0.51100000000E-03 0.  1.
         12    1    3    3    0    0 -0.37336744997E+00 -0.11897995368E+02  0.27321784998E+02  0.29802376290E+02  0.00000000000E+00 0. -1.
</event>
<event>
 7    1  0.3611369E-013  0.7246156E+02  0.7816164E-02  0.1226708E+00
        -11   -1    0    0    0    0  0.00000000000E+00  0.00000000000E+00  0.45593999997E+02  0.45594000000E+02  0.51100000000E-03 0.  1.
         11   -1    0    0    0    0 -0.00000000000E+00 -0.00000000000E+00 -0.45593999997E+02  0.45594000000E+02  0.51100000000E-03 0. -1.
    9900012    2    1    2    0    0  0.80347623975E+01 -0.15539860638E+02 -0.66809212514E+01  0.72461564562E+02  0.69999992533E+02 0.  0.
        -12    1    1    2    0    0 -0.80347623975E+01  0.15539860638E+02  0.66809212514E+01  0.18726435438E+02  0.00000000000E+00 0.  1.
         11    1    3    3    0    0 -0.94274108259E+01  0.89649938147E+01 -0.15873112794E+01  0.13105981319E+02  0.51100000000E-03 0. -1.
        -11    1    3    3    0    0 -0.52368777746E+01 -0.21381276839E+02 -0.21813747033E+02  0.30990699379E+02  0.51100000000E-03 0.  1.
         12    1    3    3    0    0  0.22699050998E+02 -0.31235776133E+01  0.16720137061E+02  0.28364883865E+02  0.00000000000E+00 0. -1.
</event>
<event>
 7    1  0.3611369E-013  0.7246157E+02  0.7816164E-02  0.1226708E+00
        -11   -1    0    0    0    0  0.00000000000E+00  0.00000000000E+00  0.45593999997E+02  0.45594000000E+02  0.51100000000E-03 0.  1.
         11   -1    0    0    0    0 -0.00000000000E+00 -0.00000000000E+00 -0.45593999997E+02  0.45594000000E+02  0.51100000000E-03 0. -1.
    9900012    2    1    2    0    0  0.17084542091E+02  0.75882047928E+01 -0.11031196013E+01  0.72461566722E+02  0.69999995347E+02 0.  0.
        -12    1    1    2    0    0 -0.17084542091E+02 -0.75882047928E+01  0.11031196013E+01  0.18726433278E+02  0.00000000000E+00 0.  1.
         11    1    3    3    0    0 -0.80269859582E+01 -0.11086735257E+02 -0.49060416874E+01  0.14540201083E+02  0.51100000000E-03 0. -1.
        -11    1    3    3    0    0  0.17192927486E+02 -0.11864958983E+02  0.13551078901E+02  0.24899914595E+02  0.51100000000E-03 0.  1.
         12    1    3    3    0    0  0.79186005640E+01  0.30539899032E+02 -0.97481568149E+01  0.33021451045E+02  0.00000000000E+00 0. -1.
</event>
<event>
 7    1  0.3611369E-013  0.7246167E+02  0.7816164E-02  0.1226708E+00
        -11   -1    0    0    0    0  0.00000000000E+00  0.00000000000E+00  0.45593999997E+02  0.45594000000E+02  0.51100000000E-03 0.  1.
         11   -1    0    0    0    0 -0.00000000000E+00 -0.00000000000E+00 -0.45593999997E+02  0.45594000000E+02  0.51100000000E-03 0. -1.
    9900012    2    1    2    0    0  0.58239949565E+01 -0.13157277972E+02  0.11985099326E+02  0.72461668626E+02  0.70000128095E+02 0.  0.
        -12    1    1    2    0    0 -0.58239949565E+01  0.13157277972E+02 -0.11985099326E+02  0.18726331374E+02  0.00000000000E+00 0.  1.
         11    1    3    3    0    0 -0.44159026806E+01 -0.19432756180E+02 -0.61337245857E+01  0.20850774250E+02  0.51100000000E-03 0. -1.
        -11    1    3    3    0    0  0.56579464836E+01  0.17734897049E+02 -0.98350221783E+01  0.21053897342E+02  0.51100000000E-03 0.  1.
         12    1    3    3    0    0  0.45819511535E+01 -0.11459418841E+02  0.27953846090E+02  0.30556997034E+02  0.00000000000E+00 0. -1.
</event>
<event>
 7    1  0.3611369E-013  0.7246157E+02  0.7816164E-02  0.1226708E+00
        -11   -1    0    0    0    0  0.00000000000E+00  0.00000000000E+00  0.45593999997E+02  0.45594000000E+02  0.51100000000E-03 0. -1.
         11   -1    0    0    0    0 -0.00000000000E+00 -0.00000000000E+00 -0.45593999997E+02  0.45594000000E+02  0.51100000000E-03 0.  1.
    9900012    2    1    2    0    0 -0.12442337699E+02 -0.12188152957E+02  0.68786857387E+01  0.72461570618E+02  0.70000000421E+02 0.  0.
        -12    1    1    2    0    0  0.12442337699E+02  0.12188152957E+02 -0.68786857387E+01  0.18726429382E+02  0.00000000000E+00 0.  1.
         11    1    3    3    0    0  0.30560208586E+01 -0.61899768834E+01  0.18177802400E+01  0.71385854739E+01  0.51100000000E-03 0. -1.
        -11    1    3    3    0    0  0.22004528274E+02 -0.81580659962E+01 -0.91094890268E+01  0.25174115594E+02  0.51100000000E-03 0.  1.
        -12    1    3    3    0    0 -0.37502886831E+02  0.21598899229E+01  0.14170394525E+02  0.40148869550E+02  0.00000000000E+00 0.  1.
</event>
<event>
 7    1  0.3611369E-013  0.7246158E+02  0.7816164E-02  0.1226708E+00
        -11   -1    0    0    0    0  0.00000000000E+00  0.00000000000E+00  0.45593999997E+02  0.45594000000E+02  0.51100000000E-03 0.  1.
         11   -1    0    0    0    0 -0.00000000000E+00 -0.00000000000E+00 -0.45593999997E+02  0.45594000000E+02  0.51100000000E-03 0. -1.
    9900012    2    1    2    0    0  0.59090499856E+01 -0.42056058112E+00 -0.17764712618E+02  0.72461581300E+02  0.70000014336E+02 0.  0.
        -12    1    1    2    0    0 -0.59090499856E+01  0.42056058112E+00  0.17764712618E+02  0.18726418700E+02  0.00000000000E+00 0.  1.
         11    1    3    3    0    0  0.92176675372E+01 -0.71868791471E+01 -0.30187767862E+02  0.32371560906E+02  0.51100000000E-03 0. -1.
        -11    1    3    3    0    0 -0.55557386874E+01  0.22453857009E+01 -0.12923705866E+02  0.14245355836E+02  0.51100000000E-03 0.  1.
        -12    1    3    3    0    0  0.22471211357E+01  0.45209328650E+01  0.25346761110E+02  0.25844664558E+02  0.00000000000E+00 0.  1.
</event>
<event>
 7    1  0.3611369E-013  0.7246155E+02  0.7816164E-02  0.1226708E+00
        -11   -1    0    0    0    0  0.00000000000E+00  0.00000000000E+00  0.45593999997E+02  0.45594000000E+02  0.51100000000E-03 0.  1.
         11   -1    0    0    0    0 -0.00000000000E+00 -0.00000000000E+00 -0.45593999997E+02  0.45594000000E+02  0.51100000000E-03 0. -1.
    9900012    2    1    2    0    0 -0.16386204108E+01  0.14339614950E+02 -0.11931903703E+02  0.72461549195E+02  0.69999972514E+02 0.  0.
        -12    1    1    2    0    0  0.16386204108E+01 -0.14339614950E+02  0.11931903703E+02  0.18726450805E+02  0.00000000000E+00 0.  1.
         11    1    3    3    0    0  0.12661528883E+02  0.40880660091E+01 -0.20142906840E+02  0.24140490748E+02  0.51100000000E-03 0. -1.
        -11    1    3    3    0    0 -0.57849299906E+01 -0.85283703959E+01 -0.14407714722E+02  0.17713857862E+02  0.51100000000E-03 0.  1.
        -12    1    3    3    0    0 -0.85152193033E+01  0.18779919337E+02  0.22618717858E+02  0.30607200585E+02  0.00000000000E+00 0.  1.
</event>
<event>
 7    1  0.3611369E-013  0.7246157E+02  0.7816164E-02  0.1226708E+00
        -11   -1    0    0    0    0  0.00000000000E+00  0.00000000000E+00  0.45593999997E+02  0.45594000000E+02  0.51100000000E-03 0. -1.
         11   -1    0    0    0    0 -0.00000000000E+00 -0.00000000000E+00 -0.45593999997E+02  0.45594000000E+02  0.51100000000E-03 0.  1.
    9900012    2    1    2    0    0 -0.72271174267E+01 -0.17110422210E+02  0.23835915964E+01  0.72461567253E+02  0.69999996039E+02 0.  0.
        -12    1    1    2    0    0  0.72271174267E+01  0.17110422210E+02 -0.23835915964E+01  0.18726432747E+02  0.00000000000E+00 0.  1.
         11    1    3    3    0    0 -0.24603724951E+01 -0.13388395532E+02 -0.38139890894E+01  0.14136798817E+02  0.51100000000E-03 0. -1.
        -11    1    3    3    0    0 -0.11890598564E+02 -0.28971799051E+02  0.69485004570E+01  0.32078546309E+02  0.51100000000E-03 0.  1.
         12    1    3    3    0    0  0.71238536326E+01  0.25249772373E+02 -0.75091977114E+00  0.26246222128E+02  0.00000000000E+00 0. -1.
</event>
<event>
 7    1  0.3611369E-013  0.7246153E+02  0.7816164E-02  0.1226708E+00
        -11   -1    0    0    0    0  0.00000000000E+00  0.00000000000E+00  0.45593999997E+02  0.45594000000E+02  0.51100000000E-03 0.  1.
         11   -1    0    0    0    0 -0.00000000000E+00 -0.00000000000E+00 -0.45593999997E+02  0.45594000000E+02  0.51100000000E-03 0. -1.
    9900012    2    1    2    0    0 -0.10169962595E+02 -0.15511165895E+02 -0.25799872752E+01  0.72461528337E+02  0.69999945342E+02 0.  0.
        -12    1    1    2    0    0  0.10169962595E+02  0.15511165895E+02  0.25799872752E+01  0.18726471663E+02  0.00000000000E+00 0.  1.
         11    1    3    3    0    0  0.23189515651E+02 -0.13836785908E+02  0.21703905230E+01  0.27090974063E+02  0.51100000000E-03 0. -1.
        -11    1    3    3    0    0 -0.57817712949E+01 -0.89672460895E+01  0.87620599296E+01  0.13806305668E+02  0.51100000000E-03 0.  1.
        -12    1    3    3    0    0 -0.27577706951E+02  0.72928661022E+01 -0.13512437728E+02  0.31564248605E+02  0.00000000000E+00 0.  1.
</event>
<event>
 7    1  0.3611369E-013  0.7246156E+02  0.7816164E-02  0.1226708E+00
        -11   -1    0    0    0    0  0.00000000000E+00  0.00000000000E+00  0.45593999997E+02  0.45594000000E+02  0.51100000000E-03 0.  1.
         11   -1    0    0    0    0 -0.00000000000E+00 -0.00000000000E+00 -0.45593999997E+02  0.45594000000E+02  0.51100000000E-03 0. -1.
    9900012    2    1    2    0    0 -0.14716667351E+02 -0.73338960018E+01 -0.89617621287E+01  0.72461561231E+02  0.69999988194E+02 0.  0.
        -12    1    1    2    0    0  0.14716667351E+02  0.73338960018E+01  0.89617621287E+01  0.18726438769E+02  0.00000000000E+00 0.  1.
         11    1    3    3    0    0  0.69258847435E+01 -0.32762206077E+02 -0.10906448571E+02  0.35217618420E+02  0.51100000000E-03 0. -1.
        -11    1    3    3    0    0  0.19211479746E+01  0.15663489619E+01 -0.23729241144E+01  0.34314760271E+01  0.51100000000E-03 0.  1.
        -12    1    3    3    0    0 -0.23563700070E+02  0.23861961113E+02  0.43176105564E+01  0.33812466784E+02  0.00000000000E+00 0.  1.
</event>
<event>
 7    1  0.3611369E-013  0.7246157E+02  0.7816164E-02  0.1226708E+00
        -11   -1    0    0    0    0  0.00000000000E+00  0.00000000000E+00  0.45593999997E+02  0.45594000000E+02  0.51100000000E-03 0. -1.
         11   -1    0    0    0    0 -0.00000000000E+00 -0.00000000000E+00 -0.45593999997E+02  0.45594000000E+02  0.51100000000E-03 0.  1.
    9900012    2    1    2    0    0  0.14653633431E+02 -0.10408809818E+01  0.11613214953E+02  0.72461570349E+02  0.70000000071E+02 0.  0.
        -12    1    1    2    0    0 -0.14653633431E+02  0.10408809818E+01 -0.11613214953E+02  0.18726429651E+02  0.00000000000E+00 0.  1.
         11    1    3    3    0    0 -0.20103304007E+02  0.14498812312E+01  0.48153226551E+00  0.20161271318E+02  0.51100000000E-03 0. -1.
        -11    1    3    3    0    0 -0.17161314433E+01  0.88807448514E+01 -0.55504818982E+01  0.10612284665E+02  0.51100000000E-03 0.  1.
         12    1    3    3    0    0  0.36473068881E+02 -0.11371507064E+02  0.16682164585E+02  0.41688014366E+02  0.00000000000E+00 0. -1.
</event>
<event>
 7    1  0.3611369E-013  0.7246156E+02  0.7816164E-02  0.1226708E+00
        -11   -1    0    0    0    0  0.00000000000E+00  0.00000000000E+00  0.45593999997E+02  0.45594000000E+02  0.51100000000E-03 0.  1.
         11   -1    0    0    0    0 -0.00000000000E+00 -0.00000000000E+00 -0.45593999997E+02  0.45594000000E+02  0.51100000000E-03 0. -1.
    9900012    2    1    2    0    0  0.12973577825E+02 -0.95007230594E+01  0.95969880111E+01  0.72461557756E+02  0.69999983666E+02 0.  0.
        -12    1    1    2    0    0 -0.12973577825E+02  0.95007230594E+01 -0.95969880111E+01  0.18726442244E+02  0.00000000000E+00 0.  1.
         11    1    3    3    0    0  0.28452667601E+02  0.47171364492E+01 -0.81732733868E+01  0.29976792157E+02  0.51100000000E-03 0. -1.
        -11    1    3    3    0    0 -0.39624940998E+01  0.33283767134E+01  0.20660338550E+02  0.21298568973E+02  0.51100000000E-03 0.  1.
        -12    1    3    3    0    0 -0.11516595677E+02 -0.17546236222E+02 -0.28900771518E+01  0.21186196626E+02  0.00000000000E+00 0.  1.
</event>
<event>
 7    1  0.3611369E-013  0.7246157E+02  0.7816164E-02  0.1226708E+00
        -11   -1    0    0    0    0  0.00000000000E+00  0.00000000000E+00  0.45593999997E+02  0.45594000000E+02  0.51100000000E-03 0.  1.
         11   -1    0    0    0    0 -0.00000000000E+00 -0.00000000000E+00 -0.45593999997E+02  0.45594000000E+02  0.51100000000E-03 0. -1.
    9900012    2    1    2    0    0  0.34464717901E+01  0.17639680461E+02 -0.52576343430E+01  0.72461569121E+02  0.69999998472E+02 0.  0.
        -12    1    1    2    0    0 -0.34464717901E+01 -0.17639680461E+02  0.52576343430E+01  0.18726430879E+02  0.00000000000E+00 0.  1.
         11    1    3    3    0    0  0.20502580747E+02  0.28407664703E+02 -0.20515897630E+02  0.40598685779E+02  0.51100000000E-03 0. -1.
        -11    1    3    3    0    0 -0.15645208353E+01  0.53718460123E+01  0.33049003424E+01  0.64982167983E+01  0.51100000000E-03 0.  1.
        -12    1    3    3    0    0 -0.15491588121E+02 -0.16139830254E+02  0.11953362945E+02  0.25364666543E+02  0.00000000000E+00 0.  1.
</event>
<event>
 7    1  0.3611369E-013  0.7246156E+02  0.7816164E-02  0.1226708E+00
        -11   -1    0    0    0    0  0.00000000000E+00  0.00000000000E+00  0.45593999997E+02  0.45594000000E+02  0.51100000000E-03 0.  1.
         11   -1    0    0    0    0 -0.00000000000E+00 -0.00000000000E+00 -0.45593999997E+02  0.45594000000E+02  0.51100000000E-03 0. -1.
    9900012    2    1    2    0    0  0.15461006445E+02  0.10350949010E+02 -0.21200748816E+01  0.72461559249E+02  0.69999985611E+02 0.  0.
        -12    1    1    2    0    0 -0.15461006445E+02 -0.10350949010E+02  0.21200748816E+01  0.18726440751E+02  0.00000000000E+00 0.  1.
         11    1    3    3    0    0 -0.37379567215E+01 -0.75849166408E+01  0.46670166777E+01  0.96583811185E+01  0.51100000000E-03 0. -1.
        -11    1    3    3    0    0  0.17406277808E+02 -0.31441033241E+01  0.21270074220E+02  0.27663693724E+02  0.51100000000E-03 0.  1.
         12    1    3    3    0    0  0.17926853586E+01  0.21079968975E+02 -0.28057165780E+02  0.35139484407E+02  0.00000000000E+00 0. -1.
</event>
<event>
 7    1  0.3611369E-013  0.7246157E+02  0.7816164E-02  0.1226708E+00
        -11   -1    0    0    0    0  0.00000000000E+00  0.00000000000E+00  0.45593999997E+02  0.45594000000E+02  0.51100000000E-03 0. -1.
         11   -1    0    0    0    0 -0.00000000000E+00 -0.00000000000E+00 -0.45593999997E+02  0.45594000000E+02  0.51100000000E-03 0.  1.
    9900012    2    1    2    0    0  0.96240700013E+01  0.24297342531E+01  0.15879324667E+02  0.72461567243E+02  0.69999996025E+02 0.  0.
        -12    1    1    2    0    0 -0.96240700013E+01 -0.24297342531E+01 -0.15879324667E+02  0.18726432757E+02  0.00000000000E+00 0.  1.
         11    1    3    3    0    0 -0.63742025688E+01  0.43413576492E+01 -0.57187503187E+01  0.96011431661E+01  0.51100000000E-03 0. -1.
        -11    1    3    3    0    0 -0.10435116818E+02  0.19348427490E+02 -0.11563585955E+01  0.22013415791E+02  0.51100000000E-03 0.  1.
         12    1    3    3    0    0  0.26433389388E+02 -0.21260050886E+02  0.22754433581E+02  0.40847008285E+02  0.00000000000E+00 0. -1.
</event>
<event>
 7    1  0.3611369E-013  0.7246146E+02  0.7816164E-02  0.1226708E+00
        -11   -1    0    0    0    0  0.00000000000E+00  0.00000000000E+00  0.45593999997E+02  0.45594000000E+02  0.51100000000E-03 0.  1.
         11   -1    0    0    0    0 -0.00000000000E+00 -0.00000000000E+00 -0.45593999997E+02  0.45594000000E+02  0.51100000000E-03 0. -1.
    9900012    2    1    2    0    0 -0.14868838263E+02  0.82294962568E-02 -0.11384243112E+02  0.72461457066E+02  0.69999852499E+02 0.  0.
        -12    1    1    2    0    0  0.14868838263E+02 -0.82294962568E-02  0.11384243112E+02  0.18726542934E+02  0.00000000000E+00 0.  1.
         11    1    3    3    0    0 -0.79107134137E+01  0.16548578755E+02  0.10753605542E+02  0.21262052534E+02  0.51100000000E-03 0. -1.
        -11    1    3    3    0    0  0.78343258809E+01  0.93597649231E+01  0.25637237951E+01  0.12472150632E+02  0.51100000000E-03 0.  1.
        -12    1    3    3    0    0 -0.14792450730E+02 -0.25900114182E+02 -0.24701572449E+02  0.38727253901E+02  0.00000000000E+00 0.  1.
</event>
<event>
 7    1  0.3611369E-013  0.7246150E+02  0.7816164E-02  0.1226708E+00
        -11   -1    0    0    0    0  0.00000000000E+00  0.00000000000E+00  0.45593999997E+02  0.45594000000E+02  0.51100000000E-03 0. -1.
         11   -1    0    0    0    0 -0.00000000000E+00 -0.00000000000E+00 -0.45593999997E+02  0.45594000000E+02  0.51100000000E-03 0.  1.
    9900012    2    1    2    0    0 -0.91537139873E+01 -0.49624866465E+01  0.15564865428E+02  0.72461500347E+02  0.69999908880E+02 0.  0.
        -12    1    1    2    0    0  0.91537139873E+01  0.49624866465E+01 -0.15564865428E+02  0.18726499653E+02  0.00000000000E+00 0.  1.
         11    1    3    3    0    0  0.24303827334E+02  0.58378176625E+01  0.82090118903E+01  0.26308630040E+02  0.51100000000E-03 0. -1.
        -11    1    3    3    0    0  0.39541955044E+01 -0.68937767315E+01  0.13611478138E+01  0.80630356159E+01  0.51100000000E-03 0.  1.
        -12    1    3    3    0    0 -0.37411736826E+02 -0.39065275774E+01  0.59947057238E+01  0.38089834690E+02  0.00000000000E+00 0.  1.
</event>
<event>
 7    1  0.3611369E-013  0.7246158E+02  0.7816164E-02  0.1226708E+00
        -11   -1    0    0    0    0  0.00000000000E+00  0.00000000000E+00  0.45593999997E+02  0.45594000000E+02  0.51100000000E-03 0.  1.
         11   -1    0    0    0    0 -0.00000000000E+00 -0.00000000000E+00 -0.45593999997E+02  0.45594000000E+02  0.51100000000E-03 0. -1.
    9900012    2    1    2    0    0  0.37109538241E+01  0.86998784039E+00 -0.18334417385E+02  0.72461577011E+02  0.70000008750E+02 0.  0.
        -12    1    1    2    0    0 -0.37109538241E+01 -0.86998784039E+00  0.18334417385E+02  0.18726422989E+02  0.00000000000E+00 0.  1.
         11    1    3    3    0    0  0.17237888697E+02 -0.69984816367E+01  0.10493855532E+02  0.21359881932E+02  0.51100000000E-03 0. -1.
        -11    1    3    3    0    0  0.79991716995E+01  0.42800591762E+01  0.53634655608E+01  0.10539089976E+02  0.51100000000E-03 0.  1.
         12    1    3    3    0    0 -0.21526106573E+02  0.35884103008E+01 -0.34191738478E+02  0.40562605104E+02  0.00000000000E+00 0. -1.
</event>
<event>
 7    1  0.3611369E-013  0.7246161E+02  0.7816164E-02  0.1226708E+00
        -11   -1    0    0    0    0  0.00000000000E+00  0.00000000000E+00  0.45593999997E+02  0.45594000000E+02  0.51100000000E-03 0. -1.
         11   -1    0    0    0    0 -0.00000000000E+00 -0.00000000000E+00 -0.45593999997E+02  0.45594000000E+02  0.51100000000E-03 0.  1.
    9900012    2    1    2    0    0 -0.13819008148E+02 -0.12497990514E+02 -0.18742895266E+01  0.72461609149E+02  0.70000050615E+02 0.  0.
        -12    1    1    2    0    0  0.13819008148E+02  0.12497990514E+02  0.18742895266E+01  0.18726390851E+02  0.00000000000E+00 0.  1.
         11    1    3    3    0    0 -0.23215393681E+01  0.63564463486E+01 -0.80785809928E+01  0.10538378734E+02  0.51100000000E-03 0. -1.
        -11    1    3    3    0    0 -0.22432827285E+02  0.45466751977E+01 -0.15946390948E+02  0.27896081802E+02  0.51100000000E-03 0.  1.
         12    1    3    3    0    0  0.10935358505E+02 -0.23401112061E+02  0.22150682414E+02  0.34027148613E+02  0.00000000000E+00 0. -1.
</event>
<event>
 7    1  0.3611369E-013  0.7246160E+02  0.7816164E-02  0.1226708E+00
        -11   -1    0    0    0    0  0.00000000000E+00  0.00000000000E+00  0.45593999997E+02  0.45594000000E+02  0.51100000000E-03 0.  1.
         11   -1    0    0    0    0 -0.00000000000E+00 -0.00000000000E+00 -0.45593999997E+02  0.45594000000E+02  0.51100000000E-03 0. -1.
    9900012    2    1    2    0    0 -0.12914256821E+01  0.15358007911E+02 -0.10636809028E+02  0.72461604362E+02  0.70000044379E+02 0.  0.
        -12    1    1    2    0    0  0.12914256821E+01 -0.15358007911E+02  0.10636809028E+02  0.18726395638E+02  0.00000000000E+00 0.  1.
         11    1    3    3    0    0  0.14199133150E+01  0.16755067269E+02 -0.20754430003E+02  0.26711323405E+02  0.51100000000E-03 0. -1.
        -11    1    3    3    0    0  0.11260043406E+02  0.17493266384E+02  0.20346239173E+01  0.20903172990E+02  0.51100000000E-03 0.  1.
        -12    1    3    3    0    0 -0.13971382403E+02 -0.18890325742E+02  0.80829970578E+01  0.24847107967E+02  0.00000000000E+00 0.  1.
</event>
<event>
 7    1  0.3611369E-013  0.7246165E+02  0.7816164E-02  0.1226708E+00
        -11   -1    0    0    0    0  0.00000000000E+00  0.00000000000E+00  0.45593999997E+02  0.45594000000E+02  0.51100000000E-03 0. -1.
         11   -1    0    0    0    0 -0.00000000000E+00 -0.00000000000E+00 -0.45593999997E+02  0.45594000000E+02  0.51100000000E-03 0.  1.
    9900012    2    1    2    0    0 -0.14579546242E+01  0.40992723070E+00  0.18665005586E+02  0.72461652104E+02  0.70000106572E+02 0.  0.
        -12    1    1    2    0    0  0.14579546242E+01 -0.40992723070E+00 -0.18665005586E+02  0.18726347896E+02  0.00000000000E+00 0.  1.
         11    1    3    3    0    0 -0.11597204208E+02 -0.23323218063E+02  0.16740371577E+02  0.30963005136E+02  0.51100000000E-03 0. -1.
        -11    1    3    3    0    0 -0.23887125549E+00 -0.11486537239E+01 -0.11376303250E+02  0.11436640274E+02  0.51100000000E-03 0.  1.
         12    1    3    3    0    0  0.10378120839E+02  0.24881799017E+02  0.13300937259E+02  0.30062006694E+02  0.00000000000E+00 0. -1.
</event>
<event>
 7    1  0.3611369E-013  0.7246159E+02  0.7816164E-02  0.1226708E+00
        -11   -1    0    0    0    0  0.00000000000E+00  0.00000000000E+00  0.45593999997E+02  0.45594000000E+02  0.51100000000E-03 0.  1.
         11   -1    0    0    0    0 -0.00000000000E+00 -0.00000000000E+00 -0.45593999997E+02  0.45594000000E+02  0.51100000000E-03 0. -1.
    9900012    2    1    2    0    0  0.22832815770E+01 -0.16969932173E+02 -0.75819916947E+01  0.72461586281E+02  0.70000020826E+02 0.  0.
        -12    1    1    2    0    0 -0.22832815770E+01  0.16969932173E+02  0.75819916947E+01  0.18726413719E+02  0.00000000000E+00 0.  1.
         11    1    3    3    0    0 -0.23275544815E+02 -0.43235110400E+00 -0.28317108927E+01  0.23451151374E+02  0.51100000000E-03 0. -1.
        -11    1    3    3    0    0 -0.94178029999E+01 -0.89155288080E+01 -0.17772218475E+01  0.13089697668E+02  0.51100000000E-03 0.  1.
        -12    1    3    3    0    0  0.34976629392E+02 -0.76220522606E+01 -0.29730589546E+01  0.35920737240E+02  0.00000000000E+00 0.  1.
</event>
<event>
 7    1  0.3611369E-013  0.7246156E+02  0.7816164E-02  0.1226708E+00
        -11   -1    0    0    0    0  0.00000000000E+00  0.00000000000E+00  0.45593999997E+02  0.45594000000E+02  0.51100000000E-03 0. -1.
         11   -1    0    0    0    0 -0.00000000000E+00 -0.00000000000E+00 -0.45593999997E+02  0.45594000000E+02  0.51100000000E-03 0.  1.
    9900012    2    1    2    0    0 -0.12587939252E+02  0.59301191261E+01  0.12532236604E+02  0.72461561957E+02  0.69999989140E+02 0.  0.
        -12    1    1    2    0    0  0.12587939252E+02 -0.59301191261E+01 -0.12532236604E+02  0.18726438043E+02  0.00000000000E+00 0.  1.
         11    1    3    3    0    0 -0.15051879567E+02  0.77503389020E+00  0.29569857732E+02  0.33189399552E+02  0.51100000000E-03 0. -1.
        -11    1    3    3    0    0 -0.15366834515E+01  0.60677192931E+01  0.10069419804E+02  0.11856299123E+02  0.51100000000E-03 0.  1.
        -12    1    3    3    0    0  0.40006237669E+01 -0.91263405715E+00 -0.27107040932E+02  0.27415863282E+02  0.00000000000E+00 0.  1.
</event>
<event>
 7    1  0.3611369E-013  0.7246152E+02  0.7816164E-02  0.1226708E+00
        -11   -1    0    0    0    0  0.00000000000E+00  0.00000000000E+00  0.45593999997E+02  0.45594000000E+02  0.51100000000E-03 0.  1.
         11   -1    0    0    0    0 -0.00000000000E+00 -0.00000000000E+00 -0.45593999997E+02  0.45594000000E+02  0.51100000000E-03 0. -1.
    9900012    2    1    2    0    0  0.25072673804E-01  0.57103341377E+01 -0.17834583689E+02  0.72461523557E+02  0.69999939116E+02 0.  0.
        -12    1    1    2    0    0 -0.25072673804E-01 -0.57103341377E+01  0.17834583689E+02  0.18726476443E+02  0.00000000000E+00 0.  1.
         11    1    3    3    0    0 -0.53018525943E+01  0.24013175369E+02 -0.33727796542E+02  0.41740945030E+02  0.51100000000E-03 0. -1.
        -11    1    3    3    0    0  0.32473938617E+01 -0.93363228929E+01 -0.24618539266E+01  0.10186914011E+02  0.51100000000E-03 0.  1.
        -12    1    3    3    0    0  0.20795314064E+01 -0.89665183379E+01  0.18355066779E+02  0.20533664516E+02  0.00000000000E+00 0.  1.
</event>
<event>
 7    1  0.3611369E-013  0.7246154E+02  0.7816164E-02  0.1226708E+00
        -11   -1    0    0    0    0  0.00000000000E+00  0.00000000000E+00  0.45593999997E+02  0.45594000000E+02  0.51100000000E-03 0.  1.
         11   -1    0    0    0    0 -0.00000000000E+00 -0.00000000000E+00 -0.45593999997E+02  0.45594000000E+02  0.51100000000E-03 0. -1.
    9900012    2    1    2    0    0  0.14634092010E+02  0.10720416700E+02 -0.46472016276E+01  0.72461535674E+02  0.69999954901E+02 0.  0.
        -12    1    1    2    0    0 -0.14634092010E+02 -0.10720416700E+02  0.46472016276E+01  0.18726464326E+02  0.00000000000E+00 0.  1.
         11    1    3    3    0    0 -0.92744161393E+01  0.14544220541E+02  0.20485664130E+00  0.17250829325E+02  0.51100000000E-03 0. -1.
        -11    1    3    3    0    0 -0.15259221982E+01  0.14830206898E+02  0.12281571864E+02  0.19315809145E+02  0.51100000000E-03 0.  1.
         12    1    3    3    0    0  0.25434430348E+02 -0.18654010740E+02 -0.17133630133E+02  0.35894897205E+02  0.00000000000E+00 0. -1.
</event>
<event>
 7    1  0.3611369E-013  0.7246159E+02  0.7816164E-02  0.1226708E+00
        -11   -1    0    0    0    0  0.00000000000E+00  0.00000000000E+00  0.45593999997E+02  0.45594000000E+02  0.51100000000E-03 0. -1.
         11   -1    0    0    0    0 -0.00000000000E+00 -0.00000000000E+00 -0.45593999997E+02  0.45594000000E+02  0.51100000000E-03 0.  1.
    9900012    2    1    2    0    0 -0.13304697126E+02  0.13173243720E+02  0.35946812976E+00  0.72461587288E+02  0.70000022137E+02 0.  0.
        -12    1    1    2    0    0  0.13304697126E+02 -0.13173243720E+02 -0.35946812976E+00  0.18726412712E+02  0.00000000000E+00 0.  1.
         11    1    3    3    0    0 -0.86341099352E+01  0.40979205069E+01 -0.12330533158E+02  0.15600732517E+02  0.51100000000E-03 0. -1.
        -11    1    3    3    0    0 -0.10697518446E+02  0.13938667508E+02 -0.18032519554E+02  0.25177273771E+02  0.51100000000E-03 0.  1.
         12    1    3    3    0    0  0.60269312548E+01 -0.48633442945E+01  0.30722520842E+02  0.31683581000E+02  0.00000000000E+00 0. -1.
</event>
<event>
 7    1  0.3611369E-013  0.7246159E+02  0.7816164E-02  0.1226708E+00
        -11   -1    0    0    0    0  0.00000000000E+00  0.00000000000E+00  0.45593999997E+02  0.45594000000E+02  0.51100000000E-03 0.  1.
         11   -1    0    0    0    0 -0.00000000000E+00 -0.00000000000E+00 -0.45593999997E+02  0.45594000000E+02  0.51100000000E-03 0. -1.
    9900012    2    1    2    0    0 -0.41664086612E+01 -0.17929992147E+02 -0.34401928284E+01  0.72461588004E+02  0.70000023071E+02 0.  0.
        -12    1    1    2    0    0  0.41664086612E+01  0.17929992147E+02  0.34401928284E+01  0.18726411996E+02  0.00000000000E+00 0.  1.
         11    1    3    3    0    0  0.10501923572E+02 -0.42105026833E+01  0.16342142315E+02  0.19876728787E+02  0.51100000000E-03 0. -1.
        -11    1    3    3    0    0  0.10940397285E+01  0.43858675899E+01  0.11961016248E+02  0.12786659743E+02  0.51100000000E-03 0.  1.
         12    1    3    3    0    0 -0.15762371961E+02 -0.18105357054E+02 -0.31743351391E+02  0.39798199475E+02  0.00000000000E+00 0. -1.
</event>
<event>
 7    1  0.3611369E-013  0.7246157E+02  0.7816164E-02  0.1226708E+00
        -11   -1    0    0    0    0  0.00000000000E+00  0.00000000000E+00  0.45593999997E+02  0.45594000000E+02  0.51100000000E-03 0.  1.
         11   -1    0    0    0    0 -0.00000000000E+00 -0.00000000000E+00 -0.45593999997E+02  0.45594000000E+02  0.51100000000E-03 0. -1.
    9900012    2    1    2    0    0 -0.71027486420E+01 -0.10094329581E+02 -0.14083136676E+02  0.72461567702E+02  0.69999996624E+02 0.  0.
        -12    1    1    2    0    0  0.71027486420E+01  0.10094329581E+02  0.14083136676E+02  0.18726432298E+02  0.00000000000E+00 0.  1.
         11    1    3    3    0    0 -0.17849681953E+02  0.46073149180E+01  0.14705216124E+02  0.23581388384E+02  0.51100000000E-03 0. -1.
        -11    1    3    3    0    0 -0.63897286567E+01 -0.92818610649E+01  0.36079454412E+01  0.11832110873E+02  0.51100000000E-03 0.  1.
         12    1    3    3    0    0  0.17136661968E+02 -0.54197834340E+01 -0.32396298241E+02  0.37048068446E+02  0.00000000000E+00 0. -1.
</event>
<event>
 7    1  0.3611369E-013  0.7246158E+02  0.7816164E-02  0.1226708E+00
        -11   -1    0    0    0    0  0.00000000000E+00  0.00000000000E+00  0.45593999997E+02  0.45594000000E+02  0.51100000000E-03 0. -1.
         11   -1    0    0    0    0 -0.00000000000E+00 -0.00000000000E+00 -0.45593999997E+02  0.45594000000E+02  0.51100000000E-03 0.  1.
    9900012    2    1    2    0    0 -0.17204067710E+02  0.56671312735E+01  0.47520857804E+01  0.72461584381E+02  0.70000018351E+02 0.  0.
        -12    1    1    2    0    0  0.17204067710E+02 -0.56671312735E+01 -0.47520857804E+01  0.18726415619E+02  0.00000000000E+00 0.  1.
         11    1    3    3    0    0  0.12825612565E+02  0.91514049793E+01  0.85446611162E+01  0.17923609698E+02  0.51100000000E-03 0. -1.
        -11    1    3    3    0    0 -0.61073117639E+01 -0.22614990027E+02 -0.47064189083E+01  0.23893250304E+02  0.51100000000E-03 0.  1.
        -12    1    3    3    0    0 -0.23922368512E+02  0.19130716321E+02  0.91384357241E+00  0.30644724379E+02  0.00000000000E+00 0.  1.
</event>
<event>
 7    1  0.3611369E-013  0.7246155E+02  0.7816164E-02  0.1226708E+00
        -11   -1    0    0    0    0  0.00000000000E+00  0.00000000000E+00  0.45593999997E+02  0.45594000000E+02  0.51100000000E-03 0. -1.
         11   -1    0    0    0    0 -0.00000000000E+00 -0.00000000000E+00 -0.45593999997E+02  0.45594000000E+02  0.51100000000E-03 0.  1.
    9900012    2    1    2    0    0 -0.11795701508E+02  0.14338029426E+02  0.24417392594E+01  0.72461554729E+02  0.69999979724E+02 0.  0.
        -12    1    1    2    0    0  0.11795701508E+02 -0.14338029426E+02 -0.24417392594E+01  0.18726445271E+02  0.00000000000E+00 0.  1.
         11    1    3    3    0    0  0.16864738900E+02  0.71847250241E+01  0.26397368169E+01  0.18520472526E+02  0.51100000000E-03 0. -1.
        -11    1    3    3    0    0  0.13924432638E+01 -0.12229668537E+02  0.10958294944E+02  0.16479924730E+02  0.51100000000E-03 0.  1.
         12    1    3    3    0    0 -0.30052883672E+02  0.19382972938E+02 -0.11156292501E+02  0.37461157474E+02  0.00000000000E+00 0. -1.
</event>
<event>
 7    1  0.3611369E-013  0.7246156E+02  0.7816164E-02  0.1226708E+00
        -11   -1    0    0    0    0  0.00000000000E+00  0.00000000000E+00  0.45593999997E+02  0.45594000000E+02  0.51100000000E-03 0.  1.
         11   -1    0    0    0    0 -0.00000000000E+00 -0.00000000000E+00 -0.45593999997E+02  0.45594000000E+02  0.51100000000E-03 0. -1.
    9900012    2    1    2    0    0 -0.12679160461E+02  0.69061732743E+01 -0.11925733244E+02  0.72461562733E+02  0.69999990150E+02 0.  0.
        -12    1    1    2    0    0  0.12679160461E+02 -0.69061732743E+01  0.11925733244E+02  0.18726437267E+02  0.00000000000E+00 0.  1.
         11    1    3    3    0    0  0.21261888033E+02 -0.17082159354E+02 -0.84106804345E+01  0.28541331373E+02  0.51100000000E-03 0.  1.
        -11    1    3    3    0    0 -0.16813135478E+02  0.16498519727E+02 -0.76641664170E+01  0.24771397315E+02  0.51100000000E-03 0. -1.
        -12    1    3    3    0    0 -0.17127913017E+02  0.74898129007E+01  0.41491136077E+01  0.19148834046E+02  0.00000000000E+00 0.  1.
</event>
<event>
 7    1  0.3611369E-013  0.7246156E+02  0.7816164E-02  0.1226708E+00
        -11   -1    0    0    0    0  0.00000000000E+00  0.00000000000E+00  0.45593999997E+02  0.45594000000E+02  0.51100000000E-03 0. -1.
         11   -1    0    0    0    0 -0.00000000000E+00 -0.00000000000E+00 -0.45593999997E+02  0.45594000000E+02  0.51100000000E-03 0.  1.
    9900012    2    1    2    0    0 -0.14179932870E+01 -0.15908583554E+02  0.97768040181E+01  0.72461557934E+02  0.69999983898E+02 0.  0.
        -12    1    1    2    0    0  0.14179932870E+01  0.15908583554E+02 -0.97768040181E+01  0.18726442066E+02  0.00000000000E+00 0.  1.
         11    1    3    3    0    0 -0.52549320185E+01  0.46371563257E+01  0.10442270754E+02  0.12576110213E+02  0.51100000000E-03 0. -1.
        -11    1    3    3    0    0  0.14315485654E+02  0.11496108254E+02  0.14032913525E+02  0.23108792629E+02  0.51100000000E-03 0.  1.
        -12    1    3    3    0    0 -0.10478546922E+02 -0.32041848134E+02 -0.14698380262E+02  0.36776655092E+02  0.00000000000E+00 0.  1.
</event>
<event>
 7    1  0.3611369E-013  0.7246151E+02  0.7816164E-02  0.1226708E+00
        -11   -1    0    0    0    0  0.00000000000E+00  0.00000000000E+00  0.45593999997E+02  0.45594000000E+02  0.51100000000E-03 0. -1.
         11   -1    0    0    0    0 -0.00000000000E+00 -0.00000000000E+00 -0.45593999997E+02  0.45594000000E+02  0.51100000000E-03 0.  1.
    9900012    2    1    2    0    0 -0.91398032791E+01  0.11651838392E+02  0.11462109559E+02  0.72461513479E+02  0.69999925988E+02 0.  0.
        -12    1    1    2    0    0  0.91398032791E+01 -0.11651838392E+02 -0.11462109559E+02  0.18726486521E+02  0.00000000000E+00 0.  1.
         11    1    3    3    0    0 -0.73793949898E+01 -0.13202947035E+02 -0.39017633831E+01  0.15620404559E+02  0.51100000000E-03 0. -1.
        -11    1    3    3    0    0 -0.16772550805E+02 -0.80047675844E+01  0.46075813434E+01  0.19147442928E+02  0.51100000000E-03 0.  1.
        -12    1    3    3    0    0  0.15012142516E+02  0.32859553011E+02  0.10756291598E+02  0.37693665992E+02  0.00000000000E+00 0.  1.
</event>
<event>
 7    1  0.3611369E-013  0.7246160E+02  0.7816164E-02  0.1226708E+00
        -11   -1    0    0    0    0  0.00000000000E+00  0.00000000000E+00  0.45593999997E+02  0.45594000000E+02  0.51100000000E-03 0.  1.
         11   -1    0    0    0    0 -0.00000000000E+00 -0.00000000000E+00 -0.45593999997E+02  0.45594000000E+02  0.51100000000E-03 0. -1.
    9900012    2    1    2    0    0 -0.64041589171E+01  0.28579461292E+00 -0.17594969199E+02  0.72461604962E+02  0.70000045161E+02 0.  0.
        -12    1    1    2    0    0  0.64041589171E+01 -0.28579461292E+00  0.17594969199E+02  0.18726395038E+02  0.00000000000E+00 0.  1.
         11    1    3    3    0    0  0.10670366639E+02  0.14994495848E+02 -0.35318602633E+02  0.39825812260E+02  0.51100000000E-03 0. -1.
        -11    1    3    3    0    0 -0.52935662666E+00 -0.26906331967E+01 -0.26186018487E+01  0.37916752683E+01  0.51100000000E-03 0.  1.
        -12    1    3    3    0    0 -0.16545168930E+02 -0.12018068038E+02  0.20342235282E+02  0.28844117434E+02  0.00000000000E+00 0.  1.
</event>
<event>
 7    1  0.3611369E-013  0.7246166E+02  0.7816164E-02  0.1226708E+00
        -11   -1    0    0    0    0  0.00000000000E+00  0.00000000000E+00  0.45593999997E+02  0.45594000000E+02  0.51100000000E-03 0. -1.
         11   -1    0    0    0    0 -0.00000000000E+00 -0.00000000000E+00 -0.45593999997E+02  0.45594000000E+02  0.51100000000E-03 0.  1.
    9900012    2    1    2    0    0 -0.25319460041E+01 -0.61067567928E+01  0.17520635386E+02  0.72461657767E+02  0.70000113949E+02 0.  0.
        -12    1    1    2    0    0  0.25319460041E+01  0.61067567928E+01 -0.17520635386E+02  0.18726342233E+02  0.00000000000E+00 0.  1.
         11    1    3    3    0    0  0.13421910269E+02  0.98565707686E+01  0.21394916583E+02  0.27111660193E+02  0.51100000000E-03 0. -1.
        -11    1    3    3    0    0 -0.72747018672E+01 -0.14981135451E+02  0.16338762529E+02  0.23330470803E+02  0.51100000000E-03 0.  1.
         12    1    3    3    0    0 -0.86791544058E+01 -0.98219211014E+00 -0.20213043725E+02  0.22019526770E+02  0.00000000000E+00 0. -1.
</event>
<event>
 7    1  0.3611369E-013  0.7246159E+02  0.7816164E-02  0.1226708E+00
        -11   -1    0    0    0    0  0.00000000000E+00  0.00000000000E+00  0.45593999997E+02  0.45594000000E+02  0.51100000000E-03 0. -1.
         11   -1    0    0    0    0 -0.00000000000E+00 -0.00000000000E+00 -0.45593999997E+02  0.45594000000E+02  0.51100000000E-03 0.  1.
    9900012    2    1    2    0    0  0.16982906760E+02  0.48964141159E+01  0.61874507502E+01  0.72461587103E+02  0.70000021896E+02 0.  0.
        -12    1    1    2    0    0 -0.16982906760E+02 -0.48964141159E+01 -0.61874507502E+01  0.18726412897E+02  0.00000000000E+00 0.  1.
         11    1    3    3    0    0 -0.17452363501E+01  0.18316262565E+02  0.16423190821E+01  0.18472372248E+02  0.51100000000E-03 0. -1.
        -11    1    3    3    0    0 -0.13624025122E+02  0.26402038255E+01  0.10474379332E+02  0.17386700648E+02  0.51100000000E-03 0.  1.
        -12    1    3    3    0    0  0.32352168232E+02 -0.16060052274E+02 -0.59292476635E+01  0.36602514207E+02  0.00000000000E+00 0.  1.
</event>
<event>
 7    1  0.3611369E-013  0.7246158E+02  0.7816164E-02  0.1226708E+00
        -11   -1    0    0    0    0  0.00000000000E+00  0.00000000000E+00  0.45593999997E+02  0.45594000000E+02  0.51100000000E-03 0.  1.
         11   -1    0    0    0    0 -0.00000000000E+00 -0.00000000000E+00 -0.45593999997E+02  0.45594000000E+02  0.51100000000E-03 0. -1.
    9900012    2    1    2    0    0 -0.10287298338E+02 -0.13476252876E+02  0.79524263458E+01  0.72461575262E+02  0.70000006472E+02 0.  0.
        -12    1    1    2    0    0  0.10287298338E+02  0.13476252876E+02 -0.79524263458E+01  0.18726424738E+02  0.00000000000E+00 0.  1.
         11    1    3    3    0    0 -0.21576246194E+02  0.11478840043E+02 -0.10875067793E+02  0.26750051744E+02  0.51100000000E-03 0. -1.
        -11    1    3    3    0    0  0.50307659340E+01 -0.55036619338E+01 -0.86813952646E+01  0.11444016977E+02  0.51100000000E-03 0.  1.
        -12    1    3    3    0    0  0.62581819220E+01 -0.19451430985E+02  0.27508889403E+02  0.34267506541E+02  0.00000000000E+00 0.  1.
</event>
<event>
 7    1  0.3611369E-013  0.7246160E+02  0.7816164E-02  0.1226708E+00
        -11   -1    0    0    0    0  0.00000000000E+00  0.00000000000E+00  0.45593999997E+02  0.45594000000E+02  0.51100000000E-03 0. -1.
         11   -1    0    0    0    0 -0.00000000000E+00 -0.00000000000E+00 -0.45593999997E+02  0.45594000000E+02  0.51100000000E-03 0.  1.
    9900012    2    1    2    0    0  0.25775981625E+01  0.54832383654E+01  0.17719141782E+02  0.72461604171E+02  0.70000044131E+02 0.  0.
        -12    1    1    2    0    0 -0.25775981625E+01 -0.54832383654E+01 -0.17719141782E+02  0.18726395829E+02  0.00000000000E+00 0.  1.
         11    1    3    3    0    0  0.66117554993E+01 -0.56571801388E+01  0.81482202543E+01  0.11921094391E+02  0.51100000000E-03 0. -1.
        -11    1    3    3    0    0  0.27296620074E+02  0.34729996720E+01  0.39387308290E+01  0.27797136453E+02  0.51100000000E-03 0.  1.
         12    1    3    3    0    0 -0.31330777411E+02  0.76674188322E+01  0.56321906986E+01  0.32743373327E+02  0.00000000000E+00 0. -1.
</event>
<event>
 7    1  0.3611369E-013  0.7246150E+02  0.7816164E-02  0.1226708E+00
        -11   -1    0    0    0    0  0.00000000000E+00  0.00000000000E+00  0.45593999997E+02  0.45594000000E+02  0.51100000000E-03 0.  1.
         11   -1    0    0    0    0 -0.00000000000E+00 -0.00000000000E+00 -0.45593999997E+02  0.45594000000E+02  0.51100000000E-03 0. -1.
    9900012    2    1    2    0    0  0.63650578311E+01 -0.17597142865E+02  0.71304510875E+00  0.72461499218E+02  0.69999907409E+02 0.  0.
        -12    1    1    2    0    0 -0.63650578311E+01  0.17597142865E+02 -0.71304510875E+00  0.18726500782E+02  0.00000000000E+00 0.  1.
         11    1    3    3    0    0 -0.82493539408E+01  0.11175655855E+02  0.18047081573E+02  0.22773762926E+02  0.51100000000E-03 0. -1.
        -11    1    3    3    0    0  0.83183110130E+01  0.31232306147E+01  0.50457983581E+01  0.10218069725E+02  0.51100000000E-03 0.  1.
        -12    1    3    3    0    0  0.62961007589E+01 -0.31896029336E+02 -0.22379834823E+02  0.39469666566E+02  0.00000000000E+00 0.  1.
</event>
<event>
 7    1  0.3611369E-013  0.7246192E+02  0.7816164E-02  0.1226707E+00
        -11   -1    0    0    0    0  0.00000000000E+00  0.00000000000E+00  0.45593999997E+02  0.45594000000E+02  0.51100000000E-03 0.  1.
         11   -1    0    0    0    0 -0.00000000000E+00 -0.00000000000E+00 -0.45593999997E+02  0.45594000000E+02  0.51100000000E-03 0. -1.
    9900012    2    1    2    0    0 -0.14503655265E+02 -0.11754565301E+02 -0.14629585063E+01  0.72461920083E+02  0.70000455663E+02 0.  0.
        -12    1    1    2    0    0  0.14503655265E+02  0.11754565301E+02  0.14629585063E+01  0.18726079917E+02  0.00000000000E+00 0.  1.
         11    1    3    3    0    0  0.16874840519E+02  0.24099187883E+01  0.15218155142E+02  0.22850824871E+02  0.51100000000E-03 0. -1.
        -11    1    3    3    0    0  0.33269084823E+01 -0.50194679979E+01  0.48725967540E+01  0.77463267695E+01  0.51100000000E-03 0.  1.
         12    1    3    3    0    0 -0.34705404267E+02 -0.91450160916E+01 -0.21553710402E+02  0.41864768442E+02  0.00000000000E+00 0. -1.
</event>
<event>
 7    1  0.3611369E-013  0.7246164E+02  0.7816164E-02  0.1226708E+00
        -11   -1    0    0    0    0  0.00000000000E+00  0.00000000000E+00  0.45593999997E+02  0.45594000000E+02  0.51100000000E-03 0. -1.
         11   -1    0    0    0    0 -0.00000000000E+00 -0.00000000000E+00 -0.45593999997E+02  0.45594000000E+02  0.51100000000E-03 0.  1.
    9900012    2    1    2    0    0 -0.58081322151E+01  0.59188761162E+01  0.16790146457E+02  0.72461641242E+02  0.70000092422E+02 0.  0.
        -12    1    1    2    0    0  0.58081322151E+01 -0.59188761162E+01 -0.16790146457E+02  0.18726358758E+02  0.00000000000E+00 0.  1.
         11    1    3    3    0    0 -0.62796884103E+01  0.11280321564E+02 -0.11767223351E+02  0.17468476945E+02  0.51100000000E-03 0. -1.
        -11    1    3    3    0    0 -0.18701554483E+02  0.94460517700E+01  0.57632917750E+01  0.21729969316E+02  0.51100000000E-03 0.  1.
         12    1    3    3    0    0  0.19173110678E+02 -0.14807497218E+02  0.22794078033E+02  0.33263194981E+02  0.00000000000E+00 0. -1.
</event>
<event>
 7    1  0.4014257E-013  0.7246156E+02  0.7816164E-02  0.1226708E+00
        -11   -1    0    0    0    0  0.00000000000E+00  0.00000000000E+00  0.45593999997E+02  0.45594000000E+02  0.51100000000E-03 0.  1.
         11   -1    0    0    0    0 -0.00000000000E+00 -0.00000000000E+00 -0.45593999997E+02  0.45594000000E+02  0.51100000000E-03 0. -1.
    9900012    2    1    2    0    0 -0.14281520730E+02  0.11606198485E+02 -0.34660868545E+01  0.72461563187E+02  0.69999990741E+02 0.  0.
        -12    1    1    2    0    0  0.14281520730E+02 -0.11606198485E+02  0.34660868545E+01  0.18726436813E+02  0.00000000000E+00 0.  1.
         11    1    3    3    0    0 -0.85973049556E+01  0.29711435993E+02 -0.71588018421E+01  0.31747937339E+02  0.51100000000E-03 0. -1.
        -11    1    3    3    0    0 -0.13609256856E+02  0.16298177078E+01  0.11668260405E+02  0.18000457746E+02  0.51100000000E-03 0.  1.
        -12    1    3    3    0    0  0.79250410809E+01 -0.19735055216E+02 -0.79755454173E+01  0.22713168102E+02  0.00000000000E+00 0.  1.
</event>
<event>
 7    1  0.3611369E-013  0.7246157E+02  0.7816164E-02  0.1226708E+00
        -11   -1    0    0    0    0  0.00000000000E+00  0.00000000000E+00  0.45593999997E+02  0.45594000000E+02  0.51100000000E-03 0.  1.
         11   -1    0    0    0    0 -0.00000000000E+00 -0.00000000000E+00 -0.45593999997E+02  0.45594000000E+02  0.51100000000E-03 0. -1.
    9900012    2    1    2    0    0 -0.23803277193E+01  0.73615075437E+01 -0.17053483351E+02  0.72461573545E+02  0.70000004235E+02 0.  0.
        -12    1    1    2    0    0  0.23803277193E+01 -0.73615075437E+01  0.17053483351E+02  0.18726426455E+02  0.00000000000E+00 0.  1.
         11    1    3    3    0    0 -0.15828021262E+02  0.19239039654E+02  0.11639963451E+02  0.27498284551E+02  0.51100000000E-03 0. -1.
        -11    1    3    3    0    0  0.21822522780E+01  0.65955252983E+01 -0.20803034792E+02  0.21932383267E+02  0.51100000000E-03 0.  1.
        -12    1    3    3    0    0  0.11265441265E+02 -0.18473057408E+02 -0.78904120095E+01  0.23030905726E+02  0.00000000000E+00 0.  1.
</event>
<event>
 7    1  0.3611369E-013  0.7246159E+02  0.7816164E-02  0.1226708E+00
        -11   -1    0    0    0    0  0.00000000000E+00  0.00000000000E+00  0.45593999997E+02  0.45594000000E+02  0.51100000000E-03 0.  1.
         11   -1    0    0    0    0 -0.00000000000E+00 -0.00000000000E+00 -0.45593999997E+02  0.45594000000E+02  0.51100000000E-03 0. -1.
    9900012    2    1    2    0    0 -0.32624297862E+01 -0.16990182229E+02 -0.71672074398E+01  0.72461585427E+02  0.70000019713E+02 0.  0.
        -12    1    1    2    0    0  0.32624297862E+01  0.16990182229E+02  0.71672074398E+01  0.18726414573E+02  0.00000000000E+00 0.  1.
         11    1    3    3    0    0  0.14318029239E+02  0.89015412224E+01 -0.15935547655E+02  0.23198816279E+02  0.51100000000E-03 0. -1.
        -11    1    3    3    0    0 -0.21071319305E+02  0.11363549446E+01  0.55589489176E+01  0.21821863191E+02  0.51100000000E-03 0.  1.
        -12    1    3    3    0    0  0.34908602790E+01 -0.27028078396E+02  0.32093912974E+01  0.27440905957E+02  0.00000000000E+00 0.  1.
</event>
<event>
 7    1  0.3611369E-013  0.7246205E+02  0.7816164E-02  0.1226707E+00
        -11   -1    0    0    0    0  0.00000000000E+00  0.00000000000E+00  0.45593999997E+02  0.45594000000E+02  0.51100000000E-03 0.  1.
         11   -1    0    0    0    0 -0.00000000000E+00 -0.00000000000E+00 -0.45593999997E+02  0.45594000000E+02  0.51100000000E-03 0. -1.
    9900012    2    1    2    0    0  0.74794006571E+01 -0.13104056288E+02 -0.11090698716E+02  0.72462046796E+02  0.70000620729E+02 0.  0.
        -12    1    1    2    0    0 -0.74794006571E+01  0.13104056288E+02  0.11090698716E+02  0.18725953204E+02  0.00000000000E+00 0.  1.
         11    1    3    3    0    0 -0.12367731592E+02 -0.72860260651E+00 -0.22672546571E+02  0.25836718343E+02  0.51100000000E-03 0. -1.
        -11    1    3    3    0    0  0.15150984828E+01  0.12831494272E+02  0.81323134726E+01  0.15266869074E+02  0.51100000000E-03 0.  1.
         12    1    3    3    0    0  0.18332033766E+02 -0.25206947953E+02  0.34495343822E+01  0.31358459378E+02  0.00000000000E+00 0. -1.
</event>
<event>
 7    1  0.3611369E-013  0.7246157E+02  0.7816164E-02  0.1226708E+00
        -11   -1    0    0    0    0  0.00000000000E+00  0.00000000000E+00  0.45593999997E+02  0.45594000000E+02  0.51100000000E-03 0.  1.
         11   -1    0    0    0    0 -0.00000000000E+00 -0.00000000000E+00 -0.45593999997E+02  0.45594000000E+02  0.51100000000E-03 0. -1.
    9900012    2    1    2    0    0  0.12405623349E+02  0.97723853278E+01 -0.10063801961E+02  0.72461571735E+02  0.70000001876E+02 0.  0.
        -12    1    1    2    0    0 -0.12405623349E+02 -0.97723853278E+01  0.10063801961E+02  0.18726428265E+02  0.00000000000E+00 0.  1.
         11    1    3    3    0    0 -0.45164987852E+01  0.17965553006E+01 -0.24922540442E+02  0.25392112842E+02  0.51100000000E-03 0. -1.
        -11    1    3    3    0    0 -0.34577462571E+01 -0.13381499956E+02 -0.42368668246E+00  0.13827511017E+02  0.51100000000E-03 0.  1.
        -12    1    3    3    0    0  0.20379868391E+02  0.21357329984E+02  0.15282425164E+02  0.33241947876E+02  0.00000000000E+00 0.  1.
</event>
<event>
 7    1  0.3611369E-013  0.7246154E+02  0.7816164E-02  0.1226708E+00
        -11   -1    0    0    0    0  0.00000000000E+00  0.00000000000E+00  0.45593999997E+02  0.45594000000E+02  0.51100000000E-03 0.  1.
         11   -1    0    0    0    0 -0.00000000000E+00 -0.00000000000E+00 -0.45593999997E+02  0.45594000000E+02  0.51100000000E-03 0. -1.
    9900012    2    1    2    0    0  0.16594573130E+02  0.25204111937E+01  0.83034882988E+01  0.72461541502E+02  0.69999962493E+02 0.  0.
        -12    1    1    2    0    0 -0.16594573130E+02 -0.25204111937E+01 -0.83034882988E+01  0.18726458498E+02  0.00000000000E+00 0.  1.
         11    1    3    3    0    0  0.16883022760E+02 -0.18508731053E+02  0.36056311212E+01  0.25310277730E+02  0.51100000000E-03 0. -1.
        -11    1    3    3    0    0  0.18642535034E+02  0.16625284693E+02 -0.49302602372E+01  0.25460786906E+02  0.51100000000E-03 0.  1.
         12    1    3    3    0    0 -0.18930984665E+02  0.44038575534E+01  0.96281174149E+01  0.21690476866E+02  0.00000000000E+00 0. -1.
</event>
<event>
 7    1  0.3611369E-013  0.7246156E+02  0.7816164E-02  0.1226708E+00
        -11   -1    0    0    0    0  0.00000000000E+00  0.00000000000E+00  0.45593999997E+02  0.45594000000E+02  0.51100000000E-03 0. -1.
         11   -1    0    0    0    0 -0.00000000000E+00 -0.00000000000E+00 -0.45593999997E+02  0.45594000000E+02  0.51100000000E-03 0.  1.
    9900012    2    1    2    0    0  0.13512606279E+02  0.12370518994E+02 -0.38806339504E+01  0.72461559108E+02  0.69999985427E+02 0.  0.
        -12    1    1    2    0    0 -0.13512606279E+02 -0.12370518994E+02  0.38806339504E+01  0.18726440892E+02  0.00000000000E+00 0.  1.
         11    1    3    3    0    0  0.36314252176E+01  0.12340585536E+02 -0.26723589618E+02  0.29658515519E+02  0.51100000000E-03 0.  1.
        -11    1    3    3    0    0 -0.57712986347E+01  0.13869137486E+02  0.69483546883E+01  0.16551147865E+02  0.51100000000E-03 0. -1.
         12    1    3    3    0    0  0.15652479696E+02 -0.13839204028E+02  0.15894600979E+02  0.26251895723E+02  0.00000000000E+00 0. -1.
</event>
<event>
 7    1  0.3611369E-013  0.7246154E+02  0.7816164E-02  0.1226708E+00
        -11   -1    0    0    0    0  0.00000000000E+00  0.00000000000E+00  0.45593999997E+02  0.45594000000E+02  0.51100000000E-03 0. -1.
         11   -1    0    0    0    0 -0.00000000000E+00 -0.00000000000E+00 -0.45593999997E+02  0.45594000000E+02  0.51100000000E-03 0.  1.
    9900012    2    1    2    0    0 -0.11578825597E+01 -0.10271923607E+01  0.18662385584E+02  0.72461536056E+02  0.69999955398E+02 0.  0.
        -12    1    1    2    0    0  0.11578825597E+01  0.10271923607E+01 -0.18662385584E+02  0.18726463944E+02  0.00000000000E+00 0.  1.
         11    1    3    3    0    0  0.16706555835E+02  0.12041977301E+02 -0.50276139800E+01  0.21198941667E+02  0.51100000000E-03 0. -1.
        -11    1    3    3    0    0 -0.95645845699E+01 -0.26260835279E+02  0.78256609258E+01  0.29023330559E+02  0.51100000000E-03 0.  1.
         12    1    3    3    0    0 -0.82998538252E+01  0.13191665618E+02  0.15864338638E+02  0.22239263830E+02  0.00000000000E+00 0. -1.
</event>
<event>
 7    1  0.3611369E-013  0.7246154E+02  0.7816164E-02  0.1226708E+00
        -11   -1    0    0    0    0  0.00000000000E+00  0.00000000000E+00  0.45593999997E+02  0.45594000000E+02  0.51100000000E-03 0.  1.
         11   -1    0    0    0    0 -0.00000000000E+00 -0.00000000000E+00 -0.45593999997E+02  0.45594000000E+02  0.51100000000E-03 0. -1.
    9900012    2    1    2    0    0 -0.18007806935E+02  0.49861655971E+01 -0.12398725895E+01  0.72461541659E+02  0.69999962697E+02 0.  0.
        -12    1    1    2    0    0  0.18007806935E+02 -0.49861655971E+01  0.12398725895E+01  0.18726458341E+02  0.00000000000E+00 0.  1.
         11    1    3    3    0    0  0.14610361156E+02  0.99074518469E+00 -0.77702835346E+01  0.16577742174E+02  0.51100000000E-03 0. -1.
        -11    1    3    3    0    0 -0.23876692142E+02 -0.18618060505E+02 -0.15806043892E+01  0.30318755171E+02  0.51100000000E-03 0.  1.
         12    1    3    3    0    0 -0.87414759491E+01  0.22613480918E+02  0.81110153343E+01  0.25565044313E+02  0.00000000000E+00 0. -1.
</event>
<event>
 7    1  0.3611369E-013  0.7246224E+02  0.7816164E-02  0.1226706E+00
        -11   -1    0    0    0    0  0.00000000000E+00  0.00000000000E+00  0.45593999997E+02  0.45594000000E+02  0.51100000000E-03 0. -1.
         11   -1    0    0    0    0 -0.00000000000E+00 -0.00000000000E+00 -0.45593999997E+02  0.45594000000E+02  0.51100000000E-03 0.  1.
    9900012    2    1    2    0    0 -0.53087032341E+01  0.12908252254E+02  0.12483947882E+02  0.72462235369E+02  0.70000866378E+02 0.  0.
        -12    1    1    2    0    0  0.53087032341E+01 -0.12908252254E+02 -0.12483947882E+02  0.18725764631E+02  0.00000000000E+00 0.  1.
         11    1    3    3    0    0 -0.10108067582E+02  0.67716752157E+01 -0.86049978962E+01  0.14902167779E+02  0.51100000000E-03 0. -1.
        -11    1    3    3    0    0 -0.21418276587E+01  0.15977972817E+02 -0.13441717869E+02  0.20989588385E+02  0.51100000000E-03 0.  1.
         12    1    3    3    0    0  0.69411920062E+01 -0.98413957783E+01  0.34530663648E+02  0.36570479205E+02  0.00000000000E+00 0. -1.
</event>
<event>
 7    1  0.3611369E-013  0.7246194E+02  0.7816164E-02  0.1226707E+00
        -11   -1    0    0    0    0  0.00000000000E+00  0.00000000000E+00  0.45593999997E+02  0.45594000000E+02  0.51100000000E-03 0. -1.
         11   -1    0    0    0    0 -0.00000000000E+00 -0.00000000000E+00 -0.45593999997E+02  0.45594000000E+02  0.51100000000E-03 0.  1.
    9900012    2    1    2    0    0 -0.38817335500E+00 -0.11356017426E+02  0.14884738119E+02  0.72461942241E+02  0.70000484528E+02 0.  0.
        -12    1    1    2    0    0  0.38817335500E+00  0.11356017426E+02 -0.14884738119E+02  0.18726057759E+02  0.00000000000E+00 0.  1.
         11    1    3    3    0    0 -0.18138004050E+02  0.26942963025E+01  0.12794236936E+02  0.22359314000E+02  0.51100000000E-03 0. -1.
        -11    1    3    3    0    0  0.51961488807E+00 -0.27164282552E+02 -0.43425854519E+01  0.27514110832E+02  0.51100000000E-03 0.  1.
         12    1    3    3    0    0  0.17230215807E+02  0.13113968824E+02  0.64330866346E+01  0.22588517409E+02  0.00000000000E+00 0. -1.
</event>
<event>
 7    1  0.3611369E-013  0.7246150E+02  0.7816164E-02  0.1226708E+00
        -11   -1    0    0    0    0  0.00000000000E+00  0.00000000000E+00  0.45593999997E+02  0.45594000000E+02  0.51100000000E-03 0. -1.
         11   -1    0    0    0    0 -0.00000000000E+00 -0.00000000000E+00 -0.45593999997E+02  0.45594000000E+02  0.51100000000E-03 0.  1.
    9900012    2    1    2    0    0  0.77340142207E+01  0.15430042862E+02  0.72650186999E+01  0.72461502853E+02  0.69999912145E+02 0.  0.
        -12    1    1    2    0    0 -0.77340142207E+01 -0.15430042862E+02 -0.72650186999E+01  0.18726497147E+02  0.00000000000E+00 0.  1.
         11    1    3    3    0    0  0.21076619205E+02  0.36634013083E+01  0.93341244304E+01  0.23340314166E+02  0.51100000000E-03 0. -1.
        -11    1    3    3    0    0  0.15023249737E+02 -0.50883881207E+01  0.15034976465E+01  0.15932678110E+02  0.51100000000E-03 0.  1.
         12    1    3    3    0    0 -0.28365854721E+02  0.16855029675E+02 -0.35726033770E+01  0.33188510576E+02  0.00000000000E+00 0. -1.
</event>
<event>
 7    1  0.3611369E-013  0.7246171E+02  0.7816164E-02  0.1226708E+00
        -11   -1    0    0    0    0  0.00000000000E+00  0.00000000000E+00  0.45593999997E+02  0.45594000000E+02  0.51100000000E-03 0.  1.
         11   -1    0    0    0    0 -0.00000000000E+00 -0.00000000000E+00 -0.45593999997E+02  0.45594000000E+02  0.51100000000E-03 0. -1.
    9900012    2    1    2    0    0  0.80322436087E+01 -0.14818771212E+02  0.81584853717E+01  0.72461713630E+02  0.70000186722E+02 0.  0.
        -12    1    1    2    0    0 -0.80322436087E+01  0.14818771212E+02 -0.81584853717E+01  0.18726286370E+02  0.00000000000E+00 0.  1.
         11    1    3    3    0    0  0.10243268695E+02 -0.33866189515E+01 -0.48649184320E+01  0.11834744319E+02  0.51100000000E-03 0.  1.
        -11    1    3    3    0    0 -0.30087013812E+01 -0.19268524736E+02 -0.19252294677E+02  0.27403999345E+02  0.51100000000E-03 0. -1.
        -12    1    3    3    0    0  0.79767629512E+00  0.78363724751E+01  0.32275698480E+02  0.33222969967E+02  0.00000000000E+00 0.  1.
</event>
<event>
 7    1  0.3611369E-013  0.7246151E+02  0.7816164E-02  0.1226708E+00
        -11   -1    0    0    0    0  0.00000000000E+00  0.00000000000E+00  0.45593999997E+02  0.45594000000E+02  0.51100000000E-03 0.  1.
         11   -1    0    0    0    0 -0.00000000000E+00 -0.00000000000E+00 -0.45593999997E+02  0.45594000000E+02  0.51100000000E-03 0. -1.
    9900012    2    1    2    0    0  0.15635083156E+02  0.10157622611E+02  0.17458951690E+01  0.72461514149E+02  0.69999926860E+02 0.  0.
        -12    1    1    2    0    0 -0.15635083156E+02 -0.10157622611E+02 -0.17458951690E+01  0.18726485851E+02  0.00000000000E+00 0.  1.
         11    1    3    3    0    0  0.14270413307E+00 -0.84322529664E+01 -0.78439572559E+01  0.11517418124E+02  0.51100000000E-03 0. -1.
        -11    1    3    3    0    0  0.77598829839E+01  0.10110748154E+02  0.32724951649E+02  0.35119303422E+02  0.51100000000E-03 0.  1.
         12    1    3    3    0    0  0.77324960389E+01  0.84791274233E+01 -0.23135099224E+02  0.25824792602E+02  0.00000000000E+00 0. -1.
</event>
<event>
 7    1  0.3611369E-013  0.7246154E+02  0.7816164E-02  0.1226708E+00
        -11   -1    0    0    0    0  0.00000000000E+00  0.00000000000E+00  0.45593999997E+02  0.45594000000E+02  0.51100000000E-03 0.  1.
         11   -1    0    0    0    0 -0.00000000000E+00 -0.00000000000E+00 -0.45593999997E+02  0.45594000000E+02  0.51100000000E-03 0. -1.
    9900012    2    1    2    0    0 -0.13839416443E+02  0.95681809624E+01 -0.82219673099E+01  0.72461540621E+02  0.69999961345E+02 0.  0.
        -12    1    1    2    0    0  0.13839416443E+02 -0.95681809624E+01  0.82219673099E+01  0.18726459379E+02  0.00000000000E+00 0.  1.
         11    1    3    3    0    0 -0.17627732590E+02  0.11105464100E+02 -0.11498688712E+02  0.23796809271E+02  0.51100000000E-03 0. -1.
        -11    1    3    3    0    0 -0.12837932825E+02  0.17603473996E+02 -0.42906866970E+01  0.22205963355E+02  0.51100000000E-03 0.  1.
         12    1    3    3    0    0  0.16626248971E+02 -0.19140757133E+02  0.75674080994E+01  0.26458767995E+02  0.00000000000E+00 0. -1.
</event>
<event>
 7    1  0.3611369E-013  0.7246165E+02  0.7816164E-02  0.1226708E+00
        -11   -1    0    0    0    0  0.00000000000E+00  0.00000000000E+00  0.45593999997E+02  0.45594000000E+02  0.51100000000E-03 0. -1.
         11   -1    0    0    0    0 -0.00000000000E+00 -0.00000000000E+00 -0.45593999997E+02  0.45594000000E+02  0.51100000000E-03 0.  1.
    9900012    2    1    2    0    0 -0.92811520349E+01 -0.16075423425E+02  0.24733163977E+01  0.72461646501E+02  0.70000099273E+02 0.  0.
        -12    1    1    2    0    0  0.92811520349E+01  0.16075423425E+02 -0.24733163977E+01  0.18726353499E+02  0.00000000000E+00 0.  1.
         11    1    3    3    0    0  0.84393672280E+01  0.77990922663E+01  0.51773257337E+01  0.12603708240E+02  0.51100000000E-03 0. -1.
        -11    1    3    3    0    0 -0.11165192547E+02 -0.13126649667E+02  0.24458568108E+02  0.29919759529E+02  0.51100000000E-03 0.  1.
        -12    1    3    3    0    0 -0.65553267154E+01 -0.10747866024E+02 -0.27162577444E+02  0.29938178732E+02  0.00000000000E+00 0.  1.
</event>
<event>
 7    1  0.3611369E-013  0.7246154E+02  0.7816164E-02  0.1226708E+00
        -11   -1    0    0    0    0  0.00000000000E+00  0.00000000000E+00  0.45593999997E+02  0.45594000000E+02  0.51100000000E-03 0.  1.
         11   -1    0    0    0    0 -0.00000000000E+00 -0.00000000000E+00 -0.45593999997E+02  0.45594000000E+02  0.51100000000E-03 0. -1.
    9900012    2    1    2    0    0  0.33425190659E+01  0.18391346232E+02 -0.11252571612E+01  0.72461541349E+02  0.69999962294E+02 0.  0.
        -12    1    1    2    0    0 -0.33425190659E+01 -0.18391346232E+02  0.11252571612E+01  0.18726458651E+02  0.00000000000E+00 0.  1.
         11    1    3    3    0    0  0.23521328892E+01  0.12569079359E+02  0.57688543447E+01  0.14028327262E+02  0.51100000000E-03 0. -1.
        -11    1    3    3    0    0 -0.13692426399E+02  0.89572837429E+01  0.21079939819E+02  0.26684814704E+02  0.51100000000E-03 0.  1.
         12    1    3    3    0    0  0.14682812576E+02 -0.31350168697E+01 -0.27974051325E+02  0.31748399384E+02  0.00000000000E+00 0. -1.
</event>
<event>
 7    1  0.3611369E-013  0.7246159E+02  0.7816164E-02  0.1226708E+00
        -11   -1    0    0    0    0  0.00000000000E+00  0.00000000000E+00  0.45593999997E+02  0.45594000000E+02  0.51100000000E-03 0. -1.
         11   -1    0    0    0    0 -0.00000000000E+00 -0.00000000000E+00 -0.45593999997E+02  0.45594000000E+02  0.51100000000E-03 0.  1.
    9900012    2    1    2    0    0  0.42107626976E-01  0.12792661133E+00  0.18725930371E+02  0.72461585327E+02  0.70000019582E+02 0.  0.
        -12    1    1    2    0    0 -0.42107626976E-01 -0.12792661133E+00 -0.18725930371E+02  0.18726414673E+02  0.00000000000E+00 0.  1.
         11    1    3    3    0    0 -0.17915593662E+02 -0.25504233488E+02  0.96670392002E+01  0.32632592131E+02  0.51100000000E-03 0. -1.
        -11    1    3    3    0    0 -0.14727356715E+01  0.10886169516E+00 -0.46988681001E+01  0.49254606800E+01  0.51100000000E-03 0.  1.
        -12    1    3    3    0    0  0.19430436960E+02  0.25523298404E+02  0.13757759271E+02  0.34903532515E+02  0.00000000000E+00 0.  1.
</event>
<event>
 7    1  0.3611369E-013  0.7246162E+02  0.7816164E-02  0.1226708E+00
        -11   -1    0    0    0    0  0.00000000000E+00  0.00000000000E+00  0.45593999997E+02  0.45594000000E+02  0.51100000000E-03 0. -1.
         11   -1    0    0    0    0 -0.00000000000E+00 -0.00000000000E+00 -0.45593999997E+02  0.45594000000E+02  0.51100000000E-03 0.  1.
    9900012    2    1    2    0    0 -0.66331937706E-01  0.15585426034E+01  0.18661290894E+02  0.72461622005E+02  0.70000067363E+02 0.  0.
        -12    1    1    2    0    0  0.66331937706E-01 -0.15585426034E+01 -0.18661290894E+02  0.18726377995E+02  0.00000000000E+00 0.  1.
         11    1    3    3    0    0 -0.92536067463E+01  0.55680143861E+01  0.25145659067E+02  0.27366698599E+02  0.51100000000E-03 0. -1.
        -11    1    3    3    0    0 -0.16424247548E+02  0.50584820970E+01 -0.10183248082E+00  0.17185881379E+02  0.51100000000E-03 0.  1.
        -12    1    3    3    0    0  0.25611522357E+02 -0.90679538798E+01 -0.63825356919E+01  0.27909042027E+02  0.00000000000E+00 0.  1.
</event>
<event>
 7    1  0.3611369E-013  0.7246179E+02  0.7816164E-02  0.1226707E+00
        -11   -1    0    0    0    0  0.00000000000E+00  0.00000000000E+00  0.45593999997E+02  0.45594000000E+02  0.51100000000E-03 0.  1.
         11   -1    0    0    0    0 -0.00000000000E+00 -0.00000000000E+00 -0.45593999997E+02  0.45594000000E+02  0.51100000000E-03 0. -1.
    9900012    2    1    2    0    0  0.10480091752E+02  0.15100384637E+02 -0.35800993507E+01  0.72461787071E+02  0.70000282391E+02 0.  0.
        -12    1    1    2    0    0 -0.10480091752E+02 -0.15100384637E+02  0.35800993507E+01  0.18726212929E+02  0.00000000000E+00 0.  1.
         11    1    3    3    0    0 -0.85472874247E+01  0.24475854833E+02  0.40227975162E+01  0.26235595900E+02  0.51100000000E-03 0. -1.
        -11    1    3    3    0    0 -0.12606946538E+02 -0.49818789357E+01 -0.85074492430E+00  0.13582267334E+02  0.51100000000E-03 0.  1.
         12    1    3    3    0    0  0.31634325714E+02 -0.43935912603E+01 -0.67521519426E+01  0.32643923836E+02  0.00000000000E+00 0. -1.
</event>
<event>
 7    1  0.3611369E-013  0.7246157E+02  0.7816164E-02  0.1226708E+00
        -11   -1    0    0    0    0  0.00000000000E+00  0.00000000000E+00  0.45593999997E+02  0.45594000000E+02  0.51100000000E-03 0. -1.
         11   -1    0    0    0    0 -0.00000000000E+00 -0.00000000000E+00 -0.45593999997E+02  0.45594000000E+02  0.51100000000E-03 0.  1.
    9900012    2    1    2    0    0 -0.21774022342E+01 -0.16949259241E+02  0.76590383625E+01  0.72461565797E+02  0.69999994142E+02 0.  0.
        -12    1    1    2    0    0  0.21774022342E+01  0.16949259241E+02 -0.76590383625E+01  0.18726434203E+02  0.00000000000E+00 0.  1.
         11    1    3    3    0    0  0.20414031851E+02 -0.12186504762E+02 -0.10678564800E+02  0.26062911219E+02  0.51100000000E-03 0. -1.
        -11    1    3    3    0    0  0.94713552253E+01  0.12143519808E+01  0.71095959735E+01  0.11904939131E+02  0.51100000000E-03 0.  1.
         12    1    3    3    0    0 -0.32062789310E+02 -0.59771064594E+01  0.11228007189E+02  0.34493715448E+02  0.00000000000E+00 0. -1.
</event>
<event>
 7    1  0.3611369E-013  0.7246159E+02  0.7816164E-02  0.1226708E+00
        -11   -1    0    0    0    0  0.00000000000E+00  0.00000000000E+00  0.45593999997E+02  0.45594000000E+02  0.51100000000E-03 0. -1.
         11   -1    0    0    0    0 -0.00000000000E+00 -0.00000000000E+00 -0.45593999997E+02  0.45594000000E+02  0.51100000000E-03 0.  1.
    9900012    2    1    2    0    0  0.14790845829E+02  0.46248369482E+01  0.10512863143E+02  0.72461587407E+02  0.70000022293E+02 0.  0.
        -12    1    1    2    0    0 -0.14790845829E+02 -0.46248369482E+01 -0.10512863143E+02  0.18726412593E+02  0.00000000000E+00 0.  1.
         11    1    3    3    0    0  0.14453063060E+02 -0.15963006327E+02  0.13931344538E+02  0.25647435812E+02  0.51100000000E-03 0. -1.
        -11    1    3    3    0    0  0.80588333430E+00 -0.99436732697E+01 -0.11503472257E+02  0.15226817142E+02  0.51100000000E-03 0.  1.
         12    1    3    3    0    0 -0.46810056557E+00  0.30531516545E+02  0.80849908614E+01  0.31587334454E+02  0.00000000000E+00 0. -1.
</event>
<event>
 7    1  0.3611369E-013  0.7246159E+02  0.7816164E-02  0.1226708E+00
        -11   -1    0    0    0    0  0.00000000000E+00  0.00000000000E+00  0.45593999997E+02  0.45594000000E+02  0.51100000000E-03 0.  1.
         11   -1    0    0    0    0 -0.00000000000E+00 -0.00000000000E+00 -0.45593999997E+02  0.45594000000E+02  0.51100000000E-03 0. -1.
    9900012    2    1    2    0    0 -0.35203460758E+01 -0.16418050539E+02 -0.82905477074E+01  0.72461590807E+02  0.70000026721E+02 0.  0.
        -12    1    1    2    0    0  0.35203460758E+01  0.16418050539E+02  0.82905477074E+01  0.18726409193E+02  0.00000000000E+00 0.  1.
         11    1    3    3    0    0  0.93537549162E+01 -0.21612917783E+01 -0.36913695274E+01  0.10285432535E+02  0.51100000000E-03 0. -1.
        -11    1    3    3    0    0  0.14625834280E+02 -0.19934659450E+02  0.14078300036E+02  0.28451787429E+02  0.51100000000E-03 0.  1.
        -12    1    3    3    0    0 -0.27499935272E+02  0.56779006892E+01 -0.18677478216E+02  0.33724370842E+02  0.00000000000E+00 0.  1.
</event>
<event>
 7    1  0.3611369E-013  0.7246154E+02  0.7816164E-02  0.1226708E+00
        -11   -1    0    0    0    0  0.00000000000E+00  0.00000000000E+00  0.45593999997E+02  0.45594000000E+02  0.51100000000E-03 0. -1.
         11   -1    0    0    0    0 -0.00000000000E+00 -0.00000000000E+00 -0.45593999997E+02  0.45594000000E+02  0.51100000000E-03 0.  1.
    9900012    2    1    2    0    0 -0.12525288639E+02  0.13918819325E+02  0.25276543021E+00  0.72461540718E+02  0.69999961471E+02 0.  0.
        -12    1    1    2    0    0  0.12525288639E+02 -0.13918819325E+02 -0.25276543021E+00  0.18726459282E+02  0.00000000000E+00 0.  1.
         11    1    3    3    0    0  0.90890464344E+01 -0.83564776735E+01  0.30723745335E+01  0.12723245252E+02  0.51100000000E-03 0. -1.
        -11    1    3    3    0    0 -0.15807057123E+02 -0.75810878778E+01  0.16196106130E+02  0.23867337563E+02  0.51100000000E-03 0.  1.
         12    1    3    3    0    0 -0.58072779495E+01  0.29856384876E+02 -0.19015715234E+02  0.35870957903E+02  0.00000000000E+00 0. -1.
</event>
<event>
 7    1  0.3611369E-013  0.7246172E+02  0.7816164E-02  0.1226708E+00
        -11   -1    0    0    0    0  0.00000000000E+00  0.00000000000E+00  0.45593999997E+02  0.45594000000E+02  0.51100000000E-03 0.  1.
         11   -1    0    0    0    0 -0.00000000000E+00 -0.00000000000E+00 -0.45593999997E+02  0.45594000000E+02  0.51100000000E-03 0. -1.
    9900012    2    1    2    0    0 -0.16652229647E+02  0.18160358224E+00 -0.85641043906E+01  0.72461718573E+02  0.70000193160E+02 0.  0.
        -12    1    1    2    0    0  0.16652229647E+02 -0.18160358224E+00  0.85641043906E+01  0.18726281427E+02  0.00000000000E+00 0.  1.
         11    1    3    3    0    0 -0.83997587870E+01  0.33077263665E+01 -0.40914818389E+01  0.99114693812E+01  0.51100000000E-03 0. -1.
        -11    1    3    3    0    0 -0.22819896422E+02 -0.14180870987E+02 -0.23835937635E+02  0.35916524023E+02  0.51100000000E-03 0.  1.
        -12    1    3    3    0    0  0.14567425562E+02  0.11054748203E+02  0.19363315084E+02  0.26633725169E+02  0.00000000000E+00 0.  1.
</event>
<event>
 7    1  0.3611369E-013  0.7246157E+02  0.7816164E-02  0.1226708E+00
        -11   -1    0    0    0    0  0.00000000000E+00  0.00000000000E+00  0.45593999997E+02  0.45594000000E+02  0.51100000000E-03 0. -1.
         11   -1    0    0    0    0 -0.00000000000E+00 -0.00000000000E+00 -0.45593999997E+02  0.45594000000E+02  0.51100000000E-03 0.  1.
    9900012    2    1    2    0    0 -0.68725893879E+01 -0.10522654097E+02  0.13882385050E+02  0.72461565507E+02  0.69999993764E+02 0.  0.
        -12    1    1    2    0    0  0.68725893879E+01  0.10522654097E+02 -0.13882385050E+02  0.18726434493E+02  0.00000000000E+00 0.  1.
         11    1    3    3    0    0 -0.10842808748E+02  0.96965156034E+01  0.15497795890E+02  0.21254895768E+02  0.51100000000E-03 0. -1.
        -11    1    3    3    0    0 -0.72867859372E+01  0.76962540033E+01 -0.14917048338E+02  0.18298849864E+02  0.51100000000E-03 0.  1.
         12    1    3    3    0    0  0.11257005297E+02 -0.27915423704E+02  0.13301637497E+02  0.32907819875E+02  0.00000000000E+00 0. -1.
</event>
<event>
 7    1  0.3611369E-013  0.7246155E+02  0.7816164E-02  0.1226708E+00
        -11   -1    0    0    0    0  0.00000000000E+00  0.00000000000E+00  0.45593999997E+02  0.45594000000E+02  0.51100000000E-03 0. -1.
         11   -1    0    0    0    0 -0.00000000000E+00 -0.00000000000E+00 -0.45593999997E+02  0.45594000000E+02  0.51100000000E-03 0.  1.
    9900012    2    1    2    0    0 -0.89701224514E+01 -0.36055403981E+01  0.16037977925E+02  0.72461554681E+02  0.69999979661E+02 0.  0.
        -12    1    1    2    0    0  0.89701224514E+01  0.36055403981E+01 -0.16037977925E+02  0.18726445319E+02  0.00000000000E+00 0.  1.
         11    1    3    3    0    0 -0.20369779020E+02  0.12091008235E+02  0.11875079638E+02  0.26497884710E+02  0.51100000000E-03 0. -1.
        -11    1    3    3    0    0  0.18017875754E+02  0.38841060868E+01 -0.99405687840E+01  0.20941466873E+02  0.51100000000E-03 0.  1.
         12    1    3    3    0    0 -0.66182191854E+01 -0.19580654720E+02  0.14103467071E+02  0.25022203098E+02  0.00000000000E+00 0. -1.
</event>
<event>
 7    1  0.3611369E-013  0.7246158E+02  0.7816164E-02  0.1226708E+00
        -11   -1    0    0    0    0  0.00000000000E+00  0.00000000000E+00  0.45593999997E+02  0.45594000000E+02  0.51100000000E-03 0.  1.
         11   -1    0    0    0    0 -0.00000000000E+00 -0.00000000000E+00 -0.45593999997E+02  0.45594000000E+02  0.51100000000E-03 0. -1.
    9900012    2    1    2    0    0  0.45673285394E+01  0.17506947964E+02 -0.48296235376E+01  0.72461575341E+02  0.70000006574E+02 0.  0.
        -12    1    1    2    0    0 -0.45673285394E+01 -0.17506947964E+02  0.48296235376E+01  0.18726424659E+02  0.00000000000E+00 0.  1.
         11    1    3    3    0    0 -0.21842163505E+02  0.53229773277E+01 -0.67166983759E+01  0.23463338031E+02  0.51100000000E-03 0. -1.
        -11    1    3    3    0    0  0.71084263892E+01  0.49144664231E+01  0.19848904293E+02  0.21648572883E+02  0.51100000000E-03 0.  1.
         12    1    3    3    0    0  0.19301065655E+02  0.72695042131E+01 -0.17961829455E+02  0.27349664427E+02  0.00000000000E+00 0. -1.
</event>
<event>
 7    1  0.3611369E-013  0.7246156E+02  0.7816164E-02  0.1226708E+00
        -11   -1    0    0    0    0  0.00000000000E+00  0.00000000000E+00  0.45593999997E+02  0.45594000000E+02  0.51100000000E-03 0.  1.
         11   -1    0    0    0    0 -0.00000000000E+00 -0.00000000000E+00 -0.45593999997E+02  0.45594000000E+02  0.51100000000E-03 0. -1.
    9900012    2    1    2    0    0 -0.12853637457E+02 -0.50832740722E+01 -0.12634230327E+02  0.72461562882E+02  0.69999990344E+02 0.  0.
        -12    1    1    2    0    0  0.12853637457E+02  0.50832740722E+01  0.12634230327E+02  0.18726437118E+02  0.00000000000E+00 0.  1.
         11    1    3    3    0    0 -0.70987251702E+01 -0.59948399535E+01 -0.91056821348E+01  0.13009360188E+02  0.51100000000E-03 0. -1.
        -11    1    3    3    0    0 -0.17284938845E+02  0.24513438208E+02  0.75715324621E+01  0.30935511435E+02  0.51100000000E-03 0.  1.
         12    1    3    3    0    0  0.11530026559E+02 -0.23601872327E+02 -0.11100080655E+02  0.28516691258E+02  0.00000000000E+00 0. -1.
</event>
<event>
 7    1  0.3611369E-013  0.7246155E+02  0.7816164E-02  0.1226708E+00
        -11   -1    0    0    0    0  0.00000000000E+00  0.00000000000E+00  0.45593999997E+02  0.45594000000E+02  0.51100000000E-03 0. -1.
         11   -1    0    0    0    0 -0.00000000000E+00 -0.00000000000E+00 -0.45593999997E+02  0.45594000000E+02  0.51100000000E-03 0.  1.
    9900012    2    1    2    0    0  0.23904399017E+01 -0.66442574560E+01  0.17344149489E+02  0.72461551283E+02  0.69999975234E+02 0.  0.
        -12    1    1    2    0    0 -0.23904399017E+01  0.66442574560E+01 -0.17344149489E+02  0.18726448717E+02  0.00000000000E+00 0.  1.
         11    1    3    3    0    0  0.46771588038E+01  0.79272266561E+01  0.21160326554E+02  0.23075444894E+02  0.51100000000E-03 0. -1.
        -11    1    3    3    0    0  0.17836766348E+02  0.30228607380E+01  0.84600165368E+01  0.19971474679E+02  0.51100000000E-03 0.  1.
        -12    1    3    3    0    0 -0.20123485250E+02 -0.17594344850E+02 -0.12276193602E+02  0.29414631710E+02  0.00000000000E+00 0.  1.
</event>
<event>
 7    1  0.3611369E-013  0.7246154E+02  0.7816164E-02  0.1226708E+00
        -11   -1    0    0    0    0  0.00000000000E+00  0.00000000000E+00  0.45593999997E+02  0.45594000000E+02  0.51100000000E-03 0.  1.
         11   -1    0    0    0    0 -0.00000000000E+00 -0.00000000000E+00 -0.45593999997E+02  0.45594000000E+02  0.51100000000E-03 0. -1.
    9900012    2    1    2    0    0 -0.16850900493E+01 -0.17516149669E+00 -0.18649672132E+02  0.72461535287E+02  0.69999954397E+02 0.  0.
        -12    1    1    2    0    0  0.16850900493E+01  0.17516149669E+00  0.18649672132E+02  0.18726464713E+02  0.00000000000E+00 0.  1.
         11    1    3    3    0    0  0.81524709637E+01 -0.19502274466E+02  0.52687884694E+01  0.21784435370E+02  0.51100000000E-03 0. -1.
        -11    1    3    3    0    0  0.28667637843E+01  0.29813196163E+01  0.10066522119E+02  0.10883081782E+02  0.51100000000E-03 0.  1.
        -12    1    3    3    0    0 -0.12704324797E+02  0.16345793353E+02 -0.33984982720E+02  0.39794018135E+02  0.00000000000E+00 0.  1.
</event>
<event>
 7    1  0.3611369E-013  0.7246160E+02  0.7816164E-02  0.1226708E+00
        -11   -1    0    0    0    0  0.00000000000E+00  0.00000000000E+00  0.45593999997E+02  0.45594000000E+02  0.51100000000E-03 0.  1.
         11   -1    0    0    0    0 -0.00000000000E+00 -0.00000000000E+00 -0.45593999997E+02  0.45594000000E+02  0.51100000000E-03 0. -1.
    9900012    2    1    2    0    0  0.59423806155E+01 -0.10871665263E+02 -0.14041831612E+02  0.72461600774E+02  0.70000039705E+02 0.  0.
        -12    1    1    2    0    0 -0.59423806155E+01  0.10871665263E+02  0.14041831612E+02  0.18726399226E+02  0.00000000000E+00 0.  1.
         11    1    3    3    0    0  0.11956026735E+02 -0.25669518350E+00 -0.39169656944E+02  0.40954541788E+02  0.51100000000E-03 0. -1.
        -11    1    3    3    0    0  0.41167546146E+01 -0.36401220337E+01  0.31829773116E+01  0.63505512993E+01  0.51100000000E-03 0.  1.
        -12    1    3    3    0    0 -0.10130400734E+02 -0.69748480462E+01  0.21944848021E+02  0.25156507686E+02  0.00000000000E+00 0.  1.
</event>
<event>
 7    1  0.3611369E-013  0.7246157E+02  0.7816164E-02  0.1226708E+00
        -11   -1    0    0    0    0  0.00000000000E+00  0.00000000000E+00  0.45593999997E+02  0.45594000000E+02  0.51100000000E-03 0. -1.
         11   -1    0    0    0    0 -0.00000000000E+00 -0.00000000000E+00 -0.45593999997E+02  0.45594000000E+02  0.51100000000E-03 0.  1.
    9900012    2    1    2    0    0 -0.15108902473E+02 -0.82105592975E+01  0.74153122073E+01  0.72461572870E+02  0.70000003356E+02 0.  0.
        -12    1    1    2    0    0  0.15108902473E+02  0.82105592975E+01 -0.74153122073E+01  0.18726427130E+02  0.00000000000E+00 0.  1.
         11    1    3    3    0    0 -0.51981162762E+00 -0.15831082582E+02  0.20533456690E+02  0.25932917763E+02  0.51100000000E-03 0. -1.
        -11    1    3    3    0    0  0.56050885391E+01 -0.10170883673E+02 -0.15659108979E+02  0.19495424758E+02  0.51100000000E-03 0.  1.
        -12    1    3    3    0    0 -0.20194179384E+02  0.17791406957E+02  0.25409644963E+01  0.27033230349E+02  0.00000000000E+00 0.  1.
</event>
<event>
 7    1  0.3611369E-013  0.7246158E+02  0.7816164E-02  0.1226708E+00
        -11   -1    0    0    0    0  0.00000000000E+00  0.00000000000E+00  0.45593999997E+02  0.45594000000E+02  0.51100000000E-03 0.  1.
         11   -1    0    0    0    0 -0.00000000000E+00 -0.00000000000E+00 -0.45593999997E+02  0.45594000000E+02  0.51100000000E-03 0. -1.
    9900012    2    1    2    0    0  0.25728159781E+01  0.18168958007E+02  0.37347516779E+01  0.72461580502E+02  0.70000013297E+02 0.  0.
        -12    1    1    2    0    0 -0.25728159781E+01 -0.18168958007E+02 -0.37347516779E+01  0.18726419498E+02  0.00000000000E+00 0.  1.
         11    1    3    3    0    0  0.13708565619E+02 -0.23692353096E+01  0.11576625075E+02  0.18098516395E+02  0.51100000000E-03 0. -1.
        -11    1    3    3    0    0 -0.70113131026E+01 -0.11579565971E+02  0.10514442350E+02  0.17140547182E+02  0.51100000000E-03 0.  1.
        -12    1    3    3    0    0 -0.41244365385E+01  0.32117759288E+02 -0.18356315747E+02  0.37222516925E+02  0.00000000000E+00 0.  1.
</event>
<event>
 7    1  0.3611369E-013  0.7246118E+02  0.7816164E-02  0.1226709E+00
        -11   -1    0    0    0    0  0.00000000000E+00  0.00000000000E+00  0.45593999997E+02  0.45594000000E+02  0.51100000000E-03 0.  1.
         11   -1    0    0    0    0 -0.00000000000E+00 -0.00000000000E+00 -0.45593999997E+02  0.45594000000E+02  0.51100000000E-03 0. -1.
    9900012    2    1    2    0    0  0.15378667939E+02 -0.31626474509E+01 -0.10207261328E+02  0.72461175648E+02  0.69999485898E+02 0.  0.
        -12    1    1    2    0    0 -0.15378667939E+02  0.31626474509E+01  0.10207261328E+02  0.18726824352E+02  0.00000000000E+00 0.  1.
         11    1    3    3    0    0  0.16309486903E+02 -0.78045943040E+01  0.13156172342E+02  0.22360588683E+02  0.51100000000E-03 0. -1.
        -11    1    3    3    0    0  0.86551214113E+00 -0.57095791224E+01  0.11942052510E+02  0.13265030096E+02  0.51100000000E-03 0.  1.
         12    1    3    3    0    0 -0.17963311052E+01  0.10351525975E+02 -0.35305486181E+02  0.36835556870E+02  0.00000000000E+00 0. -1.
</event>
<event>
 7    1  0.3611369E-013  0.7246146E+02  0.7816164E-02  0.1226708E+00
        -11   -1    0    0    0    0  0.00000000000E+00  0.00000000000E+00  0.45593999997E+02  0.45594000000E+02  0.51100000000E-03 0.  1.
         11   -1    0    0    0    0 -0.00000000000E+00 -0.00000000000E+00 -0.45593999997E+02  0.45594000000E+02  0.51100000000E-03 0. -1.
    9900012    2    1    2    0    0 -0.16223490022E+02  0.39364440327E+01 -0.84844523209E+01  0.72461463980E+02  0.69999861506E+02 0.  0.
        -12    1    1    2    0    0  0.16223490022E+02 -0.39364440327E+01  0.84844523209E+01  0.18726536020E+02  0.00000000000E+00 0.  1.
         11    1    3    3    0    0  0.96524095590E+01 -0.36839816443E+01 -0.12801167333E+02  0.16450246697E+02  0.51100000000E-03 0. -1.
        -11    1    3    3    0    0 -0.21058089083E+02 -0.14332410276E+02  0.16594233119E+02  0.30401145920E+02  0.51100000000E-03 0.  1.
         12    1    3    3    0    0 -0.48178104980E+01  0.21952835953E+02 -0.12277518107E+02  0.25610071364E+02  0.00000000000E+00 0. -1.
</event>
<event>
 7    1  0.3611369E-013  0.7246159E+02  0.7816164E-02  0.1226708E+00
        -11   -1    0    0    0    0  0.00000000000E+00  0.00000000000E+00  0.45593999997E+02  0.45594000000E+02  0.51100000000E-03 0.  1.
         11   -1    0    0    0    0 -0.00000000000E+00 -0.00000000000E+00 -0.45593999997E+02  0.45594000000E+02  0.51100000000E-03 0. -1.
    9900012    2    1    2    0    0 -0.12922070742E+02  0.59243592135E+01 -0.12190185282E+02  0.72461586527E+02  0.70000021146E+02 0.  0.
        -12    1    1    2    0    0  0.12922070742E+02 -0.59243592135E+01  0.12190185282E+02  0.18726413473E+02  0.00000000000E+00 0.  1.
         11    1    3    3    0    0 -0.11187128227E+02 -0.13546826038E+02  0.17943495476E+02  0.25112494178E+02  0.51100000000E-03 0. -1.
        -11    1    3    3    0    0 -0.56023773708E+01  0.10751911132E+02  0.33133416386E+01  0.12568550365E+02  0.51100000000E-03 0.  1.
        -12    1    3    3    0    0  0.38674348554E+01  0.87192741192E+01 -0.33447022397E+02  0.34780541984E+02  0.00000000000E+00 0.  1.
</event>
<event>
 7    1  0.3611369E-013  0.7246153E+02  0.7816164E-02  0.1226708E+00
        -11   -1    0    0    0    0  0.00000000000E+00  0.00000000000E+00  0.45593999997E+02  0.45594000000E+02  0.51100000000E-03 0. -1.
         11   -1    0    0    0    0 -0.00000000000E+00 -0.00000000000E+00 -0.45593999997E+02  0.45594000000E+02  0.51100000000E-03 0.  1.
    9900012    2    1    2    0    0  0.14072877855E+02 -0.59275580327E+01  0.10839687884E+02  0.72461530264E+02  0.69999947853E+02 0.  0.
        -12    1    1    2    0    0 -0.14072877855E+02  0.59275580327E+01 -0.10839687884E+02  0.18726469736E+02  0.00000000000E+00 0.  1.
         11    1    3    3    0    0  0.15849322567E+02 -0.58164077169E+01  0.43429154432E+01  0.17432513857E+02  0.51100000000E-03 0. -1.
        -11    1    3    3    0    0  0.17144312493E+02 -0.30300308011E+01 -0.17261851965E+02  0.24516934372E+02  0.51100000000E-03 0.  1.
         12    1    3    3    0    0 -0.18920757204E+02  0.29188804853E+01  0.23758624406E+02  0.30512082035E+02  0.00000000000E+00 0. -1.
</event>
<event>
 7    1  0.3611369E-013  0.7246157E+02  0.7816164E-02  0.1226708E+00
        -11   -1    0    0    0    0  0.00000000000E+00  0.00000000000E+00  0.45593999997E+02  0.45594000000E+02  0.51100000000E-03 0. -1.
         11   -1    0    0    0    0 -0.00000000000E+00 -0.00000000000E+00 -0.45593999997E+02  0.45594000000E+02  0.51100000000E-03 0.  1.
    9900012    2    1    2    0    0  0.54301161550E+01  0.12983609863E+02  0.12353904012E+02  0.72461568656E+02  0.69999997866E+02 0.  0.
        -12    1    1    2    0    0 -0.54301161550E+01 -0.12983609863E+02 -0.12353904012E+02  0.18726431344E+02  0.00000000000E+00 0.  1.
         11    1    3    3    0    0  0.11392093333E+01 -0.20224400100E+00 -0.18785050221E+02  0.18820648570E+02  0.51100000000E-03 0.  1.
        -11    1    3    3    0    0  0.17905372982E+01 -0.75565028017E+01 -0.68049220980E+01  0.10325392168E+02  0.51100000000E-03 0. -1.
         12    1    3    3    0    0  0.25003695235E+01  0.20742356666E+02  0.37943876331E+02  0.43315527918E+02  0.00000000000E+00 0. -1.
</event>
<event>
 7    1  0.3611369E-013  0.7246177E+02  0.7816164E-02  0.1226707E+00
        -11   -1    0    0    0    0  0.00000000000E+00  0.00000000000E+00  0.45593999997E+02  0.45594000000E+02  0.51100000000E-03 0.  1.
         11   -1    0    0    0    0 -0.00000000000E+00 -0.00000000000E+00 -0.45593999997E+02  0.45594000000E+02  0.51100000000E-03 0. -1.
    9900012    2    1    2    0    0  0.12338218146E+02  0.12260215459E+02 -0.69373720686E+01  0.72461771299E+02  0.70000261846E+02 0.  0.
        -12    1    1    2    0    0 -0.12338218146E+02 -0.12260215459E+02  0.69373720686E+01  0.18726228701E+02  0.00000000000E+00 0.  1.
         11    1    3    3    0    0  0.28556987335E+00  0.17155972555E+02 -0.19709208875E+02  0.26131625652E+02  0.51100000000E-03 0. -1.
        -11    1    3    3    0    0  0.22258368062E+02  0.92385741843E+01 -0.98910844490E+00  0.24119795553E+02  0.51100000000E-03 0.  1.
        -12    1    3    3    0    0 -0.10205719789E+02 -0.14134331280E+02  0.13760945251E+02  0.22210350095E+02  0.00000000000E+00 0.  1.
</event>
<event>
 7    1  0.3611369E-013  0.7246156E+02  0.7816164E-02  0.1226708E+00
        -11   -1    0    0    0    0  0.00000000000E+00  0.00000000000E+00  0.45593999997E+02  0.45594000000E+02  0.51100000000E-03 0. -1.
         11   -1    0    0    0    0 -0.00000000000E+00 -0.00000000000E+00 -0.45593999997E+02  0.45594000000E+02  0.51100000000E-03 0.  1.
    9900012    2    1    2    0    0  0.14032836119E+01 -0.17348337286E+02  0.69098174019E+01  0.72461559121E+02  0.69999985444E+02 0.  0.
        -12    1    1    2    0    0 -0.14032836119E+01  0.17348337286E+02 -0.69098174019E+01  0.18726440879E+02  0.00000000000E+00 0.  1.
         11    1    3    3    0    0  0.94151560006E+01  0.16070757984E+00 -0.20873148393E+01  0.96450957974E+01  0.51100000000E-03 0. -1.
        -11    1    3    3    0    0 -0.52763657112E+01  0.64049487126E+01  0.29842501035E+02  0.30974800587E+02  0.51100000000E-03 0.  1.
         12    1    3    3    0    0 -0.27355066774E+01 -0.23913993578E+02 -0.20845368794E+02  0.31841662736E+02  0.00000000000E+00 0. -1.
</event>
<event>
 7    1  0.3611369E-013  0.7246152E+02  0.7816164E-02  0.1226708E+00
        -11   -1    0    0    0    0  0.00000000000E+00  0.00000000000E+00  0.45593999997E+02  0.45594000000E+02  0.51100000000E-03 0.  1.
         11   -1    0    0    0    0 -0.00000000000E+00 -0.00000000000E+00 -0.45593999997E+02  0.45594000000E+02  0.51100000000E-03 0. -1.
    9900012    2    1    2    0    0  0.60390474715E+01 -0.17505816822E+02 -0.27851871432E+01  0.72461521837E+02  0.69999936876E+02 0.  0.
        -12    1    1    2    0    0 -0.60390474715E+01  0.17505816822E+02  0.27851871432E+01  0.18726478163E+02  0.00000000000E+00 0.  1.
         11    1    3    3    0    0  0.18757967537E+02 -0.29000694750E+01  0.42288676761E+01  0.19446209687E+02  0.51100000000E-03 0. -1.
        -11    1    3    3    0    0  0.16153996259E+02 -0.16641888512E+02  0.16633247594E+00  0.23193354978E+02  0.51100000000E-03 0.  1.
        -12    1    3    3    0    0 -0.28872916324E+02  0.20361411655E+01 -0.71803872952E+01  0.29821957173E+02  0.00000000000E+00 0.  1.
</event>
<event>
 7    1  0.3755153E-013  0.7246154E+02  0.7816164E-02  0.1226708E+00
        -11   -1    0    0    0    0  0.00000000000E+00  0.00000000000E+00  0.45593999997E+02  0.45594000000E+02  0.51100000000E-03 0. -1.
         11   -1    0    0    0    0 -0.00000000000E+00 -0.00000000000E+00 -0.45593999997E+02  0.45594000000E+02  0.51100000000E-03 0.  1.
    9900012    2    1    2    0    0  0.10317480640E+02 -0.32147757591E+01  0.15293629688E+02  0.72461540138E+02  0.69999960715E+02 0.  0.
        -12    1    1    2    0    0 -0.10317480640E+02  0.32147757591E+01 -0.15293629688E+02  0.18726459862E+02  0.00000000000E+00 0.  1.
         11    1    3    3    0    0  0.98494097425E+01  0.69876881359E+01  0.36513513542E+02  0.38458748409E+02  0.51100000000E-03 0. -1.
        -11    1    3    3    0    0  0.58070933594E+01 -0.69187355199E+01  0.25778576514E+01  0.93934330685E+01  0.51100000000E-03 0.  1.
        -12    1    3    3    0    0 -0.53390224622E+01 -0.32837283750E+01 -0.23797741505E+02  0.24609358660E+02  0.00000000000E+00 0.  1.
</event>
<event>
 7    1  0.3611369E-013  0.7246154E+02  0.7816164E-02  0.1226708E+00
        -11   -1    0    0    0    0  0.00000000000E+00  0.00000000000E+00  0.45593999997E+02  0.45594000000E+02  0.51100000000E-03 0.  1.
         11   -1    0    0    0    0 -0.00000000000E+00 -0.00000000000E+00 -0.45593999997E+02  0.45594000000E+02  0.51100000000E-03 0. -1.
    9900012    2    1    2    0    0 -0.15088528650E+02  0.10583286979E+02 -0.33182551292E+01  0.72461535379E+02  0.69999954517E+02 0.  0.
        -12    1    1    2    0    0  0.15088528650E+02 -0.10583286979E+02  0.33182551292E+01  0.18726464621E+02  0.00000000000E+00 0.  1.
         11    1    3    3    0    0  0.21028234526E+01  0.26844783862E+02 -0.25463496091E+02  0.37060139240E+02  0.51100000000E-03 0. -1.
        -11    1    3    3    0    0 -0.73203321852E+01 -0.48892284242E+00  0.12845807307E+01  0.74482519266E+01  0.51100000000E-03 0.  1.
        -12    1    3    3    0    0 -0.98710199171E+01 -0.15772574041E+02  0.20860660231E+02  0.27953144212E+02  0.00000000000E+00 0.  1.
</event>
<event>
 7    1  0.3611369E-013  0.7246203E+02  0.7816164E-02  0.1226707E+00
        -11   -1    0    0    0    0  0.00000000000E+00  0.00000000000E+00  0.45593999997E+02  0.45594000000E+02  0.51100000000E-03 0. -1.
         11   -1    0    0    0    0 -0.00000000000E+00 -0.00000000000E+00 -0.45593999997E+02  0.45594000000E+02  0.51100000000E-03 0.  1.
    9900012    2    1    2    0    0  0.44701883382E+01 -0.12787049989E+02  0.12929445430E+02  0.72462034329E+02  0.70000604488E+02 0.  0.
        -12    1    1    2    0    0 -0.44701883382E+01  0.12787049989E+02 -0.12929445430E+02  0.18725965671E+02  0.00000000000E+00 0.  1.
         11    1    3    3    0    0 -0.98474113735E+01  0.13710168256E+02  0.77566959930E+01  0.18577043827E+02  0.51100000000E-03 0.  1.
        -11    1    3    3    0    0 -0.15404304606E+01 -0.10367698583E+02 -0.18424675890E+02  0.21197423943E+02  0.51100000000E-03 0. -1.
         12    1    3    3    0    0  0.15858030172E+02 -0.16129519661E+02  0.23597425327E+02  0.32687566559E+02  0.00000000000E+00 0. -1.
</event>
<event>
 7    1  0.3611369E-013  0.7246156E+02  0.7816164E-02  0.1226708E+00
        -11   -1    0    0    0    0  0.00000000000E+00  0.00000000000E+00  0.45593999997E+02  0.45594000000E+02  0.51100000000E-03 0. -1.
         11   -1    0    0    0    0 -0.00000000000E+00 -0.00000000000E+00 -0.45593999997E+02  0.45594000000E+02  0.51100000000E-03 0.  1.
    9900012    2    1    2    0    0 -0.14321871022E+02 -0.69949335088E+01 -0.98302779008E+01  0.72461562860E+02  0.69999990315E+02 0.  0.
        -12    1    1    2    0    0  0.14321871022E+02  0.69949335088E+01  0.98302779008E+01  0.18726437140E+02  0.00000000000E+00 0.  1.
         11    1    3    3    0    0  0.99145259339E+01 -0.26841249796E+01  0.42113020102E+01  0.11101234899E+02  0.51100000000E-03 0. -1.
        -11    1    3    3    0    0 -0.21200676705E+02  0.19664988185E+02 -0.21538811202E+02  0.36056911145E+02  0.51100000000E-03 0.  1.
         12    1    3    3    0    0 -0.30357202505E+01 -0.23975796715E+02  0.74972312906E+01  0.25303416816E+02  0.00000000000E+00 0. -1.
</event>
<event>
 7    1  0.3611369E-013  0.7246159E+02  0.7816164E-02  0.1226708E+00
        -11   -1    0    0    0    0  0.00000000000E+00  0.00000000000E+00  0.45593999997E+02  0.45594000000E+02  0.51100000000E-03 0.  1.
         11   -1    0    0    0    0 -0.00000000000E+00 -0.00000000000E+00 -0.45593999997E+02  0.45594000000E+02  0.51100000000E-03 0. -1.
    9900012    2    1    2    0    0 -0.14879371245E+02  0.10918210800E+02 -0.31741823680E+01  0.72461589521E+02  0.70000025046E+02 0.  0.
        -12    1    1    2    0    0  0.14879371245E+02 -0.10918210800E+02  0.31741823680E+01  0.18726410479E+02  0.00000000000E+00 0.  1.
         11    1    3    3    0    0 -0.21678469872E+01 -0.13138611773E+02 -0.12750120993E+02  0.18436058838E+02  0.51100000000E-03 0. -1.
        -11    1    3    3    0    0 -0.54780144326E+01  0.19281666587E+02 -0.16867765183E+02  0.26197572617E+02  0.51100000000E-03 0.  1.
        -12    1    3    3    0    0 -0.72335098256E+01  0.47751559852E+01  0.26443703807E+02  0.27827958066E+02  0.00000000000E+00 0.  1.
</event>
<event>
 7    1  0.3611369E-013  0.7246158E+02  0.7816164E-02  0.1226708E+00
        -11   -1    0    0    0    0  0.00000000000E+00  0.00000000000E+00  0.45593999997E+02  0.45594000000E+02  0.51100000000E-03 0.  1.
         11   -1    0    0    0    0 -0.00000000000E+00 -0.00000000000E+00 -0.45593999997E+02  0.45594000000E+02  0.51100000000E-03 0. -1.
    9900012    2    1    2    0    0 -0.14769711875E+02 -0.71950234342E+01 -0.89869897253E+01  0.72461581885E+02  0.70000015100E+02 0.  0.
        -12    1    1    2    0    0  0.14769711875E+02  0.71950234342E+01  0.89869897253E+01  0.18726418115E+02  0.00000000000E+00 0.  1.
         11    1    3    3    0    0 -0.10577760851E+02 -0.91977803904E+01 -0.28520910339E+02  0.31779403952E+02  0.51100000000E-03 0. -1.
        -11    1    3    3    0    0  0.32434716737E+01 -0.11218894682E+02 -0.42880062868E+01  0.12440687463E+02  0.51100000000E-03 0.  1.
         12    1    3    3    0    0 -0.74354226978E+01  0.13221651638E+02  0.23821926901E+02  0.28241490470E+02  0.00000000000E+00 0. -1.
</event>
<event>
 7    1  0.3611369E-013  0.7246158E+02  0.7816164E-02  0.1226708E+00
        -11   -1    0    0    0    0  0.00000000000E+00  0.00000000000E+00  0.45593999997E+02  0.45594000000E+02  0.51100000000E-03 0.  1.
         11   -1    0    0    0    0 -0.00000000000E+00 -0.00000000000E+00 -0.45593999997E+02  0.45594000000E+02  0.51100000000E-03 0. -1.
    9900012    2    1    2    0    0 -0.10793188337E+02 -0.79142686060E+01 -0.13097725465E+02  0.72461575504E+02  0.70000006786E+02 0.  0.
        -12    1    1    2    0    0  0.10793188337E+02  0.79142686060E+01  0.13097725465E+02  0.18726424496E+02  0.00000000000E+00 0.  1.
         11    1    3    3    0    0 -0.41845419395E+01 -0.14373745628E+02  0.18804103451E+02  0.24035583236E+02  0.51100000000E-03 0. -1.
        -11    1    3    3    0    0 -0.84973603692E+01 -0.10069031032E+02 -0.85519903589E+00  0.13203101333E+02  0.51100000000E-03 0.  1.
         12    1    3    3    0    0  0.18887139713E+01  0.16528508054E+02 -0.31046629880E+02  0.35222890935E+02  0.00000000000E+00 0. -1.
</event>
<event>
 7    1  0.3611369E-013  0.7246157E+02  0.7816164E-02  0.1226708E+00
        -11   -1    0    0    0    0  0.00000000000E+00  0.00000000000E+00  0.45593999997E+02  0.45594000000E+02  0.51100000000E-03 0.  1.
         11   -1    0    0    0    0 -0.00000000000E+00 -0.00000000000E+00 -0.45593999997E+02  0.45594000000E+02  0.51100000000E-03 0. -1.
    9900012    2    1    2    0    0  0.64871925927E+01 -0.17466702901E+02 -0.18734799975E+01  0.72461566670E+02  0.69999995279E+02 0.  0.
        -12    1    1    2    0    0 -0.64871925927E+01  0.17466702901E+02  0.18734799975E+01  0.18726433330E+02  0.00000000000E+00 0.  1.
         11    1    3    3    0    0 -0.16536362516E+02 -0.85164117527E+01 -0.15408899816E+02  0.24153979966E+02  0.51100000000E-03 0. -1.
        -11    1    3    3    0    0 -0.11130931166E+02 -0.25109973536E+01  0.53393866112E+01  0.12598086600E+02  0.51100000000E-03 0.  1.
         12    1    3    3    0    0  0.34154486275E+02 -0.64392937944E+01  0.81960332075E+01  0.35709500104E+02  0.00000000000E+00 0. -1.
</event>
<event>
 7    1  0.3611369E-013  0.7246157E+02  0.7816164E-02  0.1226708E+00
        -11   -1    0    0    0    0  0.00000000000E+00  0.00000000000E+00  0.45593999997E+02  0.45594000000E+02  0.51100000000E-03 0.  1.
         11   -1    0    0    0    0 -0.00000000000E+00 -0.00000000000E+00 -0.45593999997E+02  0.45594000000E+02  0.51100000000E-03 0. -1.
    9900012    2    1    2    0    0 -0.66710565691E+01  0.16625509880E+02  0.54560591673E+01  0.72461570651E+02  0.70000000464E+02 0.  0.
        -12    1    1    2    0    0  0.66710565691E+01 -0.16625509880E+02 -0.54560591673E+01  0.18726429349E+02  0.00000000000E+00 0.  1.
         11    1    3    3    0    0 -0.15799773745E+02  0.22237261498E+02 -0.91383051588E+01  0.28768685594E+02  0.51100000000E-03 0. -1.
        -11    1    3    3    0    0  0.21133689050E+02  0.74837306833E+01  0.33513868806E+01  0.22668719242E+02  0.51100000000E-03 0.  1.
        -12    1    3    3    0    0 -0.12004971874E+02 -0.13095482301E+02  0.11242977445E+02  0.21024165815E+02  0.00000000000E+00 0.  1.
</event>
<event>
 7    1  0.3611369E-013  0.7246156E+02  0.7816164E-02  0.1226708E+00
        -11   -1    0    0    0    0  0.00000000000E+00  0.00000000000E+00  0.45593999997E+02  0.45594000000E+02  0.51100000000E-03 0.  1.
         11   -1    0    0    0    0 -0.00000000000E+00 -0.00000000000E+00 -0.45593999997E+02  0.45594000000E+02  0.51100000000E-03 0. -1.
    9900012    2    1    2    0    0 -0.34982657608E+01  0.85061922691E-02 -0.18396782353E+02  0.72461560492E+02  0.69999987231E+02 0.  0.
        -12    1    1    2    0    0  0.34982657608E+01 -0.85061922691E-02  0.18396782353E+02  0.18726439508E+02  0.00000000000E+00 0.  1.
         11    1    3    3    0    0  0.17313463441E+01 -0.20214488668E+02  0.17254080195E+02  0.26633182234E+02  0.51100000000E-03 0. -1.
        -11    1    3    3    0    0  0.59610585981E+01  0.40780250632E+01 -0.32105913171E+01  0.79039486899E+01  0.51100000000E-03 0.  1.
        -12    1    3    3    0    0 -0.11190670703E+02  0.16144969797E+02 -0.32440271231E+02  0.37924429568E+02  0.00000000000E+00 0.  1.
</event>
<event>
 7    1  0.3611369E-013  0.7246159E+02  0.7816164E-02  0.1226708E+00
        -11   -1    0    0    0    0  0.00000000000E+00  0.00000000000E+00  0.45593999997E+02  0.45594000000E+02  0.51100000000E-03 0. -1.
         11   -1    0    0    0    0 -0.00000000000E+00 -0.00000000000E+00 -0.45593999997E+02  0.45594000000E+02  0.51100000000E-03 0.  1.
    9900012    2    1    2    0    0  0.89448097550E+00 -0.16545085438E+02  0.87257317628E+01  0.72461592358E+02  0.70000028742E+02 0.  0.
        -12    1    1    2    0    0 -0.89448097550E+00  0.16545085438E+02 -0.87257317628E+01  0.18726407642E+02  0.00000000000E+00 0.  1.
         11    1    3    3    0    0  0.83023667153E+01 -0.20123641268E+01  0.34566540583E+01  0.92156041579E+01  0.51100000000E-03 0. -1.
        -11    1    3    3    0    0  0.29487878848E+01 -0.24591220877E+02 -0.21522411977E+02  0.32812157987E+02  0.51100000000E-03 0.  1.
         12    1    3    3    0    0 -0.10356673625E+02  0.10058499566E+02  0.26791489681E+02  0.30433830213E+02  0.00000000000E+00 0. -1.
</event>
<event>
 7    1  0.3611369E-013  0.7246163E+02  0.7816164E-02  0.1226708E+00
        -11   -1    0    0    0    0  0.00000000000E+00  0.00000000000E+00  0.45593999997E+02  0.45594000000E+02  0.51100000000E-03 0. -1.
         11   -1    0    0    0    0 -0.00000000000E+00 -0.00000000000E+00 -0.45593999997E+02  0.45594000000E+02  0.51100000000E-03 0.  1.
    9900012    2    1    2    0    0 -0.88091359383E+01  0.15847839851E+02 -0.46821116210E+01  0.72461626268E+02  0.70000072916E+02 0.  0.
        -12    1    1    2    0    0  0.88091359383E+01 -0.15847839851E+02  0.46821116210E+01  0.18726373732E+02  0.00000000000E+00 0.  1.
         11    1    3    3    0    0 -0.87281332947E+01 -0.97987191733E+01  0.14874793501E+02  0.19835692330E+02  0.51100000000E-03 0. -1.
        -11    1    3    3    0    0 -0.17487473856E+02  0.18274877916E+02  0.18328752087E+00  0.25294594270E+02  0.51100000000E-03 0.  1.
        -12    1    3    3    0    0  0.17406471213E+02  0.73716811086E+01 -0.19740192643E+02  0.27331339668E+02  0.00000000000E+00 0.  1.
</event>
<event>
 7    1  0.3611369E-013  0.7246155E+02  0.7816164E-02  0.1226708E+00
        -11   -1    0    0    0    0  0.00000000000E+00  0.00000000000E+00  0.45593999997E+02  0.45594000000E+02  0.51100000000E-03 0.  1.
         11   -1    0    0    0    0 -0.00000000000E+00 -0.00000000000E+00 -0.45593999997E+02  0.45594000000E+02  0.51100000000E-03 0. -1.
    9900012    2    1    2    0    0  0.24046226377E+01  0.66453004496E+01 -0.17341791746E+02  0.72461548946E+02  0.69999972190E+02 0.  0.
        -12    1    1    2    0    0 -0.24046226377E+01 -0.66453004496E+01  0.17341791746E+02  0.18726451054E+02  0.00000000000E+00 0.  1.
         11    1    3    3    0    0  0.33212085586E+02  0.94960583281E+01 -0.16796673076E+02  0.38410232743E+02  0.51100000000E-03 0. -1.
        -11    1    3    3    0    0 -0.59146304929E+01  0.20834835532E+01  0.50656577131E+01  0.80613054719E+01  0.51100000000E-03 0.  1.
        -12    1    3    3    0    0 -0.24892832455E+02 -0.49342414317E+01 -0.56107763840E+01  0.25990010731E+02  0.00000000000E+00 0.  1.
</event>
<event>
 7    1  0.3611369E-013  0.7246158E+02  0.7816164E-02  0.1226708E+00
        -11   -1    0    0    0    0  0.00000000000E+00  0.00000000000E+00  0.45593999997E+02  0.45594000000E+02  0.51100000000E-03 0.  1.
         11   -1    0    0    0    0 -0.00000000000E+00 -0.00000000000E+00 -0.45593999997E+02  0.45594000000E+02  0.51100000000E-03 0. -1.
    9900012    2    1    2    0    0  0.16237057126E+02  0.39030461201E+01 -0.84736710170E+01  0.72461577661E+02  0.70000009596E+02 0.  0.
        -12    1    1    2    0    0 -0.16237057126E+02 -0.39030461201E+01  0.84736710170E+01  0.18726422339E+02  0.00000000000E+00 0.  1.
         11    1    3    3    0    0  0.76857967819E+01  0.85594074932E+01  0.88504586196E+01  0.14514322128E+02  0.51100000000E-03 0. -1.
        -11    1    3    3    0    0 -0.37375588262E+01 -0.88581548181E+01  0.17947558075E+02  0.20360527839E+02  0.51100000000E-03 0.  1.
         12    1    3    3    0    0  0.12288819170E+02  0.42017934450E+01 -0.35271687711E+02  0.37586727694E+02  0.00000000000E+00 0. -1.
</event>
<event>
 7    1  0.3611369E-013  0.7246156E+02  0.7816164E-02  0.1226708E+00
        -11   -1    0    0    0    0  0.00000000000E+00  0.00000000000E+00  0.45593999997E+02  0.45594000000E+02  0.51100000000E-03 0. -1.
         11   -1    0    0    0    0 -0.00000000000E+00 -0.00000000000E+00 -0.45593999997E+02  0.45594000000E+02  0.51100000000E-03 0.  1.
    9900012    2    1    2    0    0 -0.11457680488E+02  0.10507601390E+02  0.10439904145E+02  0.72461555391E+02  0.69999980585E+02 0.  0.
        -12    1    1    2    0    0  0.11457680488E+02 -0.10507601390E+02 -0.10439904145E+02  0.18726444609E+02  0.00000000000E+00 0.  1.
         11    1    3    3    0    0  0.14713967462E+02 -0.51376513095E+01  0.25736431397E+01  0.15796200135E+02  0.51100000000E-03 0. -1.
        -11    1    3    3    0    0  0.12749870362E+02  0.31852918813E+01  0.87505155392E+01  0.15788502180E+02  0.51100000000E-03 0.  1.
         12    1    3    3    0    0 -0.38921518312E+02  0.12459960818E+02 -0.88425453343E+00  0.40876853076E+02  0.00000000000E+00 0. -1.
</event>
<event>
 7    1  0.3611369E-013  0.7246165E+02  0.7816164E-02  0.1226708E+00
        -11   -1    0    0    0    0  0.00000000000E+00  0.00000000000E+00  0.45593999997E+02  0.45594000000E+02  0.51100000000E-03 0.  1.
         11   -1    0    0    0    0 -0.00000000000E+00 -0.00000000000E+00 -0.45593999997E+02  0.45594000000E+02  0.51100000000E-03 0. -1.
    9900012    2    1    2    0    0 -0.25124785548E+01 -0.16256621615E+02 -0.89490772535E+01  0.72461647485E+02  0.70000100555E+02 0.  0.
        -12    1    1    2    0    0  0.25124785548E+01  0.16256621615E+02  0.89490772535E+01  0.18726352515E+02  0.00000000000E+00 0.  1.
         11    1    3    3    0    0  0.45791116432E+01 -0.12887906339E+02  0.18545116357E+02  0.23043171097E+02  0.51100000000E-03 0. -1.
        -11    1    3    3    0    0 -0.90697327361E+01  0.17043357642E+02 -0.73096699979E+01  0.20643821530E+02  0.51100000000E-03 0.  1.
         12    1    3    3    0    0  0.19781425381E+01 -0.20412072918E+02 -0.20184523613E+02  0.28774654858E+02  0.00000000000E+00 0. -1.
</event>
<event>
 7    1  0.3611369E-013  0.7246148E+02  0.7816164E-02  0.1226708E+00
        -11   -1    0    0    0    0  0.00000000000E+00  0.00000000000E+00  0.45593999997E+02  0.45594000000E+02  0.51100000000E-03 0. -1.
         11   -1    0    0    0    0 -0.00000000000E+00 -0.00000000000E+00 -0.45593999997E+02  0.45594000000E+02  0.51100000000E-03 0.  1.
    9900012    2    1    2    0    0  0.44118547380E+01  0.43883222594E+01  0.17662409051E+02  0.72461480624E+02  0.69999883187E+02 0.  0.
        -12    1    1    2    0    0 -0.44118547380E+01 -0.43883222594E+01 -0.17662409051E+02  0.18726519376E+02  0.00000000000E+00 0.  1.
         11    1    3    3    0    0  0.10746020092E+02  0.16208567397E+02  0.11086458495E+02  0.22385356086E+02  0.51100000000E-03 0. -1.
        -11    1    3    3    0    0  0.72064057861E+01  0.14164891998E+02 -0.74949266393E+01  0.17571294069E+02  0.51100000000E-03 0.  1.
         12    1    3    3    0    0 -0.13540571140E+02 -0.25985137135E+02  0.14070877195E+02  0.32504830469E+02  0.00000000000E+00 0. -1.
</event>
<event>
 7    1  0.3611369E-013  0.7246154E+02  0.7816164E-02  0.1226708E+00
        -11   -1    0    0    0    0  0.00000000000E+00  0.00000000000E+00  0.45593999997E+02  0.45594000000E+02  0.51100000000E-03 0.  1.
         11   -1    0    0    0    0 -0.00000000000E+00 -0.00000000000E+00 -0.45593999997E+02  0.45594000000E+02  0.51100000000E-03 0. -1.
    9900012    2    1    2    0    0 -0.15074340475E+02  0.71969289735E+01 -0.84645544503E+01  0.72461542528E+02  0.69999963829E+02 0.  0.
        -12    1    1    2    0    0  0.15074340475E+02 -0.71969289735E+01  0.84645544503E+01  0.18726457472E+02  0.00000000000E+00 0.  1.
         11    1    3    3    0    0 -0.26705474385E+02  0.16274155292E+02  0.61248782047E+01  0.31867610922E+02  0.51100000000E-03 0. -1.
        -11    1    3    3    0    0 -0.85356661899E+01 -0.13777113734E+02 -0.19248478869E+01  0.16320891513E+02  0.51100000000E-03 0.  1.
        -12    1    3    3    0    0  0.20166800100E+02  0.46998874157E+01 -0.12664584768E+02  0.24273040092E+02  0.00000000000E+00 0.  1.
</event>
<event>
 7    1  0.3611369E-013  0.7246154E+02  0.7816164E-02  0.1226708E+00
        -11   -1    0    0    0    0  0.00000000000E+00  0.00000000000E+00  0.45593999997E+02  0.45594000000E+02  0.51100000000E-03 0.  1.
         11   -1    0    0    0    0 -0.00000000000E+00 -0.00000000000E+00 -0.45593999997E+02  0.45594000000E+02  0.51100000000E-03 0. -1.
    9900012    2    1    2    0    0  0.10009420541E+02 -0.26803806796E+01 -0.15598307277E+02  0.72461544648E+02  0.69999966590E+02 0.  0.
        -12    1    1    2    0    0 -0.10009420541E+02  0.26803806796E+01  0.15598307277E+02  0.18726455352E+02  0.00000000000E+00 0.  1.
         11    1    3    3    0    0  0.81028078636E+01  0.11051826541E+02 -0.27326541804E+02  0.30570218390E+02  0.51100000000E-03 0. -1.
        -11    1    3    3    0    0 -0.95036302344E+01  0.67572459833E+01 -0.53995358399E+01  0.12850461021E+02  0.51100000000E-03 0.  1.
        -12    1    3    3    0    0  0.11410242912E+02 -0.20489453204E+02  0.17127770367E+02  0.29040865236E+02  0.00000000000E+00 0.  1.
</event>
<event>
 7    1  0.3611369E-013  0.7246155E+02  0.7816164E-02  0.1226708E+00
        -11   -1    0    0    0    0  0.00000000000E+00  0.00000000000E+00  0.45593999997E+02  0.45594000000E+02  0.51100000000E-03 0.  1.
         11   -1    0    0    0    0 -0.00000000000E+00 -0.00000000000E+00 -0.45593999997E+02  0.45594000000E+02  0.51100000000E-03 0. -1.
    9900012    2    1    2    0    0 -0.16836873119E+02  0.72427921856E+01 -0.38394556482E+01  0.72461554669E+02  0.69999979645E+02 0.  0.
        -12    1    1    2    0    0  0.16836873119E+02 -0.72427921856E+01  0.38394556482E+01  0.18726445331E+02  0.00000000000E+00 0.  1.
         11    1    3    3    0    0  0.23010749507E+00  0.11703395397E+02 -0.14342177868E+02  0.18512711296E+02  0.51100000000E-03 0. -1.
        -11    1    3    3    0    0  0.54962158628E+01  0.19305260245E+02  0.26122917748E+01  0.20241678055E+02  0.51100000000E-03 0.  1.
        -12    1    3    3    0    0 -0.22563196477E+02 -0.23765863456E+02  0.78904304450E+01  0.33707165317E+02  0.00000000000E+00 0.  1.
</event>
<event>
 7    1  0.3611369E-013  0.7246163E+02  0.7816164E-02  0.1226708E+00
        -11   -1    0    0    0    0  0.00000000000E+00  0.00000000000E+00  0.45593999997E+02  0.45594000000E+02  0.51100000000E-03 0. -1.
         11   -1    0    0    0    0 -0.00000000000E+00 -0.00000000000E+00 -0.45593999997E+02  0.45594000000E+02  0.51100000000E-03 0.  1.
    9900012    2    1    2    0    0  0.46711891962E+01  0.83868613963E+01  0.16078482802E+02  0.72461626571E+02  0.70000073311E+02 0.  0.
        -12    1    1    2    0    0 -0.46711891962E+01 -0.83868613963E+01 -0.16078482802E+02  0.18726373429E+02  0.00000000000E+00 0.  1.
         11    1    3    3    0    0 -0.63573318648E+01  0.17525328497E+02  0.23631953767E+02  0.30100200107E+02  0.51100000000E-03 0. -1.
        -11    1    3    3    0    0 -0.14692788455E+02 -0.55019087799E+01 -0.22708404295E+01  0.15852625944E+02  0.51100000000E-03 0.  1.
        -12    1    3    3    0    0  0.25721309516E+02 -0.36365583212E+01 -0.52826305357E+01  0.26508800520E+02  0.00000000000E+00 0.  1.
</event>
<event>
 7    1  0.3611369E-013  0.7246163E+02  0.7816164E-02  0.1226708E+00
        -11   -1    0    0    0    0  0.00000000000E+00  0.00000000000E+00  0.45593999997E+02  0.45594000000E+02  0.51100000000E-03 0.  1.
         11   -1    0    0    0    0 -0.00000000000E+00 -0.00000000000E+00 -0.45593999997E+02  0.45594000000E+02  0.51100000000E-03 0. -1.
    9900012    2    1    2    0    0 -0.17327751896E+02 -0.70958808490E+01 -0.27287018252E+00  0.72461629051E+02  0.70000076541E+02 0.  0.
        -12    1    1    2    0    0  0.17327751896E+02  0.70958808490E+01  0.27287018252E+00  0.18726370949E+02  0.00000000000E+00 0.  1.
         11    1    3    3    0    0 -0.44212920908E+01 -0.15080225275E+02 -0.75275884518E+01  0.17424855989E+02  0.51100000000E-03 0. -1.
        -11    1    3    3    0    0  0.17239675423E+02 -0.93503907887E+01  0.47054032836E+01  0.20168714310E+02  0.51100000000E-03 0.  1.
        -12    1    3    3    0    0 -0.30146135229E+02  0.17334735215E+02  0.25493149857E+01  0.34868058751E+02  0.00000000000E+00 0.  1.
</event>
<event>
 7    1  0.3777240E-013  0.7246160E+02  0.7816164E-02  0.1226708E+00
        -11   -1    0    0    0    0  0.00000000000E+00  0.00000000000E+00  0.45593999997E+02  0.45594000000E+02  0.51100000000E-03 0.  1.
         11   -1    0    0    0    0 -0.00000000000E+00 -0.00000000000E+00 -0.45593999997E+02  0.45594000000E+02  0.51100000000E-03 0. -1.
    9900012    2    1    2    0    0 -0.16404461289E+02  0.65899945578E+01 -0.61760496527E+01  0.72461602382E+02  0.70000041800E+02 0.  0.
        -12    1    1    2    0    0  0.16404461289E+02 -0.65899945578E+01  0.61760496527E+01  0.18726397618E+02  0.00000000000E+00 0.  1.
         11    1    3    3    0    0 -0.12382041312E+01  0.48289742320E+01 -0.25408756748E+02  0.25893185616E+02  0.51100000000E-03 0. -1.
        -11    1    3    3    0    0 -0.15645034420E+02  0.14368574174E+02 -0.25511914953E+01  0.21394662982E+02  0.51100000000E-03 0.  1.
        -12    1    3    3    0    0  0.47877726299E+00 -0.12607553849E+02  0.21783898591E+02  0.25173753783E+02  0.00000000000E+00 0.  1.
</event>
<event>
 7    1  0.3611369E-013  0.7246161E+02  0.7816164E-02  0.1226708E+00
        -11   -1    0    0    0    0  0.00000000000E+00  0.00000000000E+00  0.45593999997E+02  0.45594000000E+02  0.51100000000E-03 0.  1.
         11   -1    0    0    0    0 -0.00000000000E+00 -0.00000000000E+00 -0.45593999997E+02  0.45594000000E+02  0.51100000000E-03 0. -1.
    9900012    2    1    2    0    0  0.10764745817E+02 -0.15258545858E+02 -0.14052294714E+01  0.72461611024E+02  0.70000053058E+02 0.  0.
        -12    1    1    2    0    0 -0.10764745817E+02  0.15258545858E+02  0.14052294714E+01  0.18726388976E+02  0.00000000000E+00 0.  1.
         11    1    3    3    0    0 -0.10753849917E+02 -0.19709033993E+02 -0.10957904876E+02  0.24983334215E+02  0.51100000000E-03 0. -1.
        -11    1    3    3    0    0  0.30637513720E+00 -0.20091865541E+01 -0.14570889409E+02  0.14711951426E+02  0.51100000000E-03 0.  1.
        -12    1    3    3    0    0  0.21212220597E+02  0.64596746891E+01  0.24123564814E+02  0.32766325383E+02  0.00000000000E+00 0.  1.
</event>
<event>
 7    1  0.3611369E-013  0.7246134E+02  0.7816164E-02  0.1226709E+00
        -11   -1    0    0    0    0  0.00000000000E+00  0.00000000000E+00  0.45593999997E+02  0.45594000000E+02  0.51100000000E-03 0.  1.
         11   -1    0    0    0    0 -0.00000000000E+00 -0.00000000000E+00 -0.45593999997E+02  0.45594000000E+02  0.51100000000E-03 0. -1.
    9900012    2    1    2    0    0 -0.16465137903E+02 -0.77158027449E+01 -0.44781176544E+01  0.72461336765E+02  0.69999695785E+02 0.  0.
        -12    1    1    2    0    0  0.16465137903E+02  0.77158027449E+01  0.44781176544E+01  0.18726663235E+02  0.00000000000E+00 0.  1.
         11    1    3    3    0    0 -0.77531046583E+01  0.70792137133E+01 -0.22401503904E+02  0.24739710509E+02  0.51100000000E-03 0. -1.
        -11    1    3    3    0    0  0.16214375883E+02 -0.69486108591E+01  0.10609535126E+02  0.20585223195E+02  0.51100000000E-03 0.  1.
         12    1    3    3    0    0 -0.24926409128E+02 -0.78464055991E+01  0.73138511244E+01  0.27136403061E+02  0.00000000000E+00 0. -1.
</event>
<event>
 7    1  0.3611369E-013  0.7246192E+02  0.7816164E-02  0.1226707E+00
        -11   -1    0    0    0    0  0.00000000000E+00  0.00000000000E+00  0.45593999997E+02  0.45594000000E+02  0.51100000000E-03 0.  1.
         11   -1    0    0    0    0 -0.00000000000E+00 -0.00000000000E+00 -0.45593999997E+02  0.45594000000E+02  0.51100000000E-03 0. -1.
    9900012    2    1    2    0    0 -0.31238188384E+01 -0.10474516616E+02 -0.15205010282E+02  0.72461919787E+02  0.70000455277E+02 0.  0.
        -12    1    1    2    0    0  0.31238188384E+01  0.10474516616E+02  0.15205010282E+02  0.18726080213E+02  0.00000000000E+00 0.  1.
         11    1    3    3    0    0  0.11219895755E+02  0.15539127504E+02  0.38336740869E+01  0.19546038002E+02  0.51100000000E-03 0. -1.
        -11    1    3    3    0    0 -0.12434476449E+02  0.52712910367E+01  0.39207356256E+01  0.14063245780E+02  0.51100000000E-03 0.  1.
        -12    1    3    3    0    0 -0.19092381440E+01 -0.31284935156E+02 -0.22959419995E+02  0.38852636004E+02  0.00000000000E+00 0.  1.
</event>
<event>
 7    1  0.3611369E-013  0.7246161E+02  0.7816164E-02  0.1226708E+00
        -11   -1    0    0    0    0  0.00000000000E+00  0.00000000000E+00  0.45593999997E+02  0.45594000000E+02  0.51100000000E-03 0.  1.
         11   -1    0    0    0    0 -0.00000000000E+00 -0.00000000000E+00 -0.45593999997E+02  0.45594000000E+02  0.51100000000E-03 0. -1.
    9900012    2    1    2    0    0  0.71600197786E+01  0.16881776667E+02  0.37970324879E+01  0.72461608933E+02  0.70000050334E+02 0.  0.
        -12    1    1    2    0    0 -0.71600197786E+01 -0.16881776667E+02 -0.37970324879E+01  0.18726391067E+02  0.00000000000E+00 0.  1.
         11    1    3    3    0    0  0.11816873404E+02  0.12720987906E+01  0.28572295675E+02  0.30945642872E+02  0.51100000000E-03 0.  1.
        -11    1    3    3    0    0 -0.10903828868E+02 -0.15109180606E+01 -0.31465490253E+00  0.11012509494E+02  0.51100000000E-03 0. -1.
        -12    1    3    3    0    0  0.62469752428E+01  0.17120595937E+02 -0.24460608284E+02  0.30503456568E+02  0.00000000000E+00 0.  1.
</event>
<event>
 7    1  0.3680094E-013  0.7246152E+02  0.7816164E-02  0.1226708E+00
        -11   -1    0    0    0    0  0.00000000000E+00  0.00000000000E+00  0.45593999997E+02  0.45594000000E+02  0.51100000000E-03 0. -1.
         11   -1    0    0    0    0 -0.00000000000E+00 -0.00000000000E+00 -0.45593999997E+02  0.45594000000E+02  0.51100000000E-03 0.  1.
    9900012    2    1    2    0    0 -0.52505859187E+01  0.12341787021E+02  0.13068771076E+02  0.72461517768E+02  0.69999931574E+02 0.  0.
        -12    1    1    2    0    0  0.52505859187E+01 -0.12341787021E+02 -0.13068771076E+02  0.18726482232E+02  0.00000000000E+00 0.  1.
         11    1    3    3    0    0  0.79864100767E+01 -0.53268294620E+01  0.18747262565E+02  0.21062234259E+02  0.51100000000E-03 0. -1.
        -11    1    3    3    0    0 -0.99405131708E+01  0.16954275519E+02  0.18497437134E+02  0.26989191193E+02  0.51100000000E-03 0.  1.
        -12    1    3    3    0    0 -0.32964828246E+01  0.71434096434E+00 -0.24175928624E+02  0.24410092315E+02  0.00000000000E+00 0.  1.
</event>
<event>
 7    1  0.3611369E-013  0.7246162E+02  0.7816164E-02  0.1226708E+00
        -11   -1    0    0    0    0  0.00000000000E+00  0.00000000000E+00  0.45593999997E+02  0.45594000000E+02  0.51100000000E-03 0. -1.
         11   -1    0    0    0    0 -0.00000000000E+00 -0.00000000000E+00 -0.45593999997E+02  0.45594000000E+02  0.51100000000E-03 0.  1.
    9900012    2    1    2    0    0 -0.13891467461E+02  0.82686613138E+01  0.94516588312E+01  0.72461615330E+02  0.70000058668E+02 0.  0.
        -12    1    1    2    0    0  0.13891467461E+02 -0.82686613138E+01 -0.94516588312E+01  0.18726384670E+02  0.00000000000E+00 0.  1.
         11    1    3    3    0    0  0.10992692333E+01 -0.17549414971E+02  0.20025831911E+01  0.17697477176E+02  0.51100000000E-03 0. -1.
        -11    1    3    3    0    0  0.11925462811E+02  0.35687114912E+01 -0.97737112336E+01  0.15826490341E+02  0.51100000000E-03 0.  1.
         12    1    3    3    0    0 -0.26916199505E+02  0.22249364794E+02  0.17222786874E+02  0.38937647814E+02  0.00000000000E+00 0. -1.
</event>
<event>
 7    1  0.3611369E-013  0.7246171E+02  0.7816164E-02  0.1226708E+00
        -11   -1    0    0    0    0  0.00000000000E+00  0.00000000000E+00  0.45593999997E+02  0.45594000000E+02  0.51100000000E-03 0. -1.
         11   -1    0    0    0    0 -0.00000000000E+00 -0.00000000000E+00 -0.45593999997E+02  0.45594000000E+02  0.51100000000E-03 0.  1.
    9900012    2    1    2    0    0 -0.14245549334E+01 -0.10807465226E+02  0.15226401409E+02  0.72461709357E+02  0.70000181155E+02 0.  0.
        -12    1    1    2    0    0  0.14245549334E+01  0.10807465226E+02 -0.15226401409E+02  0.18726290643E+02  0.00000000000E+00 0.  1.
         11    1    3    3    0    0  0.11110638334E+02 -0.33253170592E+01 -0.23921649598E+01  0.11841725853E+02  0.51100000000E-03 0. -1.
        -11    1    3    3    0    0  0.88832534766E+01 -0.80127101842E+01 -0.16470803327E+02  0.20356892674E+02  0.51100000000E-03 0.  1.
         12    1    3    3    0    0 -0.21418446744E+02  0.53056201760E+00  0.34089369696E+02  0.40263090831E+02  0.00000000000E+00 0. -1.
</event>
<event>
 7    1  0.3611369E-013  0.7246156E+02  0.7816164E-02  0.1226708E+00
        -11   -1    0    0    0    0  0.00000000000E+00  0.00000000000E+00  0.45593999997E+02  0.45594000000E+02  0.51100000000E-03 0. -1.
         11   -1    0    0    0    0 -0.00000000000E+00 -0.00000000000E+00 -0.45593999997E+02  0.45594000000E+02  0.51100000000E-03 0.  1.
    9900012    2    1    2    0    0 -0.73193415777E+01 -0.31999235184E+01  0.16937156611E+02  0.72461560250E+02  0.69999986916E+02 0.  0.
        -12    1    1    2    0    0  0.73193415777E+01  0.31999235184E+01 -0.16937156611E+02  0.18726439750E+02  0.00000000000E+00 0.  1.
         11    1    3    3    0    0 -0.20907469755E+02 -0.26146655281E+01  0.28081188821E+02  0.35107149318E+02  0.51100000000E-03 0. -1.
        -11    1    3    3    0    0  0.10227077139E+02  0.15745798911E+02 -0.39049445535E+01  0.19177379445E+02  0.51100000000E-03 0.  1.
        -12    1    3    3    0    0  0.33610510383E+01 -0.16331056901E+02 -0.72390876567E+01  0.18177031487E+02  0.00000000000E+00 0.  1.
</event>
<event>
 7    1  0.3611369E-013  0.7246159E+02  0.7816164E-02  0.1226708E+00
        -11   -1    0    0    0    0  0.00000000000E+00  0.00000000000E+00  0.45593999997E+02  0.45594000000E+02  0.51100000000E-03 0.  1.
         11   -1    0    0    0    0 -0.00000000000E+00 -0.00000000000E+00 -0.45593999997E+02  0.45594000000E+02  0.51100000000E-03 0. -1.
    9900012    2    1    2    0    0 -0.12524954794E+02  0.13433501748E+02  0.36530809170E+01  0.72461589185E+02  0.70000024609E+02 0.  0.
        -12    1    1    2    0    0  0.12524954794E+02 -0.13433501748E+02 -0.36530809170E+01  0.18726410815E+02  0.00000000000E+00 0.  1.
         11    1    3    3    0    0  0.29078157372E+01  0.14376652366E+02 -0.13765437794E+02  0.20115436946E+02  0.51100000000E-03 0. -1.
        -11    1    3    3    0    0  0.13393877248E+02  0.98920654649E+01 -0.60887119294E+00  0.16661921597E+02  0.51100000000E-03 0.  1.
         12    1    3    3    0    0 -0.28826647780E+02 -0.10835216083E+02  0.18027389904E+02  0.35684230642E+02  0.00000000000E+00 0. -1.
</event>
<event>
 7    1  0.3611369E-013  0.7246174E+02  0.7816164E-02  0.1226708E+00
        -11   -1    0    0    0    0  0.00000000000E+00  0.00000000000E+00  0.45593999997E+02  0.45594000000E+02  0.51100000000E-03 0.  1.
         11   -1    0    0    0    0 -0.00000000000E+00 -0.00000000000E+00 -0.45593999997E+02  0.45594000000E+02  0.51100000000E-03 0. -1.
    9900012    2    1    2    0    0  0.56045708306E+01 -0.79992881515E+01 -0.15977261938E+02  0.72461742388E+02  0.70000224183E+02 0.  0.
        -12    1    1    2    0    0 -0.56045708306E+01  0.79992881515E+01  0.15977261938E+02  0.18726257612E+02  0.00000000000E+00 0.  1.
         11    1    3    3    0    0  0.30870476903E+01 -0.17465872841E+01  0.17799860590E+01  0.39684734110E+01  0.51100000000E-03 0. -1.
        -11    1    3    3    0    0 -0.16295002381E+02  0.12369432847E+02  0.15730758559E+02  0.25806718827E+02  0.51100000000E-03 0.  1.
         12    1    3    3    0    0  0.18812525521E+02 -0.18622133714E+02 -0.33488006556E+02  0.42686550149E+02  0.00000000000E+00 0. -1.
</event>
<event>
 7    1  0.3611369E-013  0.7246161E+02  0.7816164E-02  0.1226708E+00
        -11   -1    0    0    0    0  0.00000000000E+00  0.00000000000E+00  0.45593999997E+02  0.45594000000E+02  0.51100000000E-03 0.  1.
         11   -1    0    0    0    0 -0.00000000000E+00 -0.00000000000E+00 -0.45593999997E+02  0.45594000000E+02  0.51100000000E-03 0. -1.
    9900012    2    1    2    0    0  0.10975395438E+02  0.50529879778E+01 -0.14306836471E+02  0.72461613207E+02  0.70000055901E+02 0.  0.
        -12    1    1    2    0    0 -0.10975395438E+02 -0.50529879778E+01  0.14306836471E+02  0.18726386793E+02  0.00000000000E+00 0.  1.
         11    1    3    3    0    0 -0.11074478423E+02 -0.48736538771E+01 -0.30705206831E+02  0.33003125629E+02  0.51100000000E-03 0. -1.
        -11    1    3    3    0    0  0.34268642788E+01  0.10117565936E+01 -0.72394264422E+01  0.80731868344E+01  0.51100000000E-03 0.  1.
        -12    1    3    3    0    0  0.18623009582E+02  0.89148852613E+01  0.23637796802E+02  0.31385300744E+02  0.00000000000E+00 0.  1.
</event>
<event>
 7    1  0.3611369E-013  0.7246156E+02  0.7816164E-02  0.1226708E+00
        -11   -1    0    0    0    0  0.00000000000E+00  0.00000000000E+00  0.45593999997E+02  0.45594000000E+02  0.51100000000E-03 0.  1.
         11   -1    0    0    0    0 -0.00000000000E+00 -0.00000000000E+00 -0.45593999997E+02  0.45594000000E+02  0.51100000000E-03 0. -1.
    9900012    2    1    2    0    0 -0.14701948774E+02  0.52286138263E+00 -0.11587010740E+02  0.72461561479E+02  0.69999988516E+02 0.  0.
        -12    1    1    2    0    0  0.14701948774E+02 -0.52286138263E+00  0.11587010740E+02  0.18726438521E+02  0.00000000000E+00 0.  1.
         11    1    3    3    0    0 -0.10173519958E+02 -0.14930491548E+02  0.83355731204E+01  0.19897282872E+02  0.51100000000E-03 0. -1.
        -11    1    3    3    0    0 -0.12928829656E+02  0.10693029064E+02  0.11071152020E+02  0.20101390851E+02  0.51100000000E-03 0.  1.
         12    1    3    3    0    0  0.84004008398E+01  0.47603238659E+01 -0.30993735881E+02  0.32462887755E+02  0.00000000000E+00 0. -1.
</event>
<event>
 7    1  0.3611369E-013  0.7246155E+02  0.7816164E-02  0.1226708E+00
        -11   -1    0    0    0    0  0.00000000000E+00  0.00000000000E+00  0.45593999997E+02  0.45594000000E+02  0.51100000000E-03 0.  1.
         11   -1    0    0    0    0 -0.00000000000E+00 -0.00000000000E+00 -0.45593999997E+02  0.45594000000E+02  0.51100000000E-03 0. -1.
    9900012    2    1    2    0    0  0.45567535012E+01  0.14979258313E+02 -0.10273154527E+02  0.72461551164E+02  0.69999975079E+02 0.  0.
        -12    1    1    2    0    0 -0.45567535012E+01 -0.14979258313E+02  0.10273154527E+02  0.18726448836E+02  0.00000000000E+00 0.  1.
         11    1    3    3    0    0  0.45946691726E+01 -0.17119030606E+02 -0.25065280272E+01  0.17901253495E+02  0.51100000000E-03 0. -1.
        -11    1    3    3    0    0  0.10630200459E+02  0.10971096015E+02  0.15222061582E+02  0.21565650202E+02  0.51100000000E-03 0.  1.
         12    1    3    3    0    0 -0.10668116131E+02  0.21127192903E+02 -0.22988688082E+02  0.32994647467E+02  0.00000000000E+00 0. -1.
</event>
<event>
 7    1  0.3611369E-013  0.7246145E+02  0.7816164E-02  0.1226708E+00
        -11   -1    0    0    0    0  0.00000000000E+00  0.00000000000E+00  0.45593999997E+02  0.45594000000E+02  0.51100000000E-03 0. -1.
         11   -1    0    0    0    0 -0.00000000000E+00 -0.00000000000E+00 -0.45593999997E+02  0.45594000000E+02  0.51100000000E-03 0.  1.
    9900012    2    1    2    0    0 -0.69031468883E+01 -0.51766619226E+01  0.16620239234E+02  0.72461451524E+02  0.69999845280E+02 0.  0.
        -12    1    1    2    0    0  0.69031468883E+01  0.51766619226E+01 -0.16620239234E+02  0.18726548476E+02  0.00000000000E+00 0.  1.
         11    1    3    3    0    0 -0.40507642183E+01 -0.36790424050E+01  0.14900502334E+02  0.15873531864E+02  0.51100000000E-03 0. -1.
        -11    1    3    3    0    0 -0.57508686641E+01  0.26756461940E+02 -0.38728547931E+01  0.27640183619E+02  0.51100000000E-03 0.  1.
         12    1    3    3    0    0  0.28984859941E+01 -0.28254081458E+02  0.55925916933E+01  0.28947736042E+02  0.00000000000E+00 0. -1.
</event>
<event>
 7    1  0.3611369E-013  0.7246160E+02  0.7816164E-02  0.1226708E+00
        -11   -1    0    0    0    0  0.00000000000E+00  0.00000000000E+00  0.45593999997E+02  0.45594000000E+02  0.51100000000E-03 0. -1.
         11   -1    0    0    0    0 -0.00000000000E+00 -0.00000000000E+00 -0.45593999997E+02  0.45594000000E+02  0.51100000000E-03 0.  1.
    9900012    2    1    2    0    0 -0.50243559914E+01  0.70893865518E+01  0.16588382252E+02  0.72461602040E+02  0.70000041355E+02 0.  0.
        -12    1    1    2    0    0  0.50243559914E+01 -0.70893865518E+01 -0.16588382252E+02  0.18726397960E+02  0.00000000000E+00 0.  1.
         11    1    3    3    0    0  0.11749821946E+02  0.31458236208E+02  0.46867504349E+01  0.33906408996E+02  0.51100000000E-03 0. -1.
        -11    1    3    3    0    0  0.40214827299E+01  0.71515652575E+00  0.11380031703E+01  0.42401442995E+01  0.51100000000E-03 0.  1.
        -12    1    3    3    0    0 -0.20795660667E+02 -0.25084006182E+02  0.10763628647E+02  0.34315048745E+02  0.00000000000E+00 0.  1.
</event>
<event>
 7    1  0.3611369E-013  0.7246158E+02  0.7816164E-02  0.1226708E+00
        -11   -1    0    0    0    0  0.00000000000E+00  0.00000000000E+00  0.45593999997E+02  0.45594000000E+02  0.51100000000E-03 0.  1.
         11   -1    0    0    0    0 -0.00000000000E+00 -0.00000000000E+00 -0.45593999997E+02  0.45594000000E+02  0.51100000000E-03 0. -1.
    9900012    2    1    2    0    0 -0.87836802368E+01 -0.15825803867E+02 -0.48031070069E+01  0.72461576330E+02  0.70000007863E+02 0.  0.
        -12    1    1    2    0    0  0.87836802368E+01  0.15825803867E+02  0.48031070069E+01  0.18726423670E+02  0.00000000000E+00 0.  1.
         11    1    3    3    0    0 -0.12335791450E+02 -0.77393865864E+01  0.36935086671E+01  0.15023709994E+02  0.51100000000E-03 0. -1.
        -11    1    3    3    0    0  0.14409117270E+02  0.16484822796E+02  0.10750358304E+02  0.24391437986E+02  0.51100000000E-03 0.  1.
         12    1    3    3    0    0 -0.10857006056E+02 -0.24571240076E+02 -0.19246973978E+02  0.33046428350E+02  0.00000000000E+00 0. -1.
</event>
<event>
 7    1  0.3611369E-013  0.7246133E+02  0.7816164E-02  0.1226709E+00
        -11   -1    0    0    0    0  0.00000000000E+00  0.00000000000E+00  0.45593999997E+02  0.45594000000E+02  0.51100000000E-03 0. -1.
         11   -1    0    0    0    0 -0.00000000000E+00 -0.00000000000E+00 -0.45593999997E+02  0.45594000000E+02  0.51100000000E-03 0.  1.
    9900012    2    1    2    0    0 -0.58663233862E+01 -0.32610306554E+01  0.17482567572E+02  0.72461328115E+02  0.69999684515E+02 0.  0.
        -12    1    1    2    0    0  0.58663233862E+01  0.32610306554E+01 -0.17482567572E+02  0.18726671885E+02  0.00000000000E+00 0.  1.
         11    1    3    3    0    0  0.31034105730E+01 -0.17225189021E+02 -0.64673334860E+01  0.18659171918E+02  0.51100000000E-03 0. -1.
        -11    1    3    3    0    0 -0.94076138484E+01 -0.14201326583E+02  0.32508871255E+00  0.17037797920E+02  0.51100000000E-03 0.  1.
         12    1    3    3    0    0  0.43787988919E+00  0.28165484948E+02  0.23624812345E+02  0.36764358277E+02  0.00000000000E+00 0. -1.
</event>
<event>
 7    1  0.3611369E-013  0.7246157E+02  0.7816164E-02  0.1226708E+00
        -11   -1    0    0    0    0  0.00000000000E+00  0.00000000000E+00  0.45593999997E+02  0.45594000000E+02  0.51100000000E-03 0. -1.
         11   -1    0    0    0    0 -0.00000000000E+00 -0.00000000000E+00 -0.45593999997E+02  0.45594000000E+02  0.51100000000E-03 0.  1.
    9900012    2    1    2    0    0  0.12541303465E+02 -0.13330144439E+02  0.39626071453E+01  0.72461566844E+02  0.69999995505E+02 0.  0.
        -12    1    1    2    0    0 -0.12541303465E+02  0.13330144439E+02 -0.39626071453E+01  0.18726433156E+02  0.00000000000E+00 0.  1.
         11    1    3    3    0    0 -0.13331058297E+02 -0.16581061547E+02 -0.63306093420E+01  0.22197417243E+02  0.51100000000E-03 0. -1.
        -11    1    3    3    0    0  0.38958342485E+01  0.20734985465E+02  0.37427263332E+01  0.21427205777E+02  0.51100000000E-03 0.  1.
         12    1    3    3    0    0  0.21976527513E+02 -0.17484068357E+02  0.65504901541E+01  0.28836943824E+02  0.00000000000E+00 0. -1.
</event>
<event>
 7    1  0.3611369E-013  0.7246162E+02  0.7816164E-02  0.1226708E+00
        -11   -1    0    0    0    0  0.00000000000E+00  0.00000000000E+00  0.45593999997E+02  0.45594000000E+02  0.51100000000E-03 0.  1.
         11   -1    0    0    0    0 -0.00000000000E+00 -0.00000000000E+00 -0.45593999997E+02  0.45594000000E+02  0.51100000000E-03 0. -1.
    9900012    2    1    2    0    0 -0.99796786481E+00 -0.17709580529E+02  0.60043344721E+01  0.72461622485E+02  0.70000067988E+02 0.  0.
        -12    1    1    2    0    0  0.99796786481E+00  0.17709580529E+02 -0.60043344721E+01  0.18726377515E+02  0.00000000000E+00 0.  1.
         11    1    3    3    0    0 -0.84645739202E+01  0.14727464044E+02 -0.15846864202E+01  0.17060434934E+02  0.51100000000E-03 0. -1.
        -11    1    3    3    0    0 -0.39449820647E+01  0.78086906825E+01  0.10260153576E+02  0.13483667355E+02  0.51100000000E-03 0.  1.
         12    1    3    3    0    0  0.11411588120E+02 -0.40245735255E+02 -0.26711326836E+01  0.41917520197E+02  0.00000000000E+00 0. -1.
</event>
<event>
 7    1  0.3611369E-013  0.7246142E+02  0.7816164E-02  0.1226708E+00
        -11   -1    0    0    0    0  0.00000000000E+00  0.00000000000E+00  0.45593999997E+02  0.45594000000E+02  0.51100000000E-03 0. -1.
         11   -1    0    0    0    0 -0.00000000000E+00 -0.00000000000E+00 -0.45593999997E+02  0.45594000000E+02  0.51100000000E-03 0.  1.
    9900012    2    1    2    0    0 -0.17984940646E+02  0.15504685864E+01 -0.49822493540E+01  0.72461418585E+02  0.69999802370E+02 0.  0.
        -12    1    1    2    0    0  0.17984940646E+02 -0.15504685864E+01  0.49822493540E+01  0.18726581415E+02  0.00000000000E+00 0.  1.
         11    1    3    3    0    0 -0.16326768705E+01  0.14306600250E+02 -0.21646549046E+02  0.25998413996E+02  0.51100000000E-03 0. -1.
        -11    1    3    3    0    0 -0.11875665776E+02  0.30050666066E+01 -0.95614909038E+01  0.15539754551E+02  0.51100000000E-03 0.  1.
         12    1    3    3    0    0 -0.44765979995E+01 -0.15761198270E+02  0.26225790596E+02  0.30923250038E+02  0.00000000000E+00 0. -1.
</event>
<event>
 7    1  0.3611369E-013  0.7246171E+02  0.7816164E-02  0.1226708E+00
        -11   -1    0    0    0    0  0.00000000000E+00  0.00000000000E+00  0.45593999997E+02  0.45594000000E+02  0.51100000000E-03 0. -1.
         11   -1    0    0    0    0 -0.00000000000E+00 -0.00000000000E+00 -0.45593999997E+02  0.45594000000E+02  0.51100000000E-03 0.  1.
    9900012    2    1    2    0    0  0.12952732012E+02  0.11216187230E+02  0.75563082533E+01  0.72461710539E+02  0.70000182695E+02 0.  0.
        -12    1    1    2    0    0 -0.12952732012E+02 -0.11216187230E+02 -0.75563082533E+01  0.18726289461E+02  0.00000000000E+00 0.  1.
         11    1    3    3    0    0  0.19827794903E+02  0.95218855920E+01 -0.57800465944E+01  0.22742398617E+02  0.51100000000E-03 0. -1.
        -11    1    3    3    0    0  0.31122995709E+01  0.22923714009E+02  0.86725734767E+00  0.23150274472E+02  0.51100000000E-03 0.  1.
         12    1    3    3    0    0 -0.99873624616E+01 -0.21229412371E+02  0.12469097500E+02  0.26569037450E+02  0.00000000000E+00 0. -1.
</event>
<event>
 7    1  0.3611369E-013  0.7246141E+02  0.7816164E-02  0.1226708E+00
        -11   -1    0    0    0    0  0.00000000000E+00  0.00000000000E+00  0.45593999997E+02  0.45594000000E+02  0.51100000000E-03 0. -1.
         11   -1    0    0    0    0 -0.00000000000E+00 -0.00000000000E+00 -0.45593999997E+02  0.45594000000E+02  0.51100000000E-03 0.  1.
    9900012    2    1    2    0    0 -0.33713404777E+01 -0.96845446688E+01  0.15669356732E+02  0.72461412418E+02  0.69999794337E+02 0.  0.
        -12    1    1    2    0    0  0.33713404777E+01  0.96845446688E+01 -0.15669356732E+02  0.18726587582E+02  0.00000000000E+00 0.  1.
         11    1    3    3    0    0 -0.49278274257E+00  0.67273978132E+01 -0.62843410679E+01  0.92192005665E+01  0.51100000000E-03 0. -1.
        -11    1    3    3    0    0  0.19595307167E+02  0.95949093485E+01  0.18666017507E+02  0.28713386394E+02  0.51100000000E-03 0.  1.
         12    1    3    3    0    0 -0.22473864902E+02 -0.26006851831E+02  0.32876802931E+01  0.34528825458E+02  0.00000000000E+00 0. -1.
</event>
<event>
 7    1  0.3611369E-013  0.7246146E+02  0.7816164E-02  0.1226708E+00
        -11   -1    0    0    0    0  0.00000000000E+00  0.00000000000E+00  0.45593999997E+02  0.45594000000E+02  0.51100000000E-03 0. -1.
         11   -1    0    0    0    0 -0.00000000000E+00 -0.00000000000E+00 -0.45593999997E+02  0.45594000000E+02  0.51100000000E-03 0.  1.
    9900012    2    1    2    0    0 -0.16899945188E+02 -0.23368444220E+00 -0.80635284222E+01  0.72461461442E+02  0.69999858199E+02 0.  0.
        -12    1    1    2    0    0  0.16899945188E+02  0.23368444220E+00  0.80635284222E+01  0.18726538558E+02  0.00000000000E+00 0.  1.
         11    1    3    3    0    0  0.13613336763E+02 -0.13996632152E+02  0.27217780857E+01  0.19713871401E+02  0.51100000000E-03 0. -1.
        -11    1    3    3    0    0 -0.13872745751E+01 -0.11318765278E+02 -0.85365139912E+01  0.14244684958E+02  0.51100000000E-03 0.  1.
        -12    1    3    3    0    0 -0.29126007375E+02  0.25081712988E+02 -0.22487925166E+01  0.38502905083E+02  0.00000000000E+00 0.  1.
</event>
<event>
 7    1  0.3611369E-013  0.7246160E+02  0.7816164E-02  0.1226708E+00
        -11   -1    0    0    0    0  0.00000000000E+00  0.00000000000E+00  0.45593999997E+02  0.45594000000E+02  0.51100000000E-03 0.  1.
         11   -1    0    0    0    0 -0.00000000000E+00 -0.00000000000E+00 -0.45593999997E+02  0.45594000000E+02  0.51100000000E-03 0. -1.
    9900012    2    1    2    0    0 -0.97742248025E+01 -0.15000223175E+02 -0.54896072874E+01  0.72461602750E+02  0.70000042279E+02 0.  0.
        -12    1    1    2    0    0  0.97742248025E+01  0.15000223175E+02  0.54896072874E+01  0.18726397250E+02  0.00000000000E+00 0.  1.
         11    1    3    3    0    0  0.38968782493E+01 -0.29197359921E+01  0.10487030357E+02  0.11562366727E+02  0.51100000000E-03 0. -1.
        -11    1    3    3    0    0  0.14713596873E+02  0.12855785635E+02  0.81013771729E+00  0.19555497453E+02  0.51100000000E-03 0.  1.
         12    1    3    3    0    0 -0.28384699925E+02 -0.24936272819E+02 -0.16786775362E+02  0.41343738570E+02  0.00000000000E+00 0. -1.
</event>
<event>
 7    1  0.3611369E-013  0.7246167E+02  0.7816164E-02  0.1226708E+00
        -11   -1    0    0    0    0  0.00000000000E+00  0.00000000000E+00  0.45593999997E+02  0.45594000000E+02  0.51100000000E-03 0.  1.
         11   -1    0    0    0    0 -0.00000000000E+00 -0.00000000000E+00 -0.45593999997E+02  0.45594000000E+02  0.51100000000E-03 0. -1.
    9900012    2    1    2    0    0 -0.14043214688E+02  0.99054252551E+01 -0.74394924968E+01  0.72461671559E+02  0.70000131916E+02 0.  0.
        -12    1    1    2    0    0  0.14043214688E+02 -0.99054252551E+01  0.74394924968E+01  0.18726328441E+02  0.00000000000E+00 0.  1.
         11    1    3    3    0    0  0.71812596920E+00 -0.57784257352E+01  0.11137670936E+01  0.59284387729E+01  0.51100000000E-03 0. -1.
        -11    1    3    3    0    0 -0.21467182329E+02 -0.19888133579E+02 -0.79706538652E+01  0.30330003260E+02  0.51100000000E-03 0.  1.
         12    1    3    3    0    0  0.67058416718E+01  0.35571984569E+02 -0.58260572517E+00  0.36203229527E+02  0.00000000000E+00 0. -1.
</event>
<event>
 7    1  0.3611369E-013  0.7246156E+02  0.7816164E-02  0.1226708E+00
        -11   -1    0    0    0    0  0.00000000000E+00  0.00000000000E+00  0.45593999997E+02  0.45594000000E+02  0.51100000000E-03 0.  1.
         11   -1    0    0    0    0 -0.00000000000E+00 -0.00000000000E+00 -0.45593999997E+02  0.45594000000E+02  0.51100000000E-03 0. -1.
    9900012    2    1    2    0    0 -0.65810405785E+01  0.16931335884E+02 -0.45496488415E+01  0.72461560549E+02  0.69999987305E+02 0.  0.
        -12    1    1    2    0    0  0.65810405785E+01 -0.16931335884E+02  0.45496488415E+01  0.18726439451E+02  0.00000000000E+00 0.  1.
         11    1    3    3    0    0  0.53643411183E+01 -0.16753181935E+02  0.17468370855E+02  0.24790910454E+02  0.51100000000E-03 0. -1.
        -11    1    3    3    0    0  0.37604037866E+01  0.41298610477E+01  0.25626941550E+01  0.61452250167E+01  0.51100000000E-03 0.  1.
         12    1    3    3    0    0 -0.15705785483E+02  0.29554656771E+02 -0.24580713851E+02  0.41525425078E+02  0.00000000000E+00 0. -1.
</event>
<event>
 7    1  0.3611369E-013  0.7246158E+02  0.7816164E-02  0.1226708E+00
        -11   -1    0    0    0    0  0.00000000000E+00  0.00000000000E+00  0.45593999997E+02  0.45594000000E+02  0.51100000000E-03 0. -1.
         11   -1    0    0    0    0 -0.00000000000E+00 -0.00000000000E+00 -0.45593999997E+02  0.45594000000E+02  0.51100000000E-03 0.  1.
    9900012    2    1    2    0    0 -0.21692176481E+01 -0.32294969352E+01  0.18317849535E+02  0.72461581036E+02  0.70000013993E+02 0.  0.
        -12    1    1    2    0    0  0.21692176481E+01  0.32294969352E+01 -0.18317849535E+02  0.18726418964E+02  0.00000000000E+00 0.  1.
         11    1    3    3    0    0 -0.48467230633E+01 -0.10271289685E+02  0.19955685320E+02  0.22961260703E+02  0.51100000000E-03 0. -1.
        -11    1    3    3    0    0 -0.12686110759E+02 -0.79713979689E+01  0.15842801400E+02  0.21805388054E+02  0.51100000000E-03 0.  1.
        -12    1    3    3    0    0  0.15363616174E+02  0.15013190719E+02 -0.17480637185E+02  0.27694932278E+02  0.00000000000E+00 0.  1.
</event>
<event>
 7    1  0.3611369E-013  0.7246156E+02  0.7816164E-02  0.1226708E+00
        -11   -1    0    0    0    0  0.00000000000E+00  0.00000000000E+00  0.45593999997E+02  0.45594000000E+02  0.51100000000E-03 0.  1.
         11   -1    0    0    0    0 -0.00000000000E+00 -0.00000000000E+00 -0.45593999997E+02  0.45594000000E+02  0.51100000000E-03 0. -1.
    9900012    2    1    2    0    0 -0.40998705565E-02 -0.24966738520E+01 -0.18559264806E+02  0.72461555936E+02  0.69999981296E+02 0.  0.
        -12    1    1    2    0    0  0.40998705565E-02  0.24966738520E+01  0.18559264806E+02  0.18726444064E+02  0.00000000000E+00 0.  1.
         11    1    3    3    0    0 -0.23894229910E+02 -0.39953647198E+01 -0.46190068793E+01  0.24662367831E+02  0.51100000000E-03 0. -1.
        -11    1    3    3    0    0 -0.50644407339E+01  0.99548595818E+01 -0.13645406469E+02  0.17633630007E+02  0.51100000000E-03 0.  1.
         12    1    3    3    0    0  0.28954570773E+02 -0.84561687140E+01 -0.29485145726E+00  0.30165558098E+02  0.00000000000E+00 0. -1.
</event>
<event>
 7    1  0.3611369E-013  0.7246158E+02  0.7816164E-02  0.1226708E+00
        -11   -1    0    0    0    0  0.00000000000E+00  0.00000000000E+00  0.45593999997E+02  0.45594000000E+02  0.51100000000E-03 0.  1.
         11   -1    0    0    0    0 -0.00000000000E+00 -0.00000000000E+00 -0.45593999997E+02  0.45594000000E+02  0.51100000000E-03 0. -1.
    9900012    2    1    2    0    0 -0.10369093696E+02 -0.69270619948E+01 -0.13970552983E+02  0.72461584363E+02  0.70000018326E+02 0.  0.
        -12    1    1    2    0    0  0.10369093696E+02  0.69270619948E+01  0.13970552983E+02  0.18726415637E+02  0.00000000000E+00 0.  1.
         11    1    3    3    0    0 -0.93500345628E+01  0.42419038450E+01 -0.78405191182E+00  0.10297166223E+02  0.51100000000E-03 0.  1.
        -11    1    3    3    0    0  0.19391099292E+02  0.15383539333E+02  0.30613595457E+01  0.24940728471E+02  0.51100000000E-03 0. -1.
        -12    1    3    3    0    0 -0.20410158426E+02 -0.26552505172E+02 -0.16247860617E+02  0.37223689668E+02  0.00000000000E+00 0.  1.
</event>
<event>
 7    1  0.3611369E-013  0.7246157E+02  0.7816164E-02  0.1226708E+00
        -11   -1    0    0    0    0  0.00000000000E+00  0.00000000000E+00  0.45593999997E+02  0.45594000000E+02  0.51100000000E-03 0. -1.
         11   -1    0    0    0    0 -0.00000000000E+00 -0.00000000000E+00 -0.45593999997E+02  0.45594000000E+02  0.51100000000E-03 0.  1.
    9900012    2    1    2    0    0  0.88753370166E+01  0.15801798645E+02  0.47128305247E+01  0.72461568970E+02  0.69999998274E+02 0.  0.
        -12    1    1    2    0    0 -0.88753370166E+01 -0.15801798645E+02 -0.47128305247E+01  0.18726431030E+02  0.00000000000E+00 0.  1.
         11    1    3    3    0    0 -0.23686743092E+02  0.20671097852E+02 -0.25014393003E+01  0.31537490128E+02  0.51100000000E-03 0. -1.
        -11    1    3    3    0    0  0.16431646853E+02  0.51557274044E+01  0.12418505830E+02  0.21232047256E+02  0.51100000000E-03 0.  1.
        -12    1    3    3    0    0  0.16130433256E+02 -0.10025026612E+02 -0.52042360047E+01  0.19692031586E+02  0.00000000000E+00 0.  1.
</event>
<event>
 7    1  0.3611369E-013  0.7246161E+02  0.7816164E-02  0.1226708E+00
        -11   -1    0    0    0    0  0.00000000000E+00  0.00000000000E+00  0.45593999997E+02  0.45594000000E+02  0.51100000000E-03 0.  1.
         11   -1    0    0    0    0 -0.00000000000E+00 -0.00000000000E+00 -0.45593999997E+02  0.45594000000E+02  0.51100000000E-03 0. -1.
    9900012    2    1    2    0    0 -0.14238408053E+02  0.11000564062E+02 -0.51897092820E+01  0.72461608036E+02  0.70000049165E+02 0.  0.
        -12    1    1    2    0    0  0.14238408053E+02 -0.11000564062E+02  0.51897092820E+01  0.18726391964E+02  0.00000000000E+00 0.  1.
         11    1    3    3    0    0 -0.11741375305E+01 -0.53851237923E+01  0.94543348592E+01  0.10943610240E+02  0.51100000000E-03 0. -1.
        -11    1    3    3    0    0 -0.81616955127E+01 -0.10488819278E+02  0.15778800945E+02  0.20630054848E+02  0.51100000000E-03 0.  1.
         12    1    3    3    0    0 -0.49025750097E+01  0.26874507133E+02 -0.30422845086E+02  0.40887942948E+02  0.00000000000E+00 0. -1.
</event>
<event>
 7    1  0.3611369E-013  0.7246156E+02  0.7816164E-02  0.1226708E+00
        -11   -1    0    0    0    0  0.00000000000E+00  0.00000000000E+00  0.45593999997E+02  0.45594000000E+02  0.51100000000E-03 0.  1.
         11   -1    0    0    0    0 -0.00000000000E+00 -0.00000000000E+00 -0.45593999997E+02  0.45594000000E+02  0.51100000000E-03 0. -1.
    9900012    2    1    2    0    0  0.22360070203E+01 -0.10163135392E+02 -0.15568894284E+02  0.72461561000E+02  0.69999987893E+02 0.  0.
        -12    1    1    2    0    0 -0.22360070203E+01  0.10163135392E+02  0.15568894284E+02  0.18726439000E+02  0.00000000000E+00 0.  1.
         11    1    3    3    0    0  0.70536568201E+01  0.19400061071E+01  0.76330238041E+00  0.73552925854E+01  0.51100000000E-03 0.  1.
        -11    1    3    3    0    0 -0.16302756244E+02 -0.13245423796E+02 -0.36359695180E+02  0.41991053173E+02  0.51100000000E-03 0. -1.
         12    1    3    3    0    0  0.11485106445E+02  0.11422822970E+01  0.20027498516E+02  0.23115215242E+02  0.00000000000E+00 0. -1.
</event>
<event>
 7    1  0.3611369E-013  0.7246155E+02  0.7816164E-02  0.1226708E+00
        -11   -1    0    0    0    0  0.00000000000E+00  0.00000000000E+00  0.45593999997E+02  0.45594000000E+02  0.51100000000E-03 0.  1.
         11   -1    0    0    0    0 -0.00000000000E+00 -0.00000000000E+00 -0.45593999997E+02  0.45594000000E+02  0.51100000000E-03 0. -1.
    9900012    2    1    2    0    0 -0.72692611066E+01 -0.16782891844E+02 -0.40214740430E+01  0.72461551614E+02  0.69999975665E+02 0.  0.
        -12    1    1    2    0    0  0.72692611066E+01  0.16782891844E+02  0.40214740430E+01  0.18726448386E+02  0.00000000000E+00 0.  1.
         11    1    3    3    0    0 -0.20444317665E+02  0.36107868633E+01 -0.10200091422E+02  0.23131142900E+02  0.51100000000E-03 0. -1.
        -11    1    3    3    0    0 -0.63212148283E+01 -0.79769385034E+01 -0.14902430455E+02  0.18046377435E+02  0.51100000000E-03 0.  1.
        -12    1    3    3    0    0  0.19496271387E+02 -0.12416740204E+02  0.21081047834E+02  0.31284031279E+02  0.00000000000E+00 0.  1.
</event>
<event>
 7    1  0.3611369E-013  0.7246155E+02  0.7816164E-02  0.1226708E+00
        -11   -1    0    0    0    0  0.00000000000E+00  0.00000000000E+00  0.45593999997E+02  0.45594000000E+02  0.51100000000E-03 0.  1.
         11   -1    0    0    0    0 -0.00000000000E+00 -0.00000000000E+00 -0.45593999997E+02  0.45594000000E+02  0.51100000000E-03 0. -1.
    9900012    2    1    2    0    0  0.58325196290E+01  0.48332625921E+01 -0.17126034826E+02  0.72461553958E+02  0.69999978718E+02 0.  0.
        -12    1    1    2    0    0 -0.58325196290E+01 -0.48332625921E+01  0.17126034826E+02  0.18726446042E+02  0.00000000000E+00 0.  1.
         11    1    3    3    0    0  0.21092206811E+02  0.16502741979E+02 -0.25758113327E+02  0.37157799766E+02  0.51100000000E-03 0. -1.
        -11    1    3    3    0    0  0.46183251594E+01  0.56445569316E+01 -0.72976411994E+00  0.73295638454E+01  0.51100000000E-03 0.  1.
        -12    1    3    3    0    0 -0.19878012342E+02 -0.17314036318E+02  0.93618426206E+01  0.27974190347E+02  0.00000000000E+00 0.  1.
</event>
<event>
 7    1  0.3611369E-013  0.7246157E+02  0.7816164E-02  0.1226708E+00
        -11   -1    0    0    0    0  0.00000000000E+00  0.00000000000E+00  0.45593999997E+02  0.45594000000E+02  0.51100000000E-03 0. -1.
         11   -1    0    0    0    0 -0.00000000000E+00 -0.00000000000E+00 -0.45593999997E+02  0.45594000000E+02  0.51100000000E-03 0.  1.
    9900012    2    1    2    0    0 -0.15020425111E+02  0.11045457441E+02  0.17504288335E+01  0.72461566765E+02  0.69999995402E+02 0.  0.
        -12    1    1    2    0    0  0.15020425111E+02 -0.11045457441E+02 -0.17504288335E+01  0.18726433235E+02  0.00000000000E+00 0.  1.
         11    1    3    3    0    0 -0.50283899849E+01  0.61442254130E+01  0.20118170214E+01  0.81904590686E+01  0.51100000000E-03 0. -1.
        -11    1    3    3    0    0 -0.31522125071E+02  0.16114324131E+02 -0.11901984386E+02  0.37349337929E+02  0.51100000000E-03 0.  1.
         12    1    3    3    0    0  0.21530089944E+02 -0.11213092102E+02  0.11640596199E+02  0.26921769767E+02  0.00000000000E+00 0. -1.
</event>
<event>
 7    1  0.3611369E-013  0.7246164E+02  0.7816164E-02  0.1226708E+00
        -11   -1    0    0    0    0  0.00000000000E+00  0.00000000000E+00  0.45593999997E+02  0.45594000000E+02  0.51100000000E-03 0. -1.
         11   -1    0    0    0    0 -0.00000000000E+00 -0.00000000000E+00 -0.45593999997E+02  0.45594000000E+02  0.51100000000E-03 0.  1.
    9900012    2    1    2    0    0  0.34445683886E+01 -0.68758628984E+01  0.17074366839E+02  0.72461640372E+02  0.70000091289E+02 0.  0.
        -12    1    1    2    0    0 -0.34445683886E+01  0.68758628984E+01 -0.17074366839E+02  0.18726359628E+02  0.00000000000E+00 0.  1.
         11    1    3    3    0    0  0.33835327409E+02 -0.90983523925E+01  0.20320114925E+02  0.40503289595E+02  0.51100000000E-03 0. -1.
        -11    1    3    3    0    0 -0.56028062125E+01 -0.25949900499E+01 -0.25963866229E+01  0.66982560843E+01  0.51100000000E-03 0.  1.
        -12    1    3    3    0    0 -0.24787952808E+02  0.48174795439E+01 -0.64936146343E+00  0.25260094693E+02  0.00000000000E+00 0.  1.
</event>
<event>
 7    1  0.3611369E-013  0.7246159E+02  0.7816164E-02  0.1226708E+00
        -11   -1    0    0    0    0  0.00000000000E+00  0.00000000000E+00  0.45593999997E+02  0.45594000000E+02  0.51100000000E-03 0. -1.
         11   -1    0    0    0    0 -0.00000000000E+00 -0.00000000000E+00 -0.45593999997E+02  0.45594000000E+02  0.51100000000E-03 0.  1.
    9900012    2    1    2    0    0  0.10505808945E+02 -0.65780819860E+01  0.14036922435E+02  0.72461591491E+02  0.70000027612E+02 0.  0.
        -12    1    1    2    0    0 -0.10505808945E+02  0.65780819860E+01 -0.14036922435E+02  0.18726408509E+02  0.00000000000E+00 0.  1.
         11    1    3    3    0    0 -0.22036803576E+01  0.30499162494E+01 -0.77852185693E+01  0.86468389993E+01  0.51100000000E-03 0. -1.
        -11    1    3    3    0    0 -0.46165300755E+01 -0.24115895714E+02 -0.85197380044E+01  0.25989896343E+02  0.51100000000E-03 0.  1.
         12    1    3    3    0    0  0.17326019378E+02  0.14487897478E+02  0.30341879009E+02  0.37824856148E+02  0.00000000000E+00 0. -1.
</event>
<event>
 7    1  0.3611369E-013  0.7246157E+02  0.7816164E-02  0.1226708E+00
        -11   -1    0    0    0    0  0.00000000000E+00  0.00000000000E+00  0.45593999997E+02  0.45594000000E+02  0.51100000000E-03 0. -1.
         11   -1    0    0    0    0 -0.00000000000E+00 -0.00000000000E+00 -0.45593999997E+02  0.45594000000E+02  0.51100000000E-03 0.  1.
    9900012    2    1    2    0    0 -0.65696697224E+01  0.98150267430E+01  0.14532171797E+02  0.72461566080E+02  0.69999994510E+02 0.  0.
        -12    1    1    2    0    0  0.65696697224E+01 -0.98150267430E+01 -0.14532171797E+02  0.18726433920E+02  0.00000000000E+00 0.  1.
         11    1    3    3    0    0  0.64795966765E+01 -0.17417835441E+02  0.12814775757E+02  0.22573981539E+02  0.51100000000E-03 0. -1.
        -11    1    3    3    0    0 -0.13380189124E+02 -0.66395356620E+00  0.14024578852E+02  0.19394821668E+02  0.51100000000E-03 0.  1.
        -12    1    3    3    0    0  0.33092272479E+00  0.27896815750E+02 -0.12307182811E+02  0.30492762873E+02  0.00000000000E+00 0.  1.
</event>
<event>
 7    1  0.3611369E-013  0.7246150E+02  0.7816164E-02  0.1226708E+00
        -11   -1    0    0    0    0  0.00000000000E+00  0.00000000000E+00  0.45593999997E+02  0.45594000000E+02  0.51100000000E-03 0. -1.
         11   -1    0    0    0    0 -0.00000000000E+00 -0.00000000000E+00 -0.45593999997E+02  0.45594000000E+02  0.51100000000E-03 0.  1.
    9900012    2    1    2    0    0  0.18032257716E+02  0.50384173497E+01 -0.36596937082E+00  0.72461497355E+02  0.69999904983E+02 0.  0.
        -12    1    1    2    0    0 -0.18032257716E+02 -0.50384173497E+01  0.36596937082E+00  0.18726502645E+02  0.00000000000E+00 0.  1.
         11    1    3    3    0    0 -0.29222524587E+01 -0.12805088046E+02  0.36764620481E+01  0.13639142669E+02  0.51100000000E-03 0. -1.
        -11    1    3    3    0    0 -0.17549590676E+01  0.43773132866E+01  0.21545451000E+02  0.22055548327E+02  0.51100000000E-03 0.  1.
        -12    1    3    3    0    0  0.22709469242E+02  0.13466192109E+02 -0.25587882419E+02  0.36766806359E+02  0.00000000000E+00 0.  1.
</event>
<event>
 7    1  0.3611369E-013  0.7246161E+02  0.7816164E-02  0.1226708E+00
        -11   -1    0    0    0    0  0.00000000000E+00  0.00000000000E+00  0.45593999997E+02  0.45594000000E+02  0.51100000000E-03 0.  1.
         11   -1    0    0    0    0 -0.00000000000E+00 -0.00000000000E+00 -0.45593999997E+02  0.45594000000E+02  0.51100000000E-03 0. -1.
    9900012    2    1    2    0    0  0.14697385236E+02  0.34882535385E+01 -0.11067828077E+02  0.72461605155E+02  0.70000045413E+02 0.  0.
        -12    1    1    2    0    0 -0.14697385236E+02 -0.34882535385E+01  0.11067828077E+02  0.18726394845E+02  0.00000000000E+00 0.  1.
         11    1    3    3    0    0 -0.16869458032E+02 -0.17802675970E+02 -0.99742023068E+01  0.26476378111E+02  0.51100000000E-03 0. -1.
        -11    1    3    3    0    0  0.96068533484E+01 -0.51261143653E+01  0.32390790457E+01  0.11360471516E+02  0.51100000000E-03 0.  1.
        -12    1    3    3    0    0  0.21959989920E+02  0.26417043874E+02 -0.43327048162E+01  0.34624755527E+02  0.00000000000E+00 0.  1.
</event>
<event>
 7    1  0.3611369E-013  0.7246155E+02  0.7816164E-02  0.1226708E+00
        -11   -1    0    0    0    0  0.00000000000E+00  0.00000000000E+00  0.45593999997E+02  0.45594000000E+02  0.51100000000E-03 0.  1.
         11   -1    0    0    0    0 -0.00000000000E+00 -0.00000000000E+00 -0.45593999997E+02  0.45594000000E+02  0.51100000000E-03 0. -1.
    9900012    2    1    2    0    0  0.11456227126E+02  0.48061112095E+01 -0.14011999006E+02  0.72461549160E+02  0.69999972469E+02 0.  0.
        -12    1    1    2    0    0 -0.11456227126E+02 -0.48061112095E+01  0.14011999006E+02  0.18726450840E+02  0.00000000000E+00 0.  1.
         11    1    3    3    0    0  0.12024578364E+02  0.54160207652E+01 -0.15945246386E+02  0.20692381408E+02  0.51100000000E-03 0. -1.
        -11    1    3    3    0    0  0.15960167787E+02  0.16441525787E+02  0.12128252584E+02  0.25925763961E+02  0.51100000000E-03 0.  1.
        -12    1    3    3    0    0 -0.16528519025E+02 -0.17051435342E+02 -0.10195005204E+02  0.25843403791E+02  0.00000000000E+00 0.  1.
</event>
<event>
 7    1  0.3611369E-013  0.7246160E+02  0.7816164E-02  0.1226708E+00
        -11   -1    0    0    0    0  0.00000000000E+00  0.00000000000E+00  0.45593999997E+02  0.45594000000E+02  0.51100000000E-03 0.  1.
         11   -1    0    0    0    0 -0.00000000000E+00 -0.00000000000E+00 -0.45593999997E+02  0.45594000000E+02  0.51100000000E-03 0. -1.
    9900012    2    1    2    0    0  0.83252999084E+01 -0.16436958659E+02 -0.33457338310E+01  0.72461597158E+02  0.70000034995E+02 0.  0.
        -12    1    1    2    0    0 -0.83252999084E+01  0.16436958659E+02  0.33457338310E+01  0.18726402842E+02  0.00000000000E+00 0.  1.
         11    1    3    3    0    0  0.11865600005E+01 -0.94783959096E+01  0.66683817802E+01  0.11649687956E+02  0.51100000000E-03 0. -1.
        -11    1    3    3    0    0 -0.19198465129E+02 -0.20428949767E+01 -0.23828240223E+02  0.30668216701E+02  0.51100000000E-03 0.  1.
         12    1    3    3    0    0  0.26337205037E+02 -0.49156677725E+01  0.13814124612E+02  0.30143692501E+02  0.00000000000E+00 0. -1.
</event>
<event>
 7    1  0.3611369E-013  0.7246119E+02  0.7816164E-02  0.1226709E+00
        -11   -1    0    0    0    0  0.00000000000E+00  0.00000000000E+00  0.45593999997E+02  0.45594000000E+02  0.51100000000E-03 0.  1.
         11   -1    0    0    0    0 -0.00000000000E+00 -0.00000000000E+00 -0.45593999997E+02  0.45594000000E+02  0.51100000000E-03 0. -1.
    9900012    2    1    2    0    0  0.78117146666E+00  0.40473500413E+01 -0.18267517435E+02  0.72461188620E+02  0.69999502797E+02 0.  0.
        -12    1    1    2    0    0 -0.78117146666E+00 -0.40473500413E+01  0.18267517435E+02  0.18726811380E+02  0.00000000000E+00 0.  1.
         11    1    3    3    0    0  0.99944803124E+00  0.11655507414E+01 -0.33716576178E+02  0.33751517215E+02  0.51100000000E-03 0. -1.
        -11    1    3    3    0    0  0.57395238472E+01  0.85946847962E+01 -0.84979218835E+01  0.13380038017E+02  0.51100000000E-03 0.  1.
        -12    1    3    3    0    0 -0.59578004118E+01 -0.57128854963E+01  0.23946980627E+02  0.25329633388E+02  0.00000000000E+00 0.  1.
</event>
<event>
 7    1  0.3611369E-013  0.7246159E+02  0.7816164E-02  0.1226708E+00
        -11   -1    0    0    0    0  0.00000000000E+00  0.00000000000E+00  0.45593999997E+02  0.45594000000E+02  0.51100000000E-03 0. -1.
         11   -1    0    0    0    0 -0.00000000000E+00 -0.00000000000E+00 -0.45593999997E+02  0.45594000000E+02  0.51100000000E-03 0.  1.
    9900012    2    1    2    0    0  0.72968318071E-01  0.17994126346E+02  0.51850411307E+01  0.72461586599E+02  0.70000021240E+02 0.  0.
        -12    1    1    2    0    0 -0.72968318071E-01 -0.17994126346E+02 -0.51850411307E+01  0.18726413401E+02  0.00000000000E+00 0.  1.
         11    1    3    3    0    0  0.20521197441E+02  0.24514894732E+02 -0.12439670658E+02  0.34305174748E+02  0.51100000000E-03 0. -1.
        -11    1    3    3    0    0 -0.11606722721E+02  0.95998991757E+01  0.10844078776E+02  0.18559852404E+02  0.51100000000E-03 0.  1.
        -12    1    3    3    0    0 -0.88415064019E+01 -0.16120667562E+02  0.67806330129E+01  0.19596559447E+02  0.00000000000E+00 0.  1.
</event>
<event>
 7    1  0.3611369E-013  0.7246155E+02  0.7816164E-02  0.1226708E+00
        -11   -1    0    0    0    0  0.00000000000E+00  0.00000000000E+00  0.45593999997E+02  0.45594000000E+02  0.51100000000E-03 0.  1.
         11   -1    0    0    0    0 -0.00000000000E+00 -0.00000000000E+00 -0.45593999997E+02  0.45594000000E+02  0.51100000000E-03 0. -1.
    9900012    2    1    2    0    0 -0.14740021790E+02 -0.23106708212E+01 -0.11316905109E+02  0.72461553907E+02  0.69999978653E+02 0.  0.
        -12    1    1    2    0    0  0.14740021790E+02  0.23106708212E+01  0.11316905109E+02  0.18726446093E+02  0.00000000000E+00 0.  1.
         11    1    3    3    0    0 -0.31212661477E+01 -0.74911642095E+01 -0.14858399022E+02  0.16930205709E+02  0.51100000000E-03 0. -1.
        -11    1    3    3    0    0 -0.17849471902E+02  0.27197418494E+02  0.24517673197E+01  0.32623831522E+02  0.51100000000E-03 0.  1.
         12    1    3    3    0    0  0.62307162596E+01 -0.22016925106E+02  0.10897265938E+01  0.22907516676E+02  0.00000000000E+00 0. -1.
</event>
<event>
 7    1  0.3611369E-013  0.7246157E+02  0.7816164E-02  0.1226708E+00
        -11   -1    0    0    0    0  0.00000000000E+00  0.00000000000E+00  0.45593999997E+02  0.45594000000E+02  0.51100000000E-03 0.  1.
         11   -1    0    0    0    0 -0.00000000000E+00 -0.00000000000E+00 -0.45593999997E+02  0.45594000000E+02  0.51100000000E-03 0. -1.
    9900012    2    1    2    0    0  0.16035561400E+02  0.74743801107E+01 -0.61378926971E+01  0.72461566431E+02  0.69999994967E+02 0.  0.
        -12    1    1    2    0    0 -0.16035561400E+02 -0.74743801107E+01  0.61378926971E+01  0.18726433569E+02  0.00000000000E+00 0.  1.
         11    1    3    3    0    0  0.38881996656E+02  0.14722075610E+02 -0.13969063583E+01  0.41599285112E+02  0.51100000000E-03 0. -1.
        -11    1    3    3    0    0  0.17760480375E+01 -0.26031868102E+01 -0.48754154092E+01  0.58052221210E+01  0.51100000000E-03 0.  1.
        -12    1    3    3    0    0 -0.24622483293E+02 -0.46445086888E+01  0.13442907047E+00  0.25057059198E+02  0.00000000000E+00 0.  1.
</event>
<event>
 7    1  0.3611369E-013  0.7246158E+02  0.7816164E-02  0.1226708E+00
        -11   -1    0    0    0    0  0.00000000000E+00  0.00000000000E+00  0.45593999997E+02  0.45594000000E+02  0.51100000000E-03 0. -1.
         11   -1    0    0    0    0 -0.00000000000E+00 -0.00000000000E+00 -0.45593999997E+02  0.45594000000E+02  0.51100000000E-03 0.  1.
    9900012    2    1    2    0    0 -0.57550799540E+00 -0.10291603639E+02  0.15634278542E+02  0.72461575343E+02  0.70000006576E+02 0.  0.
        -12    1    1    2    0    0  0.57550799540E+00  0.10291603639E+02 -0.15634278542E+02  0.18726424657E+02  0.00000000000E+00 0.  1.
         11    1    3    3    0    0 -0.44905618384E+01  0.68341217053E+01 -0.57562517843E+01  0.10000239996E+02  0.51100000000E-03 0. -1.
        -11    1    3    3    0    0 -0.15842241058E+02  0.14018951191E+02  0.34039548203E+01  0.21426490681E+02  0.51100000000E-03 0.  1.
         12    1    3    3    0    0  0.19757294901E+02 -0.31144676535E+02  0.17986575506E+02  0.41034844666E+02  0.00000000000E+00 0. -1.
</event>
<event>
 7    1  0.3611369E-013  0.7246168E+02  0.7816164E-02  0.1226708E+00
        -11   -1    0    0    0    0  0.00000000000E+00  0.00000000000E+00  0.45593999997E+02  0.45594000000E+02  0.51100000000E-03 0.  1.
         11   -1    0    0    0    0 -0.00000000000E+00 -0.00000000000E+00 -0.45593999997E+02  0.45594000000E+02  0.51100000000E-03 0. -1.
    9900012    2    1    2    0    0  0.72036577705E+00  0.17177895878E+02 -0.74213150199E+01  0.72461682949E+02  0.70000146754E+02 0.  0.
        -12    1    1    2    0    0 -0.72036577705E+00 -0.17177895878E+02  0.74213150199E+01  0.18726317051E+02  0.00000000000E+00 0.  1.
         11    1    3    3    0    0 -0.58218358671E+01 -0.52341293209E+01 -0.25959034834E+02  0.27113859415E+02  0.51100000000E-03 0. -1.
        -11    1    3    3    0    0  0.17974576380E+02  0.27746504040E+01  0.48583911888E+01  0.18825197107E+02  0.51100000000E-03 0.  1.
        -12    1    3    3    0    0 -0.11432374736E+02  0.19637374795E+02  0.13679328626E+02  0.26522626427E+02  0.00000000000E+00 0.  1.
</event>
<event>
 7    1  0.3611369E-013  0.7246154E+02  0.7816164E-02  0.1226708E+00
        -11   -1    0    0    0    0  0.00000000000E+00  0.00000000000E+00  0.45593999997E+02  0.45594000000E+02  0.51100000000E-03 0. -1.
         11   -1    0    0    0    0 -0.00000000000E+00 -0.00000000000E+00 -0.45593999997E+02  0.45594000000E+02  0.51100000000E-03 0.  1.
    9900012    2    1    2    0    0  0.11327404759E+02 -0.11405585325E+02  0.96064038601E+01  0.72461535563E+02  0.69999954756E+02 0.  0.
        -12    1    1    2    0    0 -0.11327404759E+02  0.11405585325E+02 -0.96064038601E+01  0.18726464437E+02  0.00000000000E+00 0.  1.
         11    1    3    3    0    0  0.17246984913E+02 -0.11752582639E+02  0.44117603746E+00  0.20875256258E+02  0.51100000000E-03 0. -1.
        -11    1    3    3    0    0  0.57878275212E+01 -0.23267735571E+02  0.10183415994E+01  0.23998405903E+02  0.51100000000E-03 0.  1.
         12    1    3    3    0    0 -0.11707407675E+02  0.23614732885E+02  0.81468862232E+01  0.27587873402E+02  0.00000000000E+00 0. -1.
</event>
<event>
 7    1  0.3611369E-013  0.7246148E+02  0.7816164E-02  0.1226708E+00
        -11   -1    0    0    0    0  0.00000000000E+00  0.00000000000E+00  0.45593999997E+02  0.45594000000E+02  0.51100000000E-03 0.  1.
         11   -1    0    0    0    0 -0.00000000000E+00 -0.00000000000E+00 -0.45593999997E+02  0.45594000000E+02  0.51100000000E-03 0. -1.
    9900012    2    1    2    0    0  0.71770073958E+01 -0.61959436150E+01 -0.16148786330E+02  0.72461482642E+02  0.69999885816E+02 0.  0.
        -12    1    1    2    0    0 -0.71770073958E+01  0.61959436150E+01  0.16148786330E+02  0.18726517358E+02  0.00000000000E+00 0.  1.
         11    1    3    3    0    0  0.20795852610E+02 -0.17556137128E+02 -0.11931198085E+02  0.29715970868E+02  0.51100000000E-03 0. -1.
        -11    1    3    3    0    0  0.11073444636E+02 -0.38332345659E+01 -0.69510920234E+01  0.13624703444E+02  0.51100000000E-03 0.  1.
        -12    1    3    3    0    0 -0.24692289850E+02  0.15193428079E+02  0.27335037786E+01  0.29120808330E+02  0.00000000000E+00 0.  1.
</event>
<event>
 7    1  0.3611369E-013  0.7246154E+02  0.7816164E-02  0.1226708E+00
        -11   -1    0    0    0    0  0.00000000000E+00  0.00000000000E+00  0.45593999997E+02  0.45594000000E+02  0.51100000000E-03 0.  1.
         11   -1    0    0    0    0 -0.00000000000E+00 -0.00000000000E+00 -0.45593999997E+02  0.45594000000E+02  0.51100000000E-03 0. -1.
    9900012    2    1    2    0    0 -0.15183078882E+01  0.18658720863E+02 -0.47668494744E+00  0.72461538732E+02  0.69999958884E+02 0.  0.
        -12    1    1    2    0    0  0.15183078882E+01 -0.18658720863E+02  0.47668494744E+00  0.18726461268E+02  0.00000000000E+00 0.  1.
         11    1    3    3    0    0  0.15772370057E+02 -0.17610033573E+01  0.40899151041E+01  0.16388904657E+02  0.51100000000E-03 0.  1.
        -11    1    3    3    0    0 -0.30337514785E+02  0.21836529310E+02  0.76375906058E+01  0.38151429936E+02  0.51100000000E-03 0. -1.
         12    1    3    3    0    0  0.13046836840E+02 -0.14168050895E+01 -0.12204190657E+02  0.17921204139E+02  0.00000000000E+00 0. -1.
</event>
<event>
 7    1  0.6655328E-013  0.7246142E+02  0.7816164E-02  0.1226708E+00
        -11   -1    0    0    0    0  0.00000000000E+00  0.00000000000E+00  0.45593999997E+02  0.45594000000E+02  0.51100000000E-03 0. -1.
         11   -1    0    0    0    0 -0.00000000000E+00 -0.00000000000E+00 -0.45593999997E+02  0.45594000000E+02  0.51100000000E-03 0.  1.
    9900012    2    1    2    0    0  0.16040819219E+02  0.68978576477E+01  0.67673142645E+01  0.72461418259E+02  0.69999801946E+02 0.  0.
        -12    1    1    2    0    0 -0.16040819219E+02 -0.68978576477E+01 -0.67673142645E+01  0.18726581741E+02  0.00000000000E+00 0.  1.
         11    1    3    3    0    0  0.13929814745E+02  0.16685202885E+02  0.28136124645E+02  0.35553863987E+02  0.51100000000E-03 0. -1.
        -11    1    3    3    0    0  0.12126692291E+02  0.24554660335E+01 -0.31248790356E+01  0.12761302779E+02  0.51100000000E-03 0.  1.
        -12    1    3    3    0    0 -0.10015687817E+02 -0.12242811271E+02 -0.18243931345E+02  0.24146251493E+02  0.00000000000E+00 0.  1.
</event>
<event>
 7    1  0.3611369E-013  0.7246159E+02  0.7816164E-02  0.1226708E+00
        -11   -1    0    0    0    0  0.00000000000E+00  0.00000000000E+00  0.45593999997E+02  0.45594000000E+02  0.51100000000E-03 0.  1.
         11   -1    0    0    0    0 -0.00000000000E+00 -0.00000000000E+00 -0.45593999997E+02  0.45594000000E+02  0.51100000000E-03 0. -1.
    9900012    2    1    2    0    0  0.15562144287E+02 -0.92472499453E+01 -0.47944216583E+01  0.72461589629E+02  0.70000025187E+02 0.  0.
        -12    1    1    2    0    0 -0.15562144287E+02  0.92472499453E+01  0.47944216583E+01  0.18726410371E+02  0.00000000000E+00 0.  1.
         11    1    3    3    0    0 -0.85959470215E+01  0.80265022796E+01  0.79827031537E+01  0.14214028069E+02  0.51100000000E-03 0. -1.
        -11    1    3    3    0    0 -0.55254951465E+01  0.36312892128E+01 -0.20144157277E+02  0.21201519536E+02  0.51100000000E-03 0.  1.
        -12    1    3    3    0    0  0.29683586455E+02 -0.20905041438E+02  0.73670324653E+01  0.37046042024E+02  0.00000000000E+00 0.  1.
</event>
<event>
 7    1  0.3611369E-013  0.7246158E+02  0.7816164E-02  0.1226708E+00
        -11   -1    0    0    0    0  0.00000000000E+00  0.00000000000E+00  0.45593999997E+02  0.45594000000E+02  0.51100000000E-03 0. -1.
         11   -1    0    0    0    0 -0.00000000000E+00 -0.00000000000E+00 -0.45593999997E+02  0.45594000000E+02  0.51100000000E-03 0.  1.
    9900012    2    1    2    0    0 -0.44226345602E+01 -0.52785654329E+01  0.17414245485E+02  0.72461577616E+02  0.70000009538E+02 0.  0.
        -12    1    1    2    0    0  0.44226345602E+01  0.52785654329E+01 -0.17414245485E+02  0.18726422384E+02  0.00000000000E+00 0.  1.
         11    1    3    3    0    0  0.19425022717E+01 -0.44149303197E-01 -0.66871454951E+01  0.69637044287E+01  0.51100000000E-03 0. -1.
        -11    1    3    3    0    0  0.11543712219E+01 -0.22489037407E+02 -0.11456711916E+02  0.25265502659E+02  0.51100000000E-03 0.  1.
         12    1    3    3    0    0 -0.75195080537E+01  0.17254621278E+02  0.35558102896E+02  0.40232370529E+02  0.00000000000E+00 0. -1.
</event>
<event>
 7    1  0.3611369E-013  0.7246157E+02  0.7816164E-02  0.1226708E+00
        -11   -1    0    0    0    0  0.00000000000E+00  0.00000000000E+00  0.45593999997E+02  0.45594000000E+02  0.51100000000E-03 0.  1.
         11   -1    0    0    0    0 -0.00000000000E+00 -0.00000000000E+00 -0.45593999997E+02  0.45594000000E+02  0.51100000000E-03 0. -1.
    9900012    2    1    2    0    0  0.10165933780E+02 -0.14960277754E+02 -0.48500638368E+01  0.72461568431E+02  0.69999997572E+02 0.  0.
        -12    1    1    2    0    0 -0.10165933780E+02  0.14960277754E+02  0.48500638368E+01  0.18726431569E+02  0.00000000000E+00 0.  1.
         11    1    3    3    0    0  0.79561347311E+01  0.73984889444E+01  0.28262208996E+00  0.10868191847E+02  0.51100000000E-03 0. -1.
        -11    1    3    3    0    0 -0.43954039734E+01  0.17794963829E+02 -0.95369197112E+01  0.20662360746E+02  0.51100000000E-03 0.  1.
         12    1    3    3    0    0  0.66052030220E+01 -0.40153730528E+02  0.44042337844E+01  0.40931015837E+02  0.00000000000E+00 0. -1.
</event>
<event>
 7    1  0.3611369E-013  0.7246154E+02  0.7816164E-02  0.1226708E+00
        -11   -1    0    0    0    0  0.00000000000E+00  0.00000000000E+00  0.45593999997E+02  0.45594000000E+02  0.51100000000E-03 0.  1.
         11   -1    0    0    0    0 -0.00000000000E+00 -0.00000000000E+00 -0.45593999997E+02  0.45594000000E+02  0.51100000000E-03 0. -1.
    9900012    2    1    2    0    0 -0.15206380616E+02 -0.10851951071E+02  0.12966997413E+01  0.72461540545E+02  0.69999961246E+02 0.  0.
        -12    1    1    2    0    0  0.15206380616E+02  0.10851951071E+02 -0.12966997413E+01  0.18726459455E+02  0.00000000000E+00 0.  1.
         11    1    3    3    0    0  0.42318067425E+01 -0.65366535263E+01  0.10964619672E+01  0.78637304592E+01  0.51100000000E-03 0. -1.
        -11    1    3    3    0    0 -0.36887383643E+02 -0.10855143475E+02  0.14514938892E+02  0.41099837751E+02  0.51100000000E-03 0.  1.
         12    1    3    3    0    0  0.17449196284E+02  0.65398459302E+01 -0.14314701118E+02  0.23497972335E+02  0.00000000000E+00 0. -1.
</event>
<event>
 7    1  0.3611369E-013  0.7246158E+02  0.7816164E-02  0.1226708E+00
        -11   -1    0    0    0    0  0.00000000000E+00  0.00000000000E+00  0.45593999997E+02  0.45594000000E+02  0.51100000000E-03 0. -1.
         11   -1    0    0    0    0 -0.00000000000E+00 -0.00000000000E+00 -0.45593999997E+02  0.45594000000E+02  0.51100000000E-03 0.  1.
    9900012    2    1    2    0    0  0.15539669592E+02  0.31660171293E+01  0.99586036521E+01  0.72461580636E+02  0.70000013472E+02 0.  0.
        -12    1    1    2    0    0 -0.15539669592E+02 -0.31660171293E+01 -0.99586036521E+01  0.18726419364E+02  0.00000000000E+00 0.  1.
         11    1    3    3    0    0  0.13005140192E+02  0.27760697305E+02  0.11971849283E+01  0.30679361764E+02  0.51100000000E-03 0. -1.
        -11    1    3    3    0    0  0.46876578407E+01  0.44239837742E+01 -0.63033017261E+01  0.90153969063E+01  0.51100000000E-03 0.  1.
         12    1    3    3    0    0 -0.21531284407E+01 -0.29018663950E+02  0.15064720450E+02  0.32766821966E+02  0.00000000000E+00 0. -1.
</event>
<event>
 7    1  0.3611369E-013  0.7246152E+02  0.7816164E-02  0.1226708E+00
        -11   -1    0    0    0    0  0.00000000000E+00  0.00000000000E+00  0.45593999997E+02  0.45594000000E+02  0.51100000000E-03 0.  1.
         11   -1    0    0    0    0 -0.00000000000E+00 -0.00000000000E+00 -0.45593999997E+02  0.45594000000E+02  0.51100000000E-03 0. -1.
    9900012    2    1    2    0    0  0.13779652368E+02  0.41287160156E+00 -0.12674063097E+02  0.72461517209E+02  0.69999930847E+02 0.  0.
        -12    1    1    2    0    0 -0.13779652368E+02 -0.41287160156E+00  0.12674063097E+02  0.18726482791E+02  0.00000000000E+00 0.  1.
         11    1    3    3    0    0 -0.10003009619E+02  0.49299788264E+01 -0.14088341093E+02  0.17967922742E+02  0.51100000000E-03 0. -1.
        -11    1    3    3    0    0  0.17965894438E+02  0.21033812937E+02 -0.33335625858E+01  0.27862291532E+02  0.51100000000E-03 0.  1.
         12    1    3    3    0    0  0.58167675483E+01 -0.25550920162E+02  0.47478405816E+01  0.26631302935E+02  0.00000000000E+00 0. -1.
</event>
<event>
 7    1  0.3611369E-013  0.7246166E+02  0.7816164E-02  0.1226708E+00
        -11   -1    0    0    0    0  0.00000000000E+00  0.00000000000E+00  0.45593999997E+02  0.45594000000E+02  0.51100000000E-03 0. -1.
         11   -1    0    0    0    0 -0.00000000000E+00 -0.00000000000E+00 -0.45593999997E+02  0.45594000000E+02  0.51100000000E-03 0.  1.
    9900012    2    1    2    0    0  0.42093054025E+01 -0.18174615631E+02  0.16250786523E+01  0.72461660637E+02  0.70000117688E+02 0.  0.
        -12    1    1    2    0    0 -0.42093054025E+01  0.18174615631E+02 -0.16250786523E+01  0.18726339363E+02  0.00000000000E+00 0.  1.
         11    1    3    3    0    0  0.63989309022E+01 -0.75171387863E+00  0.91723474565E+01  0.11209074385E+02  0.51100000000E-03 0. -1.
        -11    1    3    3    0    0  0.12569465200E+02 -0.16897721320E+02 -0.28611688351E+02  0.35526794843E+02  0.51100000000E-03 0.  1.
         12    1    3    3    0    0 -0.14759090700E+02 -0.52518043291E+00  0.21064419547E+02  0.25725791409E+02  0.00000000000E+00 0. -1.
</event>
<event>
 7    1  0.3611369E-013  0.7246158E+02  0.7816164E-02  0.1226708E+00
        -11   -1    0    0    0    0  0.00000000000E+00  0.00000000000E+00  0.45593999997E+02  0.45594000000E+02  0.51100000000E-03 0. -1.
         11   -1    0    0    0    0 -0.00000000000E+00 -0.00000000000E+00 -0.45593999997E+02  0.45594000000E+02  0.51100000000E-03 0.  1.
    9900012    2    1    2    0    0  0.17531882128E+02 -0.22358550641E+01  0.61897299306E+01  0.72461582953E+02  0.70000016490E+02 0.  0.
        -12    1    1    2    0    0 -0.17531882128E+02  0.22358550641E+01 -0.61897299306E+01  0.18726417047E+02  0.00000000000E+00 0.  1.
         11    1    3    3    0    0 -0.47815452991E+01 -0.12880626210E+02  0.68001904704E+01  0.15330241280E+02  0.51100000000E-03 0. -1.
        -11    1    3    3    0    0 -0.92589584250E+01  0.11165718951E+02 -0.16343663489E+02  0.21852160701E+02  0.51100000000E-03 0.  1.
         12    1    3    3    0    0  0.31572385852E+02 -0.52094780500E+00  0.15733202949E+02  0.35279180971E+02  0.00000000000E+00 0. -1.
</event>
<event>
 7    1  0.3611369E-013  0.7246157E+02  0.7816164E-02  0.1226708E+00
        -11   -1    0    0    0    0  0.00000000000E+00  0.00000000000E+00  0.45593999997E+02  0.45594000000E+02  0.51100000000E-03 0. -1.
         11   -1    0    0    0    0 -0.00000000000E+00 -0.00000000000E+00 -0.45593999997E+02  0.45594000000E+02  0.51100000000E-03 0.  1.
    9900012    2    1    2    0    0 -0.13244514752E+02  0.13900883015E+01  0.13165471134E+02  0.72461570904E+02  0.70000000794E+02 0.  0.
        -12    1    1    2    0    0  0.13244514752E+02 -0.13900883015E+01 -0.13165471134E+02  0.18726429096E+02  0.00000000000E+00 0.  1.
         11    1    3    3    0    0  0.15478915199E+00  0.87389750939E+01  0.14724215516E+02  0.17122971944E+02  0.51100000000E-03 0. -1.
        -11    1    3    3    0    0 -0.14972050642E+02  0.30107502761E+01  0.23585673151E+02  0.28098236526E+02  0.51100000000E-03 0.  1.
        -12    1    3    3    0    0  0.15727467376E+01 -0.10359637069E+02 -0.25144417532E+02  0.27240362434E+02  0.00000000000E+00 0.  1.
</event>
<event>
 7    1  0.3611369E-013  0.7246158E+02  0.7816164E-02  0.1226708E+00
        -11   -1    0    0    0    0  0.00000000000E+00  0.00000000000E+00  0.45593999997E+02  0.45594000000E+02  0.51100000000E-03 0. -1.
         11   -1    0    0    0    0 -0.00000000000E+00 -0.00000000000E+00 -0.45593999997E+02  0.45594000000E+02  0.51100000000E-03 0.  1.
    9900012    2    1    2    0    0  0.83852993366E+01  0.15803347372E+02  0.55335096230E+01  0.72461581179E+02  0.70000014179E+02 0.  0.
        -12    1    1    2    0    0 -0.83852993366E+01 -0.15803347372E+02 -0.55335096230E+01  0.18726418821E+02  0.00000000000E+00 0.  1.
         11    1    3    3    0    0  0.23180529614E+02  0.28067818709E+02  0.44818858736E+01  0.36677332258E+02  0.51100000000E-03 0. -1.
        -11    1    3    3    0    0 -0.63741467310E+01  0.70495463234E+01  0.91678034806E+01  0.13205092610E+02  0.51100000000E-03 0.  1.
        -12    1    3    3    0    0 -0.84210835467E+01 -0.19314017661E+02 -0.81161797311E+01  0.22579156311E+02  0.00000000000E+00 0.  1.
</event>
<event>
 7    1  0.3611369E-013  0.7246156E+02  0.7816164E-02  0.1226708E+00
        -11   -1    0    0    0    0  0.00000000000E+00  0.00000000000E+00  0.45593999997E+02  0.45594000000E+02  0.51100000000E-03 0.  1.
         11   -1    0    0    0    0 -0.00000000000E+00 -0.00000000000E+00 -0.45593999997E+02  0.45594000000E+02  0.51100000000E-03 0. -1.
    9900012    2    1    2    0    0  0.18131953389E+02 -0.46794773036E+01  0.11976239205E+00  0.72461559213E+02  0.69999985564E+02 0.  0.
        -12    1    1    2    0    0 -0.18131953389E+02  0.46794773036E+01 -0.11976239205E+00  0.18726440787E+02  0.00000000000E+00 0.  1.
         11    1    3    3    0    0  0.17847031277E+02 -0.70969561535E+01 -0.11936630958E+02  0.22613413518E+02  0.51100000000E-03 0. -1.
        -11    1    3    3    0    0 -0.82267595118E+00 -0.20043318023E+02 -0.60763144678E+01  0.20960271727E+02  0.51100000000E-03 0.  1.
         12    1    3    3    0    0  0.11075980631E+01  0.22460796873E+02  0.18132707818E+02  0.28887873969E+02  0.00000000000E+00 0. -1.
</event>
<event>
 7    1  0.3611369E-013  0.7246110E+02  0.7816164E-02  0.1226709E+00
        -11   -1    0    0    0    0  0.00000000000E+00  0.00000000000E+00  0.45593999997E+02  0.45594000000E+02  0.51100000000E-03 0.  1.
         11   -1    0    0    0    0 -0.00000000000E+00 -0.00000000000E+00 -0.45593999997E+02  0.45594000000E+02  0.51100000000E-03 0. -1.
    9900012    2    1    2    0    0 -0.43018887981E+01 -0.42377866868E+01 -0.17726583497E+02  0.72461098342E+02  0.69999385192E+02 0.  0.
        -12    1    1    2    0    0  0.43018887981E+01  0.42377866868E+01  0.17726583497E+02  0.18726901658E+02  0.00000000000E+00 0.  1.
         11    1    3    3    0    0 -0.25615750923E+02  0.17367913623E+02  0.79964733558E+00  0.30958852613E+02  0.51100000000E-03 0. -1.
        -11    1    3    3    0    0  0.59559874850E+00  0.36930263225E+01 -0.46813570124E+01  0.59923522115E+01  0.51100000000E-03 0.  1.
        -12    1    3    3    0    0  0.20718263377E+02 -0.25298726632E+02 -0.13844873820E+02  0.35509893518E+02  0.00000000000E+00 0.  1.
</event>
<event>
 7    1  0.3611369E-013  0.7246159E+02  0.7816164E-02  0.1226708E+00
        -11   -1    0    0    0    0  0.00000000000E+00  0.00000000000E+00  0.45593999997E+02  0.45594000000E+02  0.51100000000E-03 0.  1.
         11   -1    0    0    0    0 -0.00000000000E+00 -0.00000000000E+00 -0.45593999997E+02  0.45594000000E+02  0.51100000000E-03 0. -1.
    9900012    2    1    2    0    0  0.13923657496E+02  0.82546325328E+01  0.94165463405E+01  0.72461587068E+02  0.70000021850E+02 0.  0.
        -12    1    1    2    0    0 -0.13923657496E+02 -0.82546325328E+01 -0.94165463405E+01  0.18726412932E+02  0.00000000000E+00 0.  1.
         11    1    3    3    0    0  0.11860122276E+02  0.85260274383E+01  0.16312929139E+02  0.21896741804E+02  0.51100000000E-03 0. -1.
        -11    1    3    3    0    0  0.20291715831E+02 -0.52421564032E+00  0.12585767752E+02  0.23883678183E+02  0.51100000000E-03 0.  1.
        -12    1    3    3    0    0 -0.18228180610E+02  0.25282073490E+00 -0.19482150551E+02  0.26681167080E+02  0.00000000000E+00 0.  1.
</event>
<event>
 7    1  0.3611369E-013  0.7246159E+02  0.7816164E-02  0.1226708E+00
        -11   -1    0    0    0    0  0.00000000000E+00  0.00000000000E+00  0.45593999997E+02  0.45594000000E+02  0.51100000000E-03 0.  1.
         11   -1    0    0    0    0 -0.00000000000E+00 -0.00000000000E+00 -0.45593999997E+02  0.45594000000E+02  0.51100000000E-03 0. -1.
    9900012    2    1    2    0    0 -0.13390188288E+02  0.13065155384E+02 -0.82645254079E+00  0.72461589468E+02  0.70000024977E+02 0.  0.
        -12    1    1    2    0    0  0.13390188288E+02 -0.13065155384E+02  0.82645254079E+00  0.18726410532E+02  0.00000000000E+00 0.  1.
         11    1    3    3    0    0  0.12187477645E+01  0.28501163663E+02  0.12686354815E+02  0.31220910861E+02  0.51100000000E-03 0. -1.
        -11    1    3    3    0    0  0.56474366412E+01  0.64358725871E+01 -0.12966175957E+00  0.85633409956E+01  0.51100000000E-03 0.  1.
         12    1    3    3    0    0 -0.20256372694E+02 -0.21871880866E+02 -0.13383145596E+02  0.32677337612E+02  0.00000000000E+00 0. -1.
</event>
<event>
 7    1  0.3611369E-013  0.7246158E+02  0.7816164E-02  0.1226708E+00
        -11   -1    0    0    0    0  0.00000000000E+00  0.00000000000E+00  0.45593999997E+02  0.45594000000E+02  0.51100000000E-03 0.  1.
         11   -1    0    0    0    0 -0.00000000000E+00 -0.00000000000E+00 -0.45593999997E+02  0.45594000000E+02  0.51100000000E-03 0. -1.
    9900012    2    1    2    0    0 -0.17467013977E+02  0.16911709284E+01 -0.65362124350E+01  0.72461582580E+02  0.70000016004E+02 0.  0.
        -12    1    1    2    0    0  0.17467013977E+02 -0.16911709284E+01  0.65362124350E+01  0.18726417420E+02  0.00000000000E+00 0.  1.
         11    1    3    3    0    0 -0.66938228421E+01  0.56859725877E+01  0.71663855343E+00  0.88119872666E+01  0.51100000000E-03 0. -1.
        -11    1    3    3    0    0 -0.98470624193E+01  0.17929299938E+02  0.20035379938E+02  0.28632863707E+02  0.51100000000E-03 0.  1.
         12    1    3    3    0    0 -0.92612871599E+00 -0.21924101597E+02 -0.27288230927E+02  0.35016731606E+02  0.00000000000E+00 0. -1.
</event>
<event>
 7    1  0.3611369E-013  0.7246159E+02  0.7816164E-02  0.1226708E+00
        -11   -1    0    0    0    0  0.00000000000E+00  0.00000000000E+00  0.45593999997E+02  0.45594000000E+02  0.51100000000E-03 0.  1.
         11   -1    0    0    0    0 -0.00000000000E+00 -0.00000000000E+00 -0.45593999997E+02  0.45594000000E+02  0.51100000000E-03 0. -1.
    9900012    2    1    2    0    0  0.13311118407E+02 -0.11484052438E+00 -0.13171161209E+02  0.72461586858E+02  0.70000021577E+02 0.  0.
        -12    1    1    2    0    0 -0.13311118407E+02  0.11484052438E+00  0.13171161209E+02  0.18726413142E+02  0.00000000000E+00 0.  1.
         11    1    3    3    0    0  0.41254094506E+01 -0.33014722150E+01  0.17905691485E+02  0.18669025410E+02  0.51100000000E-03 0. -1.
        -11    1    3    3    0    0 -0.34522638297E+01 -0.13193690768E+02  0.29653973327E+01  0.13956546250E+02  0.51100000000E-03 0.  1.
         12    1    3    3    0    0  0.12637972786E+02  0.16380322458E+02 -0.34042250027E+02  0.39836015198E+02  0.00000000000E+00 0. -1.
</event>
<event>
 7    1  0.3611369E-013  0.7246152E+02  0.7816164E-02  0.1226708E+00
        -11   -1    0    0    0    0  0.00000000000E+00  0.00000000000E+00  0.45593999997E+02  0.45594000000E+02  0.51100000000E-03 0.  1.
         11   -1    0    0    0    0 -0.00000000000E+00 -0.00000000000E+00 -0.45593999997E+02  0.45594000000E+02  0.51100000000E-03 0. -1.
    9900012    2    1    2    0    0 -0.39879314274E+01  0.10600596787E+02 -0.14913242739E+02  0.72461519863E+02  0.69999934304E+02 0.  0.
        -12    1    1    2    0    0  0.39879314274E+01 -0.10600596787E+02  0.14913242739E+02  0.18726480137E+02  0.00000000000E+00 0.  1.
         11    1    3    3    0    0 -0.28162243543E+02  0.22770098733E+02 -0.11318581896E+02  0.37943374311E+02  0.51100000000E-03 0. -1.
        -11    1    3    3    0    0  0.46785869048E+01 -0.25094829948E+01  0.82003659558E+01  0.97689652675E+01  0.51100000000E-03 0.  1.
        -12    1    3    3    0    0  0.19495725211E+02 -0.96600189506E+01 -0.11795026798E+02  0.24749180285E+02  0.00000000000E+00 0.  1.
</event>
<event>
 7    1  0.3611369E-013  0.7246151E+02  0.7816164E-02  0.1226708E+00
        -11   -1    0    0    0    0  0.00000000000E+00  0.00000000000E+00  0.45593999997E+02  0.45594000000E+02  0.51100000000E-03 0.  1.
         11   -1    0    0    0    0 -0.00000000000E+00 -0.00000000000E+00 -0.45593999997E+02  0.45594000000E+02  0.51100000000E-03 0. -1.
    9900012    2    1    2    0    0 -0.14539437293E+02  0.11237346112E+02 -0.36066773262E+01  0.72461513256E+02  0.69999925696E+02 0.  0.
        -12    1    1    2    0    0  0.14539437293E+02 -0.11237346112E+02  0.36066773262E+01  0.18726486744E+02  0.00000000000E+00 0.  1.
         11    1    3    3    0    0  0.17926601786E+02 -0.13439861217E+02  0.48234414466E+01  0.22918518904E+02  0.51100000000E-03 0. -1.
        -11    1    3    3    0    0 -0.59129373333E+01  0.19937704878E+02  0.13796521509E+01  0.20841745225E+02  0.51100000000E-03 0.  1.
        -12    1    3    3    0    0 -0.26553101746E+02  0.47395024508E+01 -0.98097709236E+01  0.28701249126E+02  0.00000000000E+00 0.  1.
</event>
<event>
 7    1  0.3611369E-013  0.7246160E+02  0.7816164E-02  0.1226708E+00
        -11   -1    0    0    0    0  0.00000000000E+00  0.00000000000E+00  0.45593999997E+02  0.45594000000E+02  0.51100000000E-03 0.  1.
         11   -1    0    0    0    0 -0.00000000000E+00 -0.00000000000E+00 -0.45593999997E+02  0.45594000000E+02  0.51100000000E-03 0. -1.
    9900012    2    1    2    0    0  0.14179247835E+02  0.42733630975E+01 -0.11461476801E+02  0.72461597468E+02  0.70000035398E+02 0.  0.
        -12    1    1    2    0    0 -0.14179247835E+02 -0.42733630975E+01  0.11461476801E+02  0.18726402532E+02  0.00000000000E+00 0.  1.
         11    1    3    3    0    0  0.20551380273E+01  0.13567117622E+02  0.39215301835E+01  0.14271253348E+02  0.51100000000E-03 0. -1.
        -11    1    3    3    0    0 -0.88299242166E+01 -0.20812761189E+02 -0.23813429717E+02  0.32836230373E+02  0.51100000000E-03 0.  1.
         12    1    3    3    0    0  0.20954034025E+02  0.11519006664E+02  0.84304227317E+01  0.25354113747E+02  0.00000000000E+00 0. -1.
</event>
<event>
 7    1  0.3611369E-013  0.7246153E+02  0.7816164E-02  0.1226708E+00
        -11   -1    0    0    0    0  0.00000000000E+00  0.00000000000E+00  0.45593999997E+02  0.45594000000E+02  0.51100000000E-03 0.  1.
         11   -1    0    0    0    0 -0.00000000000E+00 -0.00000000000E+00 -0.45593999997E+02  0.45594000000E+02  0.51100000000E-03 0. -1.
    9900012    2    1    2    0    0 -0.16785511098E+02 -0.58062787917E+01 -0.59341664172E+01  0.72461532440E+02  0.69999950687E+02 0.  0.
        -12    1    1    2    0    0  0.16785511098E+02  0.58062787917E+01  0.59341664172E+01  0.18726467560E+02  0.00000000000E+00 0.  1.
         11    1    3    3    0    0 -0.19970269398E+02  0.12350459168E+02  0.72783605072E+01  0.24582921580E+02  0.51100000000E-03 0. -1.
        -11    1    3    3    0    0 -0.13998432699E+01 -0.94630345852E+01  0.15118759495E+02  0.17890932722E+02  0.51100000000E-03 0.  1.
        -12    1    3    3    0    0  0.45846015702E+01 -0.86937033747E+01 -0.28331286419E+02  0.29987678138E+02  0.00000000000E+00 0.  1.
</event>
<event>
 7    1  0.3611369E-013  0.7246153E+02  0.7816164E-02  0.1226708E+00
        -11   -1    0    0    0    0  0.00000000000E+00  0.00000000000E+00  0.45593999997E+02  0.45594000000E+02  0.51100000000E-03 0. -1.
         11   -1    0    0    0    0 -0.00000000000E+00 -0.00000000000E+00 -0.45593999997E+02  0.45594000000E+02  0.51100000000E-03 0.  1.
    9900012    2    1    2    0    0  0.11080884837E+02  0.14870128950E+02 -0.26026873975E+01  0.72461528751E+02  0.69999945882E+02 0.  0.
        -12    1    1    2    0    0 -0.11080884837E+02 -0.14870128950E+02  0.26026873975E+01  0.18726471249E+02  0.00000000000E+00 0.  1.
         11    1    3    3    0    0 -0.16992060017E+02 -0.72384899732E+01  0.74970655757E+01  0.19933184222E+02  0.51100000000E-03 0. -1.
        -11    1    3    3    0    0 -0.34658850160E+01 -0.73113941884E+01 -0.38038352073E+01  0.89408056946E+01  0.51100000000E-03 0.  1.
         12    1    3    3    0    0  0.31538829870E+02  0.29420013112E+02 -0.62959177659E+01  0.43587538834E+02  0.00000000000E+00 0. -1.
</event>
<event>
 7    1  0.3611369E-013  0.7246154E+02  0.7816164E-02  0.1226708E+00
        -11   -1    0    0    0    0  0.00000000000E+00  0.00000000000E+00  0.45593999997E+02  0.45594000000E+02  0.51100000000E-03 0.  1.
         11   -1    0    0    0    0 -0.00000000000E+00 -0.00000000000E+00 -0.45593999997E+02  0.45594000000E+02  0.51100000000E-03 0. -1.
    9900012    2    1    2    0    0 -0.38482161319E+01 -0.45032780368E+01 -0.17764906512E+02  0.72461543212E+02  0.69999964720E+02 0.  0.
        -12    1    1    2    0    0  0.38482161319E+01  0.45032780368E+01  0.17764906512E+02  0.18726456788E+02  0.00000000000E+00 0.  1.
         11    1    3    3    0    0 -0.10556919032E+02 -0.20556755549E+02 -0.20572228427E+02  0.30939381391E+02  0.51100000000E-03 0. -1.
        -11    1    3    3    0    0 -0.10994579250E+02 -0.30647031904E+01  0.92387141868E+01  0.14684243890E+02  0.51100000000E-03 0.  1.
        -12    1    3    3    0    0  0.17703282151E+02  0.19118180702E+02 -0.64313922713E+01  0.26837917930E+02  0.00000000000E+00 0.  1.
</event>
<event>
 7    1  0.3611369E-013  0.7246162E+02  0.7816164E-02  0.1226708E+00
        -11   -1    0    0    0    0  0.00000000000E+00  0.00000000000E+00  0.45593999997E+02  0.45594000000E+02  0.51100000000E-03 0.  1.
         11   -1    0    0    0    0 -0.00000000000E+00 -0.00000000000E+00 -0.45593999997E+02  0.45594000000E+02  0.51100000000E-03 0. -1.
    9900012    2    1    2    0    0  0.15253173845E+02 -0.75938567228E+01  0.77686166377E+01  0.72461618162E+02  0.70000062357E+02 0.  0.
        -12    1    1    2    0    0 -0.15253173845E+02  0.75938567228E+01 -0.77686166377E+01  0.18726381838E+02  0.00000000000E+00 0.  1.
         11    1    3    3    0    0 -0.10315689937E+02 -0.15821246724E+00  0.23535970871E+02  0.25697867910E+02  0.51100000000E-03 0. -1.
        -11    1    3    3    0    0  0.85843308082E+01  0.68464676266E+01  0.84955330861E+01  0.13883044949E+02  0.51100000000E-03 0.  1.
         12    1    3    3    0    0  0.16984532974E+02 -0.14282111882E+02 -0.24262887319E+02  0.32880705303E+02  0.00000000000E+00 0. -1.
</event>
<event>
 7    1  0.3611369E-013  0.7246188E+02  0.7816164E-02  0.1226707E+00
        -11   -1    0    0    0    0  0.00000000000E+00  0.00000000000E+00  0.45593999997E+02  0.45594000000E+02  0.51100000000E-03 0.  1.
         11   -1    0    0    0    0 -0.00000000000E+00 -0.00000000000E+00 -0.45593999997E+02  0.45594000000E+02  0.51100000000E-03 0. -1.
    9900012    2    1    2    0    0  0.36430106144E+01  0.47823252130E+01 -0.17734862220E+02  0.72461881910E+02  0.70000405936E+02 0.  0.
        -12    1    1    2    0    0 -0.36430106144E+01 -0.47823252130E+01  0.17734862220E+02  0.18726118090E+02  0.00000000000E+00 0.  1.
         11    1    3    3    0    0 -0.97415480817E+00  0.49688229622E+01 -0.34496042490E+02  0.34865672615E+02  0.51100000000E-03 0. -1.
        -11    1    3    3    0    0  0.58390480267E+01 -0.25250617289E+01 -0.93736439028E+01  0.11328531188E+02  0.51100000000E-03 0.  1.
        -12    1    3    3    0    0 -0.12218826041E+01  0.23385639797E+01  0.26134824173E+02  0.26267678107E+02  0.00000000000E+00 0.  1.
</event>
<event>
 7    1  0.3611369E-013  0.7246157E+02  0.7816164E-02  0.1226708E+00
        -11   -1    0    0    0    0  0.00000000000E+00  0.00000000000E+00  0.45593999997E+02  0.45594000000E+02  0.51100000000E-03 0.  1.
         11   -1    0    0    0    0 -0.00000000000E+00 -0.00000000000E+00 -0.45593999997E+02  0.45594000000E+02  0.51100000000E-03 0. -1.
    9900012    2    1    2    0    0  0.15767219203E+02 -0.68059631099E+01  0.74667719567E+01  0.72461574321E+02  0.70000005245E+02 0.  0.
        -12    1    1    2    0    0 -0.15767219203E+02  0.68059631099E+01 -0.74667719567E+01  0.18726425679E+02  0.00000000000E+00 0.  1.
         11    1    3    3    0    0 -0.89546215509E+01  0.54352998007E+01 -0.77009528230E+01  0.13001246313E+02  0.51100000000E-03 0. -1.
        -11    1    3    3    0    0 -0.21897167091E+01 -0.16642067834E+02 -0.12258196648E+02  0.20785010618E+02  0.51100000000E-03 0.  1.
         12    1    3    3    0    0  0.26911557463E+02  0.44008049230E+01  0.27425921428E+02  0.38675317390E+02  0.00000000000E+00 0. -1.
</event>
<event>
 7    1  0.3611369E-013  0.7246151E+02  0.7816164E-02  0.1226708E+00
        -11   -1    0    0    0    0  0.00000000000E+00  0.00000000000E+00  0.45593999997E+02  0.45594000000E+02  0.51100000000E-03 0. -1.
         11   -1    0    0    0    0 -0.00000000000E+00 -0.00000000000E+00 -0.45593999997E+02  0.45594000000E+02  0.51100000000E-03 0.  1.
    9900012    2    1    2    0    0 -0.17005379412E+02  0.56593113840E+01  0.54286964396E+01  0.72461508622E+02  0.69999919661E+02 0.  0.
        -12    1    1    2    0    0  0.17005379412E+02 -0.56593113840E+01 -0.54286964396E+01  0.18726491378E+02  0.00000000000E+00 0.  1.
         11    1    3    3    0    0 -0.39785527340E+02  0.59063190138E+01  0.11805534308E+02  0.41918294700E+02  0.51100000000E-03 0. -1.
        -11    1    3    3    0    0  0.18464922389E+01 -0.55808159080E+01 -0.67326931473E+01  0.89377959847E+01  0.51100000000E-03 0.  1.
        -12    1    3    3    0    0  0.20933655689E+02  0.53338082781E+01  0.35585527842E+00  0.21605417937E+02  0.00000000000E+00 0.  1.
</event>
<event>
 7    1  0.3611369E-013  0.7246159E+02  0.7816164E-02  0.1226708E+00
        -11   -1    0    0    0    0  0.00000000000E+00  0.00000000000E+00  0.45593999997E+02  0.45594000000E+02  0.51100000000E-03 0. -1.
         11   -1    0    0    0    0 -0.00000000000E+00 -0.00000000000E+00 -0.45593999997E+02  0.45594000000E+02  0.51100000000E-03 0.  1.
    9900012    2    1    2    0    0  0.76678265797E+01 -0.11105964541E+01  0.17048447338E+02  0.72461586954E+02  0.70000021702E+02 0.  0.
        -12    1    1    2    0    0 -0.76678265797E+01  0.11105964541E+01 -0.17048447338E+02  0.18726413046E+02  0.00000000000E+00 0.  1.
         11    1    3    3    0    0 -0.20165490831E+02 -0.23622150101E+02 -0.95929961390E+00  0.31073674579E+02  0.51100000000E-03 0. -1.
        -11    1    3    3    0    0  0.87592689707E+01  0.19927838409E+01  0.65640415104E+01  0.11125763864E+02  0.51100000000E-03 0.  1.
        -12    1    3    3    0    0  0.19074048440E+02  0.20518769806E+02  0.11443705442E+02  0.30262148511E+02  0.00000000000E+00 0.  1.
</event>
<event>
 7    1  0.3611369E-013  0.7246155E+02  0.7816164E-02  0.1226708E+00
        -11   -1    0    0    0    0  0.00000000000E+00  0.00000000000E+00  0.45593999997E+02  0.45594000000E+02  0.51100000000E-03 0. -1.
         11   -1    0    0    0    0 -0.00000000000E+00 -0.00000000000E+00 -0.45593999997E+02  0.45594000000E+02  0.51100000000E-03 0.  1.
    9900012    2    1    2    0    0 -0.83630487805E+01  0.16423014974E+02  0.33202134100E+01  0.72461552851E+02  0.69999977276E+02 0.  0.
        -12    1    1    2    0    0  0.83630487805E+01 -0.16423014974E+02 -0.33202134100E+01  0.18726447149E+02  0.00000000000E+00 0.  1.
         11    1    3    3    0    0 -0.33003516775E+01 -0.15593504749E+02  0.24048757600E+01  0.16119340534E+02  0.51100000000E-03 0. -1.
        -11    1    3    3    0    0 -0.51568224112E+01 -0.97351123434E+01 -0.80430341383E+01  0.13640220971E+02  0.51100000000E-03 0.  1.
         12    1    3    3    0    0  0.94125308206E-01  0.41751632067E+02  0.89583717883E+01  0.42701991346E+02  0.00000000000E+00 0. -1.
</event>
<event>
 7    1  0.3611369E-013  0.7246155E+02  0.7816164E-02  0.1226708E+00
        -11   -1    0    0    0    0  0.00000000000E+00  0.00000000000E+00  0.45593999997E+02  0.45594000000E+02  0.51100000000E-03 0. -1.
         11   -1    0    0    0    0 -0.00000000000E+00 -0.00000000000E+00 -0.45593999997E+02  0.45594000000E+02  0.51100000000E-03 0.  1.
    9900012    2    1    2    0    0  0.15380147413E+02 -0.63971997981E+01 -0.85561042639E+01  0.72461547590E+02  0.69999970423E+02 0.  0.
        -12    1    1    2    0    0 -0.15380147413E+02  0.63971997981E+01  0.85561042639E+01  0.18726452410E+02  0.00000000000E+00 0.  1.
         11    1    3    3    0    0  0.11934868079E+02 -0.15490602563E+02 -0.51537345118E+01  0.20222779816E+02  0.51100000000E-03 0. -1.
        -11    1    3    3    0    0  0.38681078556E+01 -0.10140785429E+02 -0.22593165395E+02  0.25064893982E+02  0.51100000000E-03 0.  1.
         12    1    3    3    0    0 -0.42282852186E+00  0.19234188193E+02  0.19190795643E+02  0.27173873791E+02  0.00000000000E+00 0. -1.
</event>
<event>
 7    1  0.3611369E-013  0.7246166E+02  0.7816164E-02  0.1226708E+00
        -11   -1    0    0    0    0  0.00000000000E+00  0.00000000000E+00  0.45593999997E+02  0.45594000000E+02  0.51100000000E-03 0.  1.
         11   -1    0    0    0    0 -0.00000000000E+00 -0.00000000000E+00 -0.45593999997E+02  0.45594000000E+02  0.51100000000E-03 0. -1.
    9900012    2    1    2    0    0  0.16499800885E+02 -0.81242682146E+01  0.35254367003E+01  0.72461658468E+02  0.70000114862E+02 0.  0.
        -12    1    1    2    0    0 -0.16499800885E+02  0.81242682146E+01 -0.35254367003E+01  0.18726341532E+02  0.00000000000E+00 0.  1.
         11    1    3    3    0    0  0.10905840653E+02  0.13453364743E+02  0.77380910112E+00  0.17335776996E+02  0.51100000000E-03 0. -1.
        -11    1    3    3    0    0  0.68824706661E+01  0.11901247570E+02 -0.12252882273E+02  0.18415787261E+02  0.51100000000E-03 0.  1.
        -12    1    3    3    0    0 -0.12885104347E+01 -0.33478880527E+02  0.15004509872E+02  0.36710094211E+02  0.00000000000E+00 0.  1.
</event>
<event>
 7    1  0.3611369E-013  0.7246172E+02  0.7816164E-02  0.1226708E+00
        -11   -1    0    0    0    0  0.00000000000E+00  0.00000000000E+00  0.45593999997E+02  0.45594000000E+02  0.51100000000E-03 0.  1.
         11   -1    0    0    0    0 -0.00000000000E+00 -0.00000000000E+00 -0.45593999997E+02  0.45594000000E+02  0.51100000000E-03 0. -1.
    9900012    2    1    2    0    0 -0.23514129839E+01 -0.13683610599E+02 -0.12565947547E+02  0.72461724882E+02  0.70000201379E+02 0.  0.
        -12    1    1    2    0    0  0.23514129839E+01  0.13683610599E+02  0.12565947547E+02  0.18726275118E+02  0.00000000000E+00 0.  1.
         11    1    3    3    0    0 -0.74424837212E+01 -0.20028172004E+02 -0.10930572349E+02  0.23999909373E+02  0.51100000000E-03 0. -1.
        -11    1    3    3    0    0 -0.81212238760E+01  0.12707977685E+02 -0.19943947332E+02  0.25004159845E+02  0.51100000000E-03 0.  1.
        -12    1    3    3    0    0  0.13212294613E+02 -0.63634162796E+01  0.18308572134E+02  0.23457655665E+02  0.00000000000E+00 0.  1.
</event>
<event>
 7    1  0.3611369E-013  0.7246160E+02  0.7816164E-02  0.1226708E+00
        -11   -1    0    0    0    0  0.00000000000E+00  0.00000000000E+00  0.45593999997E+02  0.45594000000E+02  0.51100000000E-03 0.  1.
         11   -1    0    0    0    0 -0.00000000000E+00 -0.00000000000E+00 -0.45593999997E+02  0.45594000000E+02  0.51100000000E-03 0. -1.
    9900012    2    1    2    0    0  0.10267788261E+02  0.46344385990E+01 -0.14959034082E+02  0.72461596246E+02  0.70000033807E+02 0.  0.
        -12    1    1    2    0    0 -0.10267788261E+02 -0.46344385990E+01  0.14959034082E+02  0.18726403754E+02  0.00000000000E+00 0.  1.
         11    1    3    3    0    0 -0.59618509925E+01 -0.75271491928E+00  0.15767575403E+02  0.16873846075E+02  0.51100000000E-03 0. -1.
        -11    1    3    3    0    0  0.12120230119E+02  0.16451152527E+02  0.22551037201E+01  0.20557866880E+02  0.51100000000E-03 0.  1.
         12    1    3    3    0    0  0.41094091344E+01 -0.11063999009E+02 -0.32981713205E+02  0.35029883292E+02  0.00000000000E+00 0. -1.
</event>
<event>
 7    1  0.3611369E-013  0.7246156E+02  0.7816164E-02  0.1226708E+00
        -11   -1    0    0    0    0  0.00000000000E+00  0.00000000000E+00  0.45593999997E+02  0.45594000000E+02  0.51100000000E-03 0. -1.
         11   -1    0    0    0    0 -0.00000000000E+00 -0.00000000000E+00 -0.45593999997E+02  0.45594000000E+02  0.51100000000E-03 0.  1.
    9900012    2    1    2    0    0  0.88379776560E+01  0.16481366753E+02 -0.96652879766E+00  0.72461562084E+02  0.69999989305E+02 0.  0.
        -12    1    1    2    0    0 -0.88379776560E+01 -0.16481366753E+02  0.96652879766E+00  0.18726437916E+02  0.00000000000E+00 0.  1.
         11    1    3    3    0    0 -0.97477151310E+01 -0.11984408615E+02  0.15483704203E+02  0.21872107723E+02  0.51100000000E-03 0. -1.
        -11    1    3    3    0    0  0.46382794143E+01  0.18973731673E+02  0.78131221709E+01  0.21037134021E+02  0.51100000000E-03 0.  1.
         12    1    3    3    0    0  0.13947413373E+02  0.94920436952E+01 -0.24263355172E+02  0.29552320340E+02  0.00000000000E+00 0. -1.
</event>
<event>
 7    1  0.3611369E-013  0.7246154E+02  0.7816164E-02  0.1226708E+00
        -11   -1    0    0    0    0  0.00000000000E+00  0.00000000000E+00  0.45593999997E+02  0.45594000000E+02  0.51100000000E-03 0.  1.
         11   -1    0    0    0    0 -0.00000000000E+00 -0.00000000000E+00 -0.45593999997E+02  0.45594000000E+02  0.51100000000E-03 0. -1.
    9900012    2    1    2    0    0  0.30068090889E+01  0.18478362520E+02  0.43548132703E+00  0.72461536738E+02  0.69999956287E+02 0.  0.
        -12    1    1    2    0    0 -0.30068090889E+01 -0.18478362520E+02 -0.43548132703E+00  0.18726463262E+02  0.00000000000E+00 0.  1.
         11    1    3    3    0    0 -0.36995813659E+01 -0.13460215746E+02 -0.24102733706E+01  0.14165935486E+02  0.51100000000E-03 0. -1.
        -11    1    3    3    0    0  0.13763173414E+01 -0.28984469767E+01  0.19183792516E+02  0.19450273517E+02  0.51100000000E-03 0.  1.
         12    1    3    3    0    0  0.53300731135E+01  0.34837025242E+02 -0.16338037819E+02  0.38845327736E+02  0.00000000000E+00 0. -1.
</event>
<event>
 7    1  0.3611369E-013  0.7246162E+02  0.7816164E-02  0.1226708E+00
        -11   -1    0    0    0    0  0.00000000000E+00  0.00000000000E+00  0.45593999997E+02  0.45594000000E+02  0.51100000000E-03 0.  1.
         11   -1    0    0    0    0 -0.00000000000E+00 -0.00000000000E+00 -0.45593999997E+02  0.45594000000E+02  0.51100000000E-03 0. -1.
    9900012    2    1    2    0    0  0.12712252859E+02  0.12386533567E+02 -0.59707515385E+01  0.72461615926E+02  0.70000059443E+02 0.  0.
        -12    1    1    2    0    0 -0.12712252859E+02 -0.12386533567E+02  0.59707515385E+01  0.18726384074E+02  0.00000000000E+00 0.  1.
         11    1    3    3    0    0  0.99803611722E+01  0.13267860837E+02 -0.37243320967E+01  0.17015122396E+02  0.51100000000E-03 0. -1.
        -11    1    3    3    0    0 -0.28290391312E+00  0.23039707944E+02  0.13447372016E+02  0.26678455562E+02  0.51100000000E-03 0.  1.
         12    1    3    3    0    0  0.30147956000E+01 -0.23921035214E+02 -0.15693791458E+02  0.28768037968E+02  0.00000000000E+00 0. -1.
</event>
<event>
 7    1  0.3611369E-013  0.7246160E+02  0.7816164E-02  0.1226708E+00
        -11   -1    0    0    0    0  0.00000000000E+00  0.00000000000E+00  0.45593999997E+02  0.45594000000E+02  0.51100000000E-03 0.  1.
         11   -1    0    0    0    0 -0.00000000000E+00 -0.00000000000E+00 -0.45593999997E+02  0.45594000000E+02  0.51100000000E-03 0. -1.
    9900012    2    1    2    0    0 -0.16984341161E+02 -0.19169669808E+01 -0.76508528670E+01  0.72461597337E+02  0.70000035228E+02 0.  0.
        -12    1    1    2    0    0  0.16984341161E+02  0.19169669808E+01  0.76508528670E+01  0.18726402663E+02  0.00000000000E+00 0.  1.
         11    1    3    3    0    0  0.14614130457E+02 -0.31095519778E+01  0.15848757429E+02  0.21781304709E+02  0.51100000000E-03 0. -1.
        -11    1    3    3    0    0  0.98207088492E-01 -0.79236667132E+01  0.28959037365E+01  0.84368476060E+01  0.51100000000E-03 0.  1.
        -12    1    3    3    0    0 -0.31696678707E+02  0.91162517102E+01 -0.26395514033E+02  0.42243445022E+02  0.00000000000E+00 0.  1.
</event>
<event>
 7    1  0.3611369E-013  0.7246153E+02  0.7816164E-02  0.1226708E+00
        -11   -1    0    0    0    0  0.00000000000E+00  0.00000000000E+00  0.45593999997E+02  0.45594000000E+02  0.51100000000E-03 0. -1.
         11   -1    0    0    0    0 -0.00000000000E+00 -0.00000000000E+00 -0.45593999997E+02  0.45594000000E+02  0.51100000000E-03 0.  1.
    9900012    2    1    2    0    0  0.57075917960E+01  0.15738131310E+01  0.17765900590E+02  0.72461529012E+02  0.69999946222E+02 0.  0.
        -12    1    1    2    0    0 -0.57075917960E+01 -0.15738131310E+01 -0.17765900590E+02  0.18726470988E+02  0.00000000000E+00 0.  1.
         11    1    3    3    0    0  0.81865857860E+01  0.16742515674E+02  0.12115007440E+02  0.22228482257E+02  0.51100000000E-03 0. -1.
        -11    1    3    3    0    0  0.16278234641E+02 -0.18226316672E+02  0.15388498867E+02  0.28878806071E+02  0.51100000000E-03 0.  1.
         12    1    3    3    0    0 -0.18757228631E+02  0.30576141292E+01 -0.97376057169E+01  0.21354240684E+02  0.00000000000E+00 0. -1.
</event>
<event>
 7    1  0.3611369E-013  0.7246157E+02  0.7816164E-02  0.1226708E+00
        -11   -1    0    0    0    0  0.00000000000E+00  0.00000000000E+00  0.45593999997E+02  0.45594000000E+02  0.51100000000E-03 0. -1.
         11   -1    0    0    0    0 -0.00000000000E+00 -0.00000000000E+00 -0.45593999997E+02  0.45594000000E+02  0.51100000000E-03 0.  1.
    9900012    2    1    2    0    0  0.13906492100E+02 -0.10579287270E+02  0.67355379477E+01  0.72461566460E+02  0.69999995006E+02 0.  0.
        -12    1    1    2    0    0 -0.13906492100E+02  0.10579287270E+02 -0.67355379477E+01  0.18726433540E+02  0.00000000000E+00 0.  1.
         11    1    3    3    0    0  0.58464321406E+01  0.85344589134E+01 -0.10000146505E+02  0.14388213513E+02  0.51100000000E-03 0. -1.
        -11    1    3    3    0    0  0.27814723131E+02 -0.14043687510E+02 -0.81032936664E+00  0.31169546286E+02  0.51100000000E-03 0.  1.
         12    1    3    3    0    0 -0.19754663171E+02 -0.50700586728E+01  0.17546013819E+02  0.26903806662E+02  0.00000000000E+00 0. -1.
</event>
<event>
 7    1  0.3611369E-013  0.7246160E+02  0.7816164E-02  0.1226708E+00
        -11   -1    0    0    0    0  0.00000000000E+00  0.00000000000E+00  0.45593999997E+02  0.45594000000E+02  0.51100000000E-03 0.  1.
         11   -1    0    0    0    0 -0.00000000000E+00 -0.00000000000E+00 -0.45593999997E+02  0.45594000000E+02  0.51100000000E-03 0. -1.
    9900012    2    1    2    0    0 -0.81854165637E+01 -0.15923656225E+01 -0.16767273148E+02  0.72461598279E+02  0.70000036456E+02 0.  0.
        -12    1    1    2    0    0  0.81854165637E+01  0.15923656225E+01  0.16767273148E+02  0.18726401721E+02  0.00000000000E+00 0.  1.
         11    1    3    3    0    0 -0.57274429608E+01 -0.71012679948E+01 -0.59012764054E+01  0.10865388786E+02  0.51100000000E-03 0. -1.
        -11    1    3    3    0    0 -0.21700267908E+02 -0.15598016270E+02  0.73540881909E+01  0.27717906707E+02  0.51100000000E-03 0.  1.
         12    1    3    3    0    0  0.19242294305E+02  0.21106918642E+02 -0.18220084933E+02  0.33878302786E+02  0.00000000000E+00 0. -1.
</event>
<event>
 7    1  0.3611369E-013  0.7246150E+02  0.7816164E-02  0.1226708E+00
        -11   -1    0    0    0    0  0.00000000000E+00  0.00000000000E+00  0.45593999997E+02  0.45594000000E+02  0.51100000000E-03 0.  1.
         11   -1    0    0    0    0 -0.00000000000E+00 -0.00000000000E+00 -0.45593999997E+02  0.45594000000E+02  0.51100000000E-03 0. -1.
    9900012    2    1    2    0    0  0.10982439561E+02  0.12972840592E+02 -0.78595835769E+01  0.72461504713E+02  0.69999914568E+02 0.  0.
        -12    1    1    2    0    0 -0.10982439561E+02 -0.12972840592E+02  0.78595835769E+01  0.18726495287E+02  0.00000000000E+00 0.  1.
         11    1    3    3    0    0 -0.35769048588E+01  0.56905995510E+01  0.99351798792E+01  0.11995206172E+02  0.51100000000E-03 0. -1.
        -11    1    3    3    0    0  0.27972282093E+01 -0.14938175866E+02 -0.29154221046E+02  0.32877685273E+02  0.51100000000E-03 0.  1.
         12    1    3    3    0    0  0.11762116211E+02  0.22220416907E+02  0.11359457590E+02  0.27588613267E+02  0.00000000000E+00 0. -1.
</event>
<event>
 7    1  0.3611369E-013  0.7246152E+02  0.7816164E-02  0.1226708E+00
        -11   -1    0    0    0    0  0.00000000000E+00  0.00000000000E+00  0.45593999997E+02  0.45594000000E+02  0.51100000000E-03 0.  1.
         11   -1    0    0    0    0 -0.00000000000E+00 -0.00000000000E+00 -0.45593999997E+02  0.45594000000E+02  0.51100000000E-03 0. -1.
    9900012    2    1    2    0    0  0.96992429173E+01  0.13313399007E+02 -0.89083740311E+01  0.72461520508E+02  0.69999935144E+02 0.  0.
        -12    1    1    2    0    0 -0.96992429173E+01 -0.13313399007E+02  0.89083740311E+01  0.18726479492E+02  0.00000000000E+00 0.  1.
         11    1    3    3    0    0  0.29557677949E+02 -0.68357515691E+00  0.20981122862E+01  0.29639933808E+02  0.51100000000E-03 0. -1.
        -11    1    3    3    0    0 -0.10200950960E+02 -0.55601458100E+01  0.78234061918E+01  0.14006438042E+02  0.51100000000E-03 0.  1.
         12    1    3    3    0    0 -0.96574840711E+01  0.19557119974E+02 -0.18829892509E+02  0.28815148658E+02  0.00000000000E+00 0. -1.
</event>
<event>
 7    1  0.3611369E-013  0.7246156E+02  0.7816164E-02  0.1226708E+00
        -11   -1    0    0    0    0  0.00000000000E+00  0.00000000000E+00  0.45593999997E+02  0.45594000000E+02  0.51100000000E-03 0. -1.
         11   -1    0    0    0    0 -0.00000000000E+00 -0.00000000000E+00 -0.45593999997E+02  0.45594000000E+02  0.51100000000E-03 0.  1.
    9900012    2    1    2    0    0 -0.89959305535E+01 -0.16253856853E+02  0.23590487686E+01  0.72461555057E+02  0.69999980150E+02 0.  0.
        -12    1    1    2    0    0  0.89959305535E+01  0.16253856853E+02 -0.23590487686E+01  0.18726444943E+02  0.00000000000E+00 0.  1.
         11    1    3    3    0    0 -0.18803333650E+02 -0.11907345396E+02  0.67652500884E+01  0.23261961219E+02  0.51100000000E-03 0. -1.
        -11    1    3    3    0    0 -0.59792635194E+00 -0.25349030793E+02 -0.45460782466E+01  0.25760390248E+02  0.51100000000E-03 0.  1.
         12    1    3    3    0    0  0.10405329449E+02  0.21002519335E+02  0.13987692676E+00  0.23439203589E+02  0.00000000000E+00 0. -1.
</event>
<event>
 7    1  0.3611369E-013  0.7246155E+02  0.7816164E-02  0.1226708E+00
        -11   -1    0    0    0    0  0.00000000000E+00  0.00000000000E+00  0.45593999997E+02  0.45594000000E+02  0.51100000000E-03 0. -1.
         11   -1    0    0    0    0 -0.00000000000E+00 -0.00000000000E+00 -0.45593999997E+02  0.45594000000E+02  0.51100000000E-03 0.  1.
    9900012    2    1    2    0    0  0.11669631996E+02 -0.14638543051E+02  0.46113468187E+00  0.72461550823E+02  0.69999974635E+02 0.  0.
        -12    1    1    2    0    0 -0.11669631996E+02  0.14638543051E+02 -0.46113468187E+00  0.18726449177E+02  0.00000000000E+00 0.  1.
         11    1    3    3    0    0  0.13651386921E+02 -0.13043631812E+02  0.62810543023E+01  0.19898450671E+02  0.51100000000E-03 0. -1.
        -11    1    3    3    0    0 -0.95789424951E+00 -0.26847066708E+02 -0.13507842101E+01  0.26898088602E+02  0.51100000000E-03 0.  1.
        -12    1    3    3    0    0 -0.10238606751E+01  0.25252155469E+02 -0.44691354103E+01  0.25665011550E+02  0.00000000000E+00 0.  1.
</event>
<event>
 7    1  0.3611369E-013  0.7246154E+02  0.7816164E-02  0.1226708E+00
        -11   -1    0    0    0    0  0.00000000000E+00  0.00000000000E+00  0.45593999997E+02  0.45594000000E+02  0.51100000000E-03 0. -1.
         11   -1    0    0    0    0 -0.00000000000E+00 -0.00000000000E+00 -0.45593999997E+02  0.45594000000E+02  0.51100000000E-03 0.  1.
    9900012    2    1    2    0    0 -0.16265306451E+02 -0.53794454768E+01 -0.75618650235E+01  0.72461536634E+02  0.69999956151E+02 0.  0.
        -12    1    1    2    0    0  0.16265306451E+02  0.53794454768E+01  0.75618650235E+01  0.18726463366E+02  0.00000000000E+00 0.  1.
         11    1    3    3    0    0  0.11477720866E+02 -0.32962917489E+01  0.13432314134E+02  0.17973054243E+02  0.51100000000E-03 0. -1.
        -11    1    3    3    0    0 -0.27028611171E+02 -0.94099986136E+01  0.35730608767E+01  0.28841994730E+02  0.51100000000E-03 0.  1.
        -12    1    3    3    0    0 -0.71441614580E+00  0.73268448857E+01 -0.24567240034E+02  0.25646487660E+02  0.00000000000E+00 0.  1.
</event>
<event>
 7    1  0.3611369E-013  0.7246157E+02  0.7816164E-02  0.1226708E+00
        -11   -1    0    0    0    0  0.00000000000E+00  0.00000000000E+00  0.45593999997E+02  0.45594000000E+02  0.51100000000E-03 0.  1.
         11   -1    0    0    0    0 -0.00000000000E+00 -0.00000000000E+00 -0.45593999997E+02  0.45594000000E+02  0.51100000000E-03 0. -1.
    9900012    2    1    2    0    0 -0.13673057872E+02 -0.53632117860E+01 -0.11617339272E+02  0.72461571510E+02  0.70000001584E+02 0.  0.
        -12    1    1    2    0    0  0.13673057872E+02  0.53632117860E+01  0.11617339272E+02  0.18726428490E+02  0.00000000000E+00 0.  1.
         11    1    3    3    0    0  0.70424838777E+00  0.75070342942E+01 -0.12449691293E+02  0.14554942228E+02  0.51100000000E-03 0. -1.
        -11    1    3    3    0    0 -0.14433278233E+02  0.58131230853E+01  0.23715876771E+02  0.28364674012E+02  0.51100000000E-03 0.  1.
         12    1    3    3    0    0  0.55971972593E-01 -0.18683369165E+02 -0.22883524749E+02  0.29541955270E+02  0.00000000000E+00 0. -1.
</event>
<event>
 7    1  0.3611369E-013  0.7246165E+02  0.7816164E-02  0.1226708E+00
        -11   -1    0    0    0    0  0.00000000000E+00  0.00000000000E+00  0.45593999997E+02  0.45594000000E+02  0.51100000000E-03 0. -1.
         11   -1    0    0    0    0 -0.00000000000E+00 -0.00000000000E+00 -0.45593999997E+02  0.45594000000E+02  0.51100000000E-03 0.  1.
    9900012    2    1    2    0    0  0.42814151530E+01  0.48714368645E+01  0.17567436919E+02  0.72461648173E+02  0.70000101451E+02 0.  0.
        -12    1    1    2    0    0 -0.42814151530E+01 -0.48714368645E+01 -0.17567436919E+02  0.18726351827E+02  0.00000000000E+00 0.  1.
         11    1    3    3    0    0  0.11447714314E+02 -0.58830111706E+01  0.10361616891E+02  0.16523410311E+02  0.51100000000E-03 0. -1.
        -11    1    3    3    0    0  0.23511710894E+02  0.22049732270E+01  0.25362993532E+01  0.23750689900E+02  0.51100000000E-03 0.  1.
        -12    1    3    3    0    0 -0.30678010055E+02  0.85494748081E+01  0.46695206752E+01  0.32187547961E+02  0.00000000000E+00 0.  1.
</event>
<event>
 7    1  0.3611369E-013  0.7246154E+02  0.7816164E-02  0.1226708E+00
        -11   -1    0    0    0    0  0.00000000000E+00  0.00000000000E+00  0.45593999997E+02  0.45594000000E+02  0.51100000000E-03 0. -1.
         11   -1    0    0    0    0 -0.00000000000E+00 -0.00000000000E+00 -0.45593999997E+02  0.45594000000E+02  0.51100000000E-03 0.  1.
    9900012    2    1    2    0    0 -0.22738744315E+01 -0.15648016377E+02  0.10032425145E+02  0.72461535418E+02  0.69999954567E+02 0.  0.
        -12    1    1    2    0    0  0.22738744315E+01  0.15648016377E+02 -0.10032425145E+02  0.18726464582E+02  0.00000000000E+00 0.  1.
         11    1    3    3    0    0 -0.30924256192E+01  0.51639434209E+01 -0.89992833937E-01  0.60197596992E+01  0.51100000000E-03 0. -1.
        -11    1    3    3    0    0 -0.11626360620E+01  0.14244675595E+02 -0.16901299018E+02  0.22134055530E+02  0.51100000000E-03 0.  1.
         12    1    3    3    0    0  0.19811872497E+01 -0.35056635393E+02  0.27023716997E+02  0.44307720189E+02  0.00000000000E+00 0. -1.
</event>
<event>
 7    1  0.3611369E-013  0.7246158E+02  0.7816164E-02  0.1226708E+00
        -11   -1    0    0    0    0  0.00000000000E+00  0.00000000000E+00  0.45593999997E+02  0.45594000000E+02  0.51100000000E-03 0.  1.
         11   -1    0    0    0    0 -0.00000000000E+00 -0.00000000000E+00 -0.45593999997E+02  0.45594000000E+02  0.51100000000E-03 0. -1.
    9900012    2    1    2    0    0  0.71027380174E+01  0.16588047246E+02 -0.50066678596E+01  0.72461576908E+02  0.70000008615E+02 0.  0.
        -12    1    1    2    0    0 -0.71027380174E+01 -0.16588047246E+02  0.50066678596E+01  0.18726423092E+02  0.00000000000E+00 0.  1.
         11    1    3    3    0    0 -0.62774354336E+01  0.14966021330E+02 -0.28098925678E+02  0.32449000209E+02  0.51100000000E-03 0. -1.
        -11    1    3    3    0    0  0.42262188286E+01 -0.44262449067E+01 -0.62129515152E+01  0.87208564002E+01  0.51100000000E-03 0.  1.
        -12    1    3    3    0    0  0.91539546224E+01  0.60482708225E+01  0.29305209333E+02  0.31291720299E+02  0.00000000000E+00 0.  1.
</event>
<event>
 7    1  0.3611369E-013  0.7246140E+02  0.7816164E-02  0.1226708E+00
        -11   -1    0    0    0    0  0.00000000000E+00  0.00000000000E+00  0.45593999997E+02  0.45594000000E+02  0.51100000000E-03 0.  1.
         11   -1    0    0    0    0 -0.00000000000E+00 -0.00000000000E+00 -0.45593999997E+02  0.45594000000E+02  0.51100000000E-03 0. -1.
    9900012    2    1    2    0    0 -0.59676863167E+01  0.75610244011E+01 -0.16059363439E+02  0.72461400628E+02  0.69999778978E+02 0.  0.
        -12    1    1    2    0    0  0.59676863167E+01 -0.75610244011E+01  0.16059363439E+02  0.18726599372E+02  0.00000000000E+00 0.  1.
         11    1    3    3    0    0  0.94091463803E+01  0.10763557161E+02  0.13892863783E+01  0.14363715232E+02  0.51100000000E-03 0. -1.
        -11    1    3    3    0    0  0.78529550448E+01  0.95262228512E+01  0.12872462427E+02  0.17835865943E+02  0.51100000000E-03 0.  1.
        -12    1    3    3    0    0 -0.23229787742E+02 -0.12728755611E+02 -0.30321112244E+02  0.40261819453E+02  0.00000000000E+00 0.  1.
</event>
<event>
 7    1  0.3611369E-013  0.7246150E+02  0.7816164E-02  0.1226708E+00
        -11   -1    0    0    0    0  0.00000000000E+00  0.00000000000E+00  0.45593999997E+02  0.45594000000E+02  0.51100000000E-03 0.  1.
         11   -1    0    0    0    0 -0.00000000000E+00 -0.00000000000E+00 -0.45593999997E+02  0.45594000000E+02  0.51100000000E-03 0. -1.
    9900012    2    1    2    0    0 -0.18057665293E+02  0.45750368015E+01 -0.19161008549E+01  0.72461503263E+02  0.69999912679E+02 0.  0.
        -12    1    1    2    0    0  0.18057665293E+02 -0.45750368015E+01  0.19161008549E+01  0.18726496737E+02  0.00000000000E+00 0.  1.
         11    1    3    3    0    0 -0.10096362826E+02  0.44345533134E+01 -0.20204173821E+02  0.23017611637E+02  0.51100000000E-03 0. -1.
        -11    1    3    3    0    0 -0.22604073704E+02  0.35876354137E+01 -0.33081695835E+01  0.23124862424E+02  0.51100000000E-03 0.  1.
        -12    1    3    3    0    0  0.14642771237E+02 -0.34471519256E+01  0.21596242550E+02  0.26319029202E+02  0.00000000000E+00 0.  1.
</event>
<event>
 7    1  0.3611369E-013  0.7246157E+02  0.7816164E-02  0.1226708E+00
        -11   -1    0    0    0    0  0.00000000000E+00  0.00000000000E+00  0.45593999997E+02  0.45594000000E+02  0.51100000000E-03 0.  1.
         11   -1    0    0    0    0 -0.00000000000E+00 -0.00000000000E+00 -0.45593999997E+02  0.45594000000E+02  0.51100000000E-03 0. -1.
    9900012    2    1    2    0    0  0.84364542446E+01  0.94651350676E+01 -0.13781028822E+02  0.72461566878E+02  0.69999995550E+02 0.  0.
        -12    1    1    2    0    0 -0.84364542446E+01 -0.94651350676E+01  0.13781028822E+02  0.18726433122E+02  0.00000000000E+00 0.  1.
         11    1    3    3    0    0  0.12990901708E+02  0.19246686199E+02 -0.11070821666E+02  0.25724726421E+02  0.51100000000E-03 0. -1.
        -11    1    3    3    0    0 -0.10319378774E+02  0.55928024034E+01  0.17266415903E+02  0.20878173661E+02  0.51100000000E-03 0.  1.
         12    1    3    3    0    0  0.57649313100E+01 -0.15374353535E+02 -0.19976623059E+02  0.25858666796E+02  0.00000000000E+00 0. -1.
</event>
<event>
 7    1  0.3611369E-013  0.7246159E+02  0.7816164E-02  0.1226708E+00
        -11   -1    0    0    0    0  0.00000000000E+00  0.00000000000E+00  0.45593999997E+02  0.45594000000E+02  0.51100000000E-03 0.  1.
         11   -1    0    0    0    0 -0.00000000000E+00 -0.00000000000E+00 -0.45593999997E+02  0.45594000000E+02  0.51100000000E-03 0. -1.
    9900012    2    1    2    0    0  0.22834248407E+01  0.69349066548E+01 -0.17244467259E+02  0.72461585224E+02  0.70000019449E+02 0.  0.
        -12    1    1    2    0    0 -0.22834248407E+01 -0.69349066548E+01  0.17244467259E+02  0.18726414776E+02  0.00000000000E+00 0.  1.
         11    1    3    3    0    0 -0.80831269949E+01  0.50773995453E+01  0.37741909009E+01  0.10264572343E+02  0.51100000000E-03 0. -1.
        -11    1    3    3    0    0  0.19053971255E+01  0.21434011499E+02  0.10655447338E+02  0.24012204092E+02  0.51100000000E-03 0.  1.
         12    1    3    3    0    0  0.84611547101E+01 -0.19576504389E+02 -0.31674105499E+02  0.38184808789E+02  0.00000000000E+00 0. -1.
</event>
<event>
 7    1  0.3611369E-013  0.7246157E+02  0.7816164E-02  0.1226708E+00
        -11   -1    0    0    0    0  0.00000000000E+00  0.00000000000E+00  0.45593999997E+02  0.45594000000E+02  0.51100000000E-03 0.  1.
         11   -1    0    0    0    0 -0.00000000000E+00 -0.00000000000E+00 -0.45593999997E+02  0.45594000000E+02  0.51100000000E-03 0. -1.
    9900012    2    1    2    0    0 -0.37565321371E+01 -0.85101651595E+01 -0.16252532702E+02  0.72461567773E+02  0.69999996715E+02 0.  0.
        -12    1    1    2    0    0  0.37565321371E+01  0.85101651595E+01  0.16252532702E+02  0.18726432227E+02  0.00000000000E+00 0.  1.
         11    1    3    3    0    0  0.36404256249E+01 -0.20874601683E+02 -0.84367896348E+01  0.22807479338E+02  0.51100000000E-03 0. -1.
        -11    1    3    3    0    0 -0.11401719296E+02 -0.31417585605E+01 -0.24080620546E+02  0.26828084835E+02  0.51100000000E-03 0.  1.
        -12    1    3    3    0    0  0.40047615340E+01  0.15506195084E+02  0.16264877479E+02  0.22826003600E+02  0.00000000000E+00 0.  1.
</event>
<event>
 7    1  0.3611369E-013  0.7246160E+02  0.7816164E-02  0.1226708E+00
        -11   -1    0    0    0    0  0.00000000000E+00  0.00000000000E+00  0.45593999997E+02  0.45594000000E+02  0.51100000000E-03 0. -1.
         11   -1    0    0    0    0 -0.00000000000E+00 -0.00000000000E+00 -0.45593999997E+02  0.45594000000E+02  0.51100000000E-03 0.  1.
    9900012    2    1    2    0    0 -0.52315139768E+01 -0.17968754032E+02  0.65809832532E+00  0.72461602766E+02  0.70000042300E+02 0.  0.
        -12    1    1    2    0    0  0.52315139768E+01  0.17968754032E+02 -0.65809832532E+00  0.18726397234E+02  0.00000000000E+00 0.  1.
         11    1    3    3    0    0  0.91274335512E+01 -0.35857664352E+01  0.14523135225E+02  0.17523961344E+02  0.51100000000E-03 0. -1.
        -11    1    3    3    0    0  0.14214864069E+02 -0.10472510806E+02 -0.18673996788E+02  0.25699299589E+02  0.51100000000E-03 0.  1.
         12    1    3    3    0    0 -0.28573811597E+02 -0.39104767907E+01  0.48089598885E+01  0.29238341833E+02  0.00000000000E+00 0. -1.
</event>
<event>
 7    1  0.3611369E-013  0.7246156E+02  0.7816164E-02  0.1226708E+00
        -11   -1    0    0    0    0  0.00000000000E+00  0.00000000000E+00  0.45593999997E+02  0.45594000000E+02  0.51100000000E-03 0. -1.
         11   -1    0    0    0    0 -0.00000000000E+00 -0.00000000000E+00 -0.45593999997E+02  0.45594000000E+02  0.51100000000E-03 0.  1.
    9900012    2    1    2    0    0 -0.12538892944E+02 -0.84494445375E+01  0.11048195065E+02  0.72461559777E+02  0.69999986299E+02 0.  0.
        -12    1    1    2    0    0  0.12538892944E+02  0.84494445375E+01 -0.11048195065E+02  0.18726440223E+02  0.00000000000E+00 0.  1.
         11    1    3    3    0    0 -0.58910822962E+00  0.83205380427E+01  0.80127297653E+01  0.11566427295E+02  0.51100000000E-03 0. -1.
        -11    1    3    3    0    0 -0.18252755165E+02  0.17659267305E+02  0.48106898629E+01  0.25848704611E+02  0.51100000000E-03 0.  1.
         12    1    3    3    0    0  0.63029704505E+01 -0.34429249886E+02 -0.17752245633E+01  0.35046427870E+02  0.00000000000E+00 0. -1.
</event>
<event>
 7    1  0.3611369E-013  0.7246157E+02  0.7816164E-02  0.1226708E+00
        -11   -1    0    0    0    0  0.00000000000E+00  0.00000000000E+00  0.45593999997E+02  0.45594000000E+02  0.51100000000E-03 0.  1.
         11   -1    0    0    0    0 -0.00000000000E+00 -0.00000000000E+00 -0.45593999997E+02  0.45594000000E+02  0.51100000000E-03 0. -1.
    9900012    2    1    2    0    0 -0.12864975103E+02  0.10991041789E+02 -0.80230000877E+01  0.72461571766E+02  0.70000001917E+02 0.  0.
        -12    1    1    2    0    0  0.12864975103E+02 -0.10991041789E+02  0.80230000877E+01  0.18726428234E+02  0.00000000000E+00 0.  1.
         11    1    3    3    0    0 -0.31940858366E+02  0.21648908482E+01 -0.23844849160E+02  0.39918442069E+02  0.51100000000E-03 0. -1.
        -11    1    3    3    0    0  0.87763003821E+01 -0.14026017198E+01 -0.24384969964E+01  0.92161275949E+01  0.51100000000E-03 0.  1.
        -12    1    3    3    0    0  0.10299582880E+02  0.10228752660E+02  0.18260346069E+02  0.23327002102E+02  0.00000000000E+00 0.  1.
</event>
<event>
 7    1  0.3611369E-013  0.7246136E+02  0.7816164E-02  0.1226709E+00
        -11   -1    0    0    0    0  0.00000000000E+00  0.00000000000E+00  0.45593999997E+02  0.45594000000E+02  0.51100000000E-03 0.  1.
         11   -1    0    0    0    0 -0.00000000000E+00 -0.00000000000E+00 -0.45593999997E+02  0.45594000000E+02  0.51100000000E-03 0. -1.
    9900012    2    1    2    0    0  0.78449145629E+01 -0.11280195689E+02 -0.12724054714E+02  0.72461359414E+02  0.69999725289E+02 0.  0.
        -12    1    1    2    0    0 -0.78449145629E+01  0.11280195689E+02  0.12724054714E+02  0.18726640586E+02  0.00000000000E+00 0.  1.
         11    1    3    3    0    0  0.15416884521E+02  0.21182705248E+02 -0.59201899294E+01  0.26859560291E+02  0.51100000000E-03 0. -1.
        -11    1    3    3    0    0  0.98030688577E+01 -0.22660291000E+02 -0.69584498000E+01  0.25651685541E+02  0.51100000000E-03 0.  1.
        -12    1    3    3    0    0 -0.17375038815E+02 -0.98026099367E+01  0.15458501581E+00  0.19950113582E+02  0.00000000000E+00 0.  1.
</event>
<event>
 7    1  0.3611369E-013  0.7246155E+02  0.7816164E-02  0.1226708E+00
        -11   -1    0    0    0    0  0.00000000000E+00  0.00000000000E+00  0.45593999997E+02  0.45594000000E+02  0.51100000000E-03 0.  1.
         11   -1    0    0    0    0 -0.00000000000E+00 -0.00000000000E+00 -0.45593999997E+02  0.45594000000E+02  0.51100000000E-03 0. -1.
    9900012    2    1    2    0    0 -0.87182996557E+01 -0.15383506177E+02 -0.61659633914E+01  0.72461545030E+02  0.69999967089E+02 0.  0.
        -12    1    1    2    0    0  0.87182996557E+01  0.15383506177E+02  0.61659633914E+01  0.18726454970E+02  0.00000000000E+00 0.  1.
         11    1    3    3    0    0 -0.11531454189E+02 -0.46914154348E+01 -0.26775461327E+02  0.29528107695E+02  0.51100000000E-03 0. -1.
        -11    1    3    3    0    0 -0.82695488188E+01  0.54415667905E+01 -0.46834910837E+01  0.10951309319E+02  0.51100000000E-03 0.  1.
        -12    1    3    3    0    0  0.11082703352E+02 -0.16133657533E+02  0.25292989019E+02  0.31982128017E+02  0.00000000000E+00 0.  1.
</event>
<event>
 7    1  0.3611369E-013  0.7246200E+02  0.7816164E-02  0.1226707E+00
        -11   -1    0    0    0    0  0.00000000000E+00  0.00000000000E+00  0.45593999997E+02  0.45594000000E+02  0.51100000000E-03 0. -1.
         11   -1    0    0    0    0 -0.00000000000E+00 -0.00000000000E+00 -0.45593999997E+02  0.45594000000E+02  0.51100000000E-03 0.  1.
    9900012    2    1    2    0    0  0.21420365562E+01 -0.69139237135E+01  0.17270561620E+02  0.72462003087E+02  0.70000563790E+02 0.  0.
        -12    1    1    2    0    0 -0.21420365562E+01  0.69139237135E+01 -0.17270561620E+02  0.18725996913E+02  0.00000000000E+00 0.  1.
         11    1    3    3    0    0 -0.28940742954E+02 -0.20816812015E+01  0.34023606167E+01  0.29214312544E+02  0.51100000000E-03 0. -1.
        -11    1    3    3    0    0  0.13416910962E+01 -0.10148717768E+02  0.61316063342E+00  0.10255368036E+02  0.51100000000E-03 0.  1.
        -12    1    3    3    0    0  0.29741088414E+02  0.53164752559E+01  0.13255040370E+02  0.32992322507E+02  0.00000000000E+00 0.  1.
</event>
<event>
 7    1  0.3611369E-013  0.7246156E+02  0.7816164E-02  0.1226708E+00
        -11   -1    0    0    0    0  0.00000000000E+00  0.00000000000E+00  0.45593999997E+02  0.45594000000E+02  0.51100000000E-03 0. -1.
         11   -1    0    0    0    0 -0.00000000000E+00 -0.00000000000E+00 -0.45593999997E+02  0.45594000000E+02  0.51100000000E-03 0.  1.
    9900012    2    1    2    0    0  0.17003910150E+02 -0.19897122403E+01  0.75886518612E+01  0.72461560076E+02  0.69999986688E+02 0.  0.
        -12    1    1    2    0    0 -0.17003910150E+02  0.19897122403E+01 -0.75886518612E+01  0.18726439924E+02  0.00000000000E+00 0.  1.
         11    1    3    3    0    0  0.86501967295E+00 -0.35719848022E+01 -0.20551344299E-01  0.36752900675E+01  0.51100000000E-03 0. -1.
        -11    1    3    3    0    0  0.15500149504E+02 -0.29116766472E+02 -0.85675833113E+01  0.34079967848E+02  0.51100000000E-03 0.  1.
         12    1    3    3    0    0  0.63874097242E+00  0.30699039034E+02  0.16176786517E+02  0.34706302160E+02  0.00000000000E+00 0. -1.
</event>
<event>
 7    1  0.3611369E-013  0.7246155E+02  0.7816164E-02  0.1226708E+00
        -11   -1    0    0    0    0  0.00000000000E+00  0.00000000000E+00  0.45593999997E+02  0.45594000000E+02  0.51100000000E-03 0.  1.
         11   -1    0    0    0    0 -0.00000000000E+00 -0.00000000000E+00 -0.45593999997E+02  0.45594000000E+02  0.51100000000E-03 0. -1.
    9900012    2    1    2    0    0 -0.18226597113E+02  0.35147188890E+01 -0.24733938455E+01  0.72461554306E+02  0.69999979173E+02 0.  0.
        -12    1    1    2    0    0  0.18226597113E+02 -0.35147188890E+01  0.24733938455E+01  0.18726445694E+02  0.00000000000E+00 0.  1.
         11    1    3    3    0    0  0.39128648138E+00  0.18502568680E+01 -0.31686364944E+02  0.31742751601E+02  0.51100000000E-03 0. -1.
        -11    1    3    3    0    0  0.42890333242E+01  0.12559325366E+01  0.13969706088E+01  0.46823819297E+01  0.51100000000E-03 0.  1.
        -12    1    3    3    0    0 -0.22906916919E+02  0.40852948448E+00  0.27816000490E+02  0.36036420776E+02  0.00000000000E+00 0.  1.
</event>
<event>
 7    1  0.3611369E-013  0.7246168E+02  0.7816164E-02  0.1226708E+00
        -11   -1    0    0    0    0  0.00000000000E+00  0.00000000000E+00  0.45593999997E+02  0.45594000000E+02  0.51100000000E-03 0.  1.
         11   -1    0    0    0    0 -0.00000000000E+00 -0.00000000000E+00 -0.45593999997E+02  0.45594000000E+02  0.51100000000E-03 0. -1.
    9900012    2    1    2    0    0  0.11836540101E+02 -0.11750441563E+02 -0.85146118832E+01  0.72461676975E+02  0.70000138972E+02 0.  0.
        -12    1    1    2    0    0 -0.11836540101E+02  0.11750441563E+02  0.85146118832E+01  0.18726323025E+02  0.00000000000E+00 0.  1.
         11    1    3    3    0    0  0.13844341492E+02  0.50245699209E+01 -0.62528905786E+00  0.14741203510E+02  0.51100000000E-03 0. -1.
        -11    1    3    3    0    0 -0.91790472792E+01  0.29993243256E+01  0.20340125788E+02  0.22516029239E+02  0.51100000000E-03 0.  1.
         12    1    3    3    0    0  0.71712458880E+01 -0.19774335810E+02 -0.28229448613E+02  0.35204444227E+02  0.00000000000E+00 0. -1.
</event>
<event>
 7    1  0.3611369E-013  0.7246148E+02  0.7816164E-02  0.1226708E+00
        -11   -1    0    0    0    0  0.00000000000E+00  0.00000000000E+00  0.45593999997E+02  0.45594000000E+02  0.51100000000E-03 0. -1.
         11   -1    0    0    0    0 -0.00000000000E+00 -0.00000000000E+00 -0.45593999997E+02  0.45594000000E+02  0.51100000000E-03 0.  1.
    9900012    2    1    2    0    0 -0.89593683548E+01  0.13920434951E+02  0.87540750110E+01  0.72461478170E+02  0.69999879991E+02 0.  0.
        -12    1    1    2    0    0  0.89593683548E+01 -0.13920434951E+02 -0.87540750110E+01  0.18726521830E+02  0.00000000000E+00 0.  1.
         11    1    3    3    0    0 -0.26835843797E+02  0.30621593971E+01  0.14611701078E+02  0.30708974928E+02  0.51100000000E-03 0. -1.
        -11    1    3    3    0    0 -0.53273743153E+01 -0.66293276555E+01  0.59603719854E+01  0.10385323140E+02  0.51100000000E-03 0.  1.
        -12    1    3    3    0    0  0.23203849757E+02  0.17487603210E+02 -0.11817998052E+02  0.31367180102E+02  0.00000000000E+00 0.  1.
</event>
<event>
 7    1  0.3611369E-013  0.7246165E+02  0.7816164E-02  0.1226708E+00
        -11   -1    0    0    0    0  0.00000000000E+00  0.00000000000E+00  0.45593999997E+02  0.45594000000E+02  0.51100000000E-03 0. -1.
         11   -1    0    0    0    0 -0.00000000000E+00 -0.00000000000E+00 -0.45593999997E+02  0.45594000000E+02  0.51100000000E-03 0.  1.
    9900012    2    1    2    0    0 -0.12376687465E+02 -0.69698596250E+01  0.12203073509E+02  0.72461645873E+02  0.70000098456E+02 0.  0.
        -12    1    1    2    0    0  0.12376687465E+02  0.69698596250E+01 -0.12203073509E+02  0.18726354127E+02  0.00000000000E+00 0.  1.
         11    1    3    3    0    0  0.67344152067E+01 -0.10565594630E+01 -0.19737517213E+01  0.70967853422E+01  0.51100000000E-03 0. -1.
        -11    1    3    3    0    0  0.85141225788E+01 -0.25688565036E+02 -0.31190183395E+01  0.27241896640E+02  0.51100000000E-03 0.  1.
         12    1    3    3    0    0 -0.27625225251E+02  0.19775264874E+02  0.17295843570E+02  0.38122963891E+02  0.00000000000E+00 0. -1.
</event>
<event>
 7    1  0.3611369E-013  0.7246157E+02  0.7816164E-02  0.1226708E+00
        -11   -1    0    0    0    0  0.00000000000E+00  0.00000000000E+00  0.45593999997E+02  0.45594000000E+02  0.51100000000E-03 0. -1.
         11   -1    0    0    0    0 -0.00000000000E+00 -0.00000000000E+00 -0.45593999997E+02  0.45594000000E+02  0.51100000000E-03 0.  1.
    9900012    2    1    2    0    0  0.53194645663E+00 -0.89621517502E+01  0.16433986730E+02  0.72461573462E+02  0.70000004127E+02 0.  0.
        -12    1    1    2    0    0 -0.53194645663E+00  0.89621517502E+01 -0.16433986730E+02  0.18726426538E+02  0.00000000000E+00 0.  1.
         11    1    3    3    0    0 -0.23851481919E+00  0.36329769170E+01 -0.14925394263E+01  0.39348551179E+01  0.51100000000E-03 0. -1.
        -11    1    3    3    0    0 -0.19029117915E+02 -0.20259121003E+02 -0.13262954485E+02  0.30796838708E+02  0.51100000000E-03 0.  1.
         12    1    3    3    0    0  0.19799579191E+02  0.76639923361E+01  0.31189480642E+02  0.37729879636E+02  0.00000000000E+00 0. -1.
</event>
<event>
 7    1  0.3611369E-013  0.7246167E+02  0.7816164E-02  0.1226708E+00
        -11   -1    0    0    0    0  0.00000000000E+00  0.00000000000E+00  0.45593999997E+02  0.45594000000E+02  0.51100000000E-03 0.  1.
         11   -1    0    0    0    0 -0.00000000000E+00 -0.00000000000E+00 -0.45593999997E+02  0.45594000000E+02  0.51100000000E-03 0. -1.
    9900012    2    1    2    0    0  0.17114924749E+02  0.30443851698E+01 -0.69632273569E+01  0.72461669194E+02  0.70000128835E+02 0.  0.
        -12    1    1    2    0    0 -0.17114924749E+02 -0.30443851698E+01  0.69632273569E+01  0.18726330806E+02  0.00000000000E+00 0.  1.
         11    1    3    3    0    0  0.20545234107E+02  0.39588767912E+01  0.50371075638E+01  0.21520961941E+02  0.51100000000E-03 0. -1.
        -11    1    3    3    0    0  0.18564073771E+02  0.13424509403E+02 -0.26158076239E+01  0.23058289995E+02  0.51100000000E-03 0.  1.
        -12    1    3    3    0    0 -0.21994383129E+02 -0.14339001024E+02 -0.93845272968E+01  0.27882417259E+02  0.00000000000E+00 0.  1.
</event>
<event>
 7    1  0.4338121E-013  0.7246155E+02  0.7816164E-02  0.1226708E+00
        -11   -1    0    0    0    0  0.00000000000E+00  0.00000000000E+00  0.45593999997E+02  0.45594000000E+02  0.51100000000E-03 0. -1.
         11   -1    0    0    0    0 -0.00000000000E+00 -0.00000000000E+00 -0.45593999997E+02  0.45594000000E+02  0.51100000000E-03 0.  1.
    9900012    2    1    2    0    0 -0.13262973576E+02 -0.12406987798E+02 -0.45651001166E+01  0.72461549365E+02  0.69999972736E+02 0.  0.
        -12    1    1    2    0    0  0.13262973576E+02  0.12406987798E+02  0.45651001166E+01  0.18726450635E+02  0.00000000000E+00 0.  1.
         11    1    3    3    0    0 -0.10961112133E+02 -0.32847170604E+02 -0.70944081318E+01  0.35347039804E+02  0.51100000000E-03 0. -1.
        -11    1    3    3    0    0 -0.19562374473E+01 -0.77947543117E+01  0.37127702700E+01  0.88526675680E+01  0.51100000000E-03 0.  1.
        -12    1    3    3    0    0 -0.34562399569E+00  0.28234937118E+02 -0.11834622547E+01  0.28261841994E+02  0.00000000000E+00 0.  1.
</event>
<event>
 7    1  0.3611369E-013  0.7246154E+02  0.7816164E-02  0.1226708E+00
        -11   -1    0    0    0    0  0.00000000000E+00  0.00000000000E+00  0.45593999997E+02  0.45594000000E+02  0.51100000000E-03 0. -1.
         11   -1    0    0    0    0 -0.00000000000E+00 -0.00000000000E+00 -0.45593999997E+02  0.45594000000E+02  0.51100000000E-03 0.  1.
    9900012    2    1    2    0    0  0.82594173807E+01  0.40433744597E+01  0.16312986345E+02  0.72461538081E+02  0.69999958036E+02 0.  0.
        -12    1    1    2    0    0 -0.82594173807E+01 -0.40433744597E+01 -0.16312986345E+02  0.18726461919E+02  0.00000000000E+00 0.  1.
         11    1    3    3    0    0 -0.14738244146E+02 -0.41698053894E+01  0.12063760271E+02  0.19497113367E+02  0.51100000000E-03 0. -1.
        -11    1    3    3    0    0  0.65127051832E+01 -0.17099132016E+02 -0.85021132388E+01  0.20176262644E+02  0.51100000000E-03 0.  1.
        -12    1    3    3    0    0  0.16484956344E+02  0.25312311865E+02  0.12751339313E+02  0.32788162070E+02  0.00000000000E+00 0.  1.
</event>
<event>
 7    1  0.3611369E-013  0.7246154E+02  0.7816164E-02  0.1226708E+00
        -11   -1    0    0    0    0  0.00000000000E+00  0.00000000000E+00  0.45593999997E+02  0.45594000000E+02  0.51100000000E-03 0. -1.
         11   -1    0    0    0    0 -0.00000000000E+00 -0.00000000000E+00 -0.45593999997E+02  0.45594000000E+02  0.51100000000E-03 0.  1.
    9900012    2    1    2    0    0  0.85880307693E+01  0.29836153326E+01  0.16371437479E+02  0.72461542832E+02  0.69999964225E+02 0.  0.
        -12    1    1    2    0    0 -0.85880307693E+01 -0.29836153326E+01 -0.16371437479E+02  0.18726457168E+02  0.00000000000E+00 0.  1.
         11    1    3    3    0    0  0.23791865877E+01 -0.81224055139E+01 -0.11185257128E+02  0.14026545456E+02  0.51100000000E-03 0. -1.
        -11    1    3    3    0    0  0.37578285573E+01  0.27065936644E+02  0.98673128471E+00  0.27343369229E+02  0.51100000000E-03 0.  1.
         12    1    3    3    0    0  0.24510156243E+01 -0.15959915798E+02  0.26569963322E+02  0.31091628147E+02  0.00000000000E+00 0. -1.
</event>
<event>
 7    1  0.3611369E-013  0.7246125E+02  0.7816164E-02  0.1226709E+00
        -11   -1    0    0    0    0  0.00000000000E+00  0.00000000000E+00  0.45593999997E+02  0.45594000000E+02  0.51100000000E-03 0. -1.
         11   -1    0    0    0    0 -0.00000000000E+00 -0.00000000000E+00 -0.45593999997E+02  0.45594000000E+02  0.51100000000E-03 0.  1.
    9900012    2    1    2    0    0  0.11976262257E+02 -0.39346065783E+00  0.14391154486E+02  0.72461254518E+02  0.69999588641E+02 0.  0.
        -12    1    1    2    0    0 -0.11976262257E+02  0.39346065783E+00 -0.14391154486E+02  0.18726745482E+02  0.00000000000E+00 0.  1.
         11    1    3    3    0    0 -0.30369132626E+01  0.22506082641E+01 -0.23907750743E+02  0.24204723208E+02  0.51100000000E-03 0.  1.
        -11    1    3    3    0    0  0.26870081941E+00 -0.11902603845E+02  0.14297787150E+02  0.18605668386E+02  0.51100000000E-03 0. -1.
        -12    1    3    3    0    0  0.14744474700E+02  0.92585349233E+01  0.24001118078E+02  0.29650862924E+02  0.00000000000E+00 0.  1.
</event>
<event>
 7    1  0.3611369E-013  0.7246159E+02  0.7816164E-02  0.1226708E+00
        -11   -1    0    0    0    0  0.00000000000E+00  0.00000000000E+00  0.45593999997E+02  0.45594000000E+02  0.51100000000E-03 0. -1.
         11   -1    0    0    0    0 -0.00000000000E+00 -0.00000000000E+00 -0.45593999997E+02  0.45594000000E+02  0.51100000000E-03 0.  1.
    9900012    2    1    2    0    0  0.17898448078E+02 -0.61857198868E+00 -0.54718543428E+01  0.72461594449E+02  0.70000031466E+02 0.  0.
        -12    1    1    2    0    0 -0.17898448078E+02  0.61857198868E+00  0.54718543428E+01  0.18726405551E+02  0.00000000000E+00 0.  1.
         11    1    3    3    0    0  0.71130157617E+01 -0.89516590973E+01  0.45416053306E+01  0.12302575871E+02  0.51100000000E-03 0. -1.
        -11    1    3    3    0    0  0.22728165459E+02  0.72943297366E+01 -0.29089199959E+02  0.37629221437E+02  0.51100000000E-03 0.  1.
         12    1    3    3    0    0 -0.11942733142E+02  0.10387573720E+01  0.19075740286E+02  0.22529797141E+02  0.00000000000E+00 0. -1.
</event>
<event>
 7    1  0.3611369E-013  0.7246161E+02  0.7816164E-02  0.1226708E+00
        -11   -1    0    0    0    0  0.00000000000E+00  0.00000000000E+00  0.45593999997E+02  0.45594000000E+02  0.51100000000E-03 0.  1.
         11   -1    0    0    0    0 -0.00000000000E+00 -0.00000000000E+00 -0.45593999997E+02  0.45594000000E+02  0.51100000000E-03 0. -1.
    9900012    2    1    2    0    0 -0.16521214569E+02  0.13171362352E+01 -0.87173522273E+01  0.72461611973E+02  0.70000054294E+02 0.  0.
        -12    1    1    2    0    0  0.16521214569E+02 -0.13171362352E+01  0.87173522273E+01  0.18726388027E+02  0.00000000000E+00 0.  1.
         11    1    3    3    0    0 -0.32697180304E+01  0.15361238205E+02  0.11724007677E+02  0.19598751273E+02  0.51100000000E-03 0. -1.
        -11    1    3    3    0    0  0.39249568552E+01 -0.18698097217E+02  0.68377361126E+01  0.20292332573E+02  0.51100000000E-03 0.  1.
         12    1    3    3    0    0 -0.17176453394E+02  0.46539952477E+01 -0.27279096017E+02  0.32570528127E+02  0.00000000000E+00 0. -1.
</event>
<event>
 7    1  0.3611369E-013  0.7246158E+02  0.7816164E-02  0.1226708E+00
        -11   -1    0    0    0    0  0.00000000000E+00  0.00000000000E+00  0.45593999997E+02  0.45594000000E+02  0.51100000000E-03 0.  1.
         11   -1    0    0    0    0 -0.00000000000E+00 -0.00000000000E+00 -0.45593999997E+02  0.45594000000E+02  0.51100000000E-03 0. -1.
    9900012    2    1    2    0    0  0.14866670067E+02  0.89817608917E+01 -0.69992043822E+01  0.72461580973E+02  0.70000013911E+02 0.  0.
        -12    1    1    2    0    0 -0.14866670067E+02 -0.89817608917E+01  0.69992043822E+01  0.18726419027E+02  0.00000000000E+00 0.  1.
         11    1    3    3    0    0  0.76686339224E+00  0.72242307600E+00 -0.34607958066E+02  0.34623990763E+02  0.51100000000E-03 0.  1.
        -11    1    3    3    0    0  0.25262669218E+01  0.85621118486E+01  0.12061225546E+01  0.90081360861E+01  0.51100000000E-03 0. -1.
        -12    1    3    3    0    0  0.11573539753E+02 -0.30277403289E+00  0.26402631129E+02  0.28829454124E+02  0.00000000000E+00 0.  1.
</event>
<event>
 7    1  0.3611369E-013  0.7246161E+02  0.7816164E-02  0.1226708E+00
        -11   -1    0    0    0    0  0.00000000000E+00  0.00000000000E+00  0.45593999997E+02  0.45594000000E+02  0.51100000000E-03 0. -1.
         11   -1    0    0    0    0 -0.00000000000E+00 -0.00000000000E+00 -0.45593999997E+02  0.45594000000E+02  0.51100000000E-03 0.  1.
    9900012    2    1    2    0    0  0.13684632201E+02 -0.59583506565E+01  0.11309587406E+02  0.72461605037E+02  0.70000045258E+02 0.  0.
        -12    1    1    2    0    0 -0.13684632201E+02  0.59583506565E+01 -0.11309587406E+02  0.18726394963E+02  0.00000000000E+00 0.  1.
         11    1    3    3    0    0 -0.10506909268E+02 -0.10444151039E+02 -0.44874082129E+01  0.15479414266E+02  0.51100000000E-03 0. -1.
        -11    1    3    3    0    0  0.18751688398E+02 -0.10379243854E+00 -0.15844783513E+02  0.24549821903E+02  0.51100000000E-03 0.  1.
         12    1    3    3    0    0  0.54398530718E+01  0.45895928209E+01  0.31641779132E+02  0.32432368867E+02  0.00000000000E+00 0. -1.
</event>
<event>
 7    1  0.3611369E-013  0.7246165E+02  0.7816164E-02  0.1226708E+00
        -11   -1    0    0    0    0  0.00000000000E+00  0.00000000000E+00  0.45593999997E+02  0.45594000000E+02  0.51100000000E-03 0. -1.
         11   -1    0    0    0    0 -0.00000000000E+00 -0.00000000000E+00 -0.45593999997E+02  0.45594000000E+02  0.51100000000E-03 0.  1.
    9900012    2    1    2    0    0  0.74330684614E+01  0.76750720136E+01  0.15379170132E+02  0.72461651955E+02  0.70000106378E+02 0.  0.
        -12    1    1    2    0    0 -0.74330684614E+01 -0.76750720136E+01 -0.15379170132E+02  0.18726348045E+02  0.00000000000E+00 0.  1.
         11    1    3    3    0    0  0.20589713798E+02  0.13862950903E+02  0.13508791587E+02  0.28259603189E+02  0.51100000000E-03 0. -1.
        -11    1    3    3    0    0  0.10889074096E+02 -0.14186734900E+02 -0.36835078615E+01  0.18259343149E+02  0.51100000000E-03 0.  1.
        -12    1    3    3    0    0 -0.24045719433E+02  0.79988560109E+01  0.55538864063E+01  0.25942705617E+02  0.00000000000E+00 0.  1.
</event>
<event>
 7    1  0.3611369E-013  0.7246148E+02  0.7816164E-02  0.1226708E+00
        -11   -1    0    0    0    0  0.00000000000E+00  0.00000000000E+00  0.45593999997E+02  0.45594000000E+02  0.51100000000E-03 0. -1.
         11   -1    0    0    0    0 -0.00000000000E+00 -0.00000000000E+00 -0.45593999997E+02  0.45594000000E+02  0.51100000000E-03 0.  1.
    9900012    2    1    2    0    0  0.17875527990E+02  0.42802817789E+01  0.35815261697E+01  0.72461477559E+02  0.69999879194E+02 0.  0.
        -12    1    1    2    0    0 -0.17875527990E+02 -0.42802817789E+01 -0.35815261697E+01  0.18726522441E+02  0.00000000000E+00 0.  1.
         11    1    3    3    0    0 -0.13001128660E+01  0.12227939975E+02 -0.65738944182E+01  0.13943776302E+02  0.51100000000E-03 0. -1.
        -11    1    3    3    0    0 -0.78400052663E+01 -0.12431871517E+02 -0.15237928683E+02  0.21171008073E+02  0.51100000000E-03 0.  1.
         12    1    3    3    0    0  0.27015646123E+02  0.44842133212E+01  0.25393349271E+02  0.37346693184E+02  0.00000000000E+00 0. -1.
</event>
<event>
 7    1  0.3611369E-013  0.7246152E+02  0.7816164E-02  0.1226708E+00
        -11   -1    0    0    0    0  0.00000000000E+00  0.00000000000E+00  0.45593999997E+02  0.45594000000E+02  0.51100000000E-03 0. -1.
         11   -1    0    0    0    0 -0.00000000000E+00 -0.00000000000E+00 -0.45593999997E+02  0.45594000000E+02  0.51100000000E-03 0.  1.
    9900012    2    1    2    0    0 -0.19493871655E+01  0.82884803781E+01  0.16678793630E+02  0.72461516768E+02  0.69999930272E+02 0.  0.
        -12    1    1    2    0    0  0.19493871655E+01 -0.82884803781E+01 -0.16678793630E+02  0.18726483232E+02  0.00000000000E+00 0.  1.
         11    1    3    3    0    0 -0.16806326421E+02  0.94862988275E+01 -0.14706850975E+02  0.24263840155E+02  0.51100000000E-03 0. -1.
        -11    1    3    3    0    0 -0.68812033094E+01  0.51626405883E+01  0.22106022796E+02  0.23720878165E+02  0.51100000000E-03 0.  1.
        -12    1    3    3    0    0  0.21738142565E+02 -0.63604590377E+01  0.92796218091E+01  0.24476798448E+02  0.00000000000E+00 0.  1.
</event>
<event>
 7    1  0.3611369E-013  0.7246153E+02  0.7816164E-02  0.1226708E+00
        -11   -1    0    0    0    0  0.00000000000E+00  0.00000000000E+00  0.45593999997E+02  0.45594000000E+02  0.51100000000E-03 0.  1.
         11   -1    0    0    0    0 -0.00000000000E+00 -0.00000000000E+00 -0.45593999997E+02  0.45594000000E+02  0.51100000000E-03 0. -1.
    9900012    2    1    2    0    0 -0.12312633910E+02  0.41330121059E+00 -0.14103503466E+02  0.72461532589E+02  0.69999950881E+02 0.  0.
        -12    1    1    2    0    0  0.12312633910E+02 -0.41330121059E+00  0.14103503466E+02  0.18726467411E+02  0.00000000000E+00 0.  1.
         11    1    3    3    0    0  0.13722243519E+02  0.14204977642E+02 -0.98034665224E+01  0.22049700976E+02  0.51100000000E-03 0. -1.
        -11    1    3    3    0    0  0.74573602974E+01 -0.72206700383E+01 -0.11539984413E+02  0.15521647429E+02  0.51100000000E-03 0.  1.
         12    1    3    3    0    0 -0.33492237727E+02 -0.65710063932E+01  0.72399474695E+01  0.34890184184E+02  0.00000000000E+00 0. -1.
</event>
<event>
 7    1  0.3611369E-013  0.7246156E+02  0.7816164E-02  0.1226708E+00
        -11   -1    0    0    0    0  0.00000000000E+00  0.00000000000E+00  0.45593999997E+02  0.45594000000E+02  0.51100000000E-03 0. -1.
         11   -1    0    0    0    0 -0.00000000000E+00 -0.00000000000E+00 -0.45593999997E+02  0.45594000000E+02  0.51100000000E-03 0.  1.
    9900012    2    1    2    0    0  0.17278386845E+02  0.71224384907E+01 -0.11864453498E+01  0.72461563217E+02  0.69999990780E+02 0.  0.
        -12    1    1    2    0    0 -0.17278386845E+02 -0.71224384907E+01  0.11864453498E+01  0.18726436783E+02  0.00000000000E+00 0.  1.
         11    1    3    3    0    0  0.13254339583E+01 -0.33300290920E+00 -0.17518226503E+01  0.22218345965E+01  0.51100000000E-03 0. -1.
        -11    1    3    3    0    0  0.14796448039E+02  0.35754074593E+02 -0.10074596903E+02  0.39984824966E+02  0.51100000000E-03 0.  1.
         12    1    3    3    0    0  0.11565048480E+01 -0.28298633193E+02  0.10639974204E+02  0.30254903654E+02  0.00000000000E+00 0. -1.
</event>
<event>
 7    1  0.3611369E-013  0.7246158E+02  0.7816164E-02  0.1226708E+00
        -11   -1    0    0    0    0  0.00000000000E+00  0.00000000000E+00  0.45593999997E+02  0.45594000000E+02  0.51100000000E-03 0. -1.
         11   -1    0    0    0    0 -0.00000000000E+00 -0.00000000000E+00 -0.45593999997E+02  0.45594000000E+02  0.51100000000E-03 0.  1.
    9900012    2    1    2    0    0  0.33876589036E+01  0.55920567375E+01  0.17547973147E+02  0.72461583019E+02  0.70000016576E+02 0.  0.
        -12    1    1    2    0    0 -0.33876589036E+01 -0.55920567375E+01 -0.17547973147E+02  0.18726416981E+02  0.00000000000E+00 0.  1.
         11    1    3    3    0    0 -0.12100202580E+02  0.18838090174E+02 -0.15452030645E+01  0.22442731488E+02  0.51100000000E-03 0. -1.
        -11    1    3    3    0    0 -0.10350717362E+01  0.95153293631E+01 -0.68378728558E+01  0.11763051128E+02  0.51100000000E-03 0.  1.
         12    1    3    3    0    0  0.16522933220E+02 -0.22761362800E+02  0.25931049067E+02  0.38255800402E+02  0.00000000000E+00 0. -1.
</event>
<event>
 7    1  0.5115436E-013  0.7246165E+02  0.7816164E-02  0.1226708E+00
        -11   -1    0    0    0    0  0.00000000000E+00  0.00000000000E+00  0.45593999997E+02  0.45594000000E+02  0.51100000000E-03 0. -1.
         11   -1    0    0    0    0 -0.00000000000E+00 -0.00000000000E+00 -0.45593999997E+02  0.45594000000E+02  0.51100000000E-03 0.  1.
    9900012    2    1    2    0    0 -0.95914048031E+01 -0.15975566051E+02  0.18607848657E+01  0.72461647524E+02  0.70000100606E+02 0.  0.
        -12    1    1    2    0    0  0.95914048031E+01  0.15975566051E+02 -0.18607848657E+01  0.18726352476E+02  0.00000000000E+00 0.  1.
         11    1    3    3    0    0  0.20590091300E+01 -0.29262974434E+02  0.10319023167E+02  0.31097321922E+02  0.51100000000E-03 0. -1.
        -11    1    3    3    0    0  0.19141005186E+01  0.10614527943E+01  0.13002672892E+02  0.13185596894E+02  0.51100000000E-03 0.  1.
        -12    1    3    3    0    0 -0.13564514452E+02  0.12225955589E+02 -0.21460911194E+02  0.28178728709E+02  0.00000000000E+00 0.  1.
</event>
<event>
 7    1  0.3611369E-013  0.7246165E+02  0.7816164E-02  0.1226708E+00
        -11   -1    0    0    0    0  0.00000000000E+00  0.00000000000E+00  0.45593999997E+02  0.45594000000E+02  0.51100000000E-03 0.  1.
         11   -1    0    0    0    0 -0.00000000000E+00 -0.00000000000E+00 -0.45593999997E+02  0.45594000000E+02  0.51100000000E-03 0. -1.
    9900012    2    1    2    0    0 -0.13394812451E+02  0.67053314989E+01 -0.11238051340E+02  0.72461647739E+02  0.70000100886E+02 0.  0.
        -12    1    1    2    0    0  0.13394812451E+02 -0.67053314989E+01  0.11238051340E+02  0.18726352261E+02  0.00000000000E+00 0.  1.
         11    1    3    3    0    0 -0.19394991729E+02  0.17122026511E+02  0.11906253295E+02  0.28479613126E+02  0.51100000000E-03 0. -1.
        -11    1    3    3    0    0  0.90621863836E+01  0.69689624722E+01  0.35571460954E+01  0.11972591557E+02  0.51100000000E-03 0.  1.
        -12    1    3    3    0    0 -0.30620071053E+01 -0.17385657485E+02 -0.26701450730E+02  0.32009443056E+02  0.00000000000E+00 0.  1.
</event>
<event>
 7    1  0.3611369E-013  0.7246168E+02  0.7816164E-02  0.1226708E+00
        -11   -1    0    0    0    0  0.00000000000E+00  0.00000000000E+00  0.45593999997E+02  0.45594000000E+02  0.51100000000E-03 0. -1.
         11   -1    0    0    0    0 -0.00000000000E+00 -0.00000000000E+00 -0.45593999997E+02  0.45594000000E+02  0.51100000000E-03 0.  1.
    9900012    2    1    2    0    0 -0.80743446720E+01 -0.46235454844E+01  0.16251239965E+02  0.72461681218E+02  0.70000144499E+02 0.  0.
        -12    1    1    2    0    0  0.80743446720E+01  0.46235454844E+01 -0.16251239965E+02  0.18726318782E+02  0.00000000000E+00 0.  1.
         11    1    3    3    0    0  0.19615294295E+01  0.75725815363E+01 -0.37540552151E+01  0.86766652376E+01  0.51100000000E-03 0. -1.
        -11    1    3    3    0    0  0.20715163828E+02 -0.16332621492E+02 -0.86078492194E+00  0.26393436460E+02  0.51100000000E-03 0.  1.
         12    1    3    3    0    0 -0.30751037929E+02  0.41364944710E+01  0.20866080102E+02  0.37391579521E+02  0.00000000000E+00 0. -1.
</event>
<event>
 7    1  0.3611369E-013  0.7246159E+02  0.7816164E-02  0.1226708E+00
        -11   -1    0    0    0    0  0.00000000000E+00  0.00000000000E+00  0.45593999997E+02  0.45594000000E+02  0.51100000000E-03 0. -1.
         11   -1    0    0    0    0 -0.00000000000E+00 -0.00000000000E+00 -0.45593999997E+02  0.45594000000E+02  0.51100000000E-03 0.  1.
    9900012    2    1    2    0    0  0.16783337620E+02 -0.72854140874E+01  0.39901017553E+01  0.72461585712E+02  0.70000020084E+02 0.  0.
        -12    1    1    2    0    0 -0.16783337620E+02  0.72854140874E+01 -0.39901017553E+01  0.18726414288E+02  0.00000000000E+00 0.  1.
         11    1    3    3    0    0 -0.60991246694E+01  0.98746568073E+01  0.11149781689E+02  0.16094278510E+02  0.51100000000E-03 0. -1.
        -11    1    3    3    0    0 -0.77156144586E+01 -0.58811539920E+01 -0.19275040267E+02  0.21578828891E+02  0.51100000000E-03 0.  1.
         12    1    3    3    0    0  0.30598076748E+02 -0.11278916903E+02  0.12115360333E+02  0.34788478311E+02  0.00000000000E+00 0. -1.
</event>
<event>
 7    1  0.3611369E-013  0.7246154E+02  0.7816164E-02  0.1226708E+00
        -11   -1    0    0    0    0  0.00000000000E+00  0.00000000000E+00  0.45593999997E+02  0.45594000000E+02  0.51100000000E-03 0.  1.
         11   -1    0    0    0    0 -0.00000000000E+00 -0.00000000000E+00 -0.45593999997E+02  0.45594000000E+02  0.51100000000E-03 0. -1.
    9900012    2    1    2    0    0 -0.11712088032E+02  0.74884871008E+01 -0.12547099600E+02  0.72461544022E+02  0.69999965776E+02 0.  0.
        -12    1    1    2    0    0  0.11712088032E+02 -0.74884871008E+01  0.12547099600E+02  0.18726455978E+02  0.00000000000E+00 0.  1.
         11    1    3    3    0    0 -0.50047436265E+01 -0.17957350924E+02 -0.12536064500E+01  0.18683828311E+02  0.51100000000E-03 0. -1.
        -11    1    3    3    0    0 -0.30837304940E+01 -0.28274796201E+01  0.14649294638E+02  0.15235021116E+02  0.51100000000E-03 0.  1.
         12    1    3    3    0    0 -0.36236139113E+01  0.28273317645E+02 -0.25942787788E+02  0.38542694595E+02  0.00000000000E+00 0. -1.
</event>
<event>
 7    1  0.6187854E-013  0.7246164E+02  0.7816164E-02  0.1226708E+00
        -11   -1    0    0    0    0  0.00000000000E+00  0.00000000000E+00  0.45593999997E+02  0.45594000000E+02  0.51100000000E-03 0. -1.
         11   -1    0    0    0    0 -0.00000000000E+00 -0.00000000000E+00 -0.45593999997E+02  0.45594000000E+02  0.51100000000E-03 0.  1.
    9900012    2    1    2    0    0 -0.12503807162E+01 -0.16241677068E+02  0.92369304924E+01  0.72461643952E+02  0.70000095953E+02 0.  0.
        -12    1    1    2    0    0  0.12503807162E+01  0.16241677068E+02 -0.92369304924E+01  0.18726356048E+02  0.00000000000E+00 0.  1.
         11    1    3    3    0    0  0.27469373758E+02 -0.87219864874E+01  0.54541154365E+01  0.29332352759E+02  0.51100000000E-03 0. -1.
        -11    1    3    3    0    0 -0.62912463356E+01  0.48929931533E+01  0.13531271587E+02  0.15704027301E+02  0.51100000000E-03 0.  1.
        -12    1    3    3    0    0 -0.22428508138E+02 -0.12412683734E+02 -0.97484565309E+01  0.27425263892E+02  0.00000000000E+00 0.  1.
</event>
<event>
 7    1  0.3611369E-013  0.7246153E+02  0.7816164E-02  0.1226708E+00
        -11   -1    0    0    0    0  0.00000000000E+00  0.00000000000E+00  0.45593999997E+02  0.45594000000E+02  0.51100000000E-03 0. -1.
         11   -1    0    0    0    0 -0.00000000000E+00 -0.00000000000E+00 -0.45593999997E+02  0.45594000000E+02  0.51100000000E-03 0.  1.
    9900012    2    1    2    0    0  0.16417058812E+02 -0.90058879820E+01  0.23451639800E+00  0.72461525790E+02  0.69999942025E+02 0.  0.
        -12    1    1    2    0    0 -0.16417058812E+02  0.90058879820E+01 -0.23451639800E+00  0.18726474210E+02  0.00000000000E+00 0.  1.
         11    1    3    3    0    0 -0.68685605536E+01  0.25809793658E+02 -0.65582548580E+01  0.27501514136E+02  0.51100000000E-03 0. -1.
        -11    1    3    3    0    0  0.33920544363E+01  0.60581259487E+00  0.21704568869E+01  0.40723366214E+01  0.51100000000E-03 0.  1.
        -12    1    3    3    0    0  0.19893564929E+02 -0.35421494235E+02  0.46223143691E+01  0.40887675032E+02  0.00000000000E+00 0.  1.
</event>
<event>
 7    1  0.3611369E-013  0.7246157E+02  0.7816164E-02  0.1226708E+00
        -11   -1    0    0    0    0  0.00000000000E+00  0.00000000000E+00  0.45593999997E+02  0.45594000000E+02  0.51100000000E-03 0. -1.
         11   -1    0    0    0    0 -0.00000000000E+00 -0.00000000000E+00 -0.45593999997E+02  0.45594000000E+02  0.51100000000E-03 0.  1.
    9900012    2    1    2    0    0  0.12499465258E+02  0.83960255026E+01  0.11133246085E+02  0.72461573636E+02  0.70000004353E+02 0.  0.
        -12    1    1    2    0    0 -0.12499465258E+02 -0.83960255026E+01 -0.11133246085E+02  0.18726426364E+02  0.00000000000E+00 0.  1.
         11    1    3    3    0    0  0.13644137423E+02 -0.14577387772E+02  0.14022490951E+02  0.24398626458E+02  0.51100000000E-03 0. -1.
        -11    1    3    3    0    0  0.13073669566E+02  0.32540069576E+01  0.13239054716E+02  0.18888672988E+02  0.51100000000E-03 0.  1.
        -12    1    3    3    0    0 -0.14218341732E+02  0.19719406317E+02 -0.16128299582E+02  0.29174274190E+02  0.00000000000E+00 0.  1.
</event>
<event>
 7    1  0.3611369E-013  0.7246155E+02  0.7816164E-02  0.1226708E+00
        -11   -1    0    0    0    0  0.00000000000E+00  0.00000000000E+00  0.45593999997E+02  0.45594000000E+02  0.51100000000E-03 0.  1.
         11   -1    0    0    0    0 -0.00000000000E+00 -0.00000000000E+00 -0.45593999997E+02  0.45594000000E+02  0.51100000000E-03 0. -1.
    9900012    2    1    2    0    0 -0.45002260947E+01 -0.18101823291E+02  0.16588990415E+01  0.72461548457E+02  0.69999971553E+02 0.  0.
        -12    1    1    2    0    0  0.45002260947E+01  0.18101823291E+02 -0.16588990415E+01  0.18726451543E+02  0.00000000000E+00 0.  1.
         11    1    3    3    0    0  0.11971194684E+02 -0.36098618190E+02  0.18144059932E+02  0.42138185159E+02  0.51100000000E-03 0.  1.
        -11    1    3    3    0    0 -0.47983648274E+01  0.50202414531E+01 -0.89086555171E+01  0.11295630688E+02  0.51100000000E-03 0. -1.
        -12    1    3    3    0    0 -0.11673055952E+02  0.12976553447E+02 -0.75765053733E+01  0.19027732610E+02  0.00000000000E+00 0.  1.
</event>
<event>
 7    1  0.3611369E-013  0.7246169E+02  0.7816164E-02  0.1226708E+00
        -11   -1    0    0    0    0  0.00000000000E+00  0.00000000000E+00  0.45593999997E+02  0.45594000000E+02  0.51100000000E-03 0.  1.
         11   -1    0    0    0    0 -0.00000000000E+00 -0.00000000000E+00 -0.45593999997E+02  0.45594000000E+02  0.51100000000E-03 0. -1.
    9900012    2    1    2    0    0  0.16549417403E+02  0.67583458626E+01 -0.55781897431E+01  0.72461690807E+02  0.70000156990E+02 0.  0.
        -12    1    1    2    0    0 -0.16549417403E+02 -0.67583458626E+01  0.55781897431E+01  0.18726309193E+02  0.00000000000E+00 0.  1.
         11    1    3    3    0    0  0.27703922623E+02  0.92073472021E+00 -0.11793477648E+02  0.30123764645E+02  0.51100000000E-03 0. -1.
        -11    1    3    3    0    0  0.57510740099E+01  0.17195571899E+02 -0.53654174915E+01  0.18908999189E+02  0.51100000000E-03 0.  1.
         12    1    3    3    0    0 -0.16905579229E+02 -0.11357960756E+02  0.11580705397E+02  0.23428926973E+02  0.00000000000E+00 0. -1.
</event>
<event>
 7    1  0.3611369E-013  0.7246114E+02  0.7816164E-02  0.1226709E+00
        -11   -1    0    0    0    0  0.00000000000E+00  0.00000000000E+00  0.45593999997E+02  0.45594000000E+02  0.51100000000E-03 0. -1.
         11   -1    0    0    0    0 -0.00000000000E+00 -0.00000000000E+00 -0.45593999997E+02  0.45594000000E+02  0.51100000000E-03 0.  1.
    9900012    2    1    2    0    0  0.33955997110E+01 -0.13898970180E+02  0.12082371125E+02  0.72461143311E+02  0.69999443773E+02 0.  0.
        -12    1    1    2    0    0 -0.33955997110E+01  0.13898970180E+02 -0.12082371125E+02  0.18726856689E+02  0.00000000000E+00 0.  1.
         11    1    3    3    0    0 -0.44065139206E+01  0.22122211338E+02  0.19735142486E+02  0.29971410521E+02  0.51100000000E-03 0. -1.
        -11    1    3    3    0    0  0.53129033779E+01 -0.20918481998E+01 -0.62137277866E+01  0.84387904619E+01  0.51100000000E-03 0.  1.
        -12    1    3    3    0    0  0.24892102538E+01 -0.33929333317E+02 -0.14390435754E+01  0.34050942328E+02  0.00000000000E+00 0.  1.
</event>
<event>
 7    1  0.3611369E-013  0.7246155E+02  0.7816164E-02  0.1226708E+00
        -11   -1    0    0    0    0  0.00000000000E+00  0.00000000000E+00  0.45593999997E+02  0.45594000000E+02  0.51100000000E-03 0. -1.
         11   -1    0    0    0    0 -0.00000000000E+00 -0.00000000000E+00 -0.45593999997E+02  0.45594000000E+02  0.51100000000E-03 0.  1.
    9900012    2    1    2    0    0  0.10276799643E+02 -0.12376919135E+02 -0.95853636863E+01  0.72461549852E+02  0.69999973369E+02 0.  0.
        -12    1    1    2    0    0 -0.10276799643E+02  0.12376919135E+02  0.95853636863E+01  0.18726450148E+02  0.00000000000E+00 0.  1.
         11    1    3    3    0    0 -0.39789752462E+00 -0.56535559385E+01 -0.65457061214E+00  0.57052151701E+01  0.51100000000E-03 0. -1.
        -11    1    3    3    0    0 -0.26222323119E+02 -0.32647887205E+01  0.54927825836E+01  0.26989622745E+02  0.51100000000E-03 0.  1.
         12    1    3    3    0    0  0.36897020287E+02 -0.34585744759E+01 -0.14423575658E+02  0.39766711936E+02  0.00000000000E+00 0. -1.
</event>
<event>
 7    1  0.4073697E-013  0.7246159E+02  0.7816164E-02  0.1226708E+00
        -11   -1    0    0    0    0  0.00000000000E+00  0.00000000000E+00  0.45593999997E+02  0.45594000000E+02  0.51100000000E-03 0. -1.
         11   -1    0    0    0    0 -0.00000000000E+00 -0.00000000000E+00 -0.45593999997E+02  0.45594000000E+02  0.51100000000E-03 0.  1.
    9900012    2    1    2    0    0  0.10591399634E+01  0.94204761445E+01  0.16149648737E+02  0.72461593442E+02  0.70000030154E+02 0.  0.
        -12    1    1    2    0    0 -0.10591399634E+01 -0.94204761445E+01 -0.16149648737E+02  0.18726406558E+02  0.00000000000E+00 0.  1.
         11    1    3    3    0    0  0.20936888066E+01  0.17134810964E+02  0.15528699715E+02  0.23219082555E+02  0.51100000000E-03 0.  1.
        -11    1    3    3    0    0 -0.34348269151E+01 -0.14371517086E+02  0.22124123914E+02  0.26604800291E+02  0.51100000000E-03 0. -1.
        -12    1    3    3    0    0  0.24002780719E+01  0.66571822669E+01 -0.21503174892E+02  0.22637710595E+02  0.00000000000E+00 0.  1.
</event>
<event>
 7    1  0.3611369E-013  0.7246159E+02  0.7816164E-02  0.1226708E+00
        -11   -1    0    0    0    0  0.00000000000E+00  0.00000000000E+00  0.45593999997E+02  0.45594000000E+02  0.51100000000E-03 0.  1.
         11   -1    0    0    0    0 -0.00000000000E+00 -0.00000000000E+00 -0.45593999997E+02  0.45594000000E+02  0.51100000000E-03 0. -1.
    9900012    2    1    2    0    0 -0.40916858346E+01 -0.54138892957E+01 -0.17453544133E+02  0.72461593695E+02  0.70000030484E+02 0.  0.
        -12    1    1    2    0    0  0.40916858346E+01  0.54138892957E+01  0.17453544133E+02  0.18726406305E+02  0.00000000000E+00 0.  1.
         11    1    3    3    0    0  0.58002808755E+01 -0.64871300267E+01 -0.28950657458E+02  0.30230227947E+02  0.51100000000E-03 0. -1.
        -11    1    3    3    0    0 -0.21834501718E+02 -0.48791640618E+01 -0.29478328278E+01  0.22566378218E+02  0.51100000000E-03 0.  1.
        -12    1    3    3    0    0  0.11942535008E+02  0.59524047928E+01  0.14444946153E+02  0.19664987531E+02  0.00000000000E+00 0.  1.
</event>
<event>
 7    1  0.3611369E-013  0.7246157E+02  0.7816164E-02  0.1226708E+00
        -11   -1    0    0    0    0  0.00000000000E+00  0.00000000000E+00  0.45593999997E+02  0.45594000000E+02  0.51100000000E-03 0.  1.
         11   -1    0    0    0    0 -0.00000000000E+00 -0.00000000000E+00 -0.45593999997E+02  0.45594000000E+02  0.51100000000E-03 0. -1.
    9900012    2    1    2    0    0 -0.12762424018E+02 -0.58457997722E+01 -0.12394607755E+02  0.72461570997E+02  0.70000000916E+02 0.  0.
        -12    1    1    2    0    0  0.12762424018E+02  0.58457997722E+01  0.12394607755E+02  0.18726429003E+02  0.00000000000E+00 0.  1.
         11    1    3    3    0    0  0.96350733648E+01 -0.15843529139E+01 -0.27635617019E+00  0.97683768301E+01  0.51100000000E-03 0. -1.
        -11    1    3    3    0    0 -0.25373339865E+01 -0.29330081987E+02 -0.74932148164E+01  0.30378282401E+02  0.51100000000E-03 0.  1.
         12    1    3    3    0    0 -0.19860163396E+02  0.25068635128E+02 -0.46250367686E+01  0.32314911766E+02  0.00000000000E+00 0. -1.
</event>
<event>
 7    1  0.3611369E-013  0.7246161E+02  0.7816164E-02  0.1226708E+00
        -11   -1    0    0    0    0  0.00000000000E+00  0.00000000000E+00  0.45593999997E+02  0.45594000000E+02  0.51100000000E-03 0. -1.
         11   -1    0    0    0    0 -0.00000000000E+00 -0.00000000000E+00 -0.45593999997E+02  0.45594000000E+02  0.51100000000E-03 0.  1.
    9900012    2    1    2    0    0 -0.12565187016E+02  0.59247420727E+01  0.12557517337E+02  0.72461608596E+02  0.70000049894E+02 0.  0.
        -12    1    1    2    0    0  0.12565187016E+02 -0.59247420727E+01 -0.12557517337E+02  0.18726391404E+02  0.00000000000E+00 0.  1.
         11    1    3    3    0    0 -0.31820093427E+02 -0.73667360807E+01  0.15758124688E+02  0.36264385286E+02  0.51100000000E-03 0. -1.
        -11    1    3    3    0    0  0.39182205942E+01 -0.40394799202E+01 -0.10515078448E+02  0.11926303940E+02  0.51100000000E-03 0.  1.
        -12    1    3    3    0    0  0.15336685818E+02  0.17330958074E+02  0.73144710967E+01  0.24270919369E+02  0.00000000000E+00 0.  1.
</event>
<event>
 7    1  0.3611369E-013  0.7246152E+02  0.7816164E-02  0.1226708E+00
        -11   -1    0    0    0    0  0.00000000000E+00  0.00000000000E+00  0.45593999997E+02  0.45594000000E+02  0.51100000000E-03 0.  1.
         11   -1    0    0    0    0 -0.00000000000E+00 -0.00000000000E+00 -0.45593999997E+02  0.45594000000E+02  0.51100000000E-03 0. -1.
    9900012    2    1    2    0    0 -0.85279467745E+01  0.59064506437E+01 -0.15590671369E+02  0.72461519574E+02  0.69999933928E+02 0.  0.
        -12    1    1    2    0    0  0.85279467745E+01 -0.59064506437E+01  0.15590671369E+02  0.18726480426E+02  0.00000000000E+00 0.  1.
         11    1    3    3    0    0  0.47877351002E+01 -0.18012924187E+01  0.93018151369E+00  0.51992595316E+01  0.51100000000E-03 0. -1.
        -11    1    3    3    0    0  0.24328249160E+02 -0.53783716792E+01 -0.10144781443E+02  0.26901806257E+02  0.51100000000E-03 0.  1.
         12    1    3    3    0    0 -0.37643931035E+02  0.13086114742E+02 -0.63760714396E+01  0.40360453786E+02  0.00000000000E+00 0. -1.
</event>
<event>
 7    1  0.3611369E-013  0.7246170E+02  0.7816164E-02  0.1226708E+00
        -11   -1    0    0    0    0  0.00000000000E+00  0.00000000000E+00  0.45593999997E+02  0.45594000000E+02  0.51100000000E-03 0. -1.
         11   -1    0    0    0    0 -0.00000000000E+00 -0.00000000000E+00 -0.45593999997E+02  0.45594000000E+02  0.51100000000E-03 0.  1.
    9900012    2    1    2    0    0 -0.19108178421E+01  0.18055895226E+02 -0.45834012649E+01  0.72461704467E+02  0.70000174785E+02 0.  0.
        -12    1    1    2    0    0  0.19108178421E+01 -0.18055895226E+02  0.45834012649E+01  0.18726295533E+02  0.00000000000E+00 0.  1.
         11    1    3    3    0    0  0.92115642927E+01  0.74420611444E+01  0.36394732133E-02  0.11842179035E+02  0.51100000000E-03 0. -1.
        -11    1    3    3    0    0 -0.20931402818E+02  0.31237092511E+02 -0.33003706905E+01  0.37746152379E+02  0.51100000000E-03 0.  1.
         12    1    3    3    0    0  0.98090206831E+01 -0.20623258430E+02 -0.12866700475E+01  0.22873373053E+02  0.00000000000E+00 0. -1.
</event>
<event>
 7    1  0.3611369E-013  0.7246156E+02  0.7816164E-02  0.1226708E+00
        -11   -1    0    0    0    0  0.00000000000E+00  0.00000000000E+00  0.45593999997E+02  0.45594000000E+02  0.51100000000E-03 0. -1.
         11   -1    0    0    0    0 -0.00000000000E+00 -0.00000000000E+00 -0.45593999997E+02  0.45594000000E+02  0.51100000000E-03 0.  1.
    9900012    2    1    2    0    0 -0.29145845214E+01  0.17267569643E+02  0.66344362706E+01  0.72461561232E+02  0.69999988195E+02 0.  0.
        -12    1    1    2    0    0  0.29145845214E+01 -0.17267569643E+02 -0.66344362706E+01  0.18726438768E+02  0.00000000000E+00 0.  1.
         11    1    3    3    0    0 -0.26132637051E+02 -0.96315447335E+01  0.75226037017E+01  0.28849106397E+02  0.51100000000E-03 0.  1.
        -11    1    3    3    0    0 -0.61767680901E+00  0.16313614788E+02 -0.52943370447E+01  0.17162329594E+02  0.51100000000E-03 0. -1.
        -12    1    3    3    0    0  0.23835729338E+02  0.10585499588E+02  0.44061696136E+01  0.26450125242E+02  0.00000000000E+00 0.  1.
</event>
<event>
 7    1  0.3611369E-013  0.7246159E+02  0.7816164E-02  0.1226708E+00
        -11   -1    0    0    0    0  0.00000000000E+00  0.00000000000E+00  0.45593999997E+02  0.45594000000E+02  0.51100000000E-03 0.  1.
         11   -1    0    0    0    0 -0.00000000000E+00 -0.00000000000E+00 -0.45593999997E+02  0.45594000000E+02  0.51100000000E-03 0. -1.
    9900012    2    1    2    0    0 -0.75366906400E+01 -0.13540231005E+02 -0.10513749417E+02  0.72461588484E+02  0.70000023695E+02 0.  0.
        -12    1    1    2    0    0  0.75366906400E+01  0.13540231005E+02  0.10513749417E+02  0.18726411516E+02  0.00000000000E+00 0.  1.
         11    1    3    3    0    0 -0.58244795220E+01 -0.68564857132E+01  0.29476724097E+01  0.94670339037E+01  0.51100000000E-03 0. -1.
        -11    1    3    3    0    0 -0.21460045077E+02  0.19037173772E+01  0.15761619143E+02  0.26694312368E+02  0.51100000000E-03 0.  1.
         12    1    3    3    0    0  0.19747833959E+02 -0.85874626693E+01 -0.29223040969E+02  0.36300242212E+02  0.00000000000E+00 0. -1.
</event>
<event>
 7    1  0.3611369E-013  0.7246158E+02  0.7816164E-02  0.1226708E+00
        -11   -1    0    0    0    0  0.00000000000E+00  0.00000000000E+00  0.45593999997E+02  0.45594000000E+02  0.51100000000E-03 0. -1.
         11   -1    0    0    0    0 -0.00000000000E+00 -0.00000000000E+00 -0.45593999997E+02  0.45594000000E+02  0.51100000000E-03 0.  1.
    9900012    2    1    2    0    0  0.18498257285E+02  0.12817185204E+01 -0.26173442339E+01  0.72461579739E+02  0.70000012303E+02 0.  0.
        -12    1    1    2    0    0 -0.18498257285E+02 -0.12817185204E+01  0.26173442339E+01  0.18726420261E+02  0.00000000000E+00 0.  1.
         11    1    3    3    0    0 -0.94510857693E+01 -0.13882248168E+02  0.10219613171E+02  0.19659102982E+02  0.51100000000E-03 0. -1.
        -11    1    3    3    0    0  0.42488954267E+01  0.17950686015E+01  0.13905282522E+02  0.14650333304E+02  0.51100000000E-03 0.  1.
        -12    1    3    3    0    0  0.23700447628E+02  0.13368898087E+02 -0.26742239927E+02  0.38152143454E+02  0.00000000000E+00 0.  1.
</event>
<event>
 7    1  0.3611369E-013  0.7246158E+02  0.7816164E-02  0.1226708E+00
        -11   -1    0    0    0    0  0.00000000000E+00  0.00000000000E+00  0.45593999997E+02  0.45594000000E+02  0.51100000000E-03 0. -1.
         11   -1    0    0    0    0 -0.00000000000E+00 -0.00000000000E+00 -0.45593999997E+02  0.45594000000E+02  0.51100000000E-03 0.  1.
    9900012    2    1    2    0    0  0.43573662662E+01  0.14471624961E+02  0.11057311702E+02  0.72461582514E+02  0.70000015918E+02 0.  0.
        -12    1    1    2    0    0 -0.43573662662E+01 -0.14471624961E+02 -0.11057311702E+02  0.18726417486E+02  0.00000000000E+00 0.  1.
         11    1    3    3    0    0 -0.39881390347E+01 -0.37955424762E+01 -0.11899816003E+02  0.13111712962E+02  0.51100000000E-03 0. -1.
        -11    1    3    3    0    0  0.15381819985E+02  0.86114500672E+01 -0.12711559661E+02  0.21733412240E+02  0.51100000000E-03 0.  1.
         12    1    3    3    0    0 -0.70363146842E+01  0.96557173700E+01  0.35668687366E+02  0.37616457311E+02  0.00000000000E+00 0. -1.
</event>
<event>
 7    1  0.3611369E-013  0.7246157E+02  0.7816164E-02  0.1226708E+00
        -11   -1    0    0    0    0  0.00000000000E+00  0.00000000000E+00  0.45593999997E+02  0.45594000000E+02  0.51100000000E-03 0.  1.
         11   -1    0    0    0    0 -0.00000000000E+00 -0.00000000000E+00 -0.45593999997E+02  0.45594000000E+02  0.51100000000E-03 0. -1.
    9900012    2    1    2    0    0 -0.14845306780E+02 -0.10721162523E+02 -0.39182485718E+01  0.72461571320E+02  0.70000001336E+02 0.  0.
        -12    1    1    2    0    0  0.14845306780E+02  0.10721162523E+02  0.39182485718E+01  0.18726428680E+02  0.00000000000E+00 0.  1.
         11    1    3    3    0    0 -0.11101296541E+01  0.75290760102E+01  0.11315026644E+02  0.13636319211E+02  0.51100000000E-03 0.  1.
        -11    1    3    3    0    0 -0.59179252386E+01  0.17387814904E+02 -0.12541669975E+02  0.22240760605E+02  0.51100000000E-03 0. -1.
         12    1    3    3    0    0 -0.78172518874E+01 -0.35638053437E+02 -0.26916052401E+01  0.36584491504E+02  0.00000000000E+00 0. -1.
</event>
<event>
 7    1  0.3611369E-013  0.7246168E+02  0.7816164E-02  0.1226708E+00
        -11   -1    0    0    0    0  0.00000000000E+00  0.00000000000E+00  0.45593999997E+02  0.45594000000E+02  0.51100000000E-03 0.  1.
         11   -1    0    0    0    0 -0.00000000000E+00 -0.00000000000E+00 -0.45593999997E+02  0.45594000000E+02  0.51100000000E-03 0. -1.
    9900012    2    1    2    0    0 -0.45945590995E+01  0.44474272959E+01 -0.17600728061E+02  0.72461675984E+02  0.70000137680E+02 0.  0.
        -12    1    1    2    0    0  0.45945590995E+01 -0.44474272959E+01  0.17600728061E+02  0.18726324016E+02  0.00000000000E+00 0.  1.
         11    1    3    3    0    0 -0.58894005699E+01 -0.54765633762E+01  0.34215146684E+01  0.87398254201E+01  0.51100000000E-03 0. -1.
        -11    1    3    3    0    0  0.16087517948E+02  0.16368917371E+02  0.12777489142E+02  0.26268116009E+02  0.51100000000E-03 0.  1.
         12    1    3    3    0    0 -0.14792676478E+02 -0.64449266993E+01 -0.33799731871E+02  0.37453734555E+02  0.00000000000E+00 0. -1.
</event>
<event>
 7    1  0.3611369E-013  0.7246166E+02  0.7816164E-02  0.1226708E+00
        -11   -1    0    0    0    0  0.00000000000E+00  0.00000000000E+00  0.45593999997E+02  0.45594000000E+02  0.51100000000E-03 0.  1.
         11   -1    0    0    0    0 -0.00000000000E+00 -0.00000000000E+00 -0.45593999997E+02  0.45594000000E+02  0.51100000000E-03 0. -1.
    9900012    2    1    2    0    0 -0.70248738770E+01 -0.15782659003E+02 -0.72273435805E+01  0.72461663642E+02  0.70000121602E+02 0.  0.
        -12    1    1    2    0    0  0.70248738770E+01  0.15782659003E+02  0.72273435805E+01  0.18726336358E+02  0.00000000000E+00 0.  1.
         11    1    3    3    0    0  0.14989179708E+02 -0.30943215323E+02 -0.15688672435E+02  0.37792757585E+02  0.51100000000E-03 0. -1.
        -11    1    3    3    0    0 -0.49079051285E+00  0.10608780388E+02 -0.11093706342E+01  0.10677911786E+02  0.51100000000E-03 0.  1.
        -12    1    3    3    0    0 -0.21523263072E+02  0.45517759319E+01  0.95706994883E+01  0.23990994271E+02  0.00000000000E+00 0.  1.
</event>
<event>
 7    1  0.3611369E-013  0.7246155E+02  0.7816164E-02  0.1226708E+00
        -11   -1    0    0    0    0  0.00000000000E+00  0.00000000000E+00  0.45593999997E+02  0.45594000000E+02  0.51100000000E-03 0. -1.
         11   -1    0    0    0    0 -0.00000000000E+00 -0.00000000000E+00 -0.45593999997E+02  0.45594000000E+02  0.51100000000E-03 0.  1.
    9900012    2    1    2    0    0 -0.99745995678E+01 -0.18221685141E+01  0.15743786454E+02  0.72461554888E+02  0.69999979930E+02 0.  0.
        -12    1    1    2    0    0  0.99745995678E+01  0.18221685141E+01 -0.15743786454E+02  0.18726445112E+02  0.00000000000E+00 0.  1.
         11    1    3    3    0    0 -0.15900924289E+02 -0.55877570344E+01  0.13251065717E+02  0.21439523428E+02  0.51100000000E-03 0. -1.
        -11    1    3    3    0    0 -0.18105410003E+02 -0.12168358673E+02 -0.17172632250E+01  0.21882043265E+02  0.51100000000E-03 0.  1.
         12    1    3    3    0    0  0.24031734724E+02  0.15933947194E+02  0.42099839620E+01  0.29139988195E+02  0.00000000000E+00 0. -1.
</event>
<event>
 7    1  0.3611369E-013  0.7246157E+02  0.7816164E-02  0.1226708E+00
        -11   -1    0    0    0    0  0.00000000000E+00  0.00000000000E+00  0.45593999997E+02  0.45594000000E+02  0.51100000000E-03 0.  1.
         11   -1    0    0    0    0 -0.00000000000E+00 -0.00000000000E+00 -0.45593999997E+02  0.45594000000E+02  0.51100000000E-03 0. -1.
    9900012    2    1    2    0    0 -0.65348765897E+01  0.16765901387E+02  0.51845216534E+01  0.72461566113E+02  0.69999994553E+02 0.  0.
        -12    1    1    2    0    0  0.65348765897E+01 -0.16765901387E+02 -0.51845216534E+01  0.18726433887E+02  0.00000000000E+00 0.  1.
         11    1    3    3    0    0  0.19551148830E+02  0.29666595448E+01  0.15817747725E+01  0.19838107297E+02  0.51100000000E-03 0. -1.
        -11    1    3    3    0    0 -0.11423720562E+02 -0.31368677022E+01 -0.17970077173E+02  0.21523591808E+02  0.51100000000E-03 0.  1.
         12    1    3    3    0    0 -0.14662304857E+02  0.16936109544E+02  0.21572824054E+02  0.31099867008E+02  0.00000000000E+00 0. -1.
</event>
<event>
 7    1  0.3611369E-013  0.7246157E+02  0.7816164E-02  0.1226708E+00
        -11   -1    0    0    0    0  0.00000000000E+00  0.00000000000E+00  0.45593999997E+02  0.45594000000E+02  0.51100000000E-03 0.  1.
         11   -1    0    0    0    0 -0.00000000000E+00 -0.00000000000E+00 -0.45593999997E+02  0.45594000000E+02  0.51100000000E-03 0. -1.
    9900012    2    1    2    0    0  0.17205053416E+02 -0.73744453681E+01 -0.53193591554E+00  0.72461567789E+02  0.69999996737E+02 0.  0.
        -12    1    1    2    0    0 -0.17205053416E+02  0.73744453681E+01  0.53193591554E+00  0.18726432211E+02  0.00000000000E+00 0.  1.
         11    1    3    3    0    0 -0.97603752068E+01 -0.26269958160E+02 -0.15304004854E+02  0.31930991070E+02  0.51100000000E-03 0.  1.
        -11    1    3    3    0    0  0.10833476486E+02  0.27249480850E+01 -0.30262595379E+01  0.11573582068E+02  0.51100000000E-03 0. -1.
        -12    1    3    3    0    0  0.16131952137E+02  0.16170564707E+02  0.17798328476E+02  0.28956994651E+02  0.00000000000E+00 0.  1.
</event>
<event>
 7    1  0.3611369E-013  0.7246160E+02  0.7816164E-02  0.1226708E+00
        -11   -1    0    0    0    0  0.00000000000E+00  0.00000000000E+00  0.45593999997E+02  0.45594000000E+02  0.51100000000E-03 0. -1.
         11   -1    0    0    0    0 -0.00000000000E+00 -0.00000000000E+00 -0.45593999997E+02  0.45594000000E+02  0.51100000000E-03 0.  1.
    9900012    2    1    2    0    0  0.54886395669E+01  0.14895610563E+02  0.99334535949E+01  0.72461604760E+02  0.70000044899E+02 0.  0.
        -12    1    1    2    0    0 -0.54886395669E+01 -0.14895610563E+02 -0.99334535949E+01  0.18726395240E+02  0.00000000000E+00 0.  1.
         11    1    3    3    0    0 -0.93764759691E+01  0.56360525991E+01 -0.36557755511E+01  0.11534647183E+02  0.51100000000E-03 0. -1.
        -11    1    3    3    0    0 -0.10946078812E+02  0.55815689047E+00 -0.16836691404E+02  0.20089857097E+02  0.51100000000E-03 0.  1.
         12    1    3    3    0    0  0.25811194348E+02  0.87014010736E+01  0.30425920550E+02  0.40837100480E+02  0.00000000000E+00 0. -1.
</event>
<event>
 7    1  0.3611369E-013  0.7246148E+02  0.7816164E-02  0.1226708E+00
        -11   -1    0    0    0    0  0.00000000000E+00  0.00000000000E+00  0.45593999997E+02  0.45594000000E+02  0.51100000000E-03 0.  1.
         11   -1    0    0    0    0 -0.00000000000E+00 -0.00000000000E+00 -0.45593999997E+02  0.45594000000E+02  0.51100000000E-03 0. -1.
    9900012    2    1    2    0    0 -0.89842158680E+00 -0.17049096373E+02 -0.76944045677E+01  0.72461475759E+02  0.69999876850E+02 0.  0.
        -12    1    1    2    0    0  0.89842158680E+00  0.17049096373E+02  0.76944045677E+01  0.18726524241E+02  0.00000000000E+00 0.  1.
         11    1    3    3    0    0 -0.13864647917E+01 -0.47483561134E+01 -0.29398964506E+02  0.29812217037E+02  0.51100000000E-03 0. -1.
        -11    1    3    3    0    0 -0.11298858339E+02  0.54620701259E+01  0.16455072753E+02  0.20694632864E+02  0.51100000000E-03 0.  1.
         12    1    3    3    0    0  0.11786901544E+02 -0.17762810386E+02  0.52494871858E+01  0.21954625857E+02  0.00000000000E+00 0. -1.
</event>
<event>
 7    1  0.3611369E-013  0.7246148E+02  0.7816164E-02  0.1226708E+00
        -11   -1    0    0    0    0  0.00000000000E+00  0.00000000000E+00  0.45593999997E+02  0.45594000000E+02  0.51100000000E-03 0.  1.
         11   -1    0    0    0    0 -0.00000000000E+00 -0.00000000000E+00 -0.45593999997E+02  0.45594000000E+02  0.51100000000E-03 0. -1.
    9900012    2    1    2    0    0  0.13423932267E+02 -0.98700777313E+01  0.85476498485E+01  0.72461475766E+02  0.69999876860E+02 0.  0.
        -12    1    1    2    0    0 -0.13423932267E+02  0.98700777313E+01 -0.85476498485E+01  0.18726524234E+02  0.00000000000E+00 0.  1.
         11    1    3    3    0    0 -0.56305440499E+01 -0.19435361478E+02 -0.76993460109E+01  0.21649855227E+02  0.51100000000E-03 0. -1.
        -11    1    3    3    0    0 -0.38568777154E+00 -0.18634900404E+01 -0.13415823078E+02  0.13550116579E+02  0.51100000000E-03 0.  1.
        -12    1    3    3    0    0  0.19440164089E+02  0.11428773787E+02  0.29662818937E+02  0.37261503960E+02  0.00000000000E+00 0.  1.
</event>
<event>
 7    1  0.3611369E-013  0.7246142E+02  0.7816164E-02  0.1226708E+00
        -11   -1    0    0    0    0  0.00000000000E+00  0.00000000000E+00  0.45593999997E+02  0.45594000000E+02  0.51100000000E-03 0.  1.
         11   -1    0    0    0    0 -0.00000000000E+00 -0.00000000000E+00 -0.45593999997E+02  0.45594000000E+02  0.51100000000E-03 0. -1.
    9900012    2    1    2    0    0  0.10518691040E+02  0.13027279983E+02 -0.83864128660E+01  0.72461419808E+02  0.69999803963E+02 0.  0.
        -12    1    1    2    0    0 -0.10518691040E+02 -0.13027279983E+02  0.83864128660E+01  0.18726580192E+02  0.00000000000E+00 0.  1.
         11    1    3    3    0    0 -0.19797834164E+02  0.17402492413E+02 -0.24031302632E+02  0.35669377429E+02  0.51100000000E-03 0. -1.
        -11    1    3    3    0    0  0.15119355770E+01 -0.20919951321E+01 -0.17002532758E+01  0.30908339141E+01  0.51100000000E-03 0.  1.
        -12    1    3    3    0    0  0.28804589627E+02 -0.22832172979E+01  0.17345143042E+02  0.33701208464E+02  0.00000000000E+00 0.  1.
</event>
<event>
 7    1  0.3611369E-013  0.7246159E+02  0.7816164E-02  0.1226708E+00
        -11   -1    0    0    0    0  0.00000000000E+00  0.00000000000E+00  0.45593999997E+02  0.45594000000E+02  0.51100000000E-03 0.  1.
         11   -1    0    0    0    0 -0.00000000000E+00 -0.00000000000E+00 -0.45593999997E+02  0.45594000000E+02  0.51100000000E-03 0. -1.
    9900012    2    1    2    0    0  0.13607230571E+02  0.47206040190E+01 -0.11968184130E+02  0.72461594646E+02  0.70000031723E+02 0.  0.
        -12    1    1    2    0    0 -0.13607230571E+02 -0.47206040190E+01  0.11968184130E+02  0.18726405354E+02  0.00000000000E+00 0.  1.
         11    1    3    3    0    0  0.29133792361E+01 -0.54649760675E+01 -0.91268030921E+01  0.11029609102E+02  0.51100000000E-03 0. -1.
        -11    1    3    3    0    0 -0.68981888842E+01  0.29254421068E+01 -0.28509805228E+02  0.29477995450E+02  0.51100000000E-03 0.  1.
        -12    1    3    3    0    0  0.17592040219E+02  0.72601379797E+01  0.25668424190E+02  0.31953990094E+02  0.00000000000E+00 0.  1.
</event>
<event>
 7    1  0.3611369E-013  0.7246160E+02  0.7816164E-02  0.1226708E+00
        -11   -1    0    0    0    0  0.00000000000E+00  0.00000000000E+00  0.45593999997E+02  0.45594000000E+02  0.51100000000E-03 0.  1.
         11   -1    0    0    0    0 -0.00000000000E+00 -0.00000000000E+00 -0.45593999997E+02  0.45594000000E+02  0.51100000000E-03 0. -1.
    9900012    2    1    2    0    0 -0.12221649754E+02  0.36874740764E+01 -0.13700802417E+02  0.72461596858E+02  0.70000034605E+02 0.  0.
        -12    1    1    2    0    0  0.12221649754E+02 -0.36874740764E+01  0.13700802417E+02  0.18726403142E+02  0.00000000000E+00 0.  1.
         11    1    3    3    0    0 -0.15620640007E+02 -0.10446267360E+02  0.19542318087E+02  0.27111456849E+02  0.51100000000E-03 0. -1.
        -11    1    3    3    0    0  0.28630887874E+01  0.69367533382E+01  0.32299146237E+01  0.81699555089E+01  0.51100000000E-03 0.  1.
        -12    1    3    3    0    0  0.53590146569E+00  0.71969880987E+01 -0.36473035128E+02  0.37180184501E+02  0.00000000000E+00 0.  1.
</event>
<event>
 7    1  0.3611369E-013  0.7246158E+02  0.7816164E-02  0.1226708E+00
        -11   -1    0    0    0    0  0.00000000000E+00  0.00000000000E+00  0.45593999997E+02  0.45594000000E+02  0.51100000000E-03 0.  1.
         11   -1    0    0    0    0 -0.00000000000E+00 -0.00000000000E+00 -0.45593999997E+02  0.45594000000E+02  0.51100000000E-03 0. -1.
    9900012    2    1    2    0    0 -0.11125797701E+02 -0.13051427802E+02 -0.75203521691E+01  0.72461579122E+02  0.70000011500E+02 0.  0.
        -12    1    1    2    0    0  0.11125797701E+02  0.13051427802E+02  0.75203521691E+01  0.18726420878E+02  0.00000000000E+00 0.  1.
         11    1    3    3    0    0  0.93017954008E+01 -0.14683985834E+01  0.49992078471E+01  0.10661691772E+02  0.51100000000E-03 0. -1.
        -11    1    3    3    0    0  0.14040824069E+01  0.13041131535E+02  0.14257895818E+02  0.19373439357E+02  0.51100000000E-03 0.  1.
         12    1    3    3    0    0 -0.21831675508E+02 -0.24624160754E+02 -0.26777455834E+02  0.42426447993E+02  0.00000000000E+00 0. -1.
</event>
<event>
 7    1  0.3611369E-013  0.7246165E+02  0.7816164E-02  0.1226708E+00
        -11   -1    0    0    0    0  0.00000000000E+00  0.00000000000E+00  0.45593999997E+02  0.45594000000E+02  0.51100000000E-03 0.  1.
         11   -1    0    0    0    0 -0.00000000000E+00 -0.00000000000E+00 -0.45593999997E+02  0.45594000000E+02  0.51100000000E-03 0. -1.
    9900012    2    1    2    0    0 -0.18299197794E+02  0.11564592746E+01  0.38050145953E+01  0.72461650274E+02  0.70000104189E+02 0.  0.
        -12    1    1    2    0    0  0.18299197794E+02 -0.11564592746E+01 -0.38050145953E+01  0.18726349726E+02  0.00000000000E+00 0.  1.
         11    1    3    3    0    0 -0.76149370182E+01  0.12024724324E+02 -0.14101139611E+02  0.20035553385E+02  0.51100000000E-03 0.  1.
        -11    1    3    3    0    0  0.15565058198E+02 -0.15205603397E+02  0.31026873910E+01  0.21979719759E+02  0.51100000000E-03 0. -1.
        -12    1    3    3    0    0 -0.26249318974E+02  0.43373383481E+01  0.14803466816E+02  0.30446377130E+02  0.00000000000E+00 0.  1.
</event>
<event>
 7    1  0.3611369E-013  0.7246123E+02  0.7816164E-02  0.1226709E+00
        -11   -1    0    0    0    0  0.00000000000E+00  0.00000000000E+00  0.45593999997E+02  0.45594000000E+02  0.51100000000E-03 0.  1.
         11   -1    0    0    0    0 -0.00000000000E+00 -0.00000000000E+00 -0.45593999997E+02  0.45594000000E+02  0.51100000000E-03 0. -1.
    9900012    2    1    2    0    0 -0.34645181724E+01 -0.75043603046E+01 -0.16803971937E+02  0.72461233525E+02  0.69999561294E+02 0.  0.
        -12    1    1    2    0    0  0.34645181724E+01  0.75043603046E+01  0.16803971937E+02  0.18726766475E+02  0.00000000000E+00 0.  1.
         11    1    3    3    0    0 -0.22451890883E+02  0.61950495587E+01 -0.90555004698E+01  0.24989360381E+02  0.51100000000E-03 0. -1.
        -11    1    3    3    0    0 -0.90742477818E+01  0.10664121494E+01 -0.12421642150E+02  0.15420000054E+02  0.51100000000E-03 0.  1.
        -12    1    3    3    0    0  0.28061620492E+02 -0.14765822013E+02  0.46731706830E+01  0.32051873090E+02  0.00000000000E+00 0.  1.
</event>
<event>
 7    1  0.3611369E-013  0.7246157E+02  0.7816164E-02  0.1226708E+00
        -11   -1    0    0    0    0  0.00000000000E+00  0.00000000000E+00  0.45593999997E+02  0.45594000000E+02  0.51100000000E-03 0. -1.
         11   -1    0    0    0    0 -0.00000000000E+00 -0.00000000000E+00 -0.45593999997E+02  0.45594000000E+02  0.51100000000E-03 0.  1.
    9900012    2    1    2    0    0 -0.13286407611E+02  0.13189227363E+02  0.44138789956E+00  0.72461570311E+02  0.70000000021E+02 0.  0.
        -12    1    1    2    0    0  0.13286407611E+02 -0.13189227363E+02 -0.44138789956E+00  0.18726429689E+02  0.00000000000E+00 0.  1.
         11    1    3    3    0    0  0.11267465601E+02 -0.20471457897E+02 -0.90205036667E+01  0.25048070907E+02  0.51100000000E-03 0. -1.
        -11    1    3    3    0    0 -0.41121101339E+01  0.76244445436E+01  0.11325868130E+02  0.14258923294E+02  0.51100000000E-03 0.  1.
        -12    1    3    3    0    0 -0.20441763078E+02  0.26036240716E+02 -0.18639765638E+01  0.33154576109E+02  0.00000000000E+00 0.  1.
</event>
<event>
 7    1  0.3611369E-013  0.7246156E+02  0.7816164E-02  0.1226708E+00
        -11   -1    0    0    0    0  0.00000000000E+00  0.00000000000E+00  0.45593999997E+02  0.45594000000E+02  0.51100000000E-03 0. -1.
         11   -1    0    0    0    0 -0.00000000000E+00 -0.00000000000E+00 -0.45593999997E+02  0.45594000000E+02  0.51100000000E-03 0.  1.
    9900012    2    1    2    0    0  0.93426383678E+01  0.10382687068E+02  0.12473745103E+02  0.72461564158E+02  0.69999992007E+02 0.  0.
        -12    1    1    2    0    0 -0.93426383678E+01 -0.10382687068E+02 -0.12473745103E+02  0.18726435842E+02  0.00000000000E+00 0.  1.
         11    1    3    3    0    0 -0.30437954512E+01  0.84389040654E+01  0.80595910125E+01  0.12059718078E+02  0.51100000000E-03 0. -1.
        -11    1    3    3    0    0  0.12534427203E+02  0.28515129229E+02 -0.62512727722E+01  0.31769527409E+02  0.51100000000E-03 0.  1.
         12    1    3    3    0    0 -0.14799338412E+00 -0.26571346226E+02  0.10665426863E+02  0.28632318671E+02  0.00000000000E+00 0. -1.
</event>
<event>
 7    1  0.3611369E-013  0.7246158E+02  0.7816164E-02  0.1226708E+00
        -11   -1    0    0    0    0  0.00000000000E+00  0.00000000000E+00  0.45593999997E+02  0.45594000000E+02  0.51100000000E-03 0.  1.
         11   -1    0    0    0    0 -0.00000000000E+00 -0.00000000000E+00 -0.45593999997E+02  0.45594000000E+02  0.51100000000E-03 0. -1.
    9900012    2    1    2    0    0 -0.32988156963E+01  0.54452227939E+01 -0.17610962886E+02  0.72461584164E+02  0.70000018068E+02 0.  0.
        -12    1    1    2    0    0  0.32988156963E+01 -0.54452227939E+01  0.17610962886E+02  0.18726415836E+02  0.00000000000E+00 0.  1.
         11    1    3    3    0    0 -0.25396472604E+02  0.15181759710E+02 -0.27552302224E+02  0.40430137358E+02  0.51100000000E-03 0. -1.
        -11    1    3    3    0    0  0.40369367922E+00 -0.12867897688E+01  0.86067480364E+01  0.87117683921E+01  0.51100000000E-03 0.  1.
        -12    1    3    3    0    0  0.21693963229E+02 -0.84497471473E+01  0.13345913017E+01  0.23319678415E+02  0.00000000000E+00 0.  1.
</event>
<event>
 7    1  0.3611369E-013  0.7246164E+02  0.7816164E-02  0.1226708E+00
        -11   -1    0    0    0    0  0.00000000000E+00  0.00000000000E+00  0.45593999997E+02  0.45594000000E+02  0.51100000000E-03 0. -1.
         11   -1    0    0    0    0 -0.00000000000E+00 -0.00000000000E+00 -0.45593999997E+02  0.45594000000E+02  0.51100000000E-03 0.  1.
    9900012    2    1    2    0    0  0.12295533947E+02  0.48648376980E+01  0.13260083100E+02  0.72461638776E+02  0.70000089210E+02 0.  0.
        -12    1    1    2    0    0 -0.12295533947E+02 -0.48648376980E+01 -0.13260083100E+02  0.18726361224E+02  0.00000000000E+00 0.  1.
         11    1    3    3    0    0  0.78990111515E+01  0.16801144308E+02 -0.93445210386E+00  0.18588868396E+02  0.51100000000E-03 0. -1.
        -11    1    3    3    0    0  0.40270109884E+01 -0.22105482773E+02 -0.12211960928E+02  0.25573446700E+02  0.51100000000E-03 0.  1.
         12    1    3    3    0    0  0.36951180751E+00  0.10169176162E+02  0.26406496132E+02  0.28299323681E+02  0.00000000000E+00 0. -1.
</event>
<event>
 7    1  0.3611369E-013  0.7246161E+02  0.7816164E-02  0.1226708E+00
        -11   -1    0    0    0    0  0.00000000000E+00  0.00000000000E+00  0.45593999997E+02  0.45594000000E+02  0.51100000000E-03 0.  1.
         11   -1    0    0    0    0 -0.00000000000E+00 -0.00000000000E+00 -0.45593999997E+02  0.45594000000E+02  0.51100000000E-03 0. -1.
    9900012    2    1    2    0    0 -0.89897977596E+00 -0.17433302518E+02 -0.67785922967E+01  0.72461614475E+02  0.70000057553E+02 0.  0.
        -12    1    1    2    0    0  0.89897977596E+00  0.17433302518E+02  0.67785922967E+01  0.18726385525E+02  0.00000000000E+00 0.  1.
         11    1    3    3    0    0 -0.44194730940E+01  0.84805052380E+01 -0.85256128252E+01  0.12811587951E+02  0.51100000000E-03 0. -1.
        -11    1    3    3    0    0 -0.15930184200E+02 -0.25581389354E+02  0.17295425884E+02  0.34746366813E+02  0.51100000000E-03 0.  1.
         12    1    3    3    0    0  0.19450677518E+02 -0.33241840177E+00 -0.15548405355E+02  0.24903659711E+02  0.00000000000E+00 0. -1.
</event>
<event>
 7    1  0.3611369E-013  0.7246162E+02  0.7816164E-02  0.1226708E+00
        -11   -1    0    0    0    0  0.00000000000E+00  0.00000000000E+00  0.45593999997E+02  0.45594000000E+02  0.51100000000E-03 0.  1.
         11   -1    0    0    0    0 -0.00000000000E+00 -0.00000000000E+00 -0.45593999997E+02  0.45594000000E+02  0.51100000000E-03 0. -1.
    9900012    2    1    2    0    0  0.64045177547E+01 -0.13745007710E+02 -0.10987914766E+02  0.72461618729E+02  0.70000063095E+02 0.  0.
        -12    1    1    2    0    0 -0.64045177547E+01  0.13745007710E+02  0.10987914766E+02  0.18726381271E+02  0.00000000000E+00 0.  1.
         11    1    3    3    0    0 -0.22032989804E+02  0.26426477809E+01  0.10161413534E+02  0.24406772672E+02  0.51100000000E-03 0. -1.
        -11    1    3    3    0    0 -0.55685622992E+00 -0.63309036942E+01  0.47206440191E+01  0.79167487432E+01  0.51100000000E-03 0.  1.
        -12    1    3    3    0    0  0.28994363789E+02 -0.10056751796E+02 -0.25869972318E+02  0.40138097314E+02  0.00000000000E+00 0.  1.
</event>
<event>
 7    1  0.3611369E-013  0.7246150E+02  0.7816164E-02  0.1226708E+00
        -11   -1    0    0    0    0  0.00000000000E+00  0.00000000000E+00  0.45593999997E+02  0.45594000000E+02  0.51100000000E-03 0.  1.
         11   -1    0    0    0    0 -0.00000000000E+00 -0.00000000000E+00 -0.45593999997E+02  0.45594000000E+02  0.51100000000E-03 0. -1.
    9900012    2    1    2    0    0 -0.18683902681E+02 -0.12088308299E+01  0.36368649725E+00  0.72461501149E+02  0.69999909925E+02 0.  0.
        -12    1    1    2    0    0  0.18683902681E+02  0.12088308299E+01 -0.36368649725E+00  0.18726498851E+02  0.00000000000E+00 0.  1.
         11    1    3    3    0    0 -0.16739234197E+01 -0.14928110424E+02 -0.65864442489E+01  0.16402187310E+02  0.51100000000E-03 0. -1.
        -11    1    3    3    0    0  0.17936300887E+02  0.97390557935E+01  0.36379062728E+01  0.20731484741E+02  0.51100000000E-03 0.  1.
        -12    1    3    3    0    0 -0.34946280149E+02  0.39802238011E+01  0.33122244733E+01  0.35327829097E+02  0.00000000000E+00 0.  1.
</event>
<event>
 7    1  0.3611369E-013  0.7246157E+02  0.7816164E-02  0.1226708E+00
        -11   -1    0    0    0    0  0.00000000000E+00  0.00000000000E+00  0.45593999997E+02  0.45594000000E+02  0.51100000000E-03 0. -1.
         11   -1    0    0    0    0 -0.00000000000E+00 -0.00000000000E+00 -0.45593999997E+02  0.45594000000E+02  0.51100000000E-03 0.  1.
    9900012    2    1    2    0    0  0.64724480611E+01  0.16772239942E+02  0.52419899693E+01  0.72461572807E+02  0.70000003273E+02 0.  0.
        -12    1    1    2    0    0 -0.64724480611E+01 -0.16772239942E+02 -0.52419899693E+01  0.18726427193E+02  0.00000000000E+00 0.  1.
         11    1    3    3    0    0  0.88737886131E+01  0.19061803139E+02  0.11107005769E+02  0.23779445761E+02  0.51100000000E-03 0. -1.
        -11    1    3    3    0    0 -0.38965004536E+01  0.13697742863E+02 -0.21813461124E+02  0.26050680640E+02  0.51100000000E-03 0.  1.
         12    1    3    3    0    0  0.14951599016E+01 -0.15987306061E+02  0.15948445324E+02  0.22631446406E+02  0.00000000000E+00 0. -1.
</event>
<event>
 7    1  0.3611369E-013  0.7246152E+02  0.7816164E-02  0.1226708E+00
        -11   -1    0    0    0    0  0.00000000000E+00  0.00000000000E+00  0.45593999997E+02  0.45594000000E+02  0.51100000000E-03 0.  1.
         11   -1    0    0    0    0 -0.00000000000E+00 -0.00000000000E+00 -0.45593999997E+02  0.45594000000E+02  0.51100000000E-03 0. -1.
    9900012    2    1    2    0    0  0.12562951288E+02  0.76069851737E+01 -0.11618389686E+02  0.72461522824E+02  0.69999938161E+02 0.  0.
        -12    1    1    2    0    0 -0.12562951288E+02 -0.76069851737E+01  0.11618389686E+02  0.18726477176E+02  0.00000000000E+00 0.  1.
         11    1    3    3    0    0  0.36836382870E+01  0.22630902740E+02  0.37976652422E+01  0.23241110373E+02  0.51100000000E-03 0.  1.
        -11    1    3    3    0    0  0.16930986017E+02  0.92483919483E+01 -0.13558405643E+02  0.23580106127E+02  0.51100000000E-03 0. -1.
        -12    1    3    3    0    0 -0.80516730154E+01 -0.24272309514E+02 -0.18576492856E+01  0.25640306324E+02  0.00000000000E+00 0.  1.
</event>
<event>
 7    1  0.3611369E-013  0.7246171E+02  0.7816164E-02  0.1226708E+00
        -11   -1    0    0    0    0  0.00000000000E+00  0.00000000000E+00  0.45593999997E+02  0.45594000000E+02  0.51100000000E-03 0.  1.
         11   -1    0    0    0    0 -0.00000000000E+00 -0.00000000000E+00 -0.45593999997E+02  0.45594000000E+02  0.51100000000E-03 0. -1.
    9900012    2    1    2    0    0 -0.64846654343E+01  0.75393809249E+01 -0.15867598538E+02  0.72461712757E+02  0.70000185584E+02 0.  0.
        -12    1    1    2    0    0  0.64846654343E+01 -0.75393809249E+01  0.15867598538E+02  0.18726287243E+02  0.00000000000E+00 0.  1.
         11    1    3    3    0    0  0.15292966352E+02 -0.68005568148E+01 -0.13282767078E+02  0.21367131168E+02  0.51100000000E-03 0. -1.
        -11    1    3    3    0    0 -0.51387257808E+01 -0.10351702542E+02 -0.14914404397E+02  0.18868060498E+02  0.51100000000E-03 0.  1.
        -12    1    3    3    0    0 -0.16638906006E+02  0.24691640282E+02  0.12329572936E+02  0.32226521092E+02  0.00000000000E+00 0.  1.
</event>
<event>
 7    1  0.3611369E-013  0.7246160E+02  0.7816164E-02  0.1226708E+00
        -11   -1    0    0    0    0  0.00000000000E+00  0.00000000000E+00  0.45593999997E+02  0.45594000000E+02  0.51100000000E-03 0.  1.
         11   -1    0    0    0    0 -0.00000000000E+00 -0.00000000000E+00 -0.45593999997E+02  0.45594000000E+02  0.51100000000E-03 0. -1.
    9900012    2    1    2    0    0 -0.28412948349E+01 -0.18001202723E+02 -0.43083323752E+01  0.72461601957E+02  0.70000041246E+02 0.  0.
        -12    1    1    2    0    0  0.28412948349E+01  0.18001202723E+02  0.43083323752E+01  0.18726398043E+02  0.00000000000E+00 0.  1.
         11    1    3    3    0    0 -0.75853910158E+01  0.19457466769E+02 -0.13191154620E+01  0.20925373014E+02  0.51100000000E-03 0. -1.
        -11    1    3    3    0    0  0.46914858269E+01  0.66750343087E+00  0.10156312324E+02  0.11207420772E+02  0.51100000000E-03 0.  1.
         12    1    3    3    0    0  0.52610354019E-01 -0.38126172922E+02 -0.13145529237E+02  0.40328808171E+02  0.00000000000E+00 0. -1.
</event>
<event>
 7    1  0.3611369E-013  0.7246161E+02  0.7816164E-02  0.1226708E+00
        -11   -1    0    0    0    0  0.00000000000E+00  0.00000000000E+00  0.45593999997E+02  0.45594000000E+02  0.51100000000E-03 0. -1.
         11   -1    0    0    0    0 -0.00000000000E+00 -0.00000000000E+00 -0.45593999997E+02  0.45594000000E+02  0.51100000000E-03 0.  1.
    9900012    2    1    2    0    0 -0.13730380420E+02 -0.96158904733E+01 -0.83479999890E+01  0.72461606864E+02  0.70000047638E+02 0.  0.
        -12    1    1    2    0    0  0.13730380420E+02  0.96158904733E+01  0.83479999890E+01  0.18726393136E+02  0.00000000000E+00 0.  1.
         11    1    3    3    0    0 -0.18609284049E+02 -0.23831866111E+02 -0.13000402285E+01  0.30264722037E+02  0.51100000000E-03 0. -1.
        -11    1    3    3    0    0 -0.12581281542E+02 -0.63377977868E+01 -0.56923333466E+01  0.15194044399E+02  0.51100000000E-03 0.  1.
        -12    1    3    3    0    0  0.17460185170E+02  0.20553773424E+02 -0.13556264139E+01  0.27002840427E+02  0.00000000000E+00 0.  1.
</event>
<event>
 7    1  0.3611369E-013  0.7246158E+02  0.7816164E-02  0.1226708E+00
        -11   -1    0    0    0    0  0.00000000000E+00  0.00000000000E+00  0.45593999997E+02  0.45594000000E+02  0.51100000000E-03 0.  1.
         11   -1    0    0    0    0 -0.00000000000E+00 -0.00000000000E+00 -0.45593999997E+02  0.45594000000E+02  0.51100000000E-03 0. -1.
    9900012    2    1    2    0    0  0.40280293333E+01  0.17976269442E+02 -0.33626773969E+01  0.72461577954E+02  0.70000009979E+02 0.  0.
        -12    1    1    2    0    0 -0.40280293333E+01 -0.17976269442E+02  0.33626773969E+01  0.18726422046E+02  0.00000000000E+00 0.  1.
         11    1    3    3    0    0  0.17009249985E+02  0.99474354742E+00 -0.12042609759E+02  0.20864528508E+02  0.51100000000E-03 0. -1.
        -11    1    3    3    0    0  0.10527948441E+02  0.11071183884E+02  0.19732439525E+02  0.24955520047E+02  0.51100000000E-03 0.  1.
        -12    1    3    3    0    0 -0.23509169093E+02  0.59103420108E+01 -0.11052507163E+02  0.26641529399E+02  0.00000000000E+00 0.  1.
</event>
<event>
 7    1  0.3611369E-013  0.7246168E+02  0.7816164E-02  0.1226708E+00
        -11   -1    0    0    0    0  0.00000000000E+00  0.00000000000E+00  0.45593999997E+02  0.45594000000E+02  0.51100000000E-03 0. -1.
         11   -1    0    0    0    0 -0.00000000000E+00 -0.00000000000E+00 -0.45593999997E+02  0.45594000000E+02  0.51100000000E-03 0.  1.
    9900012    2    1    2    0    0  0.68705655149E+01  0.17419271333E+02 -0.19807485089E+00  0.72461683814E+02  0.70000147880E+02 0.  0.
        -12    1    1    2    0    0 -0.68705655149E+01 -0.17419271333E+02  0.19807485089E+00  0.18726316186E+02  0.00000000000E+00 0.  1.
         11    1    3    3    0    0 -0.52409301357E+01  0.46843370049E+01  0.16295824926E+02  0.17747232803E+02  0.51100000000E-03 0. -1.
        -11    1    3    3    0    0 -0.32531588668E+01  0.28412702784E+02 -0.25568497858E+01  0.28712405040E+02  0.51100000000E-03 0.  1.
         12    1    3    3    0    0  0.15364654517E+02 -0.15677768456E+02 -0.13937049991E+02  0.26002045971E+02  0.00000000000E+00 0. -1.
</event>
<event>
 7    1  0.3611369E-013  0.7246153E+02  0.7816164E-02  0.1226708E+00
        -11   -1    0    0    0    0  0.00000000000E+00  0.00000000000E+00  0.45593999997E+02  0.45594000000E+02  0.51100000000E-03 0. -1.
         11   -1    0    0    0    0 -0.00000000000E+00 -0.00000000000E+00 -0.45593999997E+02  0.45594000000E+02  0.51100000000E-03 0.  1.
    9900012    2    1    2    0    0 -0.13770156662E+02  0.34570999054E+01  0.12211137031E+02  0.72461531517E+02  0.69999949486E+02 0.  0.
        -12    1    1    2    0    0  0.13770156662E+02 -0.34570999054E+01 -0.12211137031E+02  0.18726468483E+02  0.00000000000E+00 0.  1.
         11    1    3    3    0    0  0.12343060720E+02  0.66229715661E+01  0.15831799993E+02  0.21139082089E+02  0.51100000000E-03 0. -1.
        -11    1    3    3    0    0 -0.83399741743E+01  0.11101494636E+02  0.16045487561E+02  0.21219237114E+02  0.51100000000E-03 0.  1.
         12    1    3    3    0    0 -0.17773243208E+02 -0.14267366297E+02 -0.19666150523E+02  0.30103212313E+02  0.00000000000E+00 0. -1.
</event>
<event>
 7    1  0.3611369E-013  0.7246159E+02  0.7816164E-02  0.1226708E+00
        -11   -1    0    0    0    0  0.00000000000E+00  0.00000000000E+00  0.45593999997E+02  0.45594000000E+02  0.51100000000E-03 0. -1.
         11   -1    0    0    0    0 -0.00000000000E+00 -0.00000000000E+00 -0.45593999997E+02  0.45594000000E+02  0.51100000000E-03 0.  1.
    9900012    2    1    2    0    0  0.13890674749E+02 -0.11288125967E+02  0.55050744595E+01  0.72461588768E+02  0.70000024066E+02 0.  0.
        -12    1    1    2    0    0 -0.13890674749E+02  0.11288125967E+02 -0.55050744595E+01  0.18726411232E+02  0.00000000000E+00 0.  1.
         11    1    3    3    0    0 -0.97161254463E+01 -0.30305867703E+02  0.39198195325E+01  0.32065771413E+02  0.51100000000E-03 0. -1.
        -11    1    3    3    0    0 -0.36612901721E+01  0.10515492143E+02 -0.28426218298E+01  0.11491784886E+02  0.51100000000E-03 0.  1.
        -12    1    3    3    0    0  0.27268090367E+02  0.85022495933E+01  0.44278767568E+01  0.28904032469E+02  0.00000000000E+00 0.  1.
</event>
<event>
 7    1  0.3611369E-013  0.7246155E+02  0.7816164E-02  0.1226708E+00
        -11   -1    0    0    0    0  0.00000000000E+00  0.00000000000E+00  0.45593999997E+02  0.45594000000E+02  0.51100000000E-03 0. -1.
         11   -1    0    0    0    0 -0.00000000000E+00 -0.00000000000E+00 -0.45593999997E+02  0.45594000000E+02  0.51100000000E-03 0.  1.
    9900012    2    1    2    0    0 -0.19598983116E+01  0.43599243619E+01  0.18106068953E+02  0.72461551464E+02  0.69999975470E+02 0.  0.
        -12    1    1    2    0    0  0.19598983116E+01 -0.43599243619E+01 -0.18106068953E+02  0.18726448536E+02  0.00000000000E+00 0.  1.
         11    1    3    3    0    0  0.84193460315E+01 -0.32218354881E+01  0.33365972580E+01  0.96124134864E+01  0.51100000000E-03 0.  1.
        -11    1    3    3    0    0  0.14665584906E+02 -0.14543673882E+01 -0.16271630389E+02  0.21953599270E+02  0.51100000000E-03 0. -1.
         12    1    3    3    0    0 -0.25044829249E+02  0.90361272382E+01  0.31041102084E+02  0.40895538708E+02  0.00000000000E+00 0. -1.
</event>
<event>
 7    1  0.3611369E-013  0.7246158E+02  0.7816164E-02  0.1226708E+00
        -11   -1    0    0    0    0  0.00000000000E+00  0.00000000000E+00  0.45593999997E+02  0.45594000000E+02  0.51100000000E-03 0.  1.
         11   -1    0    0    0    0 -0.00000000000E+00 -0.00000000000E+00 -0.45593999997E+02  0.45594000000E+02  0.51100000000E-03 0. -1.
    9900012    2    1    2    0    0  0.11751535571E+02 -0.90405926305E+01 -0.11438877109E+02  0.72461579816E+02  0.70000012404E+02 0.  0.
        -12    1    1    2    0    0 -0.11751535571E+02  0.90405926305E+01  0.11438877109E+02  0.18726420184E+02  0.00000000000E+00 0.  1.
         11    1    3    3    0    0  0.31776629345E+01  0.75214369025E+01 -0.19232588781E+02  0.20894066772E+02  0.51100000000E-03 0. -1.
        -11    1    3    3    0    0  0.10854455538E+00  0.11556060240E+02 -0.11601858070E+02  0.16375512851E+02  0.51100000000E-03 0.  1.
        -12    1    3    3    0    0  0.84653280807E+01 -0.28118089773E+02  0.19395569741E+02  0.35192000193E+02  0.00000000000E+00 0.  1.
</event>
<event>
 7    1  0.3611369E-013  0.7246157E+02  0.7816164E-02  0.1226708E+00
        -11   -1    0    0    0    0  0.00000000000E+00  0.00000000000E+00  0.45593999997E+02  0.45594000000E+02  0.51100000000E-03 0.  1.
         11   -1    0    0    0    0 -0.00000000000E+00 -0.00000000000E+00 -0.45593999997E+02  0.45594000000E+02  0.51100000000E-03 0. -1.
    9900012    2    1    2    0    0 -0.25238241259E+01  0.88669889775E+01 -0.16299879317E+02  0.72461568212E+02  0.69999997287E+02 0.  0.
        -12    1    1    2    0    0  0.25238241259E+01 -0.88669889775E+01  0.16299879317E+02  0.18726431788E+02  0.00000000000E+00 0.  1.
         11    1    3    3    0    0  0.37182772763E+01 -0.17612402651E+02 -0.10630479217E+02  0.20905248185E+02  0.51100000000E-03 0. -1.
        -11    1    3    3    0    0 -0.13192343844E+02 -0.78788317933E+01 -0.60126733954E+01  0.16500489937E+02  0.51100000000E-03 0.  1.
        -12    1    3    3    0    0  0.69502424420E+01  0.34358223422E+02  0.34327329461E+00  0.35055830090E+02  0.00000000000E+00 0.  1.
</event>
<event>
 7    1  0.3611369E-013  0.7246158E+02  0.7816164E-02  0.1226708E+00
        -11   -1    0    0    0    0  0.00000000000E+00  0.00000000000E+00  0.45593999997E+02  0.45594000000E+02  0.51100000000E-03 0.  1.
         11   -1    0    0    0    0 -0.00000000000E+00 -0.00000000000E+00 -0.45593999997E+02  0.45594000000E+02  0.51100000000E-03 0. -1.
    9900012    2    1    2    0    0  0.39650615772E+01  0.18292192976E+02 -0.59379457561E+00  0.72461584722E+02  0.70000018795E+02 0.  0.
        -12    1    1    2    0    0 -0.39650615772E+01 -0.18292192976E+02  0.59379457561E+00  0.18726415278E+02  0.00000000000E+00 0.  1.
         11    1    3    3    0    0  0.19652849624E+02 -0.59843851415E+01 -0.15406498170E+02  0.25678932026E+02  0.51100000000E-03 0. -1.
        -11    1    3    3    0    0  0.74619184650E+01 -0.34568407119E+01  0.21245736612E+01  0.84937499604E+01  0.51100000000E-03 0.  1.
         12    1    3    3    0    0 -0.23149706512E+02  0.27733418829E+02  0.12688129933E+02  0.38288902736E+02  0.00000000000E+00 0. -1.
</event>
<event>
 7    1  0.3611369E-013  0.7246154E+02  0.7816164E-02  0.1226708E+00
        -11   -1    0    0    0    0  0.00000000000E+00  0.00000000000E+00  0.45593999997E+02  0.45594000000E+02  0.51100000000E-03 0. -1.
         11   -1    0    0    0    0 -0.00000000000E+00 -0.00000000000E+00 -0.45593999997E+02  0.45594000000E+02  0.51100000000E-03 0.  1.
    9900012    2    1    2    0    0 -0.10324208683E+01 -0.18210429109E+02 -0.42420111249E+01  0.72461540656E+02  0.69999961391E+02 0.  0.
        -12    1    1    2    0    0  0.10324208683E+01  0.18210429109E+02  0.42420111249E+01  0.18726459344E+02  0.00000000000E+00 0.  1.
         11    1    3    3    0    0 -0.12785916796E+02 -0.26146685010E+02 -0.10667700243E+02  0.30998848915E+02  0.51100000000E-03 0. -1.
        -11    1    3    3    0    0 -0.10024769220E+02  0.93222073580E+00 -0.92969049164E+01  0.13703921873E+02  0.51100000000E-03 0.  1.
         12    1    3    3    0    0  0.21778265148E+02  0.70040351651E+01  0.15722594035E+02  0.27758769869E+02  0.00000000000E+00 0. -1.
</event>
<event>
 7    1  0.3611369E-013  0.7246153E+02  0.7816164E-02  0.1226708E+00
        -11   -1    0    0    0    0  0.00000000000E+00  0.00000000000E+00  0.45593999997E+02  0.45594000000E+02  0.51100000000E-03 0.  1.
         11   -1    0    0    0    0 -0.00000000000E+00 -0.00000000000E+00 -0.45593999997E+02  0.45594000000E+02  0.51100000000E-03 0. -1.
    9900012    2    1    2    0    0  0.17315241890E+02 -0.20900588745E+01 -0.68187005953E+01  0.72461531416E+02  0.69999949354E+02 0.  0.
        -12    1    1    2    0    0 -0.17315241890E+02  0.20900588745E+01  0.68187005953E+01  0.18726468584E+02  0.00000000000E+00 0.  1.
         11    1    3    3    0    0 -0.64537997370E+00 -0.48978576788E+01 -0.72317827130E+01  0.87580937779E+01  0.51100000000E-03 0. -1.
        -11    1    3    3    0    0 -0.18106329529E+01  0.14348193084E+01  0.28904585763E+02  0.28996761483E+02  0.51100000000E-03 0.  1.
         12    1    3    3    0    0  0.19771254817E+02  0.13729794959E+01 -0.28491503645E+02  0.34706676155E+02  0.00000000000E+00 0. -1.
</event>
<event>
 7    1  0.3611369E-013  0.7246157E+02  0.7816164E-02  0.1226708E+00
        -11   -1    0    0    0    0  0.00000000000E+00  0.00000000000E+00  0.45593999997E+02  0.45594000000E+02  0.51100000000E-03 0. -1.
         11   -1    0    0    0    0 -0.00000000000E+00 -0.00000000000E+00 -0.45593999997E+02  0.45594000000E+02  0.51100000000E-03 0.  1.
    9900012    2    1    2    0    0 -0.78018396392E+01 -0.16457599910E+02 -0.43540700244E+01  0.72461568884E+02  0.69999998163E+02 0.  0.
        -12    1    1    2    0    0  0.78018396392E+01  0.16457599910E+02  0.43540700244E+01  0.18726431116E+02  0.00000000000E+00 0.  1.
         11    1    3    3    0    0 -0.70133442355E+01 -0.35243944048E+01  0.10664159011E+02  0.13241323233E+02  0.51100000000E-03 0. -1.
        -11    1    3    3    0    0  0.13380752735E+02 -0.27391424991E+02  0.48350622483E+01  0.30866041761E+02  0.51100000000E-03 0.  1.
         12    1    3    3    0    0 -0.14169248139E+02  0.14458219486E+02 -0.19853291283E+02  0.28354203891E+02  0.00000000000E+00 0. -1.
</event>
<event>
 7    1  0.3611369E-013  0.7246158E+02  0.7816164E-02  0.1226708E+00
        -11   -1    0    0    0    0  0.00000000000E+00  0.00000000000E+00  0.45593999997E+02  0.45594000000E+02  0.51100000000E-03 0.  1.
         11   -1    0    0    0    0 -0.00000000000E+00 -0.00000000000E+00 -0.45593999997E+02  0.45594000000E+02  0.51100000000E-03 0. -1.
    9900012    2    1    2    0    0 -0.17442029697E+02 -0.29056775511E+01 -0.61653536878E+01  0.72461576207E+02  0.70000007703E+02 0.  0.
        -12    1    1    2    0    0  0.17442029697E+02  0.29056775511E+01  0.61653536878E+01  0.18726423793E+02  0.00000000000E+00 0.  1.
         11    1    3    3    0    0 -0.12569644512E+02  0.14764143742E+02 -0.11505791068E+02  0.22546820884E+02  0.51100000000E-03 0. -1.
        -11    1    3    3    0    0  0.14784251801E+02  0.99079839817E+00 -0.10830553037E+02  0.18353655280E+02  0.51100000000E-03 0.  1.
        -12    1    3    3    0    0 -0.19656636986E+02 -0.18660619691E+02  0.16170990417E+02  0.31561100043E+02  0.00000000000E+00 0.  1.
</event>
<event>
 7    1  0.3611369E-013  0.7246157E+02  0.7816164E-02  0.1226708E+00
        -11   -1    0    0    0    0  0.00000000000E+00  0.00000000000E+00  0.45593999997E+02  0.45594000000E+02  0.51100000000E-03 0.  1.
         11   -1    0    0    0    0 -0.00000000000E+00 -0.00000000000E+00 -0.45593999997E+02  0.45594000000E+02  0.51100000000E-03 0. -1.
    9900012    2    1    2    0    0  0.12395298125E+01 -0.15966836512E+02 -0.97058133202E+01  0.72461571761E+02  0.70000001911E+02 0.  0.
        -12    1    1    2    0    0 -0.12395298125E+01  0.15966836512E+02  0.97058133202E+01  0.18726428239E+02  0.00000000000E+00 0.  1.
         11    1    3    3    0    0 -0.15618878227E+02 -0.27613413185E+02 -0.15192714540E+02  0.35174827933E+02  0.51100000000E-03 0. -1.
        -11    1    3    3    0    0  0.94811920547E+01 -0.90847461401E+01  0.76148217010E+01  0.15179299226E+02  0.51100000000E-03 0.  1.
        -12    1    3    3    0    0  0.73772159850E+01  0.20731322812E+02 -0.21279204814E+01  0.22107444602E+02  0.00000000000E+00 0.  1.
</event>
<event>
 7    1  0.3611369E-013  0.7246160E+02  0.7816164E-02  0.1226708E+00
        -11   -1    0    0    0    0  0.00000000000E+00  0.00000000000E+00  0.45593999997E+02  0.45594000000E+02  0.51100000000E-03 0.  1.
         11   -1    0    0    0    0 -0.00000000000E+00 -0.00000000000E+00 -0.45593999997E+02  0.45594000000E+02  0.51100000000E-03 0. -1.
    9900012    2    1    2    0    0 -0.13322599412E+02 -0.12834568787E+02  0.29086656105E+01  0.72461597605E+02  0.70000035577E+02 0.  0.
        -12    1    1    2    0    0  0.13322599412E+02  0.12834568787E+02 -0.29086656105E+01  0.18726402395E+02  0.00000000000E+00 0.  1.
         11    1    3    3    0    0  0.53306003969E+01  0.17106645561E+02  0.90811817908E+01  0.20087819342E+02  0.51100000000E-03 0. -1.
        -11    1    3    3    0    0 -0.20082810638E+02 -0.57314921100E+01  0.10069538180E+02  0.23185445529E+02  0.51100000000E-03 0.  1.
         12    1    3    3    0    0  0.14296108296E+01 -0.24209722237E+02 -0.16242054361E+02  0.29188332734E+02  0.00000000000E+00 0. -1.
</event>
<event>
 7    1  0.3611369E-013  0.7246167E+02  0.7816164E-02  0.1226708E+00
        -11   -1    0    0    0    0  0.00000000000E+00  0.00000000000E+00  0.45593999997E+02  0.45594000000E+02  0.51100000000E-03 0. -1.
         11   -1    0    0    0    0 -0.00000000000E+00 -0.00000000000E+00 -0.45593999997E+02  0.45594000000E+02  0.51100000000E-03 0.  1.
    9900012    2    1    2    0    0  0.46272143411E+01 -0.38257859867E+01 -0.17737749431E+02  0.72461668115E+02  0.70000127429E+02 0.  0.
        -12    1    1    2    0    0 -0.46272143411E+01  0.38257859867E+01  0.17737749431E+02  0.18726331885E+02  0.00000000000E+00 0.  1.
         11    1    3    3    0    0  0.30190321347E+02  0.83495780073E+01 -0.65586809405E+01  0.32002925677E+02  0.51100000000E-03 0. -1.
        -11    1    3    3    0    0 -0.41955927750E+01  0.72123274844E+01  0.22388338094E+01  0.86390418197E+01  0.51100000000E-03 0.  1.
        -12    1    3    3    0    0 -0.21367514231E+02 -0.19387691478E+02 -0.13417902300E+02  0.31819700618E+02  0.00000000000E+00 0.  1.
</event>
<event>
 7    1  0.3611369E-013  0.7246156E+02  0.7816164E-02  0.1226708E+00
        -11   -1    0    0    0    0  0.00000000000E+00  0.00000000000E+00  0.45593999997E+02  0.45594000000E+02  0.51100000000E-03 0.  1.
         11   -1    0    0    0    0 -0.00000000000E+00 -0.00000000000E+00 -0.45593999997E+02  0.45594000000E+02  0.51100000000E-03 0. -1.
    9900012    2    1    2    0    0 -0.13543586797E+02 -0.26436430270E+01 -0.12659460187E+02  0.72461560829E+02  0.69999987670E+02 0.  0.
        -12    1    1    2    0    0  0.13543586797E+02  0.26436430270E+01  0.12659460187E+02  0.18726439171E+02  0.00000000000E+00 0.  1.
         11    1    3    3    0    0  0.10614216791E+02  0.40314305591E+01  0.41510712163E+00  0.11361617166E+02  0.51100000000E-03 0. -1.
        -11    1    3    3    0    0 -0.23580808147E+02 -0.14186734271E+02 -0.31121548627E+02  0.41543576294E+02  0.51100000000E-03 0.  1.
         12    1    3    3    0    0 -0.57699544133E+00  0.75116606845E+01  0.18046981318E+02  0.19556367369E+02  0.00000000000E+00 0. -1.
</event>
<event>
 7    1  0.3611369E-013  0.7246155E+02  0.7816164E-02  0.1226708E+00
        -11   -1    0    0    0    0  0.00000000000E+00  0.00000000000E+00  0.45593999997E+02  0.45594000000E+02  0.51100000000E-03 0. -1.
         11   -1    0    0    0    0 -0.00000000000E+00 -0.00000000000E+00 -0.45593999997E+02  0.45594000000E+02  0.51100000000E-03 0.  1.
    9900012    2    1    2    0    0 -0.88730841349E+01 -0.10513912183E+02  0.12704561118E+02  0.72461552268E+02  0.69999976517E+02 0.  0.
        -12    1    1    2    0    0  0.88730841349E+01  0.10513912183E+02 -0.12704561118E+02  0.18726447732E+02  0.00000000000E+00 0.  1.
         11    1    3    3    0    0 -0.99467683549E+01 -0.30865430463E+02 -0.54300569361E+01  0.32880062606E+02  0.51100000000E-03 0. -1.
        -11    1    3    3    0    0  0.62372867927E+00  0.25751576816E+01 -0.77426632918E+01  0.81834778464E+01  0.51100000000E-03 0.  1.
         12    1    3    3    0    0  0.44995554069E+00  0.17776360598E+02  0.25877281346E+02  0.31398011816E+02  0.00000000000E+00 0. -1.
</event>
<event>
 7    1  0.3611369E-013  0.7246154E+02  0.7816164E-02  0.1226708E+00
        -11   -1    0    0    0    0  0.00000000000E+00  0.00000000000E+00  0.45593999997E+02  0.45594000000E+02  0.51100000000E-03 0.  1.
         11   -1    0    0    0    0 -0.00000000000E+00 -0.00000000000E+00 -0.45593999997E+02  0.45594000000E+02  0.51100000000E-03 0. -1.
    9900012    2    1    2    0    0  0.49349286877E+01 -0.69318112799E+01 -0.16681626614E+02  0.72461542907E+02  0.69999964322E+02 0.  0.
        -12    1    1    2    0    0 -0.49349286877E+01  0.69318112799E+01  0.16681626614E+02  0.18726457093E+02  0.00000000000E+00 0.  1.
         11    1    3    3    0    0  0.24445213191E+02  0.10587323280E+00 -0.26708263923E+02  0.36206505205E+02  0.51100000000E-03 0. -1.
        -11    1    3    3    0    0 -0.32541732392E+01  0.61107860244E+01 -0.65823511393E+01  0.95529417505E+01  0.51100000000E-03 0.  1.
        -12    1    3    3    0    0 -0.16256111264E+02 -0.13148470537E+02  0.16608988448E+02  0.26702095951E+02  0.00000000000E+00 0.  1.
</event>
<event>
 7    1  0.3611369E-013  0.7246158E+02  0.7816164E-02  0.1226708E+00
        -11   -1    0    0    0    0  0.00000000000E+00  0.00000000000E+00  0.45593999997E+02  0.45594000000E+02  0.51100000000E-03 0. -1.
         11   -1    0    0    0    0 -0.00000000000E+00 -0.00000000000E+00 -0.45593999997E+02  0.45594000000E+02  0.51100000000E-03 0.  1.
    9900012    2    1    2    0    0  0.15288856393E+02  0.17489751253E+01  0.10671030798E+02  0.72461576366E+02  0.70000007910E+02 0.  0.
        -12    1    1    2    0    0 -0.15288856393E+02 -0.17489751253E+01 -0.10671030798E+02  0.18726423634E+02  0.00000000000E+00 0.  1.
         11    1    3    3    0    0  0.22163958081E+02  0.21369083430E+02 -0.19511642424E+01  0.30849405288E+02  0.51100000000E-03 0. -1.
        -11    1    3    3    0    0  0.28178836521E+01  0.43812363780E+01 -0.72863078844E+01  0.89568958531E+01  0.51100000000E-03 0.  1.
         12    1    3    3    0    0 -0.96929853393E+01 -0.24001344683E+02  0.19908502925E+02  0.32655275226E+02  0.00000000000E+00 0. -1.
</event>
<event>
 7    1  0.3611369E-013  0.7246160E+02  0.7816164E-02  0.1226708E+00
        -11   -1    0    0    0    0  0.00000000000E+00  0.00000000000E+00  0.45593999997E+02  0.45594000000E+02  0.51100000000E-03 0.  1.
         11   -1    0    0    0    0 -0.00000000000E+00 -0.00000000000E+00 -0.45593999997E+02  0.45594000000E+02  0.51100000000E-03 0. -1.
    9900012    2    1    2    0    0  0.16379950222E+02  0.28522981626E-01 -0.90760384062E+01  0.72461600026E+02  0.70000038731E+02 0.  0.
        -12    1    1    2    0    0 -0.16379950222E+02 -0.28522981626E-01  0.90760384062E+01  0.18726399974E+02  0.00000000000E+00 0.  1.
         11    1    3    3    0    0  0.20060249326E+02 -0.17869109258E+02 -0.15512821430E+02  0.31022029232E+02  0.51100000000E-03 0. -1.
        -11    1    3    3    0    0  0.28747565369E+01 -0.31680561333E+01  0.16604913156E+02  0.17147126465E+02  0.51100000000E-03 0.  1.
         12    1    3    3    0    0 -0.65550556411E+01  0.21065688373E+02 -0.10168130133E+02  0.24292444329E+02  0.00000000000E+00 0. -1.
</event>
<event>
 7    1  0.3611369E-013  0.7246165E+02  0.7816164E-02  0.1226708E+00
        -11   -1    0    0    0    0  0.00000000000E+00  0.00000000000E+00  0.45593999997E+02  0.45594000000E+02  0.51100000000E-03 0.  1.
         11   -1    0    0    0    0 -0.00000000000E+00 -0.00000000000E+00 -0.45593999997E+02  0.45594000000E+02  0.51100000000E-03 0. -1.
    9900012    2    1    2    0    0 -0.98833244667E+01  0.14660927101E+02 -0.61687348371E+01  0.72461650236E+02  0.70000104139E+02 0.  0.
        -12    1    1    2    0    0  0.98833244667E+01 -0.14660927101E+02  0.61687348371E+01  0.18726349764E+02  0.00000000000E+00 0.  1.
         11    1    3    3    0    0 -0.15902292459E+02  0.36028558409E+02 -0.95740104590E+01  0.40529021737E+02  0.51100000000E-03 0. -1.
        -11    1    3    3    0    0  0.26231767398E+01  0.46827160057E+01  0.15960161270E+01  0.55996565196E+01  0.51100000000E-03 0.  1.
        -12    1    3    3    0    0  0.33957912521E+01 -0.26050347313E+02  0.18092594949E+01  0.26332971980E+02  0.00000000000E+00 0.  1.
</event>
<event>
 7    1  0.3611369E-013  0.7246156E+02  0.7816164E-02  0.1226708E+00
        -11   -1    0    0    0    0  0.00000000000E+00  0.00000000000E+00  0.45593999997E+02  0.45594000000E+02  0.51100000000E-03 0. -1.
         11   -1    0    0    0    0 -0.00000000000E+00 -0.00000000000E+00 -0.45593999997E+02  0.45594000000E+02  0.51100000000E-03 0.  1.
    9900012    2    1    2    0    0 -0.10383168584E+02 -0.10399811313E+02  0.11606597850E+02  0.72461564705E+02  0.69999992719E+02 0.  0.
        -12    1    1    2    0    0  0.10383168584E+02  0.10399811313E+02 -0.11606597850E+02  0.18726435295E+02  0.00000000000E+00 0.  1.
         11    1    3    3    0    0  0.57079803915E+01 -0.23729529274E+01  0.58485632125E+01  0.85098553253E+01  0.51100000000E-03 0. -1.
        -11    1    3    3    0    0  0.61329666739E+01 -0.18772476869E+02 -0.20116573668E+02  0.28190347718E+02  0.51100000000E-03 0.  1.
         12    1    3    3    0    0 -0.22224115649E+02  0.10745618484E+02  0.25874608306E+02  0.35761361663E+02  0.00000000000E+00 0. -1.
</event>
<event>
 7    1  0.3611369E-013  0.7246172E+02  0.7816164E-02  0.1226708E+00
        -11   -1    0    0    0    0  0.00000000000E+00  0.00000000000E+00  0.45593999997E+02  0.45594000000E+02  0.51100000000E-03 0. -1.
         11   -1    0    0    0    0 -0.00000000000E+00 -0.00000000000E+00 -0.45593999997E+02  0.45594000000E+02  0.51100000000E-03 0.  1.
    9900012    2    1    2    0    0  0.77518856030E+01  0.16917747214E+02  0.20908808873E+01  0.72461716757E+02  0.70000190795E+02 0.  0.
        -12    1    1    2    0    0 -0.77518856030E+01 -0.16917747214E+02 -0.20908808873E+01  0.18726283243E+02  0.00000000000E+00 0.  1.
         11    1    3    3    0    0  0.26398869766E+02 -0.59700428992E+01  0.44162323119E+01  0.27423436058E+02  0.51100000000E-03 0. -1.
        -11    1    3    3    0    0 -0.13881777646E+02  0.37851585911E+00  0.11642957029E+02  0.18121961083E+02  0.51100000000E-03 0.  1.
        -12    1    3    3    0    0 -0.47652065175E+01  0.22509274254E+02 -0.13968308453E+02  0.26916319616E+02  0.00000000000E+00 0.  1.
</event>
<event>
 7    1  0.3611369E-013  0.7246145E+02  0.7816164E-02  0.1226708E+00
        -11   -1    0    0    0    0  0.00000000000E+00  0.00000000000E+00  0.45593999997E+02  0.45594000000E+02  0.51100000000E-03 0.  1.
         11   -1    0    0    0    0 -0.00000000000E+00 -0.00000000000E+00 -0.45593999997E+02  0.45594000000E+02  0.51100000000E-03 0. -1.
    9900012    2    1    2    0    0  0.10268610817E+02 -0.98380528890E+01 -0.12184082943E+02  0.72461453871E+02  0.69999848337E+02 0.  0.
        -12    1    1    2    0    0 -0.10268610817E+02  0.98380528890E+01  0.12184082943E+02  0.18726546129E+02  0.00000000000E+00 0.  1.
         11    1    3    3    0    0 -0.29290818864E+01 -0.15306164126E+02 -0.13803515481E+02  0.20818146431E+02  0.51100000000E-03 0. -1.
        -11    1    3    3    0    0  0.18058988147E+02  0.23006295395E+02 -0.89639270703E+01  0.30590336211E+02  0.51100000000E-03 0.  1.
         12    1    3    3    0    0 -0.48612954433E+01 -0.17538184159E+02  0.10583359608E+02  0.21052971229E+02  0.00000000000E+00 0. -1.
</event>
<event>
 7    1  0.3611369E-013  0.7246163E+02  0.7816164E-02  0.1226708E+00
        -11   -1    0    0    0    0  0.00000000000E+00  0.00000000000E+00  0.45593999997E+02  0.45594000000E+02  0.51100000000E-03 0.  1.
         11   -1    0    0    0    0 -0.00000000000E+00 -0.00000000000E+00 -0.45593999997E+02  0.45594000000E+02  0.51100000000E-03 0. -1.
    9900012    2    1    2    0    0  0.18422781973E+02 -0.21605013787E+01 -0.25710706180E+01  0.72461626460E+02  0.70000073166E+02 0.  0.
        -12    1    1    2    0    0 -0.18422781973E+02  0.21605013787E+01  0.25710706180E+01  0.18726373540E+02  0.00000000000E+00 0.  1.
         11    1    3    3    0    0  0.25825344843E+02 -0.96823438901E+00 -0.13282496709E+01  0.25877599609E+02  0.51100000000E-03 0. -1.
        -11    1    3    3    0    0 -0.56922569254E+00 -0.21142911506E+02  0.91842773998E+01  0.23058570564E+02  0.51100000000E-03 0.  1.
         12    1    3    3    0    0 -0.68333371771E+01  0.19950644516E+02 -0.10427098347E+02  0.23525456287E+02  0.00000000000E+00 0. -1.
</event>
<event>
 7    1  0.3611369E-013  0.7246158E+02  0.7816164E-02  0.1226708E+00
        -11   -1    0    0    0    0  0.00000000000E+00  0.00000000000E+00  0.45593999997E+02  0.45594000000E+02  0.51100000000E-03 0.  1.
         11   -1    0    0    0    0 -0.00000000000E+00 -0.00000000000E+00 -0.45593999997E+02  0.45594000000E+02  0.51100000000E-03 0. -1.
    9900012    2    1    2    0    0  0.14343480316E+02  0.11341378415E+02  0.40393495128E+01  0.72461584528E+02  0.70000018542E+02 0.  0.
        -12    1    1    2    0    0 -0.14343480316E+02 -0.11341378415E+02 -0.40393495128E+01  0.18726415472E+02  0.00000000000E+00 0.  1.
         11    1    3    3    0    0  0.14766749200E+01  0.79159333509E+01  0.12828521317E+02  0.15146403173E+02  0.51100000000E-03 0. -1.
        -11    1    3    3    0    0  0.34979183887E+01 -0.46058242862E+01  0.22736427255E+02  0.23460481133E+02  0.51100000000E-03 0.  1.
         12    1    3    3    0    0  0.93688870074E+01  0.80312693505E+01 -0.31525599059E+02  0.33854700223E+02  0.00000000000E+00 0. -1.
</event>
<event>
 7    1  0.3611369E-013  0.7246157E+02  0.7816164E-02  0.1226708E+00
        -11   -1    0    0    0    0  0.00000000000E+00  0.00000000000E+00  0.45593999997E+02  0.45594000000E+02  0.51100000000E-03 0.  1.
         11   -1    0    0    0    0 -0.00000000000E+00 -0.00000000000E+00 -0.45593999997E+02  0.45594000000E+02  0.51100000000E-03 0. -1.
    9900012    2    1    2    0    0  0.23865264442E+00 -0.41574146569E+01 -0.18257548717E+02  0.72461571166E+02  0.70000001136E+02 0.  0.
        -12    1    1    2    0    0 -0.23865264442E+00  0.41574146569E+01  0.18257548717E+02  0.18726428834E+02  0.00000000000E+00 0.  1.
         11    1    3    3    0    0 -0.21893137182E+02  0.18194731791E+02 -0.94886278017E+01  0.30006528930E+02  0.51100000000E-03 0. -1.
        -11    1    3    3    0    0  0.21798322702E+02 -0.32863899563E+01 -0.16699900276E+01  0.22107828897E+02  0.51100000000E-03 0.  1.
        -12    1    3    3    0    0  0.33346712419E+00 -0.19065756491E+02 -0.70989308879E+01  0.20347213339E+02  0.00000000000E+00 0.  1.
</event>
<event>
 7    1  0.3611369E-013  0.7246156E+02  0.7816164E-02  0.1226708E+00
        -11   -1    0    0    0    0  0.00000000000E+00  0.00000000000E+00  0.45593999997E+02  0.45594000000E+02  0.51100000000E-03 0. -1.
         11   -1    0    0    0    0 -0.00000000000E+00 -0.00000000000E+00 -0.45593999997E+02  0.45594000000E+02  0.51100000000E-03 0.  1.
    9900012    2    1    2    0    0  0.34589350830E+01  0.74199147970E+01  0.16842217862E+02  0.72461556931E+02  0.69999982592E+02 0.  0.
        -12    1    1    2    0    0 -0.34589350830E+01 -0.74199147970E+01 -0.16842217862E+02  0.18726443069E+02  0.00000000000E+00 0.  1.
         11    1    3    3    0    0  0.13335334969E+01  0.98299531713E+00  0.32364831780E+02  0.32407204874E+02  0.51100000000E-03 0. -1.
        -11    1    3    3    0    0 -0.66167205286E+01  0.97939199743E+01  0.83096646250E+01  0.14448265829E+02  0.51100000000E-03 0.  1.
        -12    1    3    3    0    0  0.87421221147E+01 -0.33570004945E+01 -0.23832278542E+02  0.25606086228E+02  0.00000000000E+00 0.  1.
</event>
<event>
 7    1  0.3611369E-013  0.7246164E+02  0.7816164E-02  0.1226708E+00
        -11   -1    0    0    0    0  0.00000000000E+00  0.00000000000E+00  0.45593999997E+02  0.45594000000E+02  0.51100000000E-03 0.  1.
         11   -1    0    0    0    0 -0.00000000000E+00 -0.00000000000E+00 -0.45593999997E+02  0.45594000000E+02  0.51100000000E-03 0. -1.
    9900012    2    1    2    0    0  0.25448508589E+01 -0.80582637855E+01 -0.16711213038E+02  0.72461640975E+02  0.70000092074E+02 0.  0.
        -12    1    1    2    0    0 -0.25448508589E+01  0.80582637855E+01  0.16711213038E+02  0.18726359025E+02  0.00000000000E+00 0.  1.
         11    1    3    3    0    0  0.15848657897E+02 -0.18091263520E+02 -0.56387920409E+01  0.24703638372E+02  0.51100000000E-03 0. -1.
        -11    1    3    3    0    0  0.84579151594E+01  0.90567681062E+01  0.11128042480E+02  0.16655170580E+02  0.51100000000E-03 0.  1.
        -12    1    3    3    0    0 -0.21761722197E+02  0.97623162823E+00 -0.22200463477E+02  0.31102832022E+02  0.00000000000E+00 0.  1.
</event>
<event>
 7    1  0.3611369E-013  0.7246165E+02  0.7816164E-02  0.1226708E+00
        -11   -1    0    0    0    0  0.00000000000E+00  0.00000000000E+00  0.45593999997E+02  0.45594000000E+02  0.51100000000E-03 0.  1.
         11   -1    0    0    0    0 -0.00000000000E+00 -0.00000000000E+00 -0.45593999997E+02  0.45594000000E+02  0.51100000000E-03 0. -1.
    9900012    2    1    2    0    0 -0.12366071331E+02  0.13791896745E+02  0.27459486279E+01  0.72461645047E+02  0.70000097379E+02 0.  0.
        -12    1    1    2    0    0  0.12366071331E+02 -0.13791896745E+02 -0.27459486279E+01  0.18726354953E+02  0.00000000000E+00 0.  1.
         11    1    3    3    0    0 -0.23985857011E+01 -0.10173792441E+02 -0.19203282753E+02  0.21863790494E+02  0.51100000000E-03 0. -1.
        -11    1    3    3    0    0  0.14134877218E+02  0.52792219918E+01  0.69946922673E+01  0.16631014971E+02  0.51100000000E-03 0.  1.
        -12    1    3    3    0    0 -0.24102362847E+02  0.18686467194E+02  0.14954539114E+02  0.33966839581E+02  0.00000000000E+00 0.  1.
</event>
<event>
 7    1  0.3611369E-013  0.7246154E+02  0.7816164E-02  0.1226708E+00
        -11   -1    0    0    0    0  0.00000000000E+00  0.00000000000E+00  0.45593999997E+02  0.45594000000E+02  0.51100000000E-03 0.  1.
         11   -1    0    0    0    0 -0.00000000000E+00 -0.00000000000E+00 -0.45593999997E+02  0.45594000000E+02  0.51100000000E-03 0. -1.
    9900012    2    1    2    0    0 -0.35234081350E+01 -0.36442659778E+01 -0.18027349912E+02  0.72461536792E+02  0.69999956357E+02 0.  0.
        -12    1    1    2    0    0  0.35234081350E+01  0.36442659778E+01  0.18027349912E+02  0.18726463208E+02  0.00000000000E+00 0.  1.
         11    1    3    3    0    0 -0.22530652382E+02 -0.14135480945E+02 -0.26567582657E+02  0.37593597418E+02  0.51100000000E-03 0. -1.
        -11    1    3    3    0    0  0.45109389819E+01 -0.28806437191E+01 -0.76605636378E+01  0.93451010826E+01  0.51100000000E-03 0.  1.
        -12    1    3    3    0    0  0.14496305265E+02  0.13371858687E+02  0.16200796382E+02  0.25522838292E+02  0.00000000000E+00 0.  1.
</event>
<event>
 7    1  0.3611369E-013  0.7246158E+02  0.7816164E-02  0.1226708E+00
        -11   -1    0    0    0    0  0.00000000000E+00  0.00000000000E+00  0.45593999997E+02  0.45594000000E+02  0.51100000000E-03 0.  1.
         11   -1    0    0    0    0 -0.00000000000E+00 -0.00000000000E+00 -0.45593999997E+02  0.45594000000E+02  0.51100000000E-03 0. -1.
    9900012    2    1    2    0    0 -0.50630567717E+01 -0.17893795536E+02 -0.22037063251E+01  0.72461580584E+02  0.70000013405E+02 0.  0.
        -12    1    1    2    0    0  0.50630567717E+01  0.17893795536E+02  0.22037063251E+01  0.18726419416E+02  0.00000000000E+00 0.  1.
         11    1    3    3    0    0 -0.38610744642E+01 -0.47432093981E+01  0.36775823775E+01  0.71365638662E+01  0.51100000000E-03 0. -1.
        -11    1    3    3    0    0 -0.17809665352E+02 -0.18674224311E+02  0.20984899959E+02  0.33260740522E+02  0.51100000000E-03 0.  1.
         12    1    3    3    0    0  0.16607683044E+02  0.55236381730E+01 -0.26866188661E+02  0.32064276196E+02  0.00000000000E+00 0. -1.
</event>
<event>
 7    1  0.3611369E-013  0.7246133E+02  0.7816164E-02  0.1226709E+00
        -11   -1    0    0    0    0  0.00000000000E+00  0.00000000000E+00  0.45593999997E+02  0.45594000000E+02  0.51100000000E-03 0. -1.
         11   -1    0    0    0    0 -0.00000000000E+00 -0.00000000000E+00 -0.45593999997E+02  0.45594000000E+02  0.51100000000E-03 0.  1.
    9900012    2    1    2    0    0  0.10175428921E+02 -0.15404236210E+02  0.31397725390E+01  0.72461334025E+02  0.69999692215E+02 0.  0.
        -12    1    1    2    0    0 -0.10175428921E+02  0.15404236210E+02 -0.31397725390E+01  0.18726665975E+02  0.00000000000E+00 0.  1.
         11    1    3    3    0    0  0.10357598413E+02 -0.24197539950E+02  0.97312012187E+01  0.28062378052E+02  0.51100000000E-03 0. -1.
        -11    1    3    3    0    0 -0.93092177535E+01 -0.15426585872E+02 -0.30843793518E+01  0.18279892863E+02  0.51100000000E-03 0.  1.
        -12    1    3    3    0    0  0.91270482616E+01  0.24219889611E+02 -0.35070493279E+01  0.26119063110E+02  0.00000000000E+00 0.  1.
</event>
<event>
 7    1  0.3611369E-013  0.7246155E+02  0.7816164E-02  0.1226708E+00
        -11   -1    0    0    0    0  0.00000000000E+00  0.00000000000E+00  0.45593999997E+02  0.45594000000E+02  0.51100000000E-03 0.  1.
         11   -1    0    0    0    0 -0.00000000000E+00 -0.00000000000E+00 -0.45593999997E+02  0.45594000000E+02  0.51100000000E-03 0. -1.
    9900012    2    1    2    0    0  0.14380689421E+02  0.46462040922E+01 -0.11058411439E+02  0.72461550677E+02  0.69999974445E+02 0.  0.
        -12    1    1    2    0    0 -0.14380689421E+02 -0.46462040922E+01  0.11058411439E+02  0.18726449323E+02  0.00000000000E+00 0.  1.
         11    1    3    3    0    0  0.23679726108E+00 -0.10106092361E+02  0.58502782183E+01  0.11679680271E+02  0.51100000000E-03 0. -1.
        -11    1    3    3    0    0  0.33991038510E+02  0.17261921835E+02 -0.83722898159E+01  0.39031524201E+02  0.51100000000E-03 0.  1.
         12    1    3    3    0    0 -0.19847146350E+02 -0.25096253825E+01 -0.85363998409E+01  0.21750346205E+02  0.00000000000E+00 0. -1.
</event>
<event>
 7    1  0.3611369E-013  0.7246155E+02  0.7816164E-02  0.1226708E+00
        -11   -1    0    0    0    0  0.00000000000E+00  0.00000000000E+00  0.45593999997E+02  0.45594000000E+02  0.51100000000E-03 0.  1.
         11   -1    0    0    0    0 -0.00000000000E+00 -0.00000000000E+00 -0.45593999997E+02  0.45594000000E+02  0.51100000000E-03 0. -1.
    9900012    2    1    2    0    0  0.18717380999E+02  0.36651774235E+00 -0.45303712435E+00  0.72461550007E+02  0.69999973571E+02 0.  0.
        -12    1    1    2    0    0 -0.18717380999E+02 -0.36651774235E+00  0.45303712435E+00  0.18726449993E+02  0.00000000000E+00 0.  1.
         11    1    3    3    0    0  0.10328654462E+02 -0.27112155919E+01 -0.46237041830E+01  0.11636598885E+02  0.51100000000E-03 0. -1.
        -11    1    3    3    0    0  0.16138477538E+02 -0.37765139897E+01 -0.24931679178E+02  0.29938288896E+02  0.51100000000E-03 0.  1.
        -12    1    3    3    0    0 -0.77497510007E+01  0.68542473239E+01  0.29102346236E+02  0.30886662225E+02  0.00000000000E+00 0.  1.
</event>
<event>
 7    1  0.3611369E-013  0.7246153E+02  0.7816164E-02  0.1226708E+00
        -11   -1    0    0    0    0  0.00000000000E+00  0.00000000000E+00  0.45593999997E+02  0.45594000000E+02  0.51100000000E-03 0. -1.
         11   -1    0    0    0    0 -0.00000000000E+00 -0.00000000000E+00 -0.45593999997E+02  0.45594000000E+02  0.51100000000E-03 0.  1.
    9900012    2    1    2    0    0  0.11682136474E+02 -0.58022917630E+01  0.13436578698E+02  0.72461533451E+02  0.69999952005E+02 0.  0.
        -12    1    1    2    0    0 -0.11682136474E+02  0.58022917630E+01 -0.13436578698E+02  0.18726466549E+02  0.00000000000E+00 0.  1.
         11    1    3    3    0    0  0.72851461080E+01 -0.15909779148E+02  0.16279408255E+02  0.23900074472E+02  0.51100000000E-03 0. -1.
        -11    1    3    3    0    0  0.21540742130E+02  0.16465154076E+02  0.67113729549E+01  0.27931118800E+02  0.51100000000E-03 0.  1.
        -12    1    3    3    0    0 -0.17143751764E+02 -0.63576666903E+01 -0.95542025116E+01  0.20630340180E+02  0.00000000000E+00 0.  1.
</event>
<event>
 7    1  0.3611369E-013  0.7246159E+02  0.7816164E-02  0.1226708E+00
        -11   -1    0    0    0    0  0.00000000000E+00  0.00000000000E+00  0.45593999997E+02  0.45594000000E+02  0.51100000000E-03 0. -1.
         11   -1    0    0    0    0 -0.00000000000E+00 -0.00000000000E+00 -0.45593999997E+02  0.45594000000E+02  0.51100000000E-03 0.  1.
    9900012    2    1    2    0    0  0.20893180986E+01  0.80650864701E+01  0.16771038092E+02  0.72461585806E+02  0.70000020206E+02 0.  0.
        -12    1    1    2    0    0 -0.20893180986E+01 -0.80650864701E+01 -0.16771038092E+02  0.18726414194E+02  0.00000000000E+00 0.  1.
         11    1    3    3    0    0 -0.78197517671E+01 -0.33728097408E+01  0.13775294764E+01  0.86268158069E+01  0.51100000000E-03 0. -1.
        -11    1    3    3    0    0  0.14369926061E+02  0.72312345307E+01 -0.21266516891E+02  0.26665525849E+02  0.51100000000E-03 0.  1.
         12    1    3    3    0    0 -0.44608561955E+01  0.42066616801E+01  0.36660025507E+02  0.37169244150E+02  0.00000000000E+00 0. -1.
</event>
<event>
 7    1  0.5753464E-013  0.7246161E+02  0.7816164E-02  0.1226708E+00
        -11   -1    0    0    0    0  0.00000000000E+00  0.00000000000E+00  0.45593999997E+02  0.45594000000E+02  0.51100000000E-03 0. -1.
         11   -1    0    0    0    0 -0.00000000000E+00 -0.00000000000E+00 -0.45593999997E+02  0.45594000000E+02  0.51100000000E-03 0.  1.
    9900012    2    1    2    0    0  0.72172887193E+00  0.17620683902E+02  0.62982824350E+01  0.72461608053E+02  0.70000049187E+02 0.  0.
        -12    1    1    2    0    0 -0.72172887193E+00 -0.17620683902E+02 -0.62982824350E+01  0.18726391947E+02  0.00000000000E+00 0.  1.
         11    1    3    3    0    0 -0.72107101530E+01  0.15932107554E+02  0.12415312459E+02  0.21446826706E+02  0.51100000000E-03 0. -1.
        -11    1    3    3    0    0 -0.87898378146E+01  0.21468474520E+02 -0.91478780212E+01  0.24936726320E+02  0.51100000000E-03 0.  1.
        -12    1    3    3    0    0  0.16722276840E+02 -0.19779898172E+02  0.30308479971E+01  0.26078055027E+02  0.00000000000E+00 0.  1.
</event>
<event>
 7    1  0.3611369E-013  0.7246156E+02  0.7816164E-02  0.1226708E+00
        -11   -1    0    0    0    0  0.00000000000E+00  0.00000000000E+00  0.45593999997E+02  0.45594000000E+02  0.51100000000E-03 0. -1.
         11   -1    0    0    0    0 -0.00000000000E+00 -0.00000000000E+00 -0.45593999997E+02  0.45594000000E+02  0.51100000000E-03 0.  1.
    9900012    2    1    2    0    0  0.15293144961E+01 -0.18601116258E+02 -0.15294246041E+01  0.72461562312E+02  0.69999989602E+02 0.  0.
        -12    1    1    2    0    0 -0.15293144961E+01  0.18601116258E+02  0.15294246041E+01  0.18726437688E+02  0.00000000000E+00 0.  1.
         11    1    3    3    0    0  0.60633130184E+01  0.10472465046E+01 -0.11607618884E+01  0.62616178759E+01  0.51100000000E-03 0. -1.
        -11    1    3    3    0    0  0.17088628897E+02 -0.40064482288E+01 -0.24555234044E+02  0.30183313009E+02  0.51100000000E-03 0.  1.
         12    1    3    3    0    0 -0.21622627419E+02 -0.15641914533E+02  0.24186571328E+02  0.36016631427E+02  0.00000000000E+00 0. -1.
</event>
<event>
 7    1  0.3611369E-013  0.7246156E+02  0.7816164E-02  0.1226708E+00
        -11   -1    0    0    0    0  0.00000000000E+00  0.00000000000E+00  0.45593999997E+02  0.45594000000E+02  0.51100000000E-03 0. -1.
         11   -1    0    0    0    0 -0.00000000000E+00 -0.00000000000E+00 -0.45593999997E+02  0.45594000000E+02  0.51100000000E-03 0.  1.
    9900012    2    1    2    0    0 -0.17338089485E+02 -0.38092626223E+01  0.59631925623E+01  0.72461561624E+02  0.69999988705E+02 0.  0.
        -12    1    1    2    0    0  0.17338089485E+02  0.38092626223E+01 -0.59631925623E+01  0.18726438376E+02  0.00000000000E+00 0.  1.
         11    1    3    3    0    0 -0.32545975051E+01  0.10972929547E+01 -0.24352603299E+01  0.42103384525E+01  0.51100000000E-03 0. -1.
        -11    1    3    3    0    0 -0.21230841667E+01 -0.54537304945E+01 -0.28688590277E+02  0.29279444582E+02  0.51100000000E-03 0.  1.
         12    1    3    3    0    0 -0.11960407813E+02  0.54717491753E+00  0.37087043169E+02  0.38971778590E+02  0.00000000000E+00 0. -1.
</event>
<event>
 7    1  0.3611369E-013  0.7246154E+02  0.7816164E-02  0.1226708E+00
        -11   -1    0    0    0    0  0.00000000000E+00  0.00000000000E+00  0.45593999997E+02  0.45594000000E+02  0.51100000000E-03 0.  1.
         11   -1    0    0    0    0 -0.00000000000E+00 -0.00000000000E+00 -0.45593999997E+02  0.45594000000E+02  0.51100000000E-03 0. -1.
    9900012    2    1    2    0    0 -0.45211008734E+01  0.62397960779E+01 -0.17067654387E+02  0.72461541860E+02  0.69999962958E+02 0.  0.
        -12    1    1    2    0    0  0.45211008734E+01 -0.62397960779E+01  0.17067654387E+02  0.18726458140E+02  0.00000000000E+00 0.  1.
         11    1    3    3    0    0  0.12623464589E+02 -0.78711330789E+01 -0.87262061377E+01  0.17246833564E+02  0.51100000000E-03 0. -1.
        -11    1    3    3    0    0  0.29778673398E+01 -0.16882283993E+02 -0.60940805900E+01  0.18193873288E+02  0.51100000000E-03 0.  1.
        -12    1    3    3    0    0 -0.20122432802E+02  0.30993213150E+02 -0.22473676597E+01  0.37020835007E+02  0.00000000000E+00 0.  1.
</event>
<event>
 7    1  0.3611369E-013  0.7246156E+02  0.7816164E-02  0.1226708E+00
        -11   -1    0    0    0    0  0.00000000000E+00  0.00000000000E+00  0.45593999997E+02  0.45594000000E+02  0.51100000000E-03 0.  1.
         11   -1    0    0    0    0 -0.00000000000E+00 -0.00000000000E+00 -0.45593999997E+02  0.45594000000E+02  0.51100000000E-03 0. -1.
    9900012    2    1    2    0    0 -0.10354326209E+02  0.15351786076E+02 -0.27911033137E+01  0.72461557073E+02  0.69999982777E+02 0.  0.
        -12    1    1    2    0    0  0.10354326209E+02 -0.15351786076E+02  0.27911033137E+01  0.18726442927E+02  0.00000000000E+00 0.  1.
         11    1    3    3    0    0  0.80177549074E+01  0.58238613379E+01  0.82762943857E+01  0.12911189088E+02  0.51100000000E-03 0. -1.
        -11    1    3    3    0    0  0.30604573585E+00 -0.14249864475E+02  0.14219771106E+02  0.20133409848E+02  0.51100000000E-03 0.  1.
         12    1    3    3    0    0 -0.18678126853E+02  0.23777789213E+02 -0.25287168806E+02  0.39416958137E+02  0.00000000000E+00 0. -1.
</event>
<event>
 7    1  0.3611369E-013  0.7246160E+02  0.7816164E-02  0.1226708E+00
        -11   -1    0    0    0    0  0.00000000000E+00  0.00000000000E+00  0.45593999997E+02  0.45594000000E+02  0.51100000000E-03 0.  1.
         11   -1    0    0    0    0 -0.00000000000E+00 -0.00000000000E+00 -0.45593999997E+02  0.45594000000E+02  0.51100000000E-03 0. -1.
    9900012    2    1    2    0    0  0.11863050818E+02 -0.14161288567E+02 -0.30665836708E+01  0.72461601414E+02  0.70000040539E+02 0.  0.
        -12    1    1    2    0    0 -0.11863050818E+02  0.14161288567E+02  0.30665836708E+01  0.18726398586E+02  0.00000000000E+00 0.  1.
         11    1    3    3    0    0 -0.73902059116E+01 -0.60549715620E+00  0.48886771065E+01  0.88814939247E+01  0.51100000000E-03 0. -1.
        -11    1    3    3    0    0  0.62072093408E+01  0.20058508606E+02  0.10049037872E+02  0.23277808697E+02  0.51100000000E-03 0.  1.
         12    1    3    3    0    0  0.13046047389E+02 -0.33614300017E+02 -0.18004298649E+02  0.40302298792E+02  0.00000000000E+00 0. -1.
</event>
<event>
 7    1  0.3611369E-013  0.7246154E+02  0.7816164E-02  0.1226708E+00
        -11   -1    0    0    0    0  0.00000000000E+00  0.00000000000E+00  0.45593999997E+02  0.45594000000E+02  0.51100000000E-03 0. -1.
         11   -1    0    0    0    0 -0.00000000000E+00 -0.00000000000E+00 -0.45593999997E+02  0.45594000000E+02  0.51100000000E-03 0.  1.
    9900012    2    1    2    0    0 -0.32221821061E+01 -0.18271706379E+02 -0.25382011293E+01  0.72461543408E+02  0.69999964975E+02 0.  0.
        -12    1    1    2    0    0  0.32221821061E+01  0.18271706379E+02  0.25382011293E+01  0.18726456592E+02  0.00000000000E+00 0.  1.
         11    1    3    3    0    0 -0.39887301618E+00  0.37682093993E+01 -0.38546931944E+01  0.54052901535E+01  0.51100000000E-03 0. -1.
        -11    1    3    3    0    0  0.14864729272E+02 -0.62429626710E+01 -0.26179609830E+02  0.30745840863E+02  0.51100000000E-03 0.  1.
         12    1    3    3    0    0 -0.17688038362E+02 -0.15796953107E+02  0.27496101896E+02  0.36310412391E+02  0.00000000000E+00 0. -1.
</event>
<event>
 7    1  0.3611369E-013  0.7246159E+02  0.7816164E-02  0.1226708E+00
        -11   -1    0    0    0    0  0.00000000000E+00  0.00000000000E+00  0.45593999997E+02  0.45594000000E+02  0.51100000000E-03 0.  1.
         11   -1    0    0    0    0 -0.00000000000E+00 -0.00000000000E+00 -0.45593999997E+02  0.45594000000E+02  0.51100000000E-03 0. -1.
    9900012    2    1    2    0    0 -0.90156913490E+01 -0.14698184075E+02 -0.73047232470E+01  0.72461593849E+02  0.70000030685E+02 0.  0.
        -12    1    1    2    0    0  0.90156913490E+01  0.14698184075E+02  0.73047232470E+01  0.18726406151E+02  0.00000000000E+00 0.  1.
         11    1    3    3    0    0 -0.72091604030E+01 -0.83798940405E+01 -0.25098910532E+02  0.27425351922E+02  0.51100000000E-03 0. -1.
        -11    1    3    3    0    0 -0.17070642630E+02 -0.81872936725E+01 -0.30049463588E+01  0.19169463225E+02  0.51100000000E-03 0.  1.
        -12    1    3    3    0    0  0.15264111684E+02  0.18690036379E+01  0.20799133644E+02  0.25866778702E+02  0.00000000000E+00 0.  1.
</event>
<event>
 7    1  0.3611369E-013  0.7246153E+02  0.7816164E-02  0.1226708E+00
        -11   -1    0    0    0    0  0.00000000000E+00  0.00000000000E+00  0.45593999997E+02  0.45594000000E+02  0.51100000000E-03 0. -1.
         11   -1    0    0    0    0 -0.00000000000E+00 -0.00000000000E+00 -0.45593999997E+02  0.45594000000E+02  0.51100000000E-03 0.  1.
    9900012    2    1    2    0    0  0.16246285187E+02 -0.84465234630E+01  0.39236480120E+01  0.72461533309E+02  0.69999951820E+02 0.  0.
        -12    1    1    2    0    0 -0.16246285187E+02  0.84465234630E+01 -0.39236480120E+01  0.18726466691E+02  0.00000000000E+00 0.  1.
         11    1    3    3    0    0 -0.66261723446E+01 -0.95711877642E+01  0.52216168183E+01  0.12758490413E+02  0.51100000000E-03 0. -1.
        -11    1    3    3    0    0  0.10776464487E+02 -0.26391731850E+02  0.51317659600E+01  0.28965336508E+02  0.51100000000E-03 0.  1.
         12    1    3    3    0    0  0.12095993045E+02  0.27516396151E+02 -0.64297347663E+01  0.30737706389E+02  0.00000000000E+00 0. -1.
</event>
<event>
 7    1  0.3611369E-013  0.7246155E+02  0.7816164E-02  0.1226708E+00
        -11   -1    0    0    0    0  0.00000000000E+00  0.00000000000E+00  0.45593999997E+02  0.45594000000E+02  0.51100000000E-03 0.  1.
         11   -1    0    0    0    0 -0.00000000000E+00 -0.00000000000E+00 -0.45593999997E+02  0.45594000000E+02  0.51100000000E-03 0. -1.
    9900012    2    1    2    0    0  0.61499096698E+01 -0.46100060353E+01 -0.17076483196E+02  0.72461552848E+02  0.69999977273E+02 0.  0.
        -12    1    1    2    0    0 -0.61499096698E+01  0.46100060353E+01  0.17076483196E+02  0.18726447152E+02  0.00000000000E+00 0.  1.
         11    1    3    3    0    0 -0.10198355590E+02 -0.11227673954E+02  0.66573893359E+01  0.16564659736E+02  0.51100000000E-03 0. -1.
        -11    1    3    3    0    0  0.60113889610E+01  0.13485211769E+02  0.11388578986E+02  0.18646379414E+02  0.51100000000E-03 0.  1.
         12    1    3    3    0    0  0.10336876299E+02 -0.68675438504E+01 -0.35122451517E+02  0.37250513698E+02  0.00000000000E+00 0. -1.
</event>
<event>
 7    1  0.3611369E-013  0.7246161E+02  0.7816164E-02  0.1226708E+00
        -11   -1    0    0    0    0  0.00000000000E+00  0.00000000000E+00  0.45593999997E+02  0.45594000000E+02  0.51100000000E-03 0. -1.
         11   -1    0    0    0    0 -0.00000000000E+00 -0.00000000000E+00 -0.45593999997E+02  0.45594000000E+02  0.51100000000E-03 0.  1.
    9900012    2    1    2    0    0  0.10643563622E+01 -0.14591381544E+02  0.11689152297E+02  0.72461613502E+02  0.70000056286E+02 0.  0.
        -12    1    1    2    0    0 -0.10643563622E+01  0.14591381544E+02 -0.11689152297E+02  0.18726386498E+02  0.00000000000E+00 0.  1.
         11    1    3    3    0    0  0.16334634733E+02  0.47156353705E+01  0.46698641840E+01  0.17631368085E+02  0.51100000000E-03 0. -1.
        -11    1    3    3    0    0 -0.16024121705E+02  0.21624262469E+01 -0.16413555903E+02  0.23040255670E+02  0.51100000000E-03 0.  1.
         12    1    3    3    0    0  0.75384333440E+00 -0.21469443162E+02  0.23432844016E+02  0.31789989747E+02  0.00000000000E+00 0. -1.
</event>
<event>
 7    1  0.3611369E-013  0.7246152E+02  0.7816164E-02  0.1226708E+00
        -11   -1    0    0    0    0  0.00000000000E+00  0.00000000000E+00  0.45593999997E+02  0.45594000000E+02  0.51100000000E-03 0.  1.
         11   -1    0    0    0    0 -0.00000000000E+00 -0.00000000000E+00 -0.45593999997E+02  0.45594000000E+02  0.51100000000E-03 0. -1.
    9900012    2    1    2    0    0 -0.16493243814E+02 -0.79228036347E+00  0.88332490134E+01  0.72461519076E+02  0.69999933278E+02 0.  0.
        -12    1    1    2    0    0  0.16493243814E+02  0.79228036347E+00 -0.88332490134E+01  0.18726480924E+02  0.00000000000E+00 0.  1.
         11    1    3    3    0    0 -0.23566117594E+02 -0.17161211019E+02 -0.18870812287E+02  0.34727174067E+02  0.51100000000E-03 0. -1.
        -11    1    3    3    0    0 -0.39059559796E+01  0.42717919457E+01  0.25762857558E+00  0.57940548225E+01  0.51100000000E-03 0.  1.
        -12    1    3    3    0    0  0.10978829760E+02  0.12097138709E+02  0.27446432725E+02  0.31940290186E+02  0.00000000000E+00 0.  1.
</event>
<event>
 7    1  0.3611369E-013  0.7246158E+02  0.7816164E-02  0.1226708E+00
        -11   -1    0    0    0    0  0.00000000000E+00  0.00000000000E+00  0.45593999997E+02  0.45594000000E+02  0.51100000000E-03 0.  1.
         11   -1    0    0    0    0 -0.00000000000E+00 -0.00000000000E+00 -0.45593999997E+02  0.45594000000E+02  0.51100000000E-03 0. -1.
    9900012    2    1    2    0    0 -0.10899155994E+02  0.45178118634E+01 -0.14542234004E+02  0.72461580288E+02  0.70000013018E+02 0.  0.
        -12    1    1    2    0    0  0.10899155994E+02 -0.45178118634E+01  0.14542234004E+02  0.18726419712E+02  0.00000000000E+00 0.  1.
         11    1    3    3    0    0  0.28031862365E+01 -0.55278270665E+01  0.76432733539E+00  0.62449116639E+01  0.51100000000E-03 0. -1.
        -11    1    3    3    0    0 -0.11049372515E+02  0.19765822423E+02  0.19560447375E+02  0.29923025763E+02  0.51100000000E-03 0.  1.
         12    1    3    3    0    0 -0.26529697158E+01 -0.97201834936E+01 -0.34867008714E+02  0.36293642861E+02  0.00000000000E+00 0. -1.
</event>
<event>
 7    1  0.3611369E-013  0.7246141E+02  0.7816164E-02  0.1226708E+00
        -11   -1    0    0    0    0  0.00000000000E+00  0.00000000000E+00  0.45593999997E+02  0.45594000000E+02  0.51100000000E-03 0. -1.
         11   -1    0    0    0    0 -0.00000000000E+00 -0.00000000000E+00 -0.45593999997E+02  0.45594000000E+02  0.51100000000E-03 0.  1.
    9900012    2    1    2    0    0 -0.12300417828E+02  0.11389846354E+02  0.83460237480E+01  0.72461414858E+02  0.69999797515E+02 0.  0.
        -12    1    1    2    0    0  0.12300417828E+02 -0.11389846354E+02 -0.83460237480E+01  0.18726585142E+02  0.00000000000E+00 0.  1.
         11    1    3    3    0    0 -0.56447676510E+01  0.76760165081E+01  0.93205644329E+01  0.13328824137E+02  0.51100000000E-03 0. -1.
        -11    1    3    3    0    0  0.47587904090E+01  0.25680154256E+02  0.14565303197E+02  0.29904254985E+02  0.51100000000E-03 0.  1.
         12    1    3    3    0    0 -0.11414440586E+02 -0.21966324410E+02 -0.15539843882E+02  0.29228335735E+02  0.00000000000E+00 0. -1.
</event>
<event>
 7    1  0.3611369E-013  0.7246155E+02  0.7816164E-02  0.1226708E+00
        -11   -1    0    0    0    0  0.00000000000E+00  0.00000000000E+00  0.45593999997E+02  0.45594000000E+02  0.51100000000E-03 0.  1.
         11   -1    0    0    0    0 -0.00000000000E+00 -0.00000000000E+00 -0.45593999997E+02  0.45594000000E+02  0.51100000000E-03 0. -1.
    9900012    2    1    2    0    0  0.44986651102E+01 -0.91637562625E+01 -0.15699282369E+02  0.72461551231E+02  0.69999975166E+02 0.  0.
        -12    1    1    2    0    0 -0.44986651102E+01  0.91637562625E+01  0.15699282369E+02  0.18726448769E+02  0.00000000000E+00 0.  1.
         11    1    3    3    0    0  0.35632014055E+01 -0.93195761548E+00 -0.48206971719E+01  0.60666358665E+01  0.51100000000E-03 0. -1.
        -11    1    3    3    0    0  0.25127092009E+02 -0.24999685378E+02 -0.10463861429E+02  0.36957372987E+02  0.51100000000E-03 0.  1.
         12    1    3    3    0    0 -0.24191628304E+02  0.16767886731E+02 -0.41472376806E+00  0.29437542378E+02  0.00000000000E+00 0. -1.
</event>
<event>
 7    1  0.3611369E-013  0.7246167E+02  0.7816164E-02  0.1226708E+00
        -11   -1    0    0    0    0  0.00000000000E+00  0.00000000000E+00  0.45593999997E+02  0.45594000000E+02  0.51100000000E-03 0.  1.
         11   -1    0    0    0    0 -0.00000000000E+00 -0.00000000000E+00 -0.45593999997E+02  0.45594000000E+02  0.51100000000E-03 0. -1.
    9900012    2    1    2    0    0 -0.45446743095E+01 -0.14191639468E+01 -0.18110976467E+02  0.72461666684E+02  0.70000125565E+02 0.  0.
        -12    1    1    2    0    0  0.45446743095E+01  0.14191639468E+01  0.18110976467E+02  0.18726333316E+02  0.00000000000E+00 0.  1.
         11    1    3    3    0    0 -0.13765676377E+02 -0.69764763766E+01 -0.13272641844E+02  0.20355050738E+02  0.51100000000E-03 0. -1.
        -11    1    3    3    0    0 -0.12688600189E+02  0.12723403721E+02 -0.18106230236E+02  0.25509236575E+02  0.51100000000E-03 0.  1.
         12    1    3    3    0    0  0.21909602256E+02 -0.71660912915E+01  0.13267895613E+02  0.26597379371E+02  0.00000000000E+00 0. -1.
</event>
<event>
 7    1  0.3611369E-013  0.7246157E+02  0.7816164E-02  0.1226708E+00
        -11   -1    0    0    0    0  0.00000000000E+00  0.00000000000E+00  0.45593999997E+02  0.45594000000E+02  0.51100000000E-03 0.  1.
         11   -1    0    0    0    0 -0.00000000000E+00 -0.00000000000E+00 -0.45593999997E+02  0.45594000000E+02  0.51100000000E-03 0. -1.
    9900012    2    1    2    0    0 -0.12767077627E+02 -0.65812950247E+01 -0.12015298572E+02  0.72461571747E+02  0.70000001892E+02 0.  0.
        -12    1    1    2    0    0  0.12767077627E+02  0.65812950247E+01  0.12015298572E+02  0.18726428253E+02  0.00000000000E+00 0.  1.
         11    1    3    3    0    0 -0.11080363965E+02  0.93651356943E+01 -0.37803411862E+01  0.14992371791E+02  0.51100000000E-03 0. -1.
        -11    1    3    3    0    0  0.18177682447E+01 -0.27058667932E+02  0.15350433284E+02  0.31162663460E+02  0.51100000000E-03 0.  1.
         12    1    3    3    0    0 -0.35044819065E+01  0.11112237213E+02 -0.23585390670E+02  0.26306536495E+02  0.00000000000E+00 0. -1.
</event>
<event>
 7    1  0.3611369E-013  0.7246213E+02  0.7816164E-02  0.1226707E+00
        -11   -1    0    0    0    0  0.00000000000E+00  0.00000000000E+00  0.45593999997E+02  0.45594000000E+02  0.51100000000E-03 0.  1.
         11   -1    0    0    0    0 -0.00000000000E+00 -0.00000000000E+00 -0.45593999997E+02  0.45594000000E+02  0.51100000000E-03 0. -1.
    9900012    2    1    2    0    0  0.10689026073E+02  0.63770324863E+01 -0.13990575583E+02  0.72462134816E+02  0.70000735391E+02 0.  0.
        -12    1    1    2    0    0 -0.10689026073E+02 -0.63770324863E+01  0.13990575583E+02  0.18725865184E+02  0.00000000000E+00 0.  1.
         11    1    3    3    0    0 -0.98947211480E+01  0.81232295999E+01 -0.72476857776E+01  0.14711264906E+02  0.51100000000E-03 0. -1.
        -11    1    3    3    0    0 -0.19625216413E+01 -0.14861944096E+02  0.16868911373E+02  0.22567433276E+02  0.51100000000E-03 0.  1.
         12    1    3    3    0    0  0.22546268862E+02  0.13115746983E+02 -0.23611801179E+02  0.35183436635E+02  0.00000000000E+00 0. -1.
</event>
<event>
 7    1  0.3611369E-013  0.7246153E+02  0.7816164E-02  0.1226708E+00
        -11   -1    0    0    0    0  0.00000000000E+00  0.00000000000E+00  0.45593999997E+02  0.45594000000E+02  0.51100000000E-03 0. -1.
         11   -1    0    0    0    0 -0.00000000000E+00 -0.00000000000E+00 -0.45593999997E+02  0.45594000000E+02  0.51100000000E-03 0.  1.
    9900012    2    1    2    0    0 -0.18156200394E+02  0.20056158346E+01  0.41243719110E+01  0.72461533401E+02  0.69999951939E+02 0.  0.
        -12    1    1    2    0    0  0.18156200394E+02 -0.20056158346E+01 -0.41243719110E+01  0.18726466599E+02  0.00000000000E+00 0.  1.
         11    1    3    3    0    0 -0.24148882861E+02 -0.17878575220E+02 -0.96354308502E+01  0.31553977931E+02  0.51100000000E-03 0.  1.
        -11    1    3    3    0    0 -0.29699106414E+00 -0.89528870698E+01  0.23226405344E+01  0.92540288464E+01  0.51100000000E-03 0. -1.
        -12    1    3    3    0    0  0.62896735306E+01  0.28837078125E+02  0.11437162227E+02  0.31653526623E+02  0.00000000000E+00 0.  1.
</event>
<event>
 7    1  0.3611369E-013  0.7246159E+02  0.7816164E-02  0.1226708E+00
        -11   -1    0    0    0    0  0.00000000000E+00  0.00000000000E+00  0.45593999997E+02  0.45594000000E+02  0.51100000000E-03 0.  1.
         11   -1    0    0    0    0 -0.00000000000E+00 -0.00000000000E+00 -0.45593999997E+02  0.45594000000E+02  0.51100000000E-03 0. -1.
    9900012    2    1    2    0    0  0.18614141326E+02  0.10354537437E+01  0.17663837107E+01  0.72461587285E+02  0.70000022133E+02 0.  0.
        -12    1    1    2    0    0 -0.18614141326E+02 -0.10354537437E+01 -0.17663837107E+01  0.18726412715E+02  0.00000000000E+00 0.  1.
         11    1    3    3    0    0  0.20882739391E+02 -0.37363554125E+01 -0.20074624197E+02  0.29206843258E+02  0.51100000000E-03 0. -1.
        -11    1    3    3    0    0 -0.62222010002E+01 -0.14310673610E+02  0.25098176027E+01  0.15805389876E+02  0.51100000000E-03 0.  1.
         12    1    3    3    0    0  0.39536029358E+01  0.19082482766E+02  0.19331190305E+02  0.27449354151E+02  0.00000000000E+00 0. -1.
</event>
<event>
 7    1  0.3611369E-013  0.7246156E+02  0.7816164E-02  0.1226708E+00
        -11   -1    0    0    0    0  0.00000000000E+00  0.00000000000E+00  0.45593999997E+02  0.45594000000E+02  0.51100000000E-03 0.  1.
         11   -1    0    0    0    0 -0.00000000000E+00 -0.00000000000E+00 -0.45593999997E+02  0.45594000000E+02  0.51100000000E-03 0. -1.
    9900012    2    1    2    0    0 -0.15943396647E+02 -0.10138326542E+00 -0.98222965768E+01  0.72461556524E+02  0.69999982062E+02 0.  0.
        -12    1    1    2    0    0  0.15943396647E+02  0.10138326542E+00  0.98222965768E+01  0.18726443476E+02  0.00000000000E+00 0.  1.
         11    1    3    3    0    0  0.81719159950E+01 -0.83742262601E+01 -0.74216251664E+01  0.13855987762E+02  0.51100000000E-03 0. -1.
        -11    1    3    3    0    0 -0.23580437312E+02 -0.13475424334E+02 -0.17333155739E+02  0.32218975355E+02  0.51100000000E-03 0.  1.
         12    1    3    3    0    0 -0.53487532941E+00  0.21748267328E+02  0.14932484329E+02  0.26386593407E+02  0.00000000000E+00 0. -1.
</event>
<event>
 7    1  0.3611369E-013  0.7246155E+02  0.7816164E-02  0.1226708E+00
        -11   -1    0    0    0    0  0.00000000000E+00  0.00000000000E+00  0.45593999997E+02  0.45594000000E+02  0.51100000000E-03 0.  1.
         11   -1    0    0    0    0 -0.00000000000E+00 -0.00000000000E+00 -0.45593999997E+02  0.45594000000E+02  0.51100000000E-03 0. -1.
    9900012    2    1    2    0    0  0.15440242028E+02  0.15018412671E+01  0.10489207241E+02  0.72461546261E+02  0.69999968693E+02 0.  0.
        -12    1    1    2    0    0 -0.15440242028E+02 -0.15018412671E+01 -0.10489207241E+02  0.18726453739E+02  0.00000000000E+00 0.  1.
         11    1    3    3    0    0  0.32545568847E+01 -0.49485929258E+01  0.17777162993E+02  0.18737882399E+02  0.51100000000E-03 0. -1.
        -11    1    3    3    0    0  0.10098415377E+02  0.15956156562E+02  0.18331672516E+02  0.26317810373E+02  0.51100000000E-03 0.  1.
         12    1    3    3    0    0  0.20872697667E+01 -0.95057223686E+01 -0.25619628269E+02  0.27405853489E+02  0.00000000000E+00 0. -1.
</event>
<event>
 7    1  0.3611369E-013  0.7246138E+02  0.7816164E-02  0.1226709E+00
        -11   -1    0    0    0    0  0.00000000000E+00  0.00000000000E+00  0.45593999997E+02  0.45594000000E+02  0.51100000000E-03 0.  1.
         11   -1    0    0    0    0 -0.00000000000E+00 -0.00000000000E+00 -0.45593999997E+02  0.45594000000E+02  0.51100000000E-03 0. -1.
    9900012    2    1    2    0    0  0.28568224415E+01  0.11165413119E+01 -0.18473717604E+02  0.72461378814E+02  0.69999750560E+02 0.  0.
        -12    1    1    2    0    0 -0.28568224415E+01 -0.11165413119E+01  0.18473717604E+02  0.18726621186E+02  0.00000000000E+00 0.  1.
         11    1    3    3    0    0  0.19985186848E+02 -0.14809201681E+02 -0.21569053719E+02  0.32923308254E+02  0.51100000000E-03 0. -1.
        -11    1    3    3    0    0 -0.74090337404E+01 -0.65548790746E+01 -0.79305953100E+01  0.12678902274E+02  0.51100000000E-03 0.  1.
        -12    1    3    3    0    0 -0.97193306659E+01  0.22480622068E+02  0.11025931426E+02  0.26859168285E+02  0.00000000000E+00 0.  1.
</event>
<event>
 7    1  0.3611369E-013  0.7246116E+02  0.7816164E-02  0.1226709E+00
        -11   -1    0    0    0    0  0.00000000000E+00  0.00000000000E+00  0.45593999997E+02  0.45594000000E+02  0.51100000000E-03 0. -1.
         11   -1    0    0    0    0 -0.00000000000E+00 -0.00000000000E+00 -0.45593999997E+02  0.45594000000E+02  0.51100000000E-03 0.  1.
    9900012    2    1    2    0    0 -0.14690872436E+02  0.11388185543E+02  0.22764298981E+01  0.72461157341E+02  0.69999462049E+02 0.  0.
        -12    1    1    2    0    0  0.14690872436E+02 -0.11388185543E+02 -0.22764298981E+01  0.18726842659E+02  0.00000000000E+00 0.  1.
         11    1    3    3    0    0 -0.16157527743E+02  0.29467889426E+02 -0.28403016837E+01  0.33726688600E+02  0.51100000000E-03 0. -1.
        -11    1    3    3    0    0 -0.15496449947E+02 -0.13514189527E+02  0.48417644087E+00  0.20567151155E+02  0.51100000000E-03 0.  1.
        -12    1    3    3    0    0  0.16963105253E+02 -0.45655143552E+01  0.46325551409E+01  0.18167317586E+02  0.00000000000E+00 0.  1.
</event>
<event>
 7    1  0.3611369E-013  0.7246174E+02  0.7816164E-02  0.1226708E+00
        -11   -1    0    0    0    0  0.00000000000E+00  0.00000000000E+00  0.45593999997E+02  0.45594000000E+02  0.51100000000E-03 0. -1.
         11   -1    0    0    0    0 -0.00000000000E+00 -0.00000000000E+00 -0.45593999997E+02  0.45594000000E+02  0.51100000000E-03 0.  1.
    9900012    2    1    2    0    0  0.86895586593E+01 -0.10431384563E+02  0.12897695155E+02  0.72461741593E+02  0.70000223149E+02 0.  0.
        -12    1    1    2    0    0 -0.86895586593E+01  0.10431384563E+02 -0.12897695155E+02  0.18726258407E+02  0.00000000000E+00 0.  1.
         11    1    3    3    0    0  0.65592533084E+01 -0.99471955495E+00 -0.20281478185E+02  0.21338969717E+02  0.51100000000E-03 0. -1.
        -11    1    3    3    0    0  0.14449851884E+02  0.70677486328E+00  0.18079580350E+00  0.14468256203E+02  0.51100000000E-03 0.  1.
         12    1    3    3    0    0 -0.12319546533E+02 -0.10143439871E+02  0.32998377537E+02  0.36654515673E+02  0.00000000000E+00 0. -1.
</event>
<event>
 7    1  0.3611369E-013  0.7246154E+02  0.7816164E-02  0.1226708E+00
        -11   -1    0    0    0    0  0.00000000000E+00  0.00000000000E+00  0.45593999997E+02  0.45594000000E+02  0.51100000000E-03 0.  1.
         11   -1    0    0    0    0 -0.00000000000E+00 -0.00000000000E+00 -0.45593999997E+02  0.45594000000E+02  0.51100000000E-03 0. -1.
    9900012    2    1    2    0    0  0.16457007804E+02 -0.75905962894E+01  0.47148691514E+01  0.72461541472E+02  0.69999962454E+02 0.  0.
        -12    1    1    2    0    0 -0.16457007804E+02  0.75905962894E+01 -0.47148691514E+01  0.18726458528E+02  0.00000000000E+00 0.  1.
         11    1    3    3    0    0  0.13022210197E+02 -0.65736627872E+01 -0.14234659878E+02  0.20381769868E+02  0.51100000000E-03 0. -1.
        -11    1    3    3    0    0  0.25405153693E+02  0.42349623768E+01  0.79503526488E+01  0.26954866870E+02  0.51100000000E-03 0.  1.
         12    1    3    3    0    0 -0.21970356086E+02 -0.52518958790E+01  0.10999176380E+02  0.25124904734E+02  0.00000000000E+00 0. -1.
</event>
<event>
 7    1  0.3611369E-013  0.7246153E+02  0.7816164E-02  0.1226708E+00
        -11   -1    0    0    0    0  0.00000000000E+00  0.00000000000E+00  0.45593999997E+02  0.45594000000E+02  0.51100000000E-03 0.  1.
         11   -1    0    0    0    0 -0.00000000000E+00 -0.00000000000E+00 -0.45593999997E+02  0.45594000000E+02  0.51100000000E-03 0. -1.
    9900012    2    1    2    0    0  0.82038241161E+01  0.16806268082E+02 -0.96298824774E+00  0.72461528807E+02  0.69999945956E+02 0.  0.
        -12    1    1    2    0    0 -0.82038241161E+01 -0.16806268082E+02  0.96298824774E+00  0.18726471193E+02  0.00000000000E+00 0.  1.
         11    1    3    3    0    0  0.18277873265E+01  0.20667872794E+01  0.46777459698E+01  0.54308124427E+01  0.51100000000E-03 0. -1.
        -11    1    3    3    0    0  0.27031838803E+02  0.29674716065E+02  0.26450029796E+01  0.40228163314E+02  0.51100000000E-03 0.  1.
         12    1    3    3    0    0 -0.20655802013E+02 -0.14935235262E+02 -0.82857371971E+01  0.26802553051E+02  0.00000000000E+00 0. -1.
</event>
<event>
 7    1  0.3611369E-013  0.7246157E+02  0.7816164E-02  0.1226708E+00
        -11   -1    0    0    0    0  0.00000000000E+00  0.00000000000E+00  0.45593999997E+02  0.45594000000E+02  0.51100000000E-03 0. -1.
         11   -1    0    0    0    0 -0.00000000000E+00 -0.00000000000E+00 -0.45593999997E+02  0.45594000000E+02  0.51100000000E-03 0.  1.
    9900012    2    1    2    0    0 -0.18244344232E+02 -0.39945152137E+01 -0.13663212930E+01  0.72461572628E+02  0.70000003040E+02 0.  0.
        -12    1    1    2    0    0  0.18244344232E+02  0.39945152137E+01  0.13663212930E+01  0.18726427372E+02  0.00000000000E+00 0.  1.
         11    1    3    3    0    0  0.10814976286E+02  0.12572092057E+02  0.12035501734E+02  0.20490839734E+02  0.51100000000E-03 0. -1.
        -11    1    3    3    0    0  0.40438160984E+01 -0.26222107158E+01  0.85923626605E+01  0.98517579155E+01  0.51100000000E-03 0.  1.
        -12    1    3    3    0    0 -0.33103136616E+02 -0.13944396555E+02 -0.21994185688E+02  0.42118974978E+02  0.00000000000E+00 0.  1.
</event>
<event>
 7    1  0.3611369E-013  0.7246145E+02  0.7816164E-02  0.1226708E+00
        -11   -1    0    0    0    0  0.00000000000E+00  0.00000000000E+00  0.45593999997E+02  0.45594000000E+02  0.51100000000E-03 0. -1.
         11   -1    0    0    0    0 -0.00000000000E+00 -0.00000000000E+00 -0.45593999997E+02  0.45594000000E+02  0.51100000000E-03 0.  1.
    9900012    2    1    2    0    0 -0.80107447475E+01  0.10682543873E+02  0.13129926820E+02  0.72461447907E+02  0.69999840567E+02 0.  0.
        -12    1    1    2    0    0  0.80107447475E+01 -0.10682543873E+02 -0.13129926820E+02  0.18726552093E+02  0.00000000000E+00 0.  1.
         11    1    3    3    0    0  0.93116340292E+00  0.73656844861E+01  0.50394339573E+01  0.89730857626E+01  0.51100000000E-03 0. -1.
        -11    1    3    3    0    0  0.21451451517E+02  0.19083800591E+02  0.44774112250E+01  0.29058620558E+02  0.51100000000E-03 0.  1.
        -12    1    3    3    0    0 -0.30393359667E+02 -0.15766941205E+02  0.36130816377E+01  0.34429741587E+02  0.00000000000E+00 0.  1.
</event>
<event>
 7    1  0.3611369E-013  0.7246146E+02  0.7816164E-02  0.1226708E+00
        -11   -1    0    0    0    0  0.00000000000E+00  0.00000000000E+00  0.45593999997E+02  0.45594000000E+02  0.51100000000E-03 0.  1.
         11   -1    0    0    0    0 -0.00000000000E+00 -0.00000000000E+00 -0.45593999997E+02  0.45594000000E+02  0.51100000000E-03 0. -1.
    9900012    2    1    2    0    0  0.22529762808E+01 -0.12558804983E+01 -0.18548048772E+02  0.72461461313E+02  0.69999858031E+02 0.  0.
        -12    1    1    2    0    0 -0.22529762808E+01  0.12558804983E+01  0.18548048772E+02  0.18726538687E+02  0.00000000000E+00 0.  1.
         11    1    3    3    0    0  0.10842575720E+02 -0.28309266595E+02 -0.20023239389E+02  0.36330512511E+02  0.51100000000E-03 0. -1.
        -11    1    3    3    0    0  0.45294372733E+01  0.29136567188E+01 -0.55905031876E+01  0.77626621490E+01  0.51100000000E-03 0.  1.
        -12    1    3    3    0    0 -0.13119036712E+02  0.24139729378E+02  0.70656938042E+01  0.28368286653E+02  0.00000000000E+00 0.  1.
</event>
<event>
 7    1  0.3611369E-013  0.7246155E+02  0.7816164E-02  0.1226708E+00
        -11   -1    0    0    0    0  0.00000000000E+00  0.00000000000E+00  0.45593999997E+02  0.45594000000E+02  0.51100000000E-03 0.  1.
         11   -1    0    0    0    0 -0.00000000000E+00 -0.00000000000E+00 -0.45593999997E+02  0.45594000000E+02  0.51100000000E-03 0. -1.
    9900012    2    1    2    0    0  0.57707983394E+01  0.88830664801E+01 -0.15442444386E+02  0.72461546193E+02  0.69999968604E+02 0.  0.
        -12    1    1    2    0    0 -0.57707983394E+01 -0.88830664801E+01  0.15442444386E+02  0.18726453807E+02  0.00000000000E+00 0.  1.
         11    1    3    3    0    0  0.11660472624E+02 -0.59981921105E+01 -0.21141082377E+02  0.24877505798E+02  0.51100000000E-03 0. -1.
        -11    1    3    3    0    0  0.18344937918E+02  0.20085051334E+01 -0.32125994980E+01  0.18732101747E+02  0.51100000000E-03 0.  1.
         12    1    3    3    0    0 -0.24234612202E+02  0.12872753457E+02  0.89112374885E+01  0.28851938648E+02  0.00000000000E+00 0. -1.
</event>
<event>
 7    1  0.3611369E-013  0.7246153E+02  0.7816164E-02  0.1226708E+00
        -11   -1    0    0    0    0  0.00000000000E+00  0.00000000000E+00  0.45593999997E+02  0.45594000000E+02  0.51100000000E-03 0.  1.
         11   -1    0    0    0    0 -0.00000000000E+00 -0.00000000000E+00 -0.45593999997E+02  0.45594000000E+02  0.51100000000E-03 0. -1.
    9900012    2    1    2    0    0 -0.14606255665E+02 -0.21190776801E+01  0.11525940720E+02  0.72461534656E+02  0.69999953575E+02 0.  0.
        -12    1    1    2    0    0  0.14606255665E+02  0.21190776801E+01 -0.11525940720E+02  0.18726465344E+02  0.00000000000E+00 0.  1.
         11    1    3    3    0    0 -0.34017762965E+01 -0.17771755532E+02 -0.17530684355E+02  0.25193893524E+02  0.51100000000E-03 0. -1.
        -11    1    3    3    0    0 -0.13777973743E+02  0.52266799739E+00 -0.67944819471E+00  0.13804614895E+02  0.51100000000E-03 0.  1.
        -12    1    3    3    0    0  0.25734943738E+01  0.15130009855E+02  0.29736073270E+02  0.33463026238E+02  0.00000000000E+00 0.  1.
</event>
<event>
 7    1  0.3611369E-013  0.7246157E+02  0.7816164E-02  0.1226708E+00
        -11   -1    0    0    0    0  0.00000000000E+00  0.00000000000E+00  0.45593999997E+02  0.45594000000E+02  0.51100000000E-03 0. -1.
         11   -1    0    0    0    0 -0.00000000000E+00 -0.00000000000E+00 -0.45593999997E+02  0.45594000000E+02  0.51100000000E-03 0.  1.
    9900012    2    1    2    0    0 -0.81844583530E+01  0.74047186123E+01  0.15128250424E+02  0.72461570091E+02  0.69999999735E+02 0.  0.
        -12    1    1    2    0    0  0.81844583530E+01 -0.74047186123E+01 -0.15128250424E+02  0.18726429909E+02  0.00000000000E+00 0.  1.
         11    1    3    3    0    0 -0.12617861614E+02  0.38191105634E+01  0.10157143173E+02  0.16642223256E+02  0.51100000000E-03 0. -1.
        -11    1    3    3    0    0 -0.10553911854E+02 -0.19246587272E+02  0.15151709269E+02  0.26671904152E+02  0.51100000000E-03 0.  1.
        -12    1    3    3    0    0  0.14987315114E+02  0.22832195321E+02 -0.10180602018E+02  0.29147442683E+02  0.00000000000E+00 0.  1.
</event>
<event>
 7    1  0.3611369E-013  0.7246152E+02  0.7816164E-02  0.1226708E+00
        -11   -1    0    0    0    0  0.00000000000E+00  0.00000000000E+00  0.45593999997E+02  0.45594000000E+02  0.51100000000E-03 0.  1.
         11   -1    0    0    0    0 -0.00000000000E+00 -0.00000000000E+00 -0.45593999997E+02  0.45594000000E+02  0.51100000000E-03 0. -1.
    9900012    2    1    2    0    0  0.49379864797E+00 -0.45419883405E+01 -0.18160599835E+02  0.72461524583E+02  0.69999940453E+02 0.  0.
        -12    1    1    2    0    0 -0.49379864797E+00  0.45419883405E+01  0.18160599835E+02  0.18726475417E+02  0.00000000000E+00 0.  1.
         11    1    3    3    0    0 -0.13436974642E+02 -0.43826257111E+01 -0.14090710646E+02  0.19957650724E+02  0.51100000000E-03 0. -1.
        -11    1    3    3    0    0 -0.41289400374E+01 -0.97196250166E+01  0.18967945732E+02  0.21709496121E+02  0.51100000000E-03 0.  1.
         12    1    3    3    0    0  0.18059713328E+02  0.95602623871E+01 -0.23037834921E+02  0.30794377737E+02  0.00000000000E+00 0. -1.
</event>
<event>
 7    1  0.3611369E-013  0.7246157E+02  0.7816164E-02  0.1226708E+00
        -11   -1    0    0    0    0  0.00000000000E+00  0.00000000000E+00  0.45593999997E+02  0.45594000000E+02  0.51100000000E-03 0.  1.
         11   -1    0    0    0    0 -0.00000000000E+00 -0.00000000000E+00 -0.45593999997E+02  0.45594000000E+02  0.51100000000E-03 0. -1.
    9900012    2    1    2    0    0  0.17594588135E+02  0.15107082785E+01  0.62311620957E+01  0.72461570756E+02  0.70000000602E+02 0.  0.
        -12    1    1    2    0    0 -0.17594588135E+02 -0.15107082785E+01 -0.62311620957E+01  0.18726429244E+02  0.00000000000E+00 0.  1.
         11    1    3    3    0    0 -0.67578388026E+00 -0.17037052985E+01  0.56713735169E+00  0.19185777633E+01  0.51100000000E-03 0. -1.
        -11    1    3    3    0    0  0.32848926157E+01 -0.30013312898E+02  0.13797790579E+02  0.33195910828E+02  0.51100000000E-03 0.  1.
         12    1    3    3    0    0  0.14985479400E+02  0.33227726475E+02 -0.81337658352E+01  0.37347082164E+02  0.00000000000E+00 0. -1.
</event>
<event>
 7    1  0.3611369E-013  0.7246158E+02  0.7816164E-02  0.1226708E+00
        -11   -1    0    0    0    0  0.00000000000E+00  0.00000000000E+00  0.45593999997E+02  0.45594000000E+02  0.51100000000E-03 0.  1.
         11   -1    0    0    0    0 -0.00000000000E+00 -0.00000000000E+00 -0.45593999997E+02  0.45594000000E+02  0.51100000000E-03 0. -1.
    9900012    2    1    2    0    0 -0.17472727050E+02 -0.66065307390E+01  0.13177351524E+01  0.72461578428E+02  0.70000010596E+02 0.  0.
        -12    1    1    2    0    0  0.17472727050E+02  0.66065307390E+01 -0.13177351524E+01  0.18726421572E+02  0.00000000000E+00 0.  1.
         11    1    3    3    0    0  0.48971262309E+01  0.64598133276E+01 -0.18028204840E+01  0.83042877784E+01  0.51100000000E-03 0. -1.
        -11    1    3    3    0    0  0.21992387909E+00  0.21386859035E+02  0.76400165134E+01  0.22711582034E+02  0.51100000000E-03 0.  1.
        -12    1    3    3    0    0 -0.22589777160E+02 -0.34453203101E+02 -0.45194608769E+01  0.41445708616E+02  0.00000000000E+00 0.  1.
</event>
<event>
 7    1  0.3611369E-013  0.7246158E+02  0.7816164E-02  0.1226708E+00
        -11   -1    0    0    0    0  0.00000000000E+00  0.00000000000E+00  0.45593999997E+02  0.45594000000E+02  0.51100000000E-03 0. -1.
         11   -1    0    0    0    0 -0.00000000000E+00 -0.00000000000E+00 -0.45593999997E+02  0.45594000000E+02  0.51100000000E-03 0.  1.
    9900012    2    1    2    0    0  0.18400970721E+02  0.29614157674E+01 -0.18201521065E+01  0.72461583885E+02  0.70000017704E+02 0.  0.
        -12    1    1    2    0    0 -0.18400970721E+02 -0.29614157674E+01  0.18201521065E+01  0.18726416115E+02  0.00000000000E+00 0.  1.
         11    1    3    3    0    0  0.26974692764E+02  0.25895398780E+02  0.44069616103E+01  0.37651388269E+02  0.51100000000E-03 0. -1.
        -11    1    3    3    0    0 -0.77164186297E+01 -0.31594744936E+01 -0.11613946108E+02  0.14297172448E+02  0.51100000000E-03 0.  1.
        -12    1    3    3    0    0 -0.85730341344E+00 -0.19774508519E+02  0.53868323909E+01  0.20513023168E+02  0.00000000000E+00 0.  1.
</event>
<event>
 7    1  0.3611369E-013  0.7246161E+02  0.7816164E-02  0.1226708E+00
        -11   -1    0    0    0    0  0.00000000000E+00  0.00000000000E+00  0.45593999997E+02  0.45594000000E+02  0.51100000000E-03 0.  1.
         11   -1    0    0    0    0 -0.00000000000E+00 -0.00000000000E+00 -0.45593999997E+02  0.45594000000E+02  0.51100000000E-03 0. -1.
    9900012    2    1    2    0    0  0.17051160671E+02 -0.36978457369E+01 -0.68015740219E+01  0.72461613469E+02  0.70000056243E+02 0.  0.
        -12    1    1    2    0    0 -0.17051160671E+02  0.36978457369E+01  0.68015740219E+01  0.18726386531E+02  0.00000000000E+00 0.  1.
         11    1    3    3    0    0 -0.84660158812E+01  0.31818253684E+01 -0.15434281118E+02  0.17888948305E+02  0.51100000000E-03 0. -1.
        -11    1    3    3    0    0  0.14669078885E+02  0.58115691897E+01 -0.17499427161E+02  0.23562388738E+02  0.51100000000E-03 0.  1.
        -12    1    3    3    0    0  0.10848097667E+02 -0.12691240295E+02  0.26132134257E+02  0.31010276427E+02  0.00000000000E+00 0.  1.
</event>
<event>
 7    1  0.3611369E-013  0.7246160E+02  0.7816164E-02  0.1226708E+00
        -11   -1    0    0    0    0  0.00000000000E+00  0.00000000000E+00  0.45593999997E+02  0.45594000000E+02  0.51100000000E-03 0.  1.
         11   -1    0    0    0    0 -0.00000000000E+00 -0.00000000000E+00 -0.45593999997E+02  0.45594000000E+02  0.51100000000E-03 0. -1.
    9900012    2    1    2    0    0 -0.59085730283E+01  0.92802813366E+01 -0.15153979486E+02  0.72461602824E+02  0.70000042376E+02 0.  0.
        -12    1    1    2    0    0  0.59085730283E+01 -0.92802813366E+01  0.15153979486E+02  0.18726397176E+02  0.00000000000E+00 0.  1.
         11    1    3    3    0    0  0.14561240797E+02  0.11276522108E+02 -0.26602667555E+02  0.32355704376E+02  0.51100000000E-03 0. -1.
        -11    1    3    3    0    0 -0.60798420296E+01  0.42350198508E+01 -0.10671324425E+02  0.12991421688E+02  0.51100000000E-03 0.  1.
        -12    1    3    3    0    0 -0.14389971796E+02 -0.62312606222E+01  0.22120012493E+02  0.27114476759E+02  0.00000000000E+00 0.  1.
</event>
<event>
 7    1  0.3611369E-013  0.7246159E+02  0.7816164E-02  0.1226708E+00
        -11   -1    0    0    0    0  0.00000000000E+00  0.00000000000E+00  0.45593999997E+02  0.45594000000E+02  0.51100000000E-03 0. -1.
         11   -1    0    0    0    0 -0.00000000000E+00 -0.00000000000E+00 -0.45593999997E+02  0.45594000000E+02  0.51100000000E-03 0.  1.
    9900012    2    1    2    0    0 -0.83509916472E+01 -0.11389628583E+02  0.12296981652E+02  0.72461589279E+02  0.70000024730E+02 0.  0.
        -12    1    1    2    0    0  0.83509916472E+01  0.11389628583E+02 -0.12296981652E+02  0.18726410721E+02  0.00000000000E+00 0.  1.
         11    1    3    3    0    0  0.54807911066E+01 -0.15264899578E+01  0.49973058243E+01  0.75724704363E+01  0.51100000000E-03 0. -1.
        -11    1    3    3    0    0 -0.16048150422E+01 -0.86765248573E+01  0.34198223058E+02  0.35318210254E+02  0.51100000000E-03 0.  1.
        -12    1    3    3    0    0 -0.12226967712E+02 -0.11866137681E+01 -0.26898547230E+02  0.29570908589E+02  0.00000000000E+00 0.  1.
</event>
<event>
 7    1  0.3611369E-013  0.7246151E+02  0.7816164E-02  0.1226708E+00
        -11   -1    0    0    0    0  0.00000000000E+00  0.00000000000E+00  0.45593999997E+02  0.45594000000E+02  0.51100000000E-03 0. -1.
         11   -1    0    0    0    0 -0.00000000000E+00 -0.00000000000E+00 -0.45593999997E+02  0.45594000000E+02  0.51100000000E-03 0.  1.
    9900012    2    1    2    0    0 -0.14793537152E+02 -0.90469132925E+01 -0.70700862196E+01  0.72461508050E+02  0.69999918915E+02 0.  0.
        -12    1    1    2    0    0  0.14793537152E+02  0.90469132925E+01  0.70700862196E+01  0.18726491950E+02  0.00000000000E+00 0.  1.
         11    1    3    3    0    0 -0.13593168596E+02 -0.16951114208E+02  0.51227299576E+01  0.22323907988E+02  0.51100000000E-03 0. -1.
        -11    1    3    3    0    0 -0.14163173927E+01 -0.19660307135E+02 -0.10940266762E+02  0.22543803332E+02  0.51100000000E-03 0.  1.
        -12    1    3    3    0    0  0.21594883658E+00  0.27564508050E+02 -0.12525494152E+01  0.27593796730E+02  0.00000000000E+00 0.  1.
</event>
<event>
 7    1  0.3611369E-013  0.7246156E+02  0.7816164E-02  0.1226708E+00
        -11   -1    0    0    0    0  0.00000000000E+00  0.00000000000E+00  0.45593999997E+02  0.45594000000E+02  0.51100000000E-03 0.  1.
         11   -1    0    0    0    0 -0.00000000000E+00 -0.00000000000E+00 -0.45593999997E+02  0.45594000000E+02  0.51100000000E-03 0. -1.
    9900012    2    1    2    0    0  0.13382116936E+02  0.11768711789E+02 -0.57529216503E+01  0.72461555106E+02  0.69999980215E+02 0.  0.
        -12    1    1    2    0    0 -0.13382116936E+02 -0.11768711789E+02  0.57529216503E+01  0.18726444894E+02  0.00000000000E+00 0.  1.
         11    1    3    3    0    0 -0.67207182913E+01 -0.10775764067E+02 -0.27074267054E+02  0.29904867202E+02  0.51100000000E-03 0. -1.
        -11    1    3    3    0    0  0.11669777203E+02  0.99978002054E+01 -0.12202647202E+01  0.15415211811E+02  0.51100000000E-03 0.  1.
        -12    1    3    3    0    0  0.84330580243E+01  0.12546675651E+02  0.22541610124E+02  0.27141476093E+02  0.00000000000E+00 0.  1.
</event>
<event>
 7    1  0.3611369E-013  0.7246159E+02  0.7816164E-02  0.1226708E+00
        -11   -1    0    0    0    0  0.00000000000E+00  0.00000000000E+00  0.45593999997E+02  0.45594000000E+02  0.51100000000E-03 0.  1.
         11   -1    0    0    0    0 -0.00000000000E+00 -0.00000000000E+00 -0.45593999997E+02  0.45594000000E+02  0.51100000000E-03 0. -1.
    9900012    2    1    2    0    0 -0.11055531088E+01 -0.18337061158E+02  0.36343445555E+01  0.72461587638E+02  0.70000022594E+02 0.  0.
        -12    1    1    2    0    0  0.11055531088E+01  0.18337061158E+02 -0.36343445555E+01  0.18726412362E+02  0.00000000000E+00 0.  1.
         11    1    3    3    0    0 -0.36533870803E+01  0.12929390033E+01 -0.70760247024E+01  0.80677787696E+01  0.51100000000E-03 0. -1.
        -11    1    3    3    0    0 -0.52569543189E+01  0.11990968545E+02  0.25468119108E+02  0.28636410154E+02  0.51100000000E-03 0.  1.
         12    1    3    3    0    0  0.78047882904E+01 -0.31620968707E+02 -0.14757749850E+02  0.35757398715E+02  0.00000000000E+00 0. -1.
</event>
<event>
 7    1  0.3611369E-013  0.7246160E+02  0.7816164E-02  0.1226708E+00
        -11   -1    0    0    0    0  0.00000000000E+00  0.00000000000E+00  0.45593999997E+02  0.45594000000E+02  0.51100000000E-03 0.  1.
         11   -1    0    0    0    0 -0.00000000000E+00 -0.00000000000E+00 -0.45593999997E+02  0.45594000000E+02  0.51100000000E-03 0. -1.
    9900012    2    1    2    0    0  0.16672064243E+02 -0.80418195349E+01 -0.28371680175E+01  0.72461598586E+02  0.70000036856E+02 0.  0.
        -12    1    1    2    0    0 -0.16672064243E+02  0.80418195349E+01  0.28371680175E+01  0.18726401414E+02  0.00000000000E+00 0.  1.
         11    1    3    3    0    0  0.90891136824E+01 -0.14603473053E+02  0.59409276420E+01  0.18198022812E+02  0.51100000000E-03 0. -1.
        -11    1    3    3    0    0  0.87784104348E+01 -0.22377005608E+02 -0.78454879395E+01  0.25285223966E+02  0.51100000000E-03 0.  1.
         12    1    3    3    0    0 -0.11954598746E+01  0.28938659127E+02 -0.93260772012E+00  0.28978351808E+02  0.00000000000E+00 0. -1.
</event>
<event>
 7    1  0.3611369E-013  0.7246155E+02  0.7816164E-02  0.1226708E+00
        -11   -1    0    0    0    0  0.00000000000E+00  0.00000000000E+00  0.45593999997E+02  0.45594000000E+02  0.51100000000E-03 0.  1.
         11   -1    0    0    0    0 -0.00000000000E+00 -0.00000000000E+00 -0.45593999997E+02  0.45594000000E+02  0.51100000000E-03 0. -1.
    9900012    2    1    2    0    0 -0.59027216312E+01  0.15323786295E+02  0.90010786861E+01  0.72461549012E+02  0.69999972276E+02 0.  0.
        -12    1    1    2    0    0  0.59027216312E+01 -0.15323786295E+02 -0.90010786861E+01  0.18726450988E+02  0.00000000000E+00 0.  1.
         11    1    3    3    0    0 -0.11472605797E+02  0.14429918698E+01  0.92615291547E+01  0.14814817982E+02  0.51100000000E-03 0. -1.
        -11    1    3    3    0    0 -0.12152709471E+02 -0.17673443110E+02  0.33775993206E+00  0.21451177611E+02  0.51100000000E-03 0.  1.
         12    1    3    3    0    0  0.17722593637E+02  0.31554237535E+02 -0.59821040066E+00  0.36195553419E+02  0.00000000000E+00 0. -1.
</event>
<event>
 7    1  0.3611369E-013  0.7246156E+02  0.7816164E-02  0.1226708E+00
        -11   -1    0    0    0    0  0.00000000000E+00  0.00000000000E+00  0.45593999997E+02  0.45594000000E+02  0.51100000000E-03 0.  1.
         11   -1    0    0    0    0 -0.00000000000E+00 -0.00000000000E+00 -0.45593999997E+02  0.45594000000E+02  0.51100000000E-03 0. -1.
    9900012    2    1    2    0    0 -0.11057339560E+01 -0.47723023199E+01 -0.18074349635E+02  0.72461557952E+02  0.69999983922E+02 0.  0.
        -12    1    1    2    0    0  0.11057339560E+01  0.47723023199E+01  0.18074349635E+02  0.18726442048E+02  0.00000000000E+00 0.  1.
         11    1    3    3    0    0  0.10185528371E+01  0.59602940594E+01  0.14972504082E+02  0.16147397125E+02  0.51100000000E-03 0. -1.
        -11    1    3    3    0    0 -0.20921959976E+02 -0.12585052795E+01 -0.55449109534E+01  0.21680827533E+02  0.51100000000E-03 0.  1.
         12    1    3    3    0    0  0.18797673183E+02 -0.94740910998E+01 -0.27501942764E+02  0.34633333294E+02  0.00000000000E+00 0. -1.
</event>
<event>
 7    1  0.4330577E-013  0.7246153E+02  0.7816164E-02  0.1226708E+00
        -11   -1    0    0    0    0  0.00000000000E+00  0.00000000000E+00  0.45593999997E+02  0.45594000000E+02  0.51100000000E-03 0.  1.
         11   -1    0    0    0    0 -0.00000000000E+00 -0.00000000000E+00 -0.45593999997E+02  0.45594000000E+02  0.51100000000E-03 0. -1.
    9900012    2    1    2    0    0  0.34510179423E+01 -0.95062726861E+01 -0.15760769623E+02  0.72461531985E+02  0.69999950095E+02 0.  0.
        -12    1    1    2    0    0 -0.34510179423E+01  0.95062726861E+01  0.15760769623E+02  0.18726468015E+02  0.00000000000E+00 0.  1.
         11    1    3    3    0    0 -0.72343791707E+01  0.18533685829E+02 -0.14157516856E+02  0.24418620685E+02  0.51100000000E-03 0. -1.
        -11    1    3    3    0    0  0.62335652315E+01  0.45693465028E+01 -0.11337882105E+02  0.13721655652E+02  0.51100000000E-03 0.  1.
        -12    1    3    3    0    0  0.44518318815E+01 -0.32609305018E+02  0.97346293379E+01  0.34321255647E+02  0.00000000000E+00 0.  1.
</event>
<event>
 7    1  0.3611369E-013  0.7246159E+02  0.7816164E-02  0.1226708E+00
        -11   -1    0    0    0    0  0.00000000000E+00  0.00000000000E+00  0.45593999997E+02  0.45594000000E+02  0.51100000000E-03 0. -1.
         11   -1    0    0    0    0 -0.00000000000E+00 -0.00000000000E+00 -0.45593999997E+02  0.45594000000E+02  0.51100000000E-03 0.  1.
    9900012    2    1    2    0    0  0.16849787660E+02 -0.78674366579E+01  0.22060123052E+01  0.72461591000E+02  0.70000026973E+02 0.  0.
        -12    1    1    2    0    0 -0.16849787660E+02  0.78674366579E+01 -0.22060123052E+01  0.18726409000E+02  0.00000000000E+00 0.  1.
         11    1    3    3    0    0  0.16106343774E+02 -0.20315744410E+02 -0.39988196875E+01  0.26232314802E+02  0.51100000000E-03 0. -1.
        -11    1    3    3    0    0 -0.10617330883E+02 -0.74074524609E+01 -0.11489037705E+02  0.17308843251E+02  0.51100000000E-03 0.  1.
         12    1    3    3    0    0  0.11360774769E+02  0.19855760213E+02  0.17693869697E+02  0.28920432947E+02  0.00000000000E+00 0. -1.
</event>
<event>
 7    1  0.3611369E-013  0.7246149E+02  0.7816164E-02  0.1226708E+00
        -11   -1    0    0    0    0  0.00000000000E+00  0.00000000000E+00  0.45593999997E+02  0.45594000000E+02  0.51100000000E-03 0. -1.
         11   -1    0    0    0    0 -0.00000000000E+00 -0.00000000000E+00 -0.45593999997E+02  0.45594000000E+02  0.51100000000E-03 0.  1.
    9900012    2    1    2    0    0  0.54170821560E+01  0.20443153573E+01  0.17808936104E+02  0.72461489126E+02  0.69999894263E+02 0.  0.
        -12    1    1    2    0    0 -0.54170821560E+01 -0.20443153573E+01 -0.17808936104E+02  0.18726510874E+02  0.00000000000E+00 0.  1.
         11    1    3    3    0    0  0.35255817461E+00  0.13940699499E+02  0.23640218679E+02  0.27446809272E+02  0.51100000000E-03 0. -1.
        -11    1    3    3    0    0 -0.97635938288E+01  0.20821379417E+01  0.13590887450E+02  0.16863430398E+02  0.51100000000E-03 0.  1.
        -12    1    3    3    0    0  0.14828117810E+02 -0.13978522083E+02 -0.19422170025E+02  0.28151249455E+02  0.00000000000E+00 0.  1.
</event>
<event>
 7    1  0.3611369E-013  0.7246167E+02  0.7816164E-02  0.1226708E+00
        -11   -1    0    0    0    0  0.00000000000E+00  0.00000000000E+00  0.45593999997E+02  0.45594000000E+02  0.51100000000E-03 0.  1.
         11   -1    0    0    0    0 -0.00000000000E+00 -0.00000000000E+00 -0.45593999997E+02  0.45594000000E+02  0.51100000000E-03 0. -1.
    9900012    2    1    2    0    0  0.45117240802E+01  0.21447511088E+00 -0.18173436764E+02  0.72461669405E+02  0.70000129110E+02 0.  0.
        -12    1    1    2    0    0 -0.45117240802E+01 -0.21447511088E+00  0.18173436764E+02  0.18726330595E+02  0.00000000000E+00 0.  1.
         11    1    3    3    0    0 -0.16261885623E+01  0.75108868609E+00  0.69374887043E+01  0.71650103446E+01  0.51100000000E-03 0. -1.
        -11    1    3    3    0    0  0.51463974645E+01 -0.17518116226E+02  0.13762557149E+02  0.22864334290E+02  0.51100000000E-03 0.  1.
         12    1    3    3    0    0  0.99151517798E+00  0.16981502651E+02 -0.38873482617E+02  0.42432324770E+02  0.00000000000E+00 0. -1.
</event>
<event>
 7    1  0.3611369E-013  0.7246157E+02  0.7816164E-02  0.1226708E+00
        -11   -1    0    0    0    0  0.00000000000E+00  0.00000000000E+00  0.45593999997E+02  0.45594000000E+02  0.51100000000E-03 0. -1.
         11   -1    0    0    0    0 -0.00000000000E+00 -0.00000000000E+00 -0.45593999997E+02  0.45594000000E+02  0.51100000000E-03 0.  1.
    9900012    2    1    2    0    0 -0.15054759317E+02 -0.67694112301E+01  0.88435449526E+01  0.72461574985E+02  0.70000006111E+02 0.  0.
        -12    1    1    2    0    0  0.15054759317E+02  0.67694112301E+01 -0.88435449526E+01  0.18726425015E+02  0.00000000000E+00 0.  1.
         11    1    3    3    0    0  0.25246413222E+02 -0.55692360844E+01  0.10615748374E+02  0.27948021127E+02  0.51100000000E-03 0. -1.
        -11    1    3    3    0    0 -0.41477598531E+01  0.37016894147E+00 -0.68047269796E+01  0.79777970876E+01  0.51100000000E-03 0.  1.
        -12    1    3    3    0    0 -0.36153412686E+02 -0.15703440872E+01  0.50325235582E+01  0.36535756770E+02  0.00000000000E+00 0.  1.
</event>
<event>
 7    1  0.3611369E-013  0.7246160E+02  0.7816164E-02  0.1226708E+00
        -11   -1    0    0    0    0  0.00000000000E+00  0.00000000000E+00  0.45593999997E+02  0.45594000000E+02  0.51100000000E-03 0. -1.
         11   -1    0    0    0    0 -0.00000000000E+00 -0.00000000000E+00 -0.45593999997E+02  0.45594000000E+02  0.51100000000E-03 0.  1.
    9900012    2    1    2    0    0  0.12844074330E+01  0.18528338654E+02  0.23935278478E+01  0.72461601220E+02  0.70000040286E+02 0.  0.
        -12    1    1    2    0    0 -0.12844074330E+01 -0.18528338654E+02 -0.23935278478E+01  0.18726398780E+02  0.00000000000E+00 0.  1.
         11    1    3    3    0    0  0.31997380634E+00 -0.15105526444E+02  0.44084378235E+01  0.15738921078E+02  0.51100000000E-03 0. -1.
        -11    1    3    3    0    0 -0.19876819174E+02  0.22197267080E+02 -0.10332341023E+02  0.31536706828E+02  0.51100000000E-03 0.  1.
         12    1    3    3    0    0  0.20841252800E+02  0.11436598019E+02  0.83174310469E+01  0.25185973313E+02  0.00000000000E+00 0. -1.
</event>
<event>
 7    1  0.3611369E-013  0.7246158E+02  0.7816164E-02  0.1226708E+00
        -11   -1    0    0    0    0  0.00000000000E+00  0.00000000000E+00  0.45593999997E+02  0.45594000000E+02  0.51100000000E-03 0.  1.
         11   -1    0    0    0    0 -0.00000000000E+00 -0.00000000000E+00 -0.45593999997E+02  0.45594000000E+02  0.51100000000E-03 0. -1.
    9900012    2    1    2    0    0 -0.16247559656E+02  0.78984481590E+01  0.49305394879E+01  0.72461577551E+02  0.70000009454E+02 0.  0.
        -12    1    1    2    0    0  0.16247559656E+02 -0.78984481590E+01 -0.49305394879E+01  0.18726422449E+02  0.00000000000E+00 0.  1.
         11    1    3    3    0    0  0.18161771695E-01 -0.51720492832E+01 -0.46863870995E+01  0.69794446732E+01  0.51100000000E-03 0. -1.
        -11    1    3    3    0    0  0.85838117333E+00  0.33891067706E+02 -0.58489883175E+01  0.34402789902E+02  0.51100000000E-03 0.  1.
         12    1    3    3    0    0 -0.17124102601E+02 -0.20820570263E+02  0.15465914905E+02  0.31079342976E+02  0.00000000000E+00 0. -1.
</event>
<event>
 7    1  0.3611369E-013  0.7246157E+02  0.7816164E-02  0.1226708E+00
        -11   -1    0    0    0    0  0.00000000000E+00  0.00000000000E+00  0.45593999997E+02  0.45594000000E+02  0.51100000000E-03 0. -1.
         11   -1    0    0    0    0 -0.00000000000E+00 -0.00000000000E+00 -0.45593999997E+02  0.45594000000E+02  0.51100000000E-03 0.  1.
    9900012    2    1    2    0    0 -0.17944077122E+01  0.17855397308E+01  0.18554542672E+02  0.72461572019E+02  0.70000002246E+02 0.  0.
        -12    1    1    2    0    0  0.17944077122E+01 -0.17855397308E+01 -0.18554542672E+02  0.18726427981E+02  0.00000000000E+00 0.  1.
         11    1    3    3    0    0  0.16526296858E+02  0.28845848923E+00  0.30484476778E+02  0.34677154162E+02  0.51100000000E-03 0. -1.
        -11    1    3    3    0    0 -0.12646350714E+02  0.41232996493E+01  0.89210321721E+01  0.16016135666E+02  0.51100000000E-03 0.  1.
        -12    1    3    3    0    0 -0.56743538558E+01 -0.26262184078E+01 -0.20850966278E+02  0.21768282190E+02  0.00000000000E+00 0.  1.
</event>
<event>
 7    1  0.3611369E-013  0.7246157E+02  0.7816164E-02  0.1226708E+00
        -11   -1    0    0    0    0  0.00000000000E+00  0.00000000000E+00  0.45593999997E+02  0.45594000000E+02  0.51100000000E-03 0.  1.
         11   -1    0    0    0    0 -0.00000000000E+00 -0.00000000000E+00 -0.45593999997E+02  0.45594000000E+02  0.51100000000E-03 0. -1.
    9900012    2    1    2    0    0 -0.38873593078E+01 -0.18303086815E+02 -0.75151352976E+00  0.72461566225E+02  0.69999994698E+02 0.  0.
        -12    1    1    2    0    0  0.38873593078E+01  0.18303086815E+02  0.75151352976E+00  0.18726433775E+02  0.00000000000E+00 0.  1.
         11    1    3    3    0    0  0.43630727058E+01  0.72176085907E+01  0.56224578919E+01  0.10136188150E+02  0.51100000000E-03 0. -1.
        -11    1    3    3    0    0 -0.14795995336E+02 -0.30578820629E+02  0.16671097133E+02  0.37840602914E+02  0.51100000000E-03 0.  1.
         12    1    3    3    0    0  0.65455633221E+01  0.50581252226E+01 -0.23045068555E+02  0.24484775161E+02  0.00000000000E+00 0. -1.
</event>
<event>
 7    1  0.3611369E-013  0.7246165E+02  0.7816164E-02  0.1226708E+00
        -11   -1    0    0    0    0  0.00000000000E+00  0.00000000000E+00  0.45593999997E+02  0.45594000000E+02  0.51100000000E-03 0.  1.
         11   -1    0    0    0    0 -0.00000000000E+00 -0.00000000000E+00 -0.45593999997E+02  0.45594000000E+02  0.51100000000E-03 0. -1.
    9900012    2    1    2    0    0  0.21549459697E+01  0.12449446921E+02 -0.13821859766E+02  0.72461646160E+02  0.70000098828E+02 0.  0.
        -12    1    1    2    0    0 -0.21549459697E+01 -0.12449446921E+02  0.13821859766E+02  0.18726353840E+02  0.00000000000E+00 0.  1.
         11    1    3    3    0    0  0.18545625099E+02  0.22247891112E+02  0.42207842348E+01  0.29269846072E+02  0.51100000000E-03 0. -1.
        -11    1    3    3    0    0  0.23889042643E+01 -0.54805807201E+01  0.84999845300E+01  0.10391985656E+02  0.51100000000E-03 0.  1.
        -12    1    3    3    0    0 -0.18779583394E+02 -0.43178634709E+01 -0.26542628530E+02  0.32799814431E+02  0.00000000000E+00 0.  1.
</event>
<event>
 7    1  0.3611369E-013  0.7246154E+02  0.7816164E-02  0.1226708E+00
        -11   -1    0    0    0    0  0.00000000000E+00  0.00000000000E+00  0.45593999997E+02  0.45594000000E+02  0.51100000000E-03 0.  1.
         11   -1    0    0    0    0 -0.00000000000E+00 -0.00000000000E+00 -0.45593999997E+02  0.45594000000E+02  0.51100000000E-03 0. -1.
    9900012    2    1    2    0    0 -0.64407199447E+01  0.11542451327E+02 -0.13265345458E+02  0.72461536208E+02  0.69999955596E+02 0.  0.
        -12    1    1    2    0    0  0.64407199447E+01 -0.11542451327E+02  0.13265345458E+02  0.18726463792E+02  0.00000000000E+00 0.  1.
         11    1    3    3    0    0  0.25696209652E+01  0.22704411506E+02 -0.12804780608E+02  0.26192664248E+02  0.51100000000E-03 0. -1.
        -11    1    3    3    0    0  0.15114230051E+02 -0.14711969563E+02 -0.44602277331E+01  0.21558655574E+02  0.51100000000E-03 0.  1.
        -12    1    3    3    0    0 -0.24124570961E+02  0.35500093841E+01  0.39996628832E+01  0.24710216386E+02  0.00000000000E+00 0.  1.
</event>
<event>
 7    1  0.3611369E-013  0.7246158E+02  0.7816164E-02  0.1226708E+00
        -11   -1    0    0    0    0  0.00000000000E+00  0.00000000000E+00  0.45593999997E+02  0.45594000000E+02  0.51100000000E-03 0.  1.
         11   -1    0    0    0    0 -0.00000000000E+00 -0.00000000000E+00 -0.45593999997E+02  0.45594000000E+02  0.51100000000E-03 0. -1.
    9900012    2    1    2    0    0  0.67790706151E+01 -0.90236045351E+01 -0.14943145753E+02  0.72461579034E+02  0.70000011385E+02 0.  0.
        -12    1    1    2    0    0 -0.67790706151E+01  0.90236045351E+01  0.14943145753E+02  0.18726420966E+02  0.00000000000E+00 0.  1.
         11    1    3    3    0    0  0.12477095797E+02 -0.11645180373E+02  0.57629991996E+01  0.18013892014E+02  0.51100000000E-03 0. -1.
        -11    1    3    3    0    0  0.23727041384E+01 -0.14371153150E+02  0.10537529562E+02  0.17977744500E+02  0.51100000000E-03 0.  1.
         12    1    3    3    0    0 -0.80707293206E+01  0.16992728987E+02 -0.31243674515E+02  0.36469942520E+02  0.00000000000E+00 0. -1.
</event>
<event>
 7    1  0.3611369E-013  0.7246157E+02  0.7816164E-02  0.1226708E+00
        -11   -1    0    0    0    0  0.00000000000E+00  0.00000000000E+00  0.45593999997E+02  0.45594000000E+02  0.51100000000E-03 0. -1.
         11   -1    0    0    0    0 -0.00000000000E+00 -0.00000000000E+00 -0.45593999997E+02  0.45594000000E+02  0.51100000000E-03 0.  1.
    9900012    2    1    2    0    0  0.94637044772E+01 -0.13435070465E+02 -0.89786546465E+01  0.72461573216E+02  0.70000003806E+02 0.  0.
        -12    1    1    2    0    0 -0.94637044772E+01  0.13435070465E+02  0.89786546465E+01  0.18726426784E+02  0.00000000000E+00 0.  1.
         11    1    3    3    0    0  0.33695944099E+02 -0.85310266701E+01 -0.16751824384E+02  0.38585213297E+02  0.51100000000E-03 0. -1.
        -11    1    3    3    0    0 -0.74835506111E+01  0.48289894174E+01 -0.54320981296E+01  0.10432179010E+02  0.51100000000E-03 0.  1.
        -12    1    3    3    0    0 -0.16748689010E+02 -0.97330332122E+01  0.13205267867E+02  0.23444180909E+02  0.00000000000E+00 0.  1.
</event>
<event>
 7    1  0.3611369E-013  0.7246141E+02  0.7816164E-02  0.1226708E+00
        -11   -1    0    0    0    0  0.00000000000E+00  0.00000000000E+00  0.45593999997E+02  0.45594000000E+02  0.51100000000E-03 0. -1.
         11   -1    0    0    0    0 -0.00000000000E+00 -0.00000000000E+00 -0.45593999997E+02  0.45594000000E+02  0.51100000000E-03 0.  1.
    9900012    2    1    2    0    0  0.14071722969E+02 -0.17561080101E+01  0.12230611188E+02  0.72461410544E+02  0.69999791895E+02 0.  0.
        -12    1    1    2    0    0 -0.14071722969E+02  0.17561080101E+01 -0.12230611188E+02  0.18726589456E+02  0.00000000000E+00 0.  1.
         11    1    3    3    0    0  0.30340661582E+02  0.16688253255E+02  0.14486129152E+02  0.37535336418E+02  0.51100000000E-03 0. -1.
        -11    1    3    3    0    0 -0.67589556724E+00  0.35325233612E+01  0.57792222230E+01  0.68069792037E+01  0.51100000000E-03 0.  1.
        -12    1    3    3    0    0 -0.15593043047E+02 -0.21976884626E+02 -0.80347401875E+01  0.28119094922E+02  0.00000000000E+00 0.  1.
</event>
<event>
 7    1  0.3611369E-013  0.7246078E+02  0.7816164E-02  0.1226710E+00
        -11   -1    0    0    0    0  0.00000000000E+00  0.00000000000E+00  0.45593999997E+02  0.45594000000E+02  0.51100000000E-03 0.  1.
         11   -1    0    0    0    0 -0.00000000000E+00 -0.00000000000E+00 -0.45593999997E+02  0.45594000000E+02  0.51100000000E-03 0. -1.
    9900012    2    1    2    0    0  0.66216681249E+01  0.10493083141E+02 -0.14027031456E+02  0.72460776659E+02  0.69998966135E+02 0.  0.
        -12    1    1    2    0    0 -0.66216681249E+01 -0.10493083141E+02  0.14027031456E+02  0.18727223341E+02  0.00000000000E+00 0.  1.
         11    1    3    3    0    0 -0.13109962308E+02 -0.19028694084E+02 -0.22443555105E+02  0.32212970622E+02  0.51100000000E-03 0. -1.
        -11    1    3    3    0    0  0.33498443436E+01 -0.15236522645E+01 -0.11669341621E+01  0.38606617243E+01  0.51100000000E-03 0.  1.
         12    1    3    3    0    0  0.16381786090E+02  0.31045429490E+02  0.95834578106E+01  0.36387144314E+02  0.00000000000E+00 0. -1.
</event>
<event>
 7    1  0.3611369E-013  0.7246160E+02  0.7816164E-02  0.1226708E+00
        -11   -1    0    0    0    0  0.00000000000E+00  0.00000000000E+00  0.45593999997E+02  0.45594000000E+02  0.51100000000E-03 0. -1.
         11   -1    0    0    0    0 -0.00000000000E+00 -0.00000000000E+00 -0.45593999997E+02  0.45594000000E+02  0.51100000000E-03 0.  1.
    9900012    2    1    2    0    0  0.11654520835E+02 -0.13041047816E+02 -0.66918726927E+01  0.72461603011E+02  0.70000042620E+02 0.  0.
        -12    1    1    2    0    0 -0.11654520835E+02  0.13041047816E+02  0.66918726927E+01  0.18726396989E+02  0.00000000000E+00 0.  1.
         11    1    3    3    0    0 -0.17400143840E+02 -0.97240307347E+01  0.96090550207E+01  0.22128165718E+02  0.51100000000E-03 0. -1.
        -11    1    3    3    0    0 -0.18278558190E+01 -0.11236630420E+02 -0.14452936159E+02  0.18398105445E+02  0.51100000000E-03 0.  1.
         12    1    3    3    0    0  0.30882520494E+02  0.79196133384E+01 -0.18479915542E+01  0.31935331849E+02  0.00000000000E+00 0. -1.
</event>
<event>
 7    1  0.3611369E-013  0.7246156E+02  0.7816164E-02  0.1226708E+00
        -11   -1    0    0    0    0  0.00000000000E+00  0.00000000000E+00  0.45593999997E+02  0.45594000000E+02  0.51100000000E-03 0. -1.
         11   -1    0    0    0    0 -0.00000000000E+00 -0.00000000000E+00 -0.45593999997E+02  0.45594000000E+02  0.51100000000E-03 0.  1.
    9900012    2    1    2    0    0 -0.17467641594E+02 -0.56676189650E+01 -0.36659304435E+01  0.72461562709E+02  0.69999990119E+02 0.  0.
        -12    1    1    2    0    0  0.17467641594E+02  0.56676189650E+01  0.36659304435E+01  0.18726437291E+02  0.00000000000E+00 0.  1.
         11    1    3    3    0    0 -0.71049622475E+01 -0.26514307647E+01  0.61704456555E+01  0.97767567980E+01  0.51100000000E-03 0. -1.
        -11    1    3    3    0    0  0.25999026288E+01  0.15797217230E+02  0.19673493475E+02  0.25364501014E+02  0.51100000000E-03 0.  1.
         12    1    3    3    0    0 -0.12962581976E+02 -0.18813405430E+02 -0.29509869574E+02  0.37320304898E+02  0.00000000000E+00 0. -1.
</event>
<event>
 7    1  0.3611369E-013  0.7246158E+02  0.7816164E-02  0.1226708E+00
        -11   -1    0    0    0    0  0.00000000000E+00  0.00000000000E+00  0.45593999997E+02  0.45594000000E+02  0.51100000000E-03 0. -1.
         11   -1    0    0    0    0 -0.00000000000E+00 -0.00000000000E+00 -0.45593999997E+02  0.45594000000E+02  0.51100000000E-03 0.  1.
    9900012    2    1    2    0    0 -0.15389196231E+02 -0.55661737558E+01  0.91032395984E+01  0.72461584911E+02  0.70000019040E+02 0.  0.
        -12    1    1    2    0    0  0.15389196231E+02  0.55661737558E+01 -0.91032395984E+01  0.18726415089E+02  0.00000000000E+00 0.  1.
         11    1    3    3    0    0  0.21321489480E+02 -0.32700244642E+00  0.17625354197E+02  0.27665248148E+02  0.51100000000E-03 0. -1.
        -11    1    3    3    0    0 -0.10902086884E+01 -0.19316661738E+01  0.58401993137E+01  0.62472247820E+01  0.51100000000E-03 0.  1.
        -12    1    3    3    0    0 -0.35620477023E+02 -0.33075051356E+01 -0.14362313912E+02  0.38549111980E+02  0.00000000000E+00 0.  1.
</event>
<event>
 7    1  0.3611369E-013  0.7246161E+02  0.7816164E-02  0.1226708E+00
        -11   -1    0    0    0    0  0.00000000000E+00  0.00000000000E+00  0.45593999997E+02  0.45594000000E+02  0.51100000000E-03 0.  1.
         11   -1    0    0    0    0 -0.00000000000E+00 -0.00000000000E+00 -0.45593999997E+02  0.45594000000E+02  0.51100000000E-03 0. -1.
    9900012    2    1    2    0    0 -0.14234955663E+02  0.87032608150E+01 -0.85027523558E+01  0.72461614626E+02  0.70000057751E+02 0.  0.
        -12    1    1    2    0    0  0.14234955663E+02 -0.87032608150E+01  0.85027523558E+01  0.18726385374E+02  0.00000000000E+00 0.  1.
         11    1    3    3    0    0  0.12961964594E+02 -0.80771593358E+01  0.11235793769E+02  0.18960382142E+02  0.51100000000E-03 0.  1.
        -11    1    3    3    0    0  0.69082610103E+01 -0.56158503437E+01 -0.29221854438E+01  0.93702194904E+01  0.51100000000E-03 0. -1.
         12    1    3    3    0    0 -0.34105181268E+02  0.22396270495E+02 -0.16816360681E+02  0.44131012994E+02  0.00000000000E+00 0. -1.
</event>
<event>
 7    1  0.3611369E-013  0.7246153E+02  0.7816164E-02  0.1226708E+00
        -11   -1    0    0    0    0  0.00000000000E+00  0.00000000000E+00  0.45593999997E+02  0.45594000000E+02  0.51100000000E-03 0. -1.
         11   -1    0    0    0    0 -0.00000000000E+00 -0.00000000000E+00 -0.45593999997E+02  0.45594000000E+02  0.51100000000E-03 0.  1.
    9900012    2    1    2    0    0  0.84377420165E+00  0.18540201107E+02  0.24959508673E+01  0.72461527222E+02  0.69999943890E+02 0.  0.
        -12    1    1    2    0    0 -0.84377420165E+00 -0.18540201107E+02 -0.24959508673E+01  0.18726472778E+02  0.00000000000E+00 0.  1.
         11    1    3    3    0    0 -0.39540980188E+01  0.47853687728E+01  0.34878818966E+02  0.35426919964E+02  0.51100000000E-03 0. -1.
        -11    1    3    3    0    0 -0.21645501373E+01  0.81598419666E-01 -0.17918047109E+01  0.28111385562E+01  0.51100000000E-03 0.  1.
        -12    1    3    3    0    0  0.69624223577E+01  0.13673233915E+02 -0.30591063387E+02  0.34223468701E+02  0.00000000000E+00 0.  1.
</event>
<event>
 7    1  0.3611369E-013  0.7246149E+02  0.7816164E-02  0.1226708E+00
        -11   -1    0    0    0    0  0.00000000000E+00  0.00000000000E+00  0.45593999997E+02  0.45594000000E+02  0.51100000000E-03 0. -1.
         11   -1    0    0    0    0 -0.00000000000E+00 -0.00000000000E+00 -0.45593999997E+02  0.45594000000E+02  0.51100000000E-03 0.  1.
    9900012    2    1    2    0    0 -0.64814368930E+00  0.46213944311E+01  0.18135735960E+02  0.72461486829E+02  0.69999891271E+02 0.  0.
        -12    1    1    2    0    0  0.64814368930E+00 -0.46213944311E+01 -0.18135735960E+02  0.18726513171E+02  0.00000000000E+00 0.  1.
         11    1    3    3    0    0 -0.40032984873E+01  0.11886244270E+02 -0.26426283545E+01  0.12817670869E+02  0.51100000000E-03 0. -1.
        -11    1    3    3    0    0 -0.15450541634E+02  0.18167780267E+02  0.12601265438E+02  0.26973679162E+02  0.51100000000E-03 0.  1.
         12    1    3    3    0    0  0.18805696432E+02 -0.25432630106E+02  0.81770988758E+01  0.32670136799E+02  0.00000000000E+00 0. -1.
</event>
<event>
 7    1  0.3611369E-013  0.7246122E+02  0.7816164E-02  0.1226709E+00
        -11   -1    0    0    0    0  0.00000000000E+00  0.00000000000E+00  0.45593999997E+02  0.45594000000E+02  0.51100000000E-03 0. -1.
         11   -1    0    0    0    0 -0.00000000000E+00 -0.00000000000E+00 -0.45593999997E+02  0.45594000000E+02  0.51100000000E-03 0.  1.
    9900012    2    1    2    0    0  0.56727720645E+01 -0.48249804400E+01  0.17182301085E+02  0.72461221053E+02  0.69999545047E+02 0.  0.
        -12    1    1    2    0    0 -0.56727720645E+01  0.48249804400E+01 -0.17182301085E+02  0.18726778947E+02  0.00000000000E+00 0.  1.
         11    1    3    3    0    0 -0.44365146100E+00  0.86590430937E+01 -0.67912346887E+01  0.11013479140E+02  0.51100000000E-03 0. -1.
        -11    1    3    3    0    0 -0.18537300150E+02 -0.71970589276E+01 -0.72543592515E+01  0.21167306926E+02  0.51100000000E-03 0.  1.
         12    1    3    3    0    0  0.24653723676E+02 -0.62869646061E+01  0.31227895025E+02  0.40280434987E+02  0.00000000000E+00 0. -1.
</event>
<event>
 7    1  0.3611369E-013  0.7246157E+02  0.7816164E-02  0.1226708E+00
        -11   -1    0    0    0    0  0.00000000000E+00  0.00000000000E+00  0.45593999997E+02  0.45594000000E+02  0.51100000000E-03 0. -1.
         11   -1    0    0    0    0 -0.00000000000E+00 -0.00000000000E+00 -0.45593999997E+02  0.45594000000E+02  0.51100000000E-03 0.  1.
    9900012    2    1    2    0    0 -0.70910385453E+01 -0.34109699640E+01  0.16992992003E+02  0.72461566251E+02  0.69999994733E+02 0.  0.
        -12    1    1    2    0    0  0.70910385453E+01  0.34109699640E+01 -0.16992992003E+02  0.18726433749E+02  0.00000000000E+00 0.  1.
         11    1    3    3    0    0  0.20622033861E+02 -0.16024221272E+02  0.17266184594E+02  0.31307588196E+02  0.51100000000E-03 0. -1.
        -11    1    3    3    0    0  0.25666352533E+01 -0.26748493931E+01 -0.57028786448E+01  0.68018571653E+01  0.51100000000E-03 0.  1.
        -12    1    3    3    0    0 -0.30279707660E+02  0.15288100701E+02  0.54296860536E+01  0.34352120890E+02  0.00000000000E+00 0.  1.
</event>
<event>
 7    1  0.3611369E-013  0.7246227E+02  0.7816164E-02  0.1226706E+00
        -11   -1    0    0    0    0  0.00000000000E+00  0.00000000000E+00  0.45593999997E+02  0.45594000000E+02  0.51100000000E-03 0. -1.
         11   -1    0    0    0    0 -0.00000000000E+00 -0.00000000000E+00 -0.45593999997E+02  0.45594000000E+02  0.51100000000E-03 0.  1.
    9900012    2    1    2    0    0 -0.16681356148E+02 -0.44788327567E+01  0.72336399851E+01  0.72462265482E+02  0.70000905606E+02 0.  0.
        -12    1    1    2    0    0  0.16681356148E+02  0.44788327567E+01 -0.72336399851E+01  0.18725734518E+02  0.00000000000E+00 0.  1.
         11    1    3    3    0    0 -0.45902404262E+01  0.31896774537E+01  0.23935506180E+02  0.24579520048E+02  0.51100000000E-03 0. -1.
        -11    1    3    3    0    0  0.55455607423E+01 -0.19350841467E+02  0.12060944771E+01  0.20165886382E+02  0.51100000000E-03 0.  1.
        -12    1    3    3    0    0 -0.17636676464E+02  0.11682331257E+02 -0.17907960672E+02  0.27716859052E+02  0.00000000000E+00 0.  1.
</event>
<event>
 7    1  0.3611369E-013  0.7246156E+02  0.7816164E-02  0.1226708E+00
        -11   -1    0    0    0    0  0.00000000000E+00  0.00000000000E+00  0.45593999997E+02  0.45594000000E+02  0.51100000000E-03 0. -1.
         11   -1    0    0    0    0 -0.00000000000E+00 -0.00000000000E+00 -0.45593999997E+02  0.45594000000E+02  0.51100000000E-03 0.  1.
    9900012    2    1    2    0    0 -0.90124932103E+00  0.29609081811E+01  0.18468901376E+02  0.72461560252E+02  0.69999986918E+02 0.  0.
        -12    1    1    2    0    0  0.90124932103E+00 -0.29609081811E+01 -0.18468901376E+02  0.18726439748E+02  0.00000000000E+00 0.  1.
         11    1    3    3    0    0  0.69022227374E+01  0.27486625192E+01 -0.30002736331E+01  0.80123321508E+01  0.51100000000E-03 0. -1.
        -11    1    3    3    0    0  0.12998022032E+02 -0.20380236311E+02 -0.53418980959E+01  0.24755574814E+02  0.51100000000E-03 0.  1.
         12    1    3    3    0    0 -0.20801494091E+02  0.20592481973E+02  0.26811073105E+02  0.39693653287E+02  0.00000000000E+00 0. -1.
</event>
<event>
 7    1  0.3611369E-013  0.7246152E+02  0.7816164E-02  0.1226708E+00
        -11   -1    0    0    0    0  0.00000000000E+00  0.00000000000E+00  0.45593999997E+02  0.45594000000E+02  0.51100000000E-03 0. -1.
         11   -1    0    0    0    0 -0.00000000000E+00 -0.00000000000E+00 -0.45593999997E+02  0.45594000000E+02  0.51100000000E-03 0.  1.
    9900012    2    1    2    0    0  0.88951184555E+01 -0.11756997298E+02  0.11546901168E+02  0.72461520235E+02  0.69999934788E+02 0.  0.
        -12    1    1    2    0    0 -0.88951184555E+01  0.11756997298E+02 -0.11546901168E+02  0.18726479765E+02  0.00000000000E+00 0.  1.
         11    1    3    3    0    0  0.25755622148E+01  0.28188110077E-01  0.20341846214E+02  0.20504268408E+02  0.51100000000E-03 0. -1.
        -11    1    3    3    0    0 -0.10166165979E+02  0.12686460957E+01  0.16277993683E+02  0.19233654677E+02  0.51100000000E-03 0.  1.
        -12    1    3    3    0    0  0.16485722219E+02 -0.13053831504E+02 -0.25072938728E+02  0.32723597151E+02  0.00000000000E+00 0.  1.
</event>
<event>
 7    1  0.3611369E-013  0.7246165E+02  0.7816164E-02  0.1226708E+00
        -11   -1    0    0    0    0  0.00000000000E+00  0.00000000000E+00  0.45593999997E+02  0.45594000000E+02  0.51100000000E-03 0. -1.
         11   -1    0    0    0    0 -0.00000000000E+00 -0.00000000000E+00 -0.45593999997E+02  0.45594000000E+02  0.51100000000E-03 0.  1.
    9900012    2    1    2    0    0  0.55861061251E+01 -0.16096579197E+02  0.77699243622E+01  0.72461650433E+02  0.70000104396E+02 0.  0.
        -12    1    1    2    0    0 -0.55861061251E+01  0.16096579197E+02 -0.77699243622E+01  0.18726349567E+02  0.00000000000E+00 0.  1.
         11    1    3    3    0    0  0.27905863397E+02 -0.15942605132E+02  0.15312200121E+02  0.35600103134E+02  0.51100000000E-03 0. -1.
        -11    1    3    3    0    0  0.16671713632E+01  0.59869384444E+01  0.60009985201E+01  0.86391478625E+01  0.51100000000E-03 0.  1.
        -12    1    3    3    0    0 -0.23986928635E+02 -0.61409125101E+01 -0.13543274279E+02  0.28222399437E+02  0.00000000000E+00 0.  1.
</event>
<event>
 7    1  0.3611369E-013  0.7246143E+02  0.7816164E-02  0.1226708E+00
        -11   -1    0    0    0    0  0.00000000000E+00  0.00000000000E+00  0.45593999997E+02  0.45594000000E+02  0.51100000000E-03 0.  1.
         11   -1    0    0    0    0 -0.00000000000E+00 -0.00000000000E+00 -0.45593999997E+02  0.45594000000E+02  0.51100000000E-03 0. -1.
    9900012    2    1    2    0    0 -0.19499737622E+01 -0.15707015375E+02 -0.10008573299E+02  0.72461434134E+02  0.69999822625E+02 0.  0.
        -12    1    1    2    0    0  0.19499737622E+01  0.15707015375E+02  0.10008573299E+02  0.18726565866E+02  0.00000000000E+00 0.  1.
         11    1    3    3    0    0 -0.16836617218E+02  0.18459011635E+02 -0.15244964538E+02  0.29267998461E+02  0.51100000000E-03 0.  1.
        -11    1    3    3    0    0 -0.29267085887E+01 -0.19520662999E+02  0.11411950091E+01  0.19771804000E+02  0.51100000000E-03 0. -1.
        -12    1    3    3    0    0  0.17813352044E+02 -0.14645364011E+02  0.40951962298E+01  0.23421631673E+02  0.00000000000E+00 0.  1.
</event>
<event>
 7    1  0.3611369E-013  0.7246159E+02  0.7816164E-02  0.1226708E+00
        -11   -1    0    0    0    0  0.00000000000E+00  0.00000000000E+00  0.45593999997E+02  0.45594000000E+02  0.51100000000E-03 0. -1.
         11   -1    0    0    0    0 -0.00000000000E+00 -0.00000000000E+00 -0.45593999997E+02  0.45594000000E+02  0.51100000000E-03 0.  1.
    9900012    2    1    2    0    0 -0.80107738853E+01 -0.15792770851E+02  0.60905218077E+01  0.72461586427E+02  0.70000021016E+02 0.  0.
        -12    1    1    2    0    0  0.80107738853E+01  0.15792770851E+02 -0.60905218077E+01  0.18726413573E+02  0.00000000000E+00 0.  1.
         11    1    3    3    0    0  0.29899901875E+01  0.68807850083E+01  0.13028287724E+02  0.15034012270E+02  0.51100000000E-03 0. -1.
        -11    1    3    3    0    0  0.20231076676E+02 -0.12130105605E+02  0.66662605694E+00  0.23598311719E+02  0.51100000000E-03 0.  1.
         12    1    3    3    0    0 -0.31231840749E+02 -0.10543450255E+02 -0.76043919733E+01  0.33829262438E+02  0.00000000000E+00 0. -1.
</event>
<event>
 7    1  0.3611369E-013  0.7246176E+02  0.7816164E-02  0.1226708E+00
        -11   -1    0    0    0    0  0.00000000000E+00  0.00000000000E+00  0.45593999997E+02  0.45594000000E+02  0.51100000000E-03 0.  1.
         11   -1    0    0    0    0 -0.00000000000E+00 -0.00000000000E+00 -0.45593999997E+02  0.45594000000E+02  0.51100000000E-03 0. -1.
    9900012    2    1    2    0    0 -0.98327372679E+01 -0.15835711220E+02  0.17942890635E+01  0.72461763184E+02  0.70000251275E+02 0.  0.
        -12    1    1    2    0    0  0.98327372679E+01  0.15835711220E+02 -0.17942890635E+01  0.18726236816E+02  0.00000000000E+00 0.  1.
         11    1    3    3    0    0 -0.10985450037E+02 -0.14124853939E+02 -0.11188075892E+01  0.17928841067E+02  0.51100000000E-03 0. -1.
        -11    1    3    3    0    0 -0.12594972880E+01 -0.61257313882E+01  0.28131162353E+02  0.28817932162E+02  0.51100000000E-03 0.  1.
         12    1    3    3    0    0  0.24122100571E+01  0.44148741073E+01 -0.25218065701E+02  0.25714989956E+02  0.00000000000E+00 0. -1.
</event>
<event>
 7    1  0.3611369E-013  0.7246160E+02  0.7816164E-02  0.1226708E+00
        -11   -1    0    0    0    0  0.00000000000E+00  0.00000000000E+00  0.45593999997E+02  0.45594000000E+02  0.51100000000E-03 0.  1.
         11   -1    0    0    0    0 -0.00000000000E+00 -0.00000000000E+00 -0.45593999997E+02  0.45594000000E+02  0.51100000000E-03 0. -1.
    9900012    2    1    2    0    0 -0.45091253258E+01  0.12746476266E+02 -0.12956584762E+02  0.72461602667E+02  0.70000042171E+02 0.  0.
        -12    1    1    2    0    0  0.45091253258E+01 -0.12746476266E+02  0.12956584762E+02  0.18726397333E+02  0.00000000000E+00 0.  1.
         11    1    3    3    0    0  0.33687800778E+01  0.20979473214E+02 -0.93436351356E+01  0.23211861049E+02  0.51100000000E-03 0. -1.
        -11    1    3    3    0    0  0.14965262683E+02  0.48554261835E+00  0.12884955682E+02  0.19753909031E+02  0.51100000000E-03 0.  1.
        -12    1    3    3    0    0 -0.22843168087E+02 -0.87185395664E+01 -0.16497905308E+02  0.29495832587E+02  0.00000000000E+00 0.  1.
</event>
<event>
 7    1  0.3611369E-013  0.7246159E+02  0.7816164E-02  0.1226708E+00
        -11   -1    0    0    0    0  0.00000000000E+00  0.00000000000E+00  0.45593999997E+02  0.45594000000E+02  0.51100000000E-03 0.  1.
         11   -1    0    0    0    0 -0.00000000000E+00 -0.00000000000E+00 -0.45593999997E+02  0.45594000000E+02  0.51100000000E-03 0. -1.
    9900012    2    1    2    0    0 -0.10325452709E+02 -0.15277505931E+02 -0.32651517231E+01  0.72461591457E+02  0.70000027569E+02 0.  0.
        -12    1    1    2    0    0  0.10325452709E+02  0.15277505931E+02  0.32651517231E+01  0.18726408543E+02  0.00000000000E+00 0.  1.
         11    1    3    3    0    0  0.12466070266E+01 -0.82851127749E+00 -0.96864491367E+01  0.98014160791E+01  0.51100000000E-03 0. -1.
        -11    1    3    3    0    0 -0.10436666450E+02 -0.56949167849E+01 -0.26250196147E+02  0.28817162972E+02  0.51100000000E-03 0.  1.
        -12    1    3    3    0    0 -0.11353932854E+01 -0.87540778689E+01  0.32671493560E+02  0.33843012406E+02  0.00000000000E+00 0.  1.
</event>
<event>
 7    1  0.3611369E-013  0.7246157E+02  0.7816164E-02  0.1226708E+00
        -11   -1    0    0    0    0  0.00000000000E+00  0.00000000000E+00  0.45593999997E+02  0.45594000000E+02  0.51100000000E-03 0. -1.
         11   -1    0    0    0    0 -0.00000000000E+00 -0.00000000000E+00 -0.45593999997E+02  0.45594000000E+02  0.51100000000E-03 0.  1.
    9900012    2    1    2    0    0 -0.23828857436E+01 -0.13546647150E+02  0.12707841307E+02  0.72461574176E+02  0.70000005056E+02 0.  0.
        -12    1    1    2    0    0  0.23828857436E+01  0.13546647150E+02 -0.12707841307E+02  0.18726425824E+02  0.00000000000E+00 0.  1.
         11    1    3    3    0    0 -0.30981334982E+01  0.13261815297E+02 -0.19457375604E+02  0.23750024038E+02  0.51100000000E-03 0. -1.
        -11    1    3    3    0    0  0.60502738873E+01 -0.50103445225E+01 -0.17459531148E+01  0.80472180837E+01  0.51100000000E-03 0.  1.
         12    1    3    3    0    0 -0.53350261327E+01 -0.21798117925E+02  0.33911170026E+02  0.40664332054E+02  0.00000000000E+00 0. -1.
</event>
<event>
 7    1  0.3611369E-013  0.7246143E+02  0.7816164E-02  0.1226708E+00
        -11   -1    0    0    0    0  0.00000000000E+00  0.00000000000E+00  0.45593999997E+02  0.45594000000E+02  0.51100000000E-03 0. -1.
         11   -1    0    0    0    0 -0.00000000000E+00 -0.00000000000E+00 -0.45593999997E+02  0.45594000000E+02  0.51100000000E-03 0.  1.
    9900012    2    1    2    0    0  0.18309823904E+02 -0.52590709020E+00 -0.38933655407E+01  0.72461427305E+02  0.69999813729E+02 0.  0.
        -12    1    1    2    0    0 -0.18309823904E+02  0.52590709020E+00  0.38933655407E+01  0.18726572695E+02  0.00000000000E+00 0.  1.
         11    1    3    3    0    0  0.51819340007E+01  0.14990273759E+02  0.19182805748E+02  0.24890576209E+02  0.51100000000E-03 0. -1.
        -11    1    3    3    0    0 -0.68058402265E+01  0.10217250350E+01  0.56411380983E+01  0.88986416121E+01  0.51100000000E-03 0.  1.
         12    1    3    3    0    0  0.19933730130E+02 -0.16537905885E+02 -0.28717309387E+02  0.38672209484E+02  0.00000000000E+00 0. -1.
</event>
<event>
 7    1  0.3611369E-013  0.7246201E+02  0.7816164E-02  0.1226707E+00
        -11   -1    0    0    0    0  0.00000000000E+00  0.00000000000E+00  0.45593999997E+02  0.45594000000E+02  0.51100000000E-03 0. -1.
         11   -1    0    0    0    0 -0.00000000000E+00 -0.00000000000E+00 -0.45593999997E+02  0.45594000000E+02  0.51100000000E-03 0.  1.
    9900012    2    1    2    0    0  0.15920306257E+02  0.94612751541E+01 -0.27732482920E+01  0.72462007772E+02  0.70000569893E+02 0.  0.
        -12    1    1    2    0    0 -0.15920306257E+02 -0.94612751541E+01  0.27732482920E+01  0.18725992228E+02  0.00000000000E+00 0.  1.
         11    1    3    3    0    0 -0.13745830664E+02  0.17276688792E-01  0.29281783268E+01  0.14054265819E+02  0.51100000000E-03 0. -1.
        -11    1    3    3    0    0 -0.90716042890E+01  0.50258402367E+01  0.11766642087E+02  0.15684608402E+02  0.51100000000E-03 0.  1.
         12    1    3    3    0    0  0.38737741209E+02  0.44181582287E+01 -0.17468068706E+02  0.42723133551E+02  0.00000000000E+00 0. -1.
</event>
<event>
 7    1  0.3611369E-013  0.7246158E+02  0.7816164E-02  0.1226708E+00
        -11   -1    0    0    0    0  0.00000000000E+00  0.00000000000E+00  0.45593999997E+02  0.45594000000E+02  0.51100000000E-03 0. -1.
         11   -1    0    0    0    0 -0.00000000000E+00 -0.00000000000E+00 -0.45593999997E+02  0.45594000000E+02  0.51100000000E-03 0.  1.
    9900012    2    1    2    0    0 -0.35702240278E+01 -0.59812905790E+01  0.17382644046E+02  0.72461584149E+02  0.70000018048E+02 0.  0.
        -12    1    1    2    0    0  0.35702240278E+01  0.59812905790E+01 -0.17382644046E+02  0.18726415851E+02  0.00000000000E+00 0.  1.
         11    1    3    3    0    0 -0.60018567841E+01 -0.11423944994E+02  0.21195175684E+02  0.24814598055E+02  0.51100000000E-03 0. -1.
        -11    1    3    3    0    0  0.18367576172E+02 -0.20874523694E+01  0.13539178710E+02  0.22913635073E+02  0.51100000000E-03 0.  1.
        -12    1    3    3    0    0 -0.15935943416E+02  0.75301067843E+01 -0.17351710348E+02  0.24733351021E+02  0.00000000000E+00 0.  1.
</event>
<event>
 7    1  0.3611369E-013  0.7246160E+02  0.7816164E-02  0.1226708E+00
        -11   -1    0    0    0    0  0.00000000000E+00  0.00000000000E+00  0.45593999997E+02  0.45594000000E+02  0.51100000000E-03 0. -1.
         11   -1    0    0    0    0 -0.00000000000E+00 -0.00000000000E+00 -0.45593999997E+02  0.45594000000E+02  0.51100000000E-03 0.  1.
    9900012    2    1    2    0    0 -0.14979552576E+02  0.71983768801E+01 -0.86298604167E+01  0.72461598427E+02  0.70000036648E+02 0.  0.
        -12    1    1    2    0    0  0.14979552576E+02 -0.71983768801E+01  0.86298604167E+01  0.18726401573E+02  0.00000000000E+00 0.  1.
         11    1    3    3    0    0 -0.27243372398E+02  0.18744724143E+02  0.21975528654E+01  0.33142046734E+02  0.51100000000E-03 0. -1.
        -11    1    3    3    0    0 -0.95913451649E+01  0.45158921087E+01 -0.19361814122E+01  0.10776640587E+02  0.51100000000E-03 0.  1.
        -12    1    3    3    0    0  0.21855164987E+02 -0.16062239372E+02 -0.88912318699E+01  0.28542911107E+02  0.00000000000E+00 0.  1.
</event>
<event>
 7    1  0.3611369E-013  0.7246155E+02  0.7816164E-02  0.1226708E+00
        -11   -1    0    0    0    0  0.00000000000E+00  0.00000000000E+00  0.45593999997E+02  0.45594000000E+02  0.51100000000E-03 0.  1.
         11   -1    0    0    0    0 -0.00000000000E+00 -0.00000000000E+00 -0.45593999997E+02  0.45594000000E+02  0.51100000000E-03 0. -1.
    9900012    2    1    2    0    0  0.71534571791E+01 -0.15405791372E+02 -0.78847602362E+01  0.72461553423E+02  0.69999978022E+02 0.  0.
        -12    1    1    2    0    0 -0.71534571791E+01  0.15405791372E+02  0.78847602362E+01  0.18726446577E+02  0.00000000000E+00 0.  1.
         11    1    3    3    0    0  0.60109883633E+01 -0.37097891321E+01 -0.26252590733E+02  0.27186265594E+02  0.51100000000E-03 0. -1.
        -11    1    3    3    0    0 -0.84374572915E+00  0.14205563165E+02  0.15175000754E+01  0.14311280112E+02  0.51100000000E-03 0.  1.
         12    1    3    3    0    0  0.19862145449E+01 -0.25901565405E+02  0.16850330421E+02  0.30964007718E+02  0.00000000000E+00 0. -1.
</event>
<event>
 7    1  0.3611369E-013  0.7246157E+02  0.7816164E-02  0.1226708E+00
        -11   -1    0    0    0    0  0.00000000000E+00  0.00000000000E+00  0.45593999997E+02  0.45594000000E+02  0.51100000000E-03 0.  1.
         11   -1    0    0    0    0 -0.00000000000E+00 -0.00000000000E+00 -0.45593999997E+02  0.45594000000E+02  0.51100000000E-03 0. -1.
    9900012    2    1    2    0    0  0.11309689602E+02 -0.10467215231E+01 -0.14888738648E+02  0.72461568322E+02  0.69999997431E+02 0.  0.
        -12    1    1    2    0    0 -0.11309689602E+02  0.10467215231E+01  0.14888738648E+02  0.18726431678E+02  0.00000000000E+00 0.  1.
         11    1    3    3    0    0  0.38063003833E+02  0.37376371686E+01 -0.88706675199E+01  0.39261316010E+02  0.51100000000E-03 0. -1.
        -11    1    3    3    0    0  0.13483254158E+01  0.31694177585E+01 -0.58420644259E+00  0.34934922046E+01  0.51100000000E-03 0.  1.
        -12    1    3    3    0    0 -0.28101639647E+02 -0.79537764502E+01 -0.54338646860E+01  0.29706760107E+02  0.00000000000E+00 0.  1.
</event>
<event>
 7    1  0.3611369E-013  0.7246152E+02  0.7816164E-02  0.1226708E+00
        -11   -1    0    0    0    0  0.00000000000E+00  0.00000000000E+00  0.45593999997E+02  0.45594000000E+02  0.51100000000E-03 0.  1.
         11   -1    0    0    0    0 -0.00000000000E+00 -0.00000000000E+00 -0.45593999997E+02  0.45594000000E+02  0.51100000000E-03 0. -1.
    9900012    2    1    2    0    0 -0.72918565708E+01 -0.16240189349E+02 -0.58108769583E+01  0.72461515724E+02  0.69999928911E+02 0.  0.
        -12    1    1    2    0    0  0.72918565708E+01  0.16240189349E+02  0.58108769583E+01  0.18726484276E+02  0.00000000000E+00 0.  1.
         11    1    3    3    0    0 -0.15216959983E+02  0.42932965678E+01 -0.84870350133E+01  0.17944860827E+02  0.51100000000E-03 0. -1.
        -11    1    3    3    0    0  0.14775101424E+02 -0.32722120307E+01 -0.20080432574E+02  0.25144278997E+02  0.51100000000E-03 0.  1.
        -12    1    3    3    0    0 -0.68499980115E+01 -0.17261273886E+02  0.22756590629E+02  0.29372375899E+02  0.00000000000E+00 0.  1.
</event>
<event>
 7    1  0.3611369E-013  0.7246155E+02  0.7816164E-02  0.1226708E+00
        -11   -1    0    0    0    0  0.00000000000E+00  0.00000000000E+00  0.45593999997E+02  0.45594000000E+02  0.51100000000E-03 0. -1.
         11   -1    0    0    0    0 -0.00000000000E+00 -0.00000000000E+00 -0.45593999997E+02  0.45594000000E+02  0.51100000000E-03 0.  1.
    9900012    2    1    2    0    0  0.45200518199E+01  0.12482317014E+02  0.13207604965E+02  0.72461549845E+02  0.69999973361E+02 0.  0.
        -12    1    1    2    0    0 -0.45200518199E+01 -0.12482317014E+02 -0.13207604965E+02  0.18726450155E+02  0.00000000000E+00 0.  1.
         11    1    3    3    0    0 -0.89871745558E+01 -0.33021000934E+00 -0.20744199730E+01  0.92293858752E+01  0.51100000000E-03 0. -1.
        -11    1    3    3    0    0 -0.80750799831E+01  0.11030079734E+01 -0.19224736693E+02  0.20880949320E+02  0.51100000000E-03 0.  1.
        -12    1    3    3    0    0  0.21582306359E+02  0.11709519050E+02  0.34506761630E+02  0.42351214650E+02  0.00000000000E+00 0.  1.
</event>
<event>
 7    1  0.3611369E-013  0.7246154E+02  0.7816164E-02  0.1226708E+00
        -11   -1    0    0    0    0  0.00000000000E+00  0.00000000000E+00  0.45593999997E+02  0.45594000000E+02  0.51100000000E-03 0.  1.
         11   -1    0    0    0    0 -0.00000000000E+00 -0.00000000000E+00 -0.45593999997E+02  0.45594000000E+02  0.51100000000E-03 0. -1.
    9900012    2    1    2    0    0 -0.15259005792E+02 -0.10673528232E+02 -0.19796054131E+01  0.72461540103E+02  0.69999960670E+02 0.  0.
        -12    1    1    2    0    0  0.15259005792E+02  0.10673528232E+02  0.19796054131E+01  0.18726459897E+02  0.00000000000E+00 0.  1.
         11    1    3    3    0    0 -0.10560656682E+02  0.18128392889E+02 -0.67152137387E+01  0.22028622157E+02  0.51100000000E-03 0. -1.
        -11    1    3    3    0    0 -0.25147029211E+01  0.10319239729E+02  0.36665441618E+01  0.11236279888E+02  0.51100000000E-03 0.  1.
        -12    1    3    3    0    0 -0.21836461890E+01 -0.39121160850E+02  0.10690641638E+01  0.39196638059E+02  0.00000000000E+00 0.  1.
</event>
<event>
 7    1  0.3611369E-013  0.7246163E+02  0.7816164E-02  0.1226708E+00
        -11   -1    0    0    0    0  0.00000000000E+00  0.00000000000E+00  0.45593999997E+02  0.45594000000E+02  0.51100000000E-03 0. -1.
         11   -1    0    0    0    0 -0.00000000000E+00 -0.00000000000E+00 -0.45593999997E+02  0.45594000000E+02  0.51100000000E-03 0.  1.
    9900012    2    1    2    0    0  0.12577088307E-01  0.18240843973E+02 -0.42365347479E+01  0.72461634263E+02  0.70000083331E+02 0.  0.
        -12    1    1    2    0    0 -0.12577088307E-01 -0.18240843973E+02  0.42365347479E+01  0.18726365737E+02  0.00000000000E+00 0.  1.
         11    1    3    3    0    0 -0.10306192324E+02  0.13635472822E+02  0.10520858785E+01  0.17124561432E+02  0.51100000000E-03 0. -1.
        -11    1    3    3    0    0  0.21170310477E+02  0.19993669523E+02  0.10304963413E+02  0.30888851353E+02  0.51100000000E-03 0.  1.
        -12    1    3    3    0    0 -0.10851541065E+02 -0.15388298372E+02 -0.15593584039E+02  0.24448221478E+02  0.00000000000E+00 0.  1.
</event>
<event>
 7    1  0.3611369E-013  0.7246153E+02  0.7816164E-02  0.1226708E+00
        -11   -1    0    0    0    0  0.00000000000E+00  0.00000000000E+00  0.45593999997E+02  0.45594000000E+02  0.51100000000E-03 0.  1.
         11   -1    0    0    0    0 -0.00000000000E+00 -0.00000000000E+00 -0.45593999997E+02  0.45594000000E+02  0.51100000000E-03 0. -1.
    9900012    2    1    2    0    0  0.76894269336E+01 -0.96835170429E+01 -0.14063531299E+02  0.72461529391E+02  0.69999946715E+02 0.  0.
        -12    1    1    2    0    0 -0.76894269336E+01  0.96835170429E+01  0.14063531299E+02  0.18726470609E+02  0.00000000000E+00 0.  1.
         11    1    3    3    0    0  0.10154585478E+01  0.20383800781E+01 -0.12990274034E+02  0.13188380081E+02  0.51100000000E-03 0. -1.
        -11    1    3    3    0    0  0.12865510714E+02 -0.12482179250E+02 -0.27109514588E+02  0.32500029942E+02  0.51100000000E-03 0.  1.
        -12    1    3    3    0    0 -0.61915423282E+01  0.76028212918E+00  0.26036257323E+02  0.26773119368E+02  0.00000000000E+00 0.  1.
</event>
<event>
 7    1  0.3611369E-013  0.7246158E+02  0.7816164E-02  0.1226708E+00
        -11   -1    0    0    0    0  0.00000000000E+00  0.00000000000E+00  0.45593999997E+02  0.45594000000E+02  0.51100000000E-03 0. -1.
         11   -1    0    0    0    0 -0.00000000000E+00 -0.00000000000E+00 -0.45593999997E+02  0.45594000000E+02  0.51100000000E-03 0.  1.
    9900012    2    1    2    0    0  0.16626926912E+02  0.84872593934E+01 -0.14800539262E+01  0.72461579355E+02  0.70000011803E+02 0.  0.
        -12    1    1    2    0    0 -0.16626926912E+02 -0.84872593934E+01  0.14800539262E+01  0.18726420645E+02  0.00000000000E+00 0.  1.
         11    1    3    3    0    0 -0.91834375897E+01  0.29861293181E+02  0.10197188466E+01  0.31258153867E+02  0.51100000000E-03 0. -1.
        -11    1    3    3    0    0  0.43041188480E-01  0.45300185808E+01  0.41994099237E+00  0.45496452152E+01  0.51100000000E-03 0.  1.
        -12    1    3    3    0    0  0.25767323313E+02 -0.25904052368E+02 -0.29197137652E+01  0.36653780273E+02  0.00000000000E+00 0.  1.
</event>
<event>
 7    1  0.3611369E-013  0.7246149E+02  0.7816164E-02  0.1226708E+00
        -11   -1    0    0    0    0  0.00000000000E+00  0.00000000000E+00  0.45593999997E+02  0.45594000000E+02  0.51100000000E-03 0.  1.
         11   -1    0    0    0    0 -0.00000000000E+00 -0.00000000000E+00 -0.45593999997E+02  0.45594000000E+02  0.51100000000E-03 0. -1.
    9900012    2    1    2    0    0 -0.15079632695E+02 -0.63831044514E-02 -0.11103451361E+02  0.72461494851E+02  0.69999901721E+02 0.  0.
        -12    1    1    2    0    0  0.15079632695E+02  0.63831044514E-02  0.11103451361E+02  0.18726505149E+02  0.00000000000E+00 0.  1.
         11    1    3    3    0    0  0.58921946394E+01 -0.11439466140E+02 -0.77917057379E+01  0.15042939268E+02  0.51100000000E-03 0. -1.
        -11    1    3    3    0    0  0.97798866323E+01 -0.12741339523E+02  0.61080808600E+01  0.17184195281E+02  0.51100000000E-03 0.  1.
         12    1    3    3    0    0 -0.30751713967E+02  0.24174422559E+02 -0.94198264834E+01  0.40234360303E+02  0.00000000000E+00 0. -1.
</event>
<event>
 7    1  0.3611369E-013  0.7246164E+02  0.7816164E-02  0.1226708E+00
        -11   -1    0    0    0    0  0.00000000000E+00  0.00000000000E+00  0.45593999997E+02  0.45594000000E+02  0.51100000000E-03 0. -1.
         11   -1    0    0    0    0 -0.00000000000E+00 -0.00000000000E+00 -0.45593999997E+02  0.45594000000E+02  0.51100000000E-03 0.  1.
    9900012    2    1    2    0    0 -0.41844361306E+01 -0.84684719565E+01  0.16169478529E+02  0.72461639998E+02  0.70000090802E+02 0.  0.
        -12    1    1    2    0    0  0.41844361306E+01  0.84684719565E+01 -0.16169478529E+02  0.18726360002E+02  0.00000000000E+00 0.  1.
         11    1    3    3    0    0 -0.39450212821E+01 -0.35712091709E+02  0.52380614915E+01  0.36309144517E+02  0.51100000000E-03 0. -1.
        -11    1    3    3    0    0 -0.79162991906E+01  0.51846559451E+01 -0.16762887266E+01  0.96103274814E+01  0.51100000000E-03 0.  1.
        -12    1    3    3    0    0  0.76768843421E+01  0.22058963807E+02  0.12607705765E+02  0.26542167999E+02  0.00000000000E+00 0.  1.
</event>
<event>
 7    1  0.3611369E-013  0.7246159E+02  0.7816164E-02  0.1226708E+00
        -11   -1    0    0    0    0  0.00000000000E+00  0.00000000000E+00  0.45593999997E+02  0.45594000000E+02  0.51100000000E-03 0.  1.
         11   -1    0    0    0    0 -0.00000000000E+00 -0.00000000000E+00 -0.45593999997E+02  0.45594000000E+02  0.51100000000E-03 0. -1.
    9900012    2    1    2    0    0 -0.86676293209E+01  0.16463700033E+02  0.21206317488E+01  0.72461593622E+02  0.70000030389E+02 0.  0.
        -12    1    1    2    0    0  0.86676293209E+01 -0.16463700033E+02 -0.21206317488E+01  0.18726406378E+02  0.00000000000E+00 0.  1.
         11    1    3    3    0    0 -0.65839587808E+01 -0.49294398957E+01  0.31531142333E+01  0.88085197702E+01  0.51100000000E-03 0. -1.
        -11    1    3    3    0    0 -0.28786812796E+01 -0.14220064664E+02  0.18116750482E+02  0.23210206661E+02  0.51100000000E-03 0.  1.
         12    1    3    3    0    0  0.79501073949E+00  0.35613204593E+02 -0.19149232966E+02  0.40442867191E+02  0.00000000000E+00 0. -1.
</event>
<event>
 7    1  0.3611369E-013  0.7246157E+02  0.7816164E-02  0.1226708E+00
        -11   -1    0    0    0    0  0.00000000000E+00  0.00000000000E+00  0.45593999997E+02  0.45594000000E+02  0.51100000000E-03 0. -1.
         11   -1    0    0    0    0 -0.00000000000E+00 -0.00000000000E+00 -0.45593999997E+02  0.45594000000E+02  0.51100000000E-03 0.  1.
    9900012    2    1    2    0    0 -0.13416740297E+02  0.10570796933E+02  0.76764823122E+01  0.72461573521E+02  0.70000004203E+02 0.  0.
        -12    1    1    2    0    0  0.13416740297E+02 -0.10570796933E+02 -0.76764823122E+01  0.18726426479E+02  0.00000000000E+00 0.  1.
         11    1    3    3    0    0 -0.26875280980E+01  0.12375517425E+02  0.17106885213E+02  0.21284307853E+02  0.51100000000E-03 0. -1.
        -11    1    3    3    0    0  0.12758452178E+02  0.54302747197E+01 -0.20071878339E+02  0.24395620218E+02  0.51100000000E-03 0.  1.
         12    1    3    3    0    0 -0.23487664376E+02 -0.72349952113E+01  0.10641475438E+02  0.26781645451E+02  0.00000000000E+00 0. -1.
</event>
<event>
 7    1  0.3611369E-013  0.7246155E+02  0.7816164E-02  0.1226708E+00
        -11   -1    0    0    0    0  0.00000000000E+00  0.00000000000E+00  0.45593999997E+02  0.45594000000E+02  0.51100000000E-03 0.  1.
         11   -1    0    0    0    0 -0.00000000000E+00 -0.00000000000E+00 -0.45593999997E+02  0.45594000000E+02  0.51100000000E-03 0. -1.
    9900012    2    1    2    0    0  0.44615963306E+01 -0.10553365430E+02 -0.14812173792E+02  0.72461551961E+02  0.69999976117E+02 0.  0.
        -12    1    1    2    0    0 -0.44615963306E+01  0.10553365430E+02  0.14812173792E+02  0.18726448039E+02  0.00000000000E+00 0.  1.
         11    1    3    3    0    0 -0.22676934730E+01  0.22858861858E+02  0.92058689902E+01  0.24747081106E+02  0.51100000000E-03 0. -1.
        -11    1    3    3    0    0  0.33448448687E+01 -0.42983140385E+01  0.43152088884E+01  0.69487062667E+01  0.51100000000E-03 0.  1.
         12    1    3    3    0    0  0.33844449348E+01 -0.29113913250E+02 -0.28333251671E+02  0.40765764588E+02  0.00000000000E+00 0. -1.
</event>
<event>
 7    1  0.3611369E-013  0.7246159E+02  0.7816164E-02  0.1226708E+00
        -11   -1    0    0    0    0  0.00000000000E+00  0.00000000000E+00  0.45593999997E+02  0.45594000000E+02  0.51100000000E-03 0. -1.
         11   -1    0    0    0    0 -0.00000000000E+00 -0.00000000000E+00 -0.45593999997E+02  0.45594000000E+02  0.51100000000E-03 0.  1.
    9900012    2    1    2    0    0 -0.81411082276E+00  0.41252382876E+01  0.18248239002E+02  0.72461585660E+02  0.70000020017E+02 0.  0.
        -12    1    1    2    0    0  0.81411082276E+00 -0.41252382876E+01 -0.18248239002E+02  0.18726414340E+02  0.00000000000E+00 0.  1.
         11    1    3    3    0    0  0.12255090907E+01 -0.70151269430E+01  0.85215989435E+00  0.71721722863E+01  0.51100000000E-03 0. -1.
        -11    1    3    3    0    0  0.29038962042E+02  0.75807783347E+01  0.11349983858E+01  0.30033610143E+02  0.51100000000E-03 0.  1.
         12    1    3    3    0    0 -0.31078581955E+02  0.35595868959E+01  0.16261080722E+02  0.35255803231E+02  0.00000000000E+00 0. -1.
</event>
<event>
 7    1  0.3611369E-013  0.7246148E+02  0.7816164E-02  0.1226708E+00
        -11   -1    0    0    0    0  0.00000000000E+00  0.00000000000E+00  0.45593999997E+02  0.45594000000E+02  0.51100000000E-03 0.  1.
         11   -1    0    0    0    0 -0.00000000000E+00 -0.00000000000E+00 -0.45593999997E+02  0.45594000000E+02  0.51100000000E-03 0. -1.
    9900012    2    1    2    0    0  0.16420867608E+02  0.96595284099E+00 -0.89501123689E+01  0.72461482189E+02  0.69999885227E+02 0.  0.
        -12    1    1    2    0    0 -0.16420867608E+02 -0.96595284099E+00  0.89501123689E+01  0.18726517811E+02  0.00000000000E+00 0.  1.
         11    1    3    3    0    0  0.79813740778E+01  0.10967561067E+02  0.11845680708E+02  0.18008605710E+02  0.51100000000E-03 0. -1.
        -11    1    3    3    0    0 -0.10241483559E+02  0.15249739300E+02 -0.11594034466E+02  0.21722434709E+02  0.51100000000E-03 0.  1.
         12    1    3    3    0    0  0.18680977090E+02 -0.25251347526E+02 -0.92017586108E+01  0.32730441770E+02  0.00000000000E+00 0. -1.
</event>
<event>
 7    1  0.3611369E-013  0.7246174E+02  0.7816164E-02  0.1226708E+00
        -11   -1    0    0    0    0  0.00000000000E+00  0.00000000000E+00  0.45593999997E+02  0.45594000000E+02  0.51100000000E-03 0. -1.
         11   -1    0    0    0    0 -0.00000000000E+00 -0.00000000000E+00 -0.45593999997E+02  0.45594000000E+02  0.51100000000E-03 0.  1.
    9900012    2    1    2    0    0 -0.71468303372E+01  0.15614695685E+02  0.74683909404E+01  0.72461741205E+02  0.70000222643E+02 0.  0.
        -12    1    1    2    0    0  0.71468303372E+01 -0.15614695685E+02 -0.74683909404E+01  0.18726258795E+02  0.00000000000E+00 0.  1.
         11    1    3    3    0    0 -0.54880539813E+01 -0.15819784002E+01  0.12525066260E+01  0.58472356948E+01  0.51100000000E-03 0. -1.
        -11    1    3    3    0    0 -0.24308651068E+02  0.27569838615E+02 -0.84377722942E+01  0.37712100440E+02  0.51100000000E-03 0.  1.
         12    1    3    3    0    0  0.22649874712E+02 -0.10373164530E+02  0.14653656609E+02  0.28902405070E+02  0.00000000000E+00 0. -1.
</event>
<event>
 7    1  0.3611369E-013  0.7246153E+02  0.7816164E-02  0.1226708E+00
        -11   -1    0    0    0    0  0.00000000000E+00  0.00000000000E+00  0.45593999997E+02  0.45594000000E+02  0.51100000000E-03 0. -1.
         11   -1    0    0    0    0 -0.00000000000E+00 -0.00000000000E+00 -0.45593999997E+02  0.45594000000E+02  0.51100000000E-03 0.  1.
    9900012    2    1    2    0    0  0.12943124131E+02 -0.82098479388E+00  0.13508590684E+02  0.72461534755E+02  0.69999953703E+02 0.  0.
        -12    1    1    2    0    0 -0.12943124131E+02  0.82098479388E+00 -0.13508590684E+02  0.18726465245E+02  0.00000000000E+00 0.  1.
         11    1    3    3    0    0 -0.95114959257E+00  0.82961604565E+01  0.11884476732E+02  0.14524866654E+02  0.51100000000E-03 0. -1.
        -11    1    3    3    0    0  0.15564964978E+02 -0.88688757448E+01 -0.25277609817E+02  0.30981972986E+02  0.51100000000E-03 0.  1.
         12    1    3    3    0    0 -0.16706912541E+01 -0.24826950549E+00  0.26901723769E+02  0.26954695115E+02  0.00000000000E+00 0. -1.
</event>
<event>
 7    1  0.3611369E-013  0.7246159E+02  0.7816164E-02  0.1226708E+00
        -11   -1    0    0    0    0  0.00000000000E+00  0.00000000000E+00  0.45593999997E+02  0.45594000000E+02  0.51100000000E-03 0.  1.
         11   -1    0    0    0    0 -0.00000000000E+00 -0.00000000000E+00 -0.45593999997E+02  0.45594000000E+02  0.51100000000E-03 0. -1.
    9900012    2    1    2    0    0 -0.45828062981E+01  0.16136402856E+02  0.83242365963E+01  0.72461587487E+02  0.70000022397E+02 0.  0.
        -12    1    1    2    0    0  0.45828062981E+01 -0.16136402856E+02 -0.83242365963E+01  0.18726412513E+02  0.00000000000E+00 0.  1.
         11    1    3    3    0    0 -0.33820318631E+02  0.11944921825E+02  0.14641140980E+02  0.38740910149E+02  0.51100000000E-03 0.  1.
        -11    1    3    3    0    0  0.11710346099E+02  0.87294685190E+01 -0.19093302071E+00  0.14607268125E+02  0.51100000000E-03 0. -1.
        -12    1    3    3    0    0  0.17527166233E+02 -0.45379874879E+01 -0.61259713634E+01  0.19113409213E+02  0.00000000000E+00 0.  1.
</event>
<event>
 7    1  0.3611369E-013  0.7246156E+02  0.7816164E-02  0.1226708E+00
        -11   -1    0    0    0    0  0.00000000000E+00  0.00000000000E+00  0.45593999997E+02  0.45594000000E+02  0.51100000000E-03 0. -1.
         11   -1    0    0    0    0 -0.00000000000E+00 -0.00000000000E+00 -0.45593999997E+02  0.45594000000E+02  0.51100000000E-03 0.  1.
    9900012    2    1    2    0    0  0.17770876899E+02  0.40932077868E+01  0.42568897399E+01  0.72461560776E+02  0.69999987601E+02 0.  0.
        -12    1    1    2    0    0 -0.17770876899E+02 -0.40932077868E+01 -0.42568897399E+01  0.18726439224E+02  0.00000000000E+00 0.  1.
         11    1    3    3    0    0 -0.22235598222E+01 -0.70034673680E+01  0.17999307524E+02  0.19441395142E+02  0.51100000000E-03 0. -1.
        -11    1    3    3    0    0  0.13209527061E+02 -0.74728766021E+01  0.12848382097E+02  0.19885080152E+02  0.51100000000E-03 0.  1.
        -12    1    3    3    0    0  0.67849096601E+01  0.18569551757E+02 -0.26590799881E+02  0.33135085482E+02  0.00000000000E+00 0.  1.
</event>
<event>
 7    1  0.3611369E-013  0.7246154E+02  0.7816164E-02  0.1226708E+00
        -11   -1    0    0    0    0  0.00000000000E+00  0.00000000000E+00  0.45593999997E+02  0.45594000000E+02  0.51100000000E-03 0. -1.
         11   -1    0    0    0    0 -0.00000000000E+00 -0.00000000000E+00 -0.45593999997E+02  0.45594000000E+02  0.51100000000E-03 0.  1.
    9900012    2    1    2    0    0  0.10337923666E+02 -0.15535117057E+02 -0.15708672677E+01  0.72461544070E+02  0.69999965838E+02 0.  0.
        -12    1    1    2    0    0 -0.10337923666E+02  0.15535117057E+02  0.15708672677E+01  0.18726455930E+02  0.00000000000E+00 0.  1.
         11    1    3    3    0    0 -0.10912217191E+02 -0.17808490095E+02  0.85885409244E+01  0.22582777486E+02  0.51100000000E-03 0. -1.
        -11    1    3    3    0    0  0.19716790491E+02 -0.61014549062E+01  0.13548179198E+02  0.24688716837E+02  0.51100000000E-03 0.  1.
        -12    1    3    3    0    0  0.15333503663E+01  0.83748279442E+01 -0.23707587390E+02  0.25190049748E+02  0.00000000000E+00 0.  1.
</event>
<event>
 7    1  0.3611369E-013  0.7246153E+02  0.7816164E-02  0.1226708E+00
        -11   -1    0    0    0    0  0.00000000000E+00  0.00000000000E+00  0.45593999997E+02  0.45594000000E+02  0.51100000000E-03 0.  1.
         11   -1    0    0    0    0 -0.00000000000E+00 -0.00000000000E+00 -0.45593999997E+02  0.45594000000E+02  0.51100000000E-03 0. -1.
    9900012    2    1    2    0    0 -0.57757817313E+01  0.14027609286E+02 -0.10979394459E+02  0.72461532646E+02  0.69999950956E+02 0.  0.
        -12    1    1    2    0    0  0.57757817313E+01 -0.14027609286E+02  0.10979394459E+02  0.18726467354E+02  0.00000000000E+00 0.  1.
         11    1    3    3    0    0  0.64826007297E+01  0.29397282641E+01 -0.25171097501E+02  0.26158177769E+02  0.51100000000E-03 0. -1.
        -11    1    3    3    0    0 -0.64830749354E+01 -0.21653904122E+01 -0.13462484879E+02  0.15098267306E+02  0.51100000000E-03 0.  1.
         12    1    3    3    0    0 -0.57753075256E+01  0.13253271434E+02  0.27654187922E+02  0.31205087571E+02  0.00000000000E+00 0. -1.
</event>
<event>
 7    1  0.3611369E-013  0.7246153E+02  0.7816164E-02  0.1226708E+00
        -11   -1    0    0    0    0  0.00000000000E+00  0.00000000000E+00  0.45593999997E+02  0.45594000000E+02  0.51100000000E-03 0. -1.
         11   -1    0    0    0    0 -0.00000000000E+00 -0.00000000000E+00 -0.45593999997E+02  0.45594000000E+02  0.51100000000E-03 0.  1.
    9900012    2    1    2    0    0 -0.18304465424E+02 -0.27216579052E+01  0.28670110842E+01  0.72461531333E+02  0.69999949245E+02 0.  0.
        -12    1    1    2    0    0  0.18304465424E+02  0.27216579052E+01 -0.28670110842E+01  0.18726468667E+02  0.00000000000E+00 0.  1.
         11    1    3    3    0    0 -0.12515953454E+02 -0.62710309201E+01 -0.71527052952E+01  0.15720563380E+02  0.51100000000E-03 0. -1.
        -11    1    3    3    0    0 -0.89791830770E+01 -0.86343524712E+01 -0.20351830944E+02  0.23861575689E+02  0.51100000000E-03 0.  1.
         12    1    3    3    0    0  0.31906711079E+01  0.12183725486E+02  0.30371547323E+02  0.32879392264E+02  0.00000000000E+00 0. -1.
</event>
<event>
 7    1  0.3611369E-013  0.7246162E+02  0.7816164E-02  0.1226708E+00
        -11   -1    0    0    0    0  0.00000000000E+00  0.00000000000E+00  0.45593999997E+02  0.45594000000E+02  0.51100000000E-03 0.  1.
         11   -1    0    0    0    0 -0.00000000000E+00 -0.00000000000E+00 -0.45593999997E+02  0.45594000000E+02  0.51100000000E-03 0. -1.
    9900012    2    1    2    0    0 -0.15297693366E+02  0.95377103408E+01 -0.50685413727E+01  0.72461616139E+02  0.70000059721E+02 0.  0.
        -12    1    1    2    0    0  0.15297693366E+02 -0.95377103408E+01  0.50685413727E+01  0.18726383861E+02  0.00000000000E+00 0.  1.
         11    1    3    3    0    0 -0.34217786756E+02  0.75591817226E+01  0.13051754499E+02  0.37394470909E+02  0.51100000000E-03 0.  1.
        -11    1    3    3    0    0  0.10227224643E+02 -0.86875873705E+01 -0.15188996553E+01  0.13504716015E+02  0.51100000000E-03 0. -1.
        -12    1    3    3    0    0  0.86928687474E+01  0.10666115989E+02 -0.16601396216E+02  0.21562429215E+02  0.00000000000E+00 0.  1.
</event>
<event>
 7    1  0.3611369E-013  0.7246157E+02  0.7816164E-02  0.1226708E+00
        -11   -1    0    0    0    0  0.00000000000E+00  0.00000000000E+00  0.45593999997E+02  0.45594000000E+02  0.51100000000E-03 0. -1.
         11   -1    0    0    0    0 -0.00000000000E+00 -0.00000000000E+00 -0.45593999997E+02  0.45594000000E+02  0.51100000000E-03 0.  1.
    9900012    2    1    2    0    0 -0.47610554197E+01  0.10888736792E+02  0.14472280521E+02  0.72461571052E+02  0.70000000988E+02 0.  0.
        -12    1    1    2    0    0  0.47610554197E+01 -0.10888736792E+02 -0.14472280521E+02  0.18726428948E+02  0.00000000000E+00 0.  1.
         11    1    3    3    0    0 -0.15492373498E+02 -0.37100236580E+01  0.17843594042E+02  0.23920112055E+02  0.51100000000E-03 0. -1.
        -11    1    3    3    0    0  0.46688706878E+01 -0.10573174615E+02 -0.15996850926E+02  0.19735491247E+02  0.51100000000E-03 0.  1.
         12    1    3    3    0    0  0.60624473900E+01  0.25171935065E+02  0.12625537405E+02  0.28805967751E+02  0.00000000000E+00 0. -1.
</event>
<event>
 7    1  0.3611369E-013  0.7246158E+02  0.7816164E-02  0.1226708E+00
        -11   -1    0    0    0    0  0.00000000000E+00  0.00000000000E+00  0.45593999997E+02  0.45594000000E+02  0.51100000000E-03 0. -1.
         11   -1    0    0    0    0 -0.00000000000E+00 -0.00000000000E+00 -0.45593999997E+02  0.45594000000E+02  0.51100000000E-03 0.  1.
    9900012    2    1    2    0    0 -0.15129390732E+02  0.80766020118E+00  0.11005815898E+02  0.72461581161E+02  0.70000014156E+02 0.  0.
        -12    1    1    2    0    0  0.15129390732E+02 -0.80766020118E+00 -0.11005815898E+02  0.18726418839E+02  0.00000000000E+00 0.  1.
         11    1    3    3    0    0  0.12131623239E+02  0.14501920992E+02  0.14834443113E+02  0.24032118043E+02  0.51100000000E-03 0. -1.
        -11    1    3    3    0    0 -0.18216268847E+02 -0.46515816218E+01  0.16098262667E+02  0.24751236807E+02  0.51100000000E-03 0.  1.
        -12    1    3    3    0    0 -0.90447451244E+01 -0.90426791691E+01 -0.19926889882E+02  0.23678226312E+02  0.00000000000E+00 0.  1.
</event>
<event>
 7    1  0.3611369E-013  0.7246197E+02  0.7816164E-02  0.1226707E+00
        -11   -1    0    0    0    0  0.00000000000E+00  0.00000000000E+00  0.45593999997E+02  0.45594000000E+02  0.51100000000E-03 0.  1.
         11   -1    0    0    0    0 -0.00000000000E+00 -0.00000000000E+00 -0.45593999997E+02  0.45594000000E+02  0.51100000000E-03 0. -1.
    9900012    2    1    2    0    0  0.96303776912E+01 -0.30011616218E+01 -0.15776976237E+02  0.72461971997E+02  0.70000523291E+02 0.  0.
        -12    1    1    2    0    0 -0.96303776912E+01  0.30011616218E+01  0.15776976237E+02  0.18726028003E+02  0.00000000000E+00 0.  1.
         11    1    3    3    0    0  0.10275248223E+01  0.44246563147E+01 -0.95871855521E+01  0.10608841494E+02  0.51100000000E-03 0. -1.
        -11    1    3    3    0    0 -0.22526277541E+02  0.42298324763E+01 -0.15091322650E+02  0.27442169780E+02  0.51100000000E-03 0.  1.
         12    1    3    3    0    0  0.31129130410E+02 -0.11655650413E+02  0.89015319647E+01  0.34410960724E+02  0.00000000000E+00 0. -1.
</event>
<event>
 7    1  0.3611369E-013  0.7246153E+02  0.7816164E-02  0.1226708E+00
        -11   -1    0    0    0    0  0.00000000000E+00  0.00000000000E+00  0.45593999997E+02  0.45594000000E+02  0.51100000000E-03 0.  1.
         11   -1    0    0    0    0 -0.00000000000E+00 -0.00000000000E+00 -0.45593999997E+02  0.45594000000E+02  0.51100000000E-03 0. -1.
    9900012    2    1    2    0    0 -0.88343390426E+01 -0.34304554242E+01 -0.16151377956E+02  0.72461532618E+02  0.69999950919E+02 0.  0.
        -12    1    1    2    0    0  0.88343390426E+01  0.34304554242E+01  0.16151377956E+02  0.18726467382E+02  0.00000000000E+00 0.  1.
         11    1    3    3    0    0 -0.51128013743E+01  0.66002797024E+01 -0.26431242409E+02  0.27718495731E+02  0.51100000000E-03 0. -1.
        -11    1    3    3    0    0 -0.14121757067E+02  0.78404988800E+01  0.16560284158E+02  0.23133103057E+02  0.51100000000E-03 0.  1.
        -12    1    3    3    0    0  0.10400219399E+02 -0.17871234007E+02 -0.62804197052E+01  0.21609933830E+02  0.00000000000E+00 0.  1.
</event>
<event>
 7    1  0.3611369E-013  0.7246156E+02  0.7816164E-02  0.1226708E+00
        -11   -1    0    0    0    0  0.00000000000E+00  0.00000000000E+00  0.45593999997E+02  0.45594000000E+02  0.51100000000E-03 0.  1.
         11   -1    0    0    0    0 -0.00000000000E+00 -0.00000000000E+00 -0.45593999997E+02  0.45594000000E+02  0.51100000000E-03 0. -1.
    9900012    2    1    2    0    0 -0.14976941884E+00 -0.12714866037E+02 -0.13747341591E+02  0.72461557464E+02  0.69999983286E+02 0.  0.
        -12    1    1    2    0    0  0.14976941884E+00  0.12714866037E+02  0.13747341591E+02  0.18726442536E+02  0.00000000000E+00 0.  1.
         11    1    3    3    0    0 -0.17921330585E+01  0.67026697638E+01 -0.97265120208E+01  0.11947491754E+02  0.51100000000E-03 0. -1.
        -11    1    3    3    0    0 -0.12179312576E+02  0.92120513140E+01  0.16650736935E+02  0.22593020714E+02  0.51100000000E-03 0.  1.
        -12    1    3    3    0    0  0.13821676215E+02 -0.28629587115E+02 -0.20671566506E+02  0.37921044996E+02  0.00000000000E+00 0.  1.
</event>
<event>
 7    1  0.3611369E-013  0.7246157E+02  0.7816164E-02  0.1226708E+00
        -11   -1    0    0    0    0  0.00000000000E+00  0.00000000000E+00  0.45593999997E+02  0.45594000000E+02  0.51100000000E-03 0.  1.
         11   -1    0    0    0    0 -0.00000000000E+00 -0.00000000000E+00 -0.45593999997E+02  0.45594000000E+02  0.51100000000E-03 0. -1.
    9900012    2    1    2    0    0  0.57800138165E+01  0.10042431699E+02 -0.14711230122E+02  0.72461567188E+02  0.69999995954E+02 0.  0.
        -12    1    1    2    0    0 -0.57800138165E+01 -0.10042431699E+02  0.14711230122E+02  0.18726432812E+02  0.00000000000E+00 0.  1.
         11    1    3    3    0    0 -0.20153185199E+02 -0.20480477226E+00 -0.25036117528E+02  0.32140317357E+02  0.51100000000E-03 0. -1.
        -11    1    3    3    0    0  0.20573326866E+01  0.81785923171E+01 -0.68271525580E+01  0.10850437889E+02  0.51100000000E-03 0.  1.
        -12    1    3    3    0    0  0.23875866329E+02  0.20686441538E+01  0.17152039964E+02  0.29470811942E+02  0.00000000000E+00 0.  1.
</event>
<event>
 7    1  0.3611369E-013  0.7246149E+02  0.7816164E-02  0.1226708E+00
        -11   -1    0    0    0    0  0.00000000000E+00  0.00000000000E+00  0.45593999997E+02  0.45594000000E+02  0.51100000000E-03 0.  1.
         11   -1    0    0    0    0 -0.00000000000E+00 -0.00000000000E+00 -0.45593999997E+02  0.45594000000E+02  0.51100000000E-03 0. -1.
    9900012    2    1    2    0    0  0.17938942525E+02 -0.20888523896E+01 -0.49510698989E+01  0.72461493215E+02  0.69999899589E+02 0.  0.
        -12    1    1    2    0    0 -0.17938942525E+02  0.20888523896E+01  0.49510698989E+01  0.18726506785E+02  0.00000000000E+00 0.  1.
         11    1    3    3    0    0  0.10778740164E+02 -0.12095380423E+02 -0.19722454084E+01  0.16320821649E+02  0.51100000000E-03 0. -1.
        -11    1    3    3    0    0  0.82704188863E+01 -0.17625967455E+02  0.13735503774E+02  0.23827266344E+02  0.51100000000E-03 0.  1.
         12    1    3    3    0    0 -0.11102165247E+01  0.27632495488E+02 -0.16714328264E+02  0.32313405221E+02  0.00000000000E+00 0. -1.
</event>
<event>
 7    1  0.3611369E-013  0.7246158E+02  0.7816164E-02  0.1226708E+00
        -11   -1    0    0    0    0  0.00000000000E+00  0.00000000000E+00  0.45593999997E+02  0.45594000000E+02  0.51100000000E-03 0. -1.
         11   -1    0    0    0    0 -0.00000000000E+00 -0.00000000000E+00 -0.45593999997E+02  0.45594000000E+02  0.51100000000E-03 0.  1.
    9900012    2    1    2    0    0 -0.17945353201E+02 -0.13843750516E+01  0.51697717765E+01  0.72461581869E+02  0.70000015078E+02 0.  0.
        -12    1    1    2    0    0  0.17945353201E+02  0.13843750516E+01 -0.51697717765E+01  0.18726418131E+02  0.00000000000E+00 0.  1.
         11    1    3    3    0    0 -0.17178485819E+01  0.75279099224E+01 -0.54827815846E+01  0.94700224770E+01  0.51100000000E-03 0. -1.
        -11    1    3    3    0    0  0.20078897745E+01  0.42094791189E+01 -0.22481062708E+02  0.22959736857E+02  0.51100000000E-03 0.  1.
         12    1    3    3    0    0 -0.18235394394E+02 -0.13121764093E+02  0.33133616070E+02  0.40031822535E+02  0.00000000000E+00 0. -1.
</event>
<event>
 7    1  0.3611369E-013  0.7246157E+02  0.7816164E-02  0.1226708E+00
        -11   -1    0    0    0    0  0.00000000000E+00  0.00000000000E+00  0.45593999997E+02  0.45594000000E+02  0.51100000000E-03 0.  1.
         11   -1    0    0    0    0 -0.00000000000E+00 -0.00000000000E+00 -0.45593999997E+02  0.45594000000E+02  0.51100000000E-03 0. -1.
    9900012    2    1    2    0    0  0.17005506667E+02  0.58243854585E+01  0.52505707138E+01  0.72461569059E+02  0.69999998391E+02 0.  0.
        -12    1    1    2    0    0 -0.17005506667E+02 -0.58243854585E+01 -0.52505707138E+01  0.18726430941E+02  0.00000000000E+00 0.  1.
         11    1    3    3    0    0 -0.34635494703E+01 -0.27710285374E+02  0.65516723221E+01  0.28684150692E+02  0.51100000000E-03 0. -1.
        -11    1    3    3    0    0  0.71944698917E+01  0.76750071967E+01  0.80456924720E+01  0.13243840082E+02  0.51100000000E-03 0.  1.
        -12    1    3    3    0    0  0.13274586245E+02  0.25859663636E+02 -0.93467940804E+01  0.30533578286E+02  0.00000000000E+00 0.  1.
</event>
<event>
 7    1  0.3611369E-013  0.7246158E+02  0.7816164E-02  0.1226708E+00
        -11   -1    0    0    0    0  0.00000000000E+00  0.00000000000E+00  0.45593999997E+02  0.45594000000E+02  0.51100000000E-03 0. -1.
         11   -1    0    0    0    0 -0.00000000000E+00 -0.00000000000E+00 -0.45593999997E+02  0.45594000000E+02  0.51100000000E-03 0.  1.
    9900012    2    1    2    0    0  0.95857468530E+00 -0.39723073003E+01  0.18275142577E+02  0.72461576772E+02  0.70000008438E+02 0.  0.
        -12    1    1    2    0    0 -0.95857468530E+00  0.39723073003E+01 -0.18275142577E+02  0.18726423228E+02  0.00000000000E+00 0.  1.
         11    1    3    3    0    0 -0.20786590746E+01  0.27292091721E+02  0.24085100075E+02  0.36459170862E+02  0.51100000000E-03 0. -1.
        -11    1    3    3    0    0 -0.31318204592E+01 -0.31420542850E+01  0.35993751963E+01  0.57128194951E+01  0.51100000000E-03 0.  1.
        -12    1    3    3    0    0  0.61690542191E+01 -0.28122344736E+02 -0.94093326942E+01  0.30289586415E+02  0.00000000000E+00 0.  1.
</event>
<event>
 7    1  0.3611369E-013  0.7246158E+02  0.7816164E-02  0.1226708E+00
        -11   -1    0    0    0    0  0.00000000000E+00  0.00000000000E+00  0.45593999997E+02  0.45594000000E+02  0.51100000000E-03 0.  1.
         11   -1    0    0    0    0 -0.00000000000E+00 -0.00000000000E+00 -0.45593999997E+02  0.45594000000E+02  0.51100000000E-03 0. -1.
    9900012    2    1    2    0    0  0.13884715642E+02 -0.76674445881E+01 -0.99550829417E+01  0.72461582527E+02  0.70000015936E+02 0.  0.
        -12    1    1    2    0    0 -0.13884715642E+02  0.76674445881E+01  0.99550829417E+01  0.18726417473E+02  0.00000000000E+00 0.  1.
         11    1    3    3    0    0  0.53467733518E+01 -0.89051644460E+01 -0.71982213269E+01  0.12637417838E+02  0.51100000000E-03 0. -1.
        -11    1    3    3    0    0 -0.15597928040E+01  0.40250630960E+01  0.27483705421E+02  0.27820642524E+02  0.51100000000E-03 0.  1.
         12    1    3    3    0    0  0.10097735095E+02 -0.27873432381E+01 -0.30240567036E+02  0.32003522165E+02  0.00000000000E+00 0. -1.
</event>
<event>
 7    1  0.3611369E-013  0.7246145E+02  0.7816164E-02  0.1226708E+00
        -11   -1    0    0    0    0  0.00000000000E+00  0.00000000000E+00  0.45593999997E+02  0.45594000000E+02  0.51100000000E-03 0. -1.
         11   -1    0    0    0    0 -0.00000000000E+00 -0.00000000000E+00 -0.45593999997E+02  0.45594000000E+02  0.51100000000E-03 0.  1.
    9900012    2    1    2    0    0 -0.31354989504E+01  0.14841419587E+02  0.10981108212E+02  0.72461445950E+02  0.69999838018E+02 0.  0.
        -12    1    1    2    0    0  0.31354989504E+01 -0.14841419587E+02 -0.10981108212E+02  0.18726554050E+02  0.00000000000E+00 0.  1.
         11    1    3    3    0    0  0.17777320232E+01 -0.28278995123E+01 -0.77701815994E+01  0.84577224562E+01  0.51100000000E-03 0. -1.
        -11    1    3    3    0    0 -0.21340827135E+02  0.37511618350E+01 -0.13276155924E+02  0.25411777473E+02  0.51100000000E-03 0.  1.
         12    1    3    3    0    0  0.16427596162E+02  0.13918157264E+02  0.32027445736E+02  0.38591946021E+02  0.00000000000E+00 0. -1.
</event>
<event>
 7    1  0.3611369E-013  0.7246175E+02  0.7816164E-02  0.1226708E+00
        -11   -1    0    0    0    0  0.00000000000E+00  0.00000000000E+00  0.45593999997E+02  0.45594000000E+02  0.51100000000E-03 0.  1.
         11   -1    0    0    0    0 -0.00000000000E+00 -0.00000000000E+00 -0.45593999997E+02  0.45594000000E+02  0.51100000000E-03 0. -1.
    9900012    2    1    2    0    0 -0.63883340555E+01  0.24045037584E+01 -0.17437887203E+02  0.72461752099E+02  0.70000236834E+02 0.  0.
        -12    1    1    2    0    0  0.63883340555E+01 -0.24045037584E+01  0.17437887203E+02  0.18726247901E+02  0.00000000000E+00 0.  1.
         11    1    3    3    0    0 -0.26295564796E+02 -0.74696062011E+01 -0.46022178211E+01  0.27720608830E+02  0.51100000000E-03 0. -1.
        -11    1    3    3    0    0 -0.73454604719E+01  0.57072031575E+01  0.62529480263E+01  0.11208359233E+02  0.51100000000E-03 0.  1.
        -12    1    3    3    0    0  0.27252691213E+02  0.41669068020E+01 -0.19088617408E+02  0.33532784036E+02  0.00000000000E+00 0.  1.
</event>
<event>
 7    1  0.3611369E-013  0.7246148E+02  0.7816164E-02  0.1226708E+00
        -11   -1    0    0    0    0  0.00000000000E+00  0.00000000000E+00  0.45593999997E+02  0.45594000000E+02  0.51100000000E-03 0.  1.
         11   -1    0    0    0    0 -0.00000000000E+00 -0.00000000000E+00 -0.45593999997E+02  0.45594000000E+02  0.51100000000E-03 0. -1.
    9900012    2    1    2    0    0 -0.10100791183E+02  0.54190345077E+01 -0.14808469622E+02  0.72461476296E+02  0.69999877549E+02 0.  0.
        -12    1    1    2    0    0  0.10100791183E+02 -0.54190345077E+01  0.14808469622E+02  0.18726523704E+02  0.00000000000E+00 0.  1.
         11    1    3    3    0    0  0.57877688280E+01  0.52566355188E+01 -0.93433321516E+01  0.12183117045E+02  0.51100000000E-03 0. -1.
        -11    1    3    3    0    0  0.19472346246E+02 -0.61559366833E+01 -0.12117490044E+02  0.23746607968E+02  0.51100000000E-03 0.  1.
         12    1    3    3    0    0 -0.35360906257E+02  0.63183356722E+01  0.66523525744E+01  0.36531751282E+02  0.00000000000E+00 0. -1.
</event>
<event>
 7    1  0.5089138E-013  0.7246156E+02  0.7816164E-02  0.1226708E+00
        -11   -1    0    0    0    0  0.00000000000E+00  0.00000000000E+00  0.45593999997E+02  0.45594000000E+02  0.51100000000E-03 0.  1.
         11   -1    0    0    0    0 -0.00000000000E+00 -0.00000000000E+00 -0.45593999997E+02  0.45594000000E+02  0.51100000000E-03 0. -1.
    9900012    2    1    2    0    0 -0.13165456416E+02 -0.17766585524E+01 -0.13198245733E+02  0.72461562841E+02  0.69999990290E+02 0.  0.
        -12    1    1    2    0    0  0.13165456416E+02  0.17766585524E+01  0.13198245733E+02  0.18726437159E+02  0.00000000000E+00 0.  1.
         11    1    3    3    0    0  0.30233541021E+01  0.25234145745E+02 -0.22123389930E+02  0.33694913025E+02  0.51100000000E-03 0. -1.
        -11    1    3    3    0    0 -0.90547613554E+01  0.23499554651E+00 -0.48796572697E+00  0.90709446544E+01  0.51100000000E-03 0.  1.
        -12    1    3    3    0    0 -0.71340491630E+01 -0.27245799844E+02  0.94131099242E+01  0.29695705161E+02  0.00000000000E+00 0.  1.
</event>
<event>
 7    1  0.3611369E-013  0.7246151E+02  0.7816164E-02  0.1226708E+00
        -11   -1    0    0    0    0  0.00000000000E+00  0.00000000000E+00  0.45593999997E+02  0.45594000000E+02  0.51100000000E-03 0.  1.
         11   -1    0    0    0    0 -0.00000000000E+00 -0.00000000000E+00 -0.45593999997E+02  0.45594000000E+02  0.51100000000E-03 0. -1.
    9900012    2    1    2    0    0 -0.12694225944E+02 -0.18391657971E+01 -0.13643880194E+02  0.72461511544E+02  0.69999923467E+02 0.  0.
        -12    1    1    2    0    0  0.12694225944E+02  0.18391657971E+01  0.13643880194E+02  0.18726488456E+02  0.00000000000E+00 0.  1.
         11    1    3    3    0    0  0.16097082517E+01 -0.17015454309E+02 -0.27365090843E+02  0.32263989882E+02  0.51100000000E-03 0. -1.
        -11    1    3    3    0    0  0.58173232788E+01  0.16268930259E+02  0.36047043246E+01  0.17649737546E+02  0.51100000000E-03 0.  1.
        -12    1    3    3    0    0 -0.20121257474E+02 -0.10926417468E+01  0.10116506325E+02  0.22547784116E+02  0.00000000000E+00 0.  1.
</event>
<event>
 7    1  0.3611369E-013  0.7246147E+02  0.7816164E-02  0.1226708E+00
        -11   -1    0    0    0    0  0.00000000000E+00  0.00000000000E+00  0.45593999997E+02  0.45594000000E+02  0.51100000000E-03 0.  1.
         11   -1    0    0    0    0 -0.00000000000E+00 -0.00000000000E+00 -0.45593999997E+02  0.45594000000E+02  0.51100000000E-03 0. -1.
    9900012    2    1    2    0    0 -0.33836017150E+01  0.13566563581E+02  0.12457220154E+02  0.72461474910E+02  0.69999875745E+02 0.  0.
        -12    1    1    2    0    0  0.33836017150E+01 -0.13566563581E+02 -0.12457220154E+02  0.18726525090E+02  0.00000000000E+00 0.  1.
         11    1    3    3    0    0 -0.30242775486E+01 -0.64713727888E+01  0.23772909748E+02  0.24822895854E+02  0.51100000000E-03 0. -1.
        -11    1    3    3    0    0  0.15766319041E+02 -0.24069598425E+01  0.34301427918E+01  0.16313679892E+02  0.51100000000E-03 0.  1.
         12    1    3    3    0    0 -0.16125643208E+02  0.22444896213E+02 -0.14745832386E+02  0.31324899164E+02  0.00000000000E+00 0. -1.
</event>
<event>
 7    1  0.3611369E-013  0.7246153E+02  0.7816164E-02  0.1226708E+00
        -11   -1    0    0    0    0  0.00000000000E+00  0.00000000000E+00  0.45593999997E+02  0.45594000000E+02  0.51100000000E-03 0.  1.
         11   -1    0    0    0    0 -0.00000000000E+00 -0.00000000000E+00 -0.45593999997E+02  0.45594000000E+02  0.51100000000E-03 0. -1.
    9900012    2    1    2    0    0  0.47937352438E+01  0.16981046951E+01 -0.18022691318E+02  0.72461525172E+02  0.69999941219E+02 0.  0.
        -12    1    1    2    0    0 -0.47937352438E+01 -0.16981046951E+01  0.18022691318E+02  0.18726474828E+02  0.00000000000E+00 0.  1.
         11    1    3    3    0    0  0.73140969602E+01 -0.55957419573E+01 -0.37522422338E+02  0.38636000321E+02  0.51100000000E-03 0. -1.
        -11    1    3    3    0    0  0.79889389639E+00 -0.29658396032E+00 -0.64908502673E+01  0.65465510734E+01  0.51100000000E-03 0.  1.
        -12    1    3    3    0    0 -0.33192556128E+01  0.75904306127E+01  0.25990581287E+02  0.27278973778E+02  0.00000000000E+00 0.  1.
</event>
<event>
 7    1  0.3611369E-013  0.7246156E+02  0.7816164E-02  0.1226708E+00
        -11   -1    0    0    0    0  0.00000000000E+00  0.00000000000E+00  0.45593999997E+02  0.45594000000E+02  0.51100000000E-03 0.  1.
         11   -1    0    0    0    0 -0.00000000000E+00 -0.00000000000E+00 -0.45593999997E+02  0.45594000000E+02  0.51100000000E-03 0. -1.
    9900012    2    1    2    0    0 -0.10304440156E+02 -0.13238297649E+02 -0.83213958578E+01  0.72461557717E+02  0.69999983615E+02 0.  0.
        -12    1    1    2    0    0  0.10304440156E+02  0.13238297649E+02  0.83213958578E+01  0.18726442283E+02  0.00000000000E+00 0.  1.
         11    1    3    3    0    0 -0.11576043056E+02  0.17774376845E+01 -0.44331443059E+00  0.11720093238E+02  0.51100000000E-03 0. -1.
        -11    1    3    3    0    0  0.70159517964E+01 -0.22999670525E+02  0.19938591450E+02  0.31237090984E+02  0.51100000000E-03 0.  1.
         12    1    3    3    0    0 -0.57443488959E+01  0.79839351908E+01 -0.27816672878E+02  0.29504373495E+02  0.00000000000E+00 0. -1.
</event>
<event>
 7    1  0.3611369E-013  0.7246147E+02  0.7816164E-02  0.1226708E+00
        -11   -1    0    0    0    0  0.00000000000E+00  0.00000000000E+00  0.45593999997E+02  0.45594000000E+02  0.51100000000E-03 0.  1.
         11   -1    0    0    0    0 -0.00000000000E+00 -0.00000000000E+00 -0.45593999997E+02  0.45594000000E+02  0.51100000000E-03 0. -1.
    9900012    2    1    2    0    0  0.16563668022E+02 -0.80161971663E+01 -0.34739509691E+01  0.72461472007E+02  0.69999871962E+02 0.  0.
        -12    1    1    2    0    0 -0.16563668022E+02  0.80161971663E+01  0.34739509691E+01  0.18726527993E+02  0.00000000000E+00 0.  1.
         11    1    3    3    0    0  0.85959201972E+01 -0.43766528592E+01 -0.23813490076E+02  0.25692941524E+02  0.51100000000E-03 0. -1.
        -11    1    3    3    0    0  0.44989829984E+01 -0.21425291108E+02  0.37711498993E+01  0.22214984108E+02  0.51100000000E-03 0.  1.
         12    1    3    3    0    0  0.34687648261E+01  0.17785746801E+02  0.16568389207E+02  0.24553546376E+02  0.00000000000E+00 0. -1.
</event>
<event>
 7    1  0.3611369E-013  0.7246153E+02  0.7816164E-02  0.1226708E+00
        -11   -1    0    0    0    0  0.00000000000E+00  0.00000000000E+00  0.45593999997E+02  0.45594000000E+02  0.51100000000E-03 0. -1.
         11   -1    0    0    0    0 -0.00000000000E+00 -0.00000000000E+00 -0.45593999997E+02  0.45594000000E+02  0.51100000000E-03 0.  1.
    9900012    2    1    2    0    0 -0.86334086936E+01 -0.15921707476E+02 -0.47585997769E+01  0.72461527121E+02  0.69999943759E+02 0.  0.
        -12    1    1    2    0    0  0.86334086936E+01  0.15921707476E+02  0.47585997769E+01  0.18726472879E+02  0.00000000000E+00 0.  1.
         11    1    3    3    0    0  0.21145913725E+02  0.41101640820E+00  0.63495250811E+01  0.22082460705E+02  0.51100000000E-03 0. -1.
        -11    1    3    3    0    0 -0.68775679306E+01  0.40018866144E+01 -0.17381775966E+02  0.19116541871E+02  0.51100000000E-03 0.  1.
         12    1    3    3    0    0 -0.22901754488E+02 -0.20334610499E+02  0.62736511078E+01  0.31262524546E+02  0.00000000000E+00 0. -1.
</event>
<event>
 7    1  0.3611369E-013  0.7246157E+02  0.7816164E-02  0.1226708E+00
        -11   -1    0    0    0    0  0.00000000000E+00  0.00000000000E+00  0.45593999997E+02  0.45594000000E+02  0.51100000000E-03 0.  1.
         11   -1    0    0    0    0 -0.00000000000E+00 -0.00000000000E+00 -0.45593999997E+02  0.45594000000E+02  0.51100000000E-03 0. -1.
    9900012    2    1    2    0    0 -0.17848514126E+01  0.16398493330E+02 -0.88647007461E+01  0.72461569550E+02  0.69999999031E+02 0.  0.
        -12    1    1    2    0    0  0.17848514126E+01 -0.16398493330E+02  0.88647007461E+01  0.18726430450E+02  0.00000000000E+00 0.  1.
         11    1    3    3    0    0 -0.15202080269E+01  0.23410615618E+02  0.63454418443E+01  0.24302933743E+02  0.51100000000E-03 0. -1.
        -11    1    3    3    0    0  0.12713023307E+02  0.13165914904E+02 -0.15773024192E+02  0.24160930638E+02  0.51100000000E-03 0.  1.
        -12    1    3    3    0    0 -0.12977666693E+02 -0.20178037192E+02  0.56288160149E+00  0.23997705169E+02  0.00000000000E+00 0.  1.
</event>
<event>
 7    1  0.3611369E-013  0.7246188E+02  0.7816164E-02  0.1226707E+00
        -11   -1    0    0    0    0  0.00000000000E+00  0.00000000000E+00  0.45593999997E+02  0.45594000000E+02  0.51100000000E-03 0. -1.
         11   -1    0    0    0    0 -0.00000000000E+00 -0.00000000000E+00 -0.45593999997E+02  0.45594000000E+02  0.51100000000E-03 0.  1.
    9900012    2    1    2    0    0 -0.16547169037E+01 -0.11306140377E+02  0.14835791492E+02  0.72461879006E+02  0.70000402153E+02 0.  0.
        -12    1    1    2    0    0  0.16547169037E+01  0.11306140377E+02 -0.14835791492E+02  0.18726120994E+02  0.00000000000E+00 0.  1.
         11    1    3    3    0    0 -0.22174168300E+02 -0.12240767666E+02  0.20375757940E+02  0.32506947638E+02  0.51100000000E-03 0. -1.
        -11    1    3    3    0    0 -0.86517590356E+01 -0.36826384773E+01 -0.44441339876E+01  0.10400244599E+02  0.51100000000E-03 0.  1.
         12    1    3    3    0    0  0.29171210432E+02  0.46172657662E+01 -0.10958324599E+01  0.29554686769E+02  0.00000000000E+00 0. -1.
</event>
<event>
 7    1  0.3611369E-013  0.7246153E+02  0.7816164E-02  0.1226708E+00
        -11   -1    0    0    0    0  0.00000000000E+00  0.00000000000E+00  0.45593999997E+02  0.45594000000E+02  0.51100000000E-03 0. -1.
         11   -1    0    0    0    0 -0.00000000000E+00 -0.00000000000E+00 -0.45593999997E+02  0.45594000000E+02  0.51100000000E-03 0.  1.
    9900012    2    1    2    0    0 -0.58889754270E+01  0.17649321456E+02 -0.21218335695E+01  0.72461527905E+02  0.69999944780E+02 0.  0.
        -12    1    1    2    0    0  0.58889754270E+01 -0.17649321456E+02  0.21218335695E+01  0.18726472095E+02  0.00000000000E+00 0.  1.
         11    1    3    3    0    0 -0.38967646529E+00 -0.23251725044E+00  0.14593509108E+01  0.15282726724E+01  0.51100000000E-03 0. -1.
        -11    1    3    3    0    0 -0.26263775674E+02 -0.11406339744E+02 -0.16174862350E+02  0.32886420774E+02  0.51100000000E-03 0.  1.
         12    1    3    3    0    0  0.20764476712E+02  0.29288178450E+02  0.12593677870E+02  0.38046834459E+02  0.00000000000E+00 0. -1.
</event>
<event>
 7    1  0.3611369E-013  0.7246156E+02  0.7816164E-02  0.1226708E+00
        -11   -1    0    0    0    0  0.00000000000E+00  0.00000000000E+00  0.45593999997E+02  0.45594000000E+02  0.51100000000E-03 0.  1.
         11   -1    0    0    0    0 -0.00000000000E+00 -0.00000000000E+00 -0.45593999997E+02  0.45594000000E+02  0.51100000000E-03 0. -1.
    9900012    2    1    2    0    0  0.16635374767E+02  0.44410587740E+01 -0.73634829742E+01  0.72461559383E+02  0.69999985786E+02 0.  0.
        -12    1    1    2    0    0 -0.16635374767E+02 -0.44410587740E+01  0.73634829742E+01  0.18726440617E+02  0.00000000000E+00 0.  1.
         11    1    3    3    0    0  0.10628920057E+02 -0.69818638528E+01  0.10951670453E+02  0.16782712844E+02  0.51100000000E-03 0. -1.
        -11    1    3    3    0    0  0.35992600783E+01  0.45258030782E+01  0.17860360364E+02  0.18773120125E+02  0.51100000000E-03 0.  1.
        -12    1    3    3    0    0  0.24071946311E+01  0.68971195486E+01 -0.36175513792E+02  0.36905726414E+02  0.00000000000E+00 0.  1.
</event>
<event>
 7    1  0.3611369E-013  0.7246156E+02  0.7816164E-02  0.1226708E+00
        -11   -1    0    0    0    0  0.00000000000E+00  0.00000000000E+00  0.45593999997E+02  0.45594000000E+02  0.51100000000E-03 0. -1.
         11   -1    0    0    0    0 -0.00000000000E+00 -0.00000000000E+00 -0.45593999997E+02  0.45594000000E+02  0.51100000000E-03 0.  1.
    9900012    2    1    2    0    0 -0.97895565920E+00  0.66086980305E+01  0.17494175448E+02  0.72461563648E+02  0.69999991342E+02 0.  0.
        -12    1    1    2    0    0  0.97895565920E+00 -0.66086980305E+01 -0.17494175448E+02  0.18726436352E+02  0.00000000000E+00 0.  1.
         11    1    3    3    0    0 -0.17385120079E+02  0.33591313254E+01  0.31729001405E+02  0.36335322949E+02  0.51100000000E-03 0. -1.
        -11    1    3    3    0    0  0.99069976231E+01 -0.65134563852E+01  0.55774457228E+01  0.13102733190E+02  0.51100000000E-03 0.  1.
         12    1    3    3    0    0  0.64991667965E+01  0.97630230902E+01 -0.19812271680E+02  0.23023507509E+02  0.00000000000E+00 0. -1.
</event>
<event>
 7    1  0.3611369E-013  0.7246138E+02  0.7816164E-02  0.1226709E+00
        -11   -1    0    0    0    0  0.00000000000E+00  0.00000000000E+00  0.45593999997E+02  0.45594000000E+02  0.51100000000E-03 0.  1.
         11   -1    0    0    0    0 -0.00000000000E+00 -0.00000000000E+00 -0.45593999997E+02  0.45594000000E+02  0.51100000000E-03 0. -1.
    9900012    2    1    2    0    0  0.31468270347E+00  0.17812054246E+02 -0.57721684967E+01  0.72461381757E+02  0.69999754394E+02 0.  0.
        -12    1    1    2    0    0 -0.31468270347E+00 -0.17812054246E+02  0.57721684967E+01  0.18726618243E+02  0.00000000000E+00 0.  1.
         11    1    3    3    0    0 -0.17003715008E+01 -0.12613795991E+02 -0.14882330979E+02  0.19582719121E+02  0.51100000000E-03 0. -1.
        -11    1    3    3    0    0 -0.10299478796E+02 -0.69230621213E+01  0.48415389661E+01  0.13320981661E+02  0.51100000000E-03 0.  1.
        -12    1    3    3    0    0  0.12314533000E+02  0.37348912358E+02  0.42686235164E+01  0.39557680974E+02  0.00000000000E+00 0.  1.
</event>
<event>
 7    1  0.3611369E-013  0.7246166E+02  0.7816164E-02  0.1226708E+00
        -11   -1    0    0    0    0  0.00000000000E+00  0.00000000000E+00  0.45593999997E+02  0.45594000000E+02  0.51100000000E-03 0. -1.
         11   -1    0    0    0    0 -0.00000000000E+00 -0.00000000000E+00 -0.45593999997E+02  0.45594000000E+02  0.51100000000E-03 0.  1.
    9900012    2    1    2    0    0  0.11388844129E+02 -0.14660203258E+02 -0.24593698847E+01  0.72461659450E+02  0.70000116141E+02 0.  0.
        -12    1    1    2    0    0 -0.11388844129E+02  0.14660203258E+02  0.24593698847E+01  0.18726340550E+02  0.00000000000E+00 0.  1.
         11    1    3    3    0    0  0.11688376726E+02 -0.77429696646E+01  0.29414562717E+02  0.32585092141E+02  0.51100000000E-03 0. -1.
        -11    1    3    3    0    0 -0.28439464749E+01 -0.64444524186E+01  0.80985750576E+00  0.70904772736E+01  0.51100000000E-03 0.  1.
        -12    1    3    3    0    0  0.25444138784E+01 -0.47278117522E+00 -0.32683790107E+02  0.32786090035E+02  0.00000000000E+00 0.  1.
</event>
<event>
 7    1  0.3611369E-013  0.7246154E+02  0.7816164E-02  0.1226708E+00
        -11   -1    0    0    0    0  0.00000000000E+00  0.00000000000E+00  0.45593999997E+02  0.45594000000E+02  0.51100000000E-03 0. -1.
         11   -1    0    0    0    0 -0.00000000000E+00 -0.00000000000E+00 -0.45593999997E+02  0.45594000000E+02  0.51100000000E-03 0.  1.
    9900012    2    1    2    0    0 -0.36824982171E+01 -0.12333685827E+02  0.13601456900E+02  0.72461542006E+02  0.69999963149E+02 0.  0.
        -12    1    1    2    0    0  0.36824982171E+01  0.12333685827E+02 -0.13601456900E+02  0.18726457994E+02  0.00000000000E+00 0.  1.
         11    1    3    3    0    0  0.56474731415E+01  0.27680154914E+01  0.49055274110E+01  0.79762185330E+01  0.51100000000E-03 0. -1.
        -11    1    3    3    0    0  0.16871205159E+00  0.22596774882E+02  0.11785376552E+02  0.25486031460E+02  0.51100000000E-03 0.  1.
         12    1    3    3    0    0 -0.94986834102E+01 -0.37698476201E+02 -0.30894470621E+01  0.38999292013E+02  0.00000000000E+00 0. -1.
</event>
<event>
 7    1  0.3611369E-013  0.7246161E+02  0.7816164E-02  0.1226708E+00
        -11   -1    0    0    0    0  0.00000000000E+00  0.00000000000E+00  0.45593999997E+02  0.45594000000E+02  0.51100000000E-03 0. -1.
         11   -1    0    0    0    0 -0.00000000000E+00 -0.00000000000E+00 -0.45593999997E+02  0.45594000000E+02  0.51100000000E-03 0.  1.
    9900012    2    1    2    0    0 -0.73653442822E+01 -0.26202846321E+01  0.17016567732E+02  0.72461607787E+02  0.70000048841E+02 0.  0.
        -12    1    1    2    0    0  0.73653442822E+01  0.26202846321E+01 -0.17016567732E+02  0.18726392213E+02  0.00000000000E+00 0.  1.
         11    1    3    3    0    0 -0.24680700620E+02 -0.11687484946E+01  0.23816656405E+02  0.34318159606E+02  0.51100000000E-03 0. -1.
        -11    1    3    3    0    0 -0.87949185654E+00 -0.11759938244E+02  0.63962760562E+01  0.13415737068E+02  0.51100000000E-03 0.  1.
        -12    1    3    3    0    0  0.18194848194E+02  0.10308402107E+02 -0.13196364729E+02  0.24727711113E+02  0.00000000000E+00 0.  1.
</event>
<event>
 7    1  0.3611369E-013  0.7246147E+02  0.7816164E-02  0.1226708E+00
        -11   -1    0    0    0    0  0.00000000000E+00  0.00000000000E+00  0.45593999997E+02  0.45594000000E+02  0.51100000000E-03 0.  1.
         11   -1    0    0    0    0 -0.00000000000E+00 -0.00000000000E+00 -0.45593999997E+02  0.45594000000E+02  0.51100000000E-03 0. -1.
    9900012    2    1    2    0    0 -0.11694441678E+02  0.13984285942E+02 -0.42851604936E+01  0.72461472828E+02  0.69999873032E+02 0.  0.
        -12    1    1    2    0    0  0.11694441678E+02 -0.13984285942E+02  0.42851604936E+01  0.18726527172E+02  0.00000000000E+00 0.  1.
         11    1    3    3    0    0 -0.89271873947E+01  0.12573067072E+02  0.95649483674E+01  0.18145658652E+02  0.51100000000E-03 0. -1.
        -11    1    3    3    0    0  0.16380989714E+01  0.12562191796E+01  0.20037072850E+02  0.20143131424E+02  0.51100000000E-03 0.  1.
         12    1    3    3    0    0 -0.44053532543E+01  0.15499969012E+00 -0.33887181711E+02  0.34172682753E+02  0.00000000000E+00 0. -1.
</event>
<event>
 7    1  0.3611369E-013  0.7246156E+02  0.7816164E-02  0.1226708E+00
        -11   -1    0    0    0    0  0.00000000000E+00  0.00000000000E+00  0.45593999997E+02  0.45594000000E+02  0.51100000000E-03 0.  1.
         11   -1    0    0    0    0 -0.00000000000E+00 -0.00000000000E+00 -0.45593999997E+02  0.45594000000E+02  0.51100000000E-03 0. -1.
    9900012    2    1    2    0    0 -0.78902512150E-01  0.15059345040E+02 -0.11130557579E+02  0.72461563856E+02  0.69999991613E+02 0.  0.
        -12    1    1    2    0    0  0.78902512150E-01 -0.15059345040E+02  0.11130557579E+02  0.18726436144E+02  0.00000000000E+00 0.  1.
         11    1    3    3    0    0 -0.28199468882E+02  0.67196989122E+00  0.32957042318E+00  0.28209399244E+02  0.51100000000E-03 0. -1.
        -11    1    3    3    0    0 -0.45840835463E+01  0.37484663736E+01 -0.76148589287E+01  0.96462893839E+01  0.51100000000E-03 0.  1.
        -12    1    3    3    0    0  0.32704649916E+02  0.10638908775E+02 -0.38452690733E+01  0.34605875228E+02  0.00000000000E+00 0.  1.
</event>
<event>
 7    1  0.5289439E-013  0.7246156E+02  0.7816164E-02  0.1226708E+00
        -11   -1    0    0    0    0  0.00000000000E+00  0.00000000000E+00  0.45593999997E+02  0.45594000000E+02  0.51100000000E-03 0.  1.
         11   -1    0    0    0    0 -0.00000000000E+00 -0.00000000000E+00 -0.45593999997E+02  0.45594000000E+02  0.51100000000E-03 0. -1.
    9900012    2    1    2    0    0  0.17784221770E+02 -0.54705307280E+01 -0.21152404069E+01  0.72461561674E+02  0.69999988770E+02 0.  0.
        -12    1    1    2    0    0 -0.17784221770E+02  0.54705307280E+01  0.21152404069E+01  0.18726438326E+02  0.00000000000E+00 0.  1.
         11    1    3    3    0    0  0.26975551556E+02  0.79556556062E+01 -0.10063044359E+02  0.29870348172E+02  0.51100000000E-03 0. -1.
        -11    1    3    3    0    0 -0.39899300745E+01  0.91152084087E+01 -0.93901767660E+01  0.13681446791E+02  0.51100000000E-03 0.  1.
        -12    1    3    3    0    0 -0.52013997112E+01 -0.22541394743E+02  0.17337980718E+02  0.28909766711E+02  0.00000000000E+00 0.  1.
</event>
<event>
 7    1  0.3611369E-013  0.7246152E+02  0.7816164E-02  0.1226708E+00
        -11   -1    0    0    0    0  0.00000000000E+00  0.00000000000E+00  0.45593999997E+02  0.45594000000E+02  0.51100000000E-03 0. -1.
         11   -1    0    0    0    0 -0.00000000000E+00 -0.00000000000E+00 -0.45593999997E+02  0.45594000000E+02  0.51100000000E-03 0.  1.
    9900012    2    1    2    0    0 -0.15036240274E+01 -0.10878644062E+02  0.15168234354E+02  0.72461518343E+02  0.69999932323E+02 0.  0.
        -12    1    1    2    0    0  0.15036240274E+01  0.10878644062E+02 -0.15168234354E+02  0.18726481657E+02  0.00000000000E+00 0.  1.
         11    1    3    3    0    0  0.59651262915E+01 -0.27364241398E+02 -0.59475226509E+01  0.28631406967E+02  0.51100000000E-03 0. -1.
        -11    1    3    3    0    0  0.38101683622E+01 -0.93037596128E+01  0.76138457115E+01  0.12611422309E+02  0.51100000000E-03 0.  1.
        -12    1    3    3    0    0 -0.11278918681E+02  0.25789356949E+02  0.13501911293E+02  0.31218689066E+02  0.00000000000E+00 0.  1.
</event>
<event>
 7    1  0.3611369E-013  0.7246157E+02  0.7816164E-02  0.1226708E+00
        -11   -1    0    0    0    0  0.00000000000E+00  0.00000000000E+00  0.45593999997E+02  0.45594000000E+02  0.51100000000E-03 0. -1.
         11   -1    0    0    0    0 -0.00000000000E+00 -0.00000000000E+00 -0.45593999997E+02  0.45594000000E+02  0.51100000000E-03 0.  1.
    9900012    2    1    2    0    0  0.15223489247E+02  0.10902766584E+02  0.23272266207E+00  0.72461572047E+02  0.70000002283E+02 0.  0.
        -12    1    1    2    0    0 -0.15223489247E+02 -0.10902766584E+02 -0.23272266207E+00  0.18726427953E+02  0.00000000000E+00 0.  1.
         11    1    3    3    0    0 -0.50413805049E+01  0.55275271573E+01  0.17893842794E+02  0.19394810751E+02  0.51100000000E-03 0. -1.
        -11    1    3    3    0    0  0.20797262662E+02  0.71298640026E+01  0.10835928678E+02  0.24510782230E+02  0.51100000000E-03 0.  1.
        -12    1    3    3    0    0 -0.53239291015E+00 -0.17546245764E+01 -0.28497048809E+02  0.28555979067E+02  0.00000000000E+00 0.  1.
</event>
<event>
 7    1  0.3611369E-013  0.7246166E+02  0.7816164E-02  0.1226708E+00
        -11   -1    0    0    0    0  0.00000000000E+00  0.00000000000E+00  0.45593999997E+02  0.45594000000E+02  0.51100000000E-03 0.  1.
         11   -1    0    0    0    0 -0.00000000000E+00 -0.00000000000E+00 -0.45593999997E+02  0.45594000000E+02  0.51100000000E-03 0. -1.
    9900012    2    1    2    0    0 -0.19037259920E+01  0.39043901001E+01 -0.18215581582E+02  0.72461659005E+02  0.70000115562E+02 0.  0.
        -12    1    1    2    0    0  0.19037259920E+01 -0.39043901001E+01  0.18215581582E+02  0.18726340995E+02  0.00000000000E+00 0.  1.
         11    1    3    3    0    0  0.24837621573E+02 -0.37800088845E+01 -0.16040578735E+02  0.29807651350E+02  0.51100000000E-03 0. -1.
        -11    1    3    3    0    0  0.64452459256E+01  0.31107389151E+00  0.46834661682E+01  0.79732563998E+01  0.51100000000E-03 0.  1.
         12    1    3    3    0    0 -0.33186593490E+02  0.73733250931E+01 -0.68584690146E+01  0.34680751255E+02  0.00000000000E+00 0. -1.
</event>
<event>
 7    1  0.3611369E-013  0.7246161E+02  0.7816164E-02  0.1226708E+00
        -11   -1    0    0    0    0  0.00000000000E+00  0.00000000000E+00  0.45593999997E+02  0.45594000000E+02  0.51100000000E-03 0. -1.
         11   -1    0    0    0    0 -0.00000000000E+00 -0.00000000000E+00 -0.45593999997E+02  0.45594000000E+02  0.51100000000E-03 0.  1.
    9900012    2    1    2    0    0 -0.73935357190E+01  0.68874520495E+00  0.17191251192E+02  0.72461605314E+02  0.70000045620E+02 0.  0.
        -12    1    1    2    0    0  0.73935357190E+01 -0.68874520495E+00 -0.17191251192E+02  0.18726394686E+02  0.00000000000E+00 0.  1.
         11    1    3    3    0    0 -0.18515373559E+02 -0.88250958991E+01  0.14190806903E+01  0.20560038082E+02  0.51100000000E-03 0. -1.
        -11    1    3    3    0    0 -0.13521071687E+02  0.22733715474E+01 -0.88519317153E+01  0.16320057999E+02  0.51100000000E-03 0.  1.
         12    1    3    3    0    0  0.24642909527E+02  0.72404695566E+01  0.24624102217E+02  0.35581509233E+02  0.00000000000E+00 0. -1.
</event>
<event>
 7    1  0.3611369E-013  0.7246157E+02  0.7816164E-02  0.1226708E+00
        -11   -1    0    0    0    0  0.00000000000E+00  0.00000000000E+00  0.45593999997E+02  0.45594000000E+02  0.51100000000E-03 0.  1.
         11   -1    0    0    0    0 -0.00000000000E+00 -0.00000000000E+00 -0.45593999997E+02  0.45594000000E+02  0.51100000000E-03 0. -1.
    9900012    2    1    2    0    0  0.89253674793E+01  0.11104776583E+02 -0.12153221743E+02  0.72461573584E+02  0.70000004285E+02 0.  0.
        -12    1    1    2    0    0 -0.89253674793E+01 -0.11104776583E+02  0.12153221743E+02  0.18726426416E+02  0.00000000000E+00 0.  1.
         11    1    3    3    0    0  0.30674573101E+01  0.70861738427E+01  0.14743527373E+01  0.78610985450E+01  0.51100000000E-03 0. -1.
        -11    1    3    3    0    0 -0.18657029763E+02  0.24404797797E+02 -0.24610584687E+01  0.30817782597E+02  0.51100000000E-03 0.  1.
         12    1    3    3    0    0  0.24514939933E+02 -0.20386195057E+02 -0.11166516011E+02  0.33782692442E+02  0.00000000000E+00 0. -1.
</event>
<event>
 7    1  0.3611369E-013  0.7246153E+02  0.7816164E-02  0.1226708E+00
        -11   -1    0    0    0    0  0.00000000000E+00  0.00000000000E+00  0.45593999997E+02  0.45594000000E+02  0.51100000000E-03 0.  1.
         11   -1    0    0    0    0 -0.00000000000E+00 -0.00000000000E+00 -0.45593999997E+02  0.45594000000E+02  0.51100000000E-03 0. -1.
    9900012    2    1    2    0    0 -0.42699245401E+01  0.18203194925E+02  0.10449821146E+01  0.72461533471E+02  0.69999952030E+02 0.  0.
        -12    1    1    2    0    0  0.42699245401E+01 -0.18203194925E+02 -0.10449821146E+01  0.18726466529E+02  0.00000000000E+00 0.  1.
         11    1    3    3    0    0  0.92865558562E+01 -0.43380404390E+01  0.14204650312E+02  0.17516586576E+02  0.51100000000E-03 0. -1.
        -11    1    3    3    0    0 -0.98650583513E+01 -0.12217891545E+02 -0.12355077866E+02  0.19981096052E+02  0.51100000000E-03 0.  1.
         12    1    3    3    0    0 -0.36914220450E+01  0.34759126909E+02 -0.80459033143E+00  0.34963850843E+02  0.00000000000E+00 0. -1.
</event>
<event>
 7    1  0.3611369E-013  0.7246155E+02  0.7816164E-02  0.1226708E+00
        -11   -1    0    0    0    0  0.00000000000E+00  0.00000000000E+00  0.45593999997E+02  0.45594000000E+02  0.51100000000E-03 0. -1.
         11   -1    0    0    0    0 -0.00000000000E+00 -0.00000000000E+00 -0.45593999997E+02  0.45594000000E+02  0.51100000000E-03 0.  1.
    9900012    2    1    2    0    0  0.10296669224E+02  0.13406788305E+02  0.80570901207E+01  0.72461546226E+02  0.69999968646E+02 0.  0.
        -12    1    1    2    0    0 -0.10296669224E+02 -0.13406788305E+02 -0.80570901207E+01  0.18726453774E+02  0.00000000000E+00 0.  1.
         11    1    3    3    0    0 -0.13445146008E+02  0.25285108126E+02 -0.10383893653E+01  0.28656358751E+02  0.51100000000E-03 0. -1.
        -11    1    3    3    0    0 -0.15229464423E+01 -0.69754025182E+01 -0.96225709864E+01  0.11982048189E+02  0.51100000000E-03 0.  1.
         12    1    3    3    0    0  0.25264761674E+02 -0.49029173033E+01  0.18718050472E+02  0.31823139286E+02  0.00000000000E+00 0. -1.
</event>
<event>
 7    1  0.3611369E-013  0.7246168E+02  0.7816164E-02  0.1226708E+00
        -11   -1    0    0    0    0  0.00000000000E+00  0.00000000000E+00  0.45593999997E+02  0.45594000000E+02  0.51100000000E-03 0. -1.
         11   -1    0    0    0    0 -0.00000000000E+00 -0.00000000000E+00 -0.45593999997E+02  0.45594000000E+02  0.51100000000E-03 0.  1.
    9900012    2    1    2    0    0  0.14945905661E+02 -0.11256867687E+02  0.76025309447E+00  0.72461677592E+02  0.70000139776E+02 0.  0.
        -12    1    1    2    0    0 -0.14945905661E+02  0.11256867687E+02 -0.76025309447E+00  0.18726322408E+02  0.00000000000E+00 0.  1.
         11    1    3    3    0    0  0.11215383128E+02 -0.72628544081E+01 -0.35218570742E+00  0.13366297464E+02  0.51100000000E-03 0. -1.
        -11    1    3    3    0    0  0.74963102689E+01 -0.30949984121E+02  0.14087999497E+01  0.31876023941E+02  0.51100000000E-03 0.  1.
         12    1    3    3    0    0 -0.37657877361E+01  0.26955970842E+02 -0.29636114786E+00  0.27219356187E+02  0.00000000000E+00 0. -1.
</event>
<event>
 7    1  0.3611369E-013  0.7246155E+02  0.7816164E-02  0.1226708E+00
        -11   -1    0    0    0    0  0.00000000000E+00  0.00000000000E+00  0.45593999997E+02  0.45594000000E+02  0.51100000000E-03 0. -1.
         11   -1    0    0    0    0 -0.00000000000E+00 -0.00000000000E+00 -0.45593999997E+02  0.45594000000E+02  0.51100000000E-03 0.  1.
    9900012    2    1    2    0    0  0.38716244122E+01 -0.17246961525E+02  0.61832532523E+01  0.72461554042E+02  0.69999978829E+02 0.  0.
        -12    1    1    2    0    0 -0.38716244122E+01  0.17246961525E+02 -0.61832532523E+01  0.18726445958E+02  0.00000000000E+00 0.  1.
         11    1    3    3    0    0  0.12223099406E+02 -0.32023435972E+01  0.83928355520E+01  0.15169009608E+02  0.51100000000E-03 0. -1.
        -11    1    3    3    0    0 -0.76083521648E+01 -0.34747170218E+02 -0.64411890296E+01  0.36148883484E+02  0.51100000000E-03 0.  1.
         12    1    3    3    0    0 -0.74312282919E+00  0.20702552290E+02  0.42316067299E+01  0.21143660950E+02  0.00000000000E+00 0. -1.
</event>
<event>
 7    1  0.3611369E-013  0.7246153E+02  0.7816164E-02  0.1226708E+00
        -11   -1    0    0    0    0  0.00000000000E+00  0.00000000000E+00  0.45593999997E+02  0.45594000000E+02  0.51100000000E-03 0.  1.
         11   -1    0    0    0    0 -0.00000000000E+00 -0.00000000000E+00 -0.45593999997E+02  0.45594000000E+02  0.51100000000E-03 0. -1.
    9900012    2    1    2    0    0  0.54949851426E+01  0.13266673182E+02 -0.12020035324E+02  0.72461528676E+02  0.69999945785E+02 0.  0.
        -12    1    1    2    0    0 -0.54949851426E+01 -0.13266673182E+02  0.12020035324E+02  0.18726471324E+02  0.00000000000E+00 0.  1.
         11    1    3    3    0    0  0.27029826467E+02  0.85267001721E+01 -0.97753561505E+01  0.29981222837E+02  0.51100000000E-03 0. -1.
        -11    1    3    3    0    0  0.57395490772E+01 -0.52429650910E+01  0.84943388574E+01  0.11514551639E+02  0.51100000000E-03 0.  1.
        -12    1    3    3    0    0 -0.27274390402E+02  0.99829381013E+01 -0.10739018031E+02  0.30965754200E+02  0.00000000000E+00 0.  1.
</event>
<event>
 7    1  0.3611369E-013  0.7246160E+02  0.7816164E-02  0.1226708E+00
        -11   -1    0    0    0    0  0.00000000000E+00  0.00000000000E+00  0.45593999997E+02  0.45594000000E+02  0.51100000000E-03 0.  1.
         11   -1    0    0    0    0 -0.00000000000E+00 -0.00000000000E+00 -0.45593999997E+02  0.45594000000E+02  0.51100000000E-03 0. -1.
    9900012    2    1    2    0    0 -0.15182754281E+01 -0.94357879257E+01 -0.16104000646E+02  0.72461599095E+02  0.70000037518E+02 0.  0.
        -12    1    1    2    0    0  0.15182754281E+01  0.94357879257E+01  0.16104000646E+02  0.18726400905E+02  0.00000000000E+00 0.  1.
         11    1    3    3    0    0 -0.40352793787E+01 -0.17144184977E+02 -0.40244840576E+02  0.43930100745E+02  0.51100000000E-03 0. -1.
        -11    1    3    3    0    0 -0.21192504280E+00  0.23530608261E+01 -0.10847582952E+01  0.25997131179E+01  0.51100000000E-03 0.  1.
        -12    1    3    3    0    0  0.27289289933E+01  0.53553362256E+01  0.25225598225E+02  0.25931785233E+02  0.00000000000E+00 0.  1.
</event>
<event>
 7    1  0.3611369E-013  0.7246155E+02  0.7816164E-02  0.1226708E+00
        -11   -1    0    0    0    0  0.00000000000E+00  0.00000000000E+00  0.45593999997E+02  0.45594000000E+02  0.51100000000E-03 0.  1.
         11   -1    0    0    0    0 -0.00000000000E+00 -0.00000000000E+00 -0.45593999997E+02  0.45594000000E+02  0.51100000000E-03 0. -1.
    9900012    2    1    2    0    0 -0.65464824792E+00  0.56964692091E+01 -0.17826993644E+02  0.72461547369E+02  0.69999970135E+02 0.  0.
        -12    1    1    2    0    0  0.65464824792E+00 -0.56964692091E+01  0.17826993644E+02  0.18726452631E+02  0.00000000000E+00 0.  1.
         11    1    3    3    0    0 -0.36053326139E+00  0.30949879451E+01 -0.21699590006E+01  0.37970589854E+01  0.51100000000E-03 0. -1.
        -11    1    3    3    0    0  0.90932925184E+01  0.20828095169E+02  0.18178284945E+02  0.29102363495E+02  0.51100000000E-03 0.  1.
         12    1    3    3    0    0 -0.93874075050E+01 -0.18226613905E+02 -0.33835319588E+02  0.39562124889E+02  0.00000000000E+00 0. -1.
</event>
<event>
 7    1  0.3611369E-013  0.7246176E+02  0.7816164E-02  0.1226708E+00
        -11   -1    0    0    0    0  0.00000000000E+00  0.00000000000E+00  0.45593999997E+02  0.45594000000E+02  0.51100000000E-03 0. -1.
         11   -1    0    0    0    0 -0.00000000000E+00 -0.00000000000E+00 -0.45593999997E+02  0.45594000000E+02  0.51100000000E-03 0.  1.
    9900012    2    1    2    0    0 -0.12342209981E+02  0.38269748636E+01 -0.13553456474E+02  0.72461759955E+02  0.70000247068E+02 0.  0.
        -12    1    1    2    0    0  0.12342209981E+02 -0.38269748636E+01  0.13553456474E+02  0.18726240045E+02  0.00000000000E+00 0.  1.
         11    1    3    3    0    0 -0.55195337445E+01  0.87421975045E+00  0.93387359403E+01  0.10883083302E+02  0.51100000000E-03 0. -1.
        -11    1    3    3    0    0  0.19504277115E+02  0.14771492833E+02  0.43648717326E+00  0.24470479105E+02  0.51100000000E-03 0.  1.
         12    1    3    3    0    0 -0.26326953351E+02 -0.11818737720E+02 -0.23328679588E+02  0.37108197549E+02  0.00000000000E+00 0. -1.
</event>
<event>
 7    1  0.3611369E-013  0.7246155E+02  0.7816164E-02  0.1226708E+00
        -11   -1    0    0    0    0  0.00000000000E+00  0.00000000000E+00  0.45593999997E+02  0.45594000000E+02  0.51100000000E-03 0.  1.
         11   -1    0    0    0    0 -0.00000000000E+00 -0.00000000000E+00 -0.45593999997E+02  0.45594000000E+02  0.51100000000E-03 0. -1.
    9900012    2    1    2    0    0 -0.69614498618E+01  0.85287858835E+01 -0.15148526584E+02  0.72461552647E+02  0.69999977010E+02 0.  0.
        -12    1    1    2    0    0  0.69614498618E+01 -0.85287858835E+01  0.15148526584E+02  0.18726447353E+02  0.00000000000E+00 0.  1.
         11    1    3    3    0    0 -0.20771177398E+02 -0.53530497102E+01 -0.17660998162E+02  0.27785028487E+02  0.51100000000E-03 0. -1.
        -11    1    3    3    0    0  0.17079787259E+01  0.26390285397E+02 -0.25034718720E+01  0.26563729526E+02  0.51100000000E-03 0.  1.
        -12    1    3    3    0    0  0.12101748810E+02 -0.12508449803E+02  0.50159434499E+01  0.18112794634E+02  0.00000000000E+00 0.  1.
</event>
<event>
 7    1  0.3611369E-013  0.7246166E+02  0.7816164E-02  0.1226708E+00
        -11   -1    0    0    0    0  0.00000000000E+00  0.00000000000E+00  0.45593999997E+02  0.45594000000E+02  0.51100000000E-03 0.  1.
         11   -1    0    0    0    0 -0.00000000000E+00 -0.00000000000E+00 -0.45593999997E+02  0.45594000000E+02  0.51100000000E-03 0. -1.
    9900012    2    1    2    0    0  0.85888306744E+01 -0.19314666875E+01 -0.16528078705E+02  0.72461655947E+02  0.70000111578E+02 0.  0.
        -12    1    1    2    0    0 -0.85888306744E+01  0.19314666875E+01  0.16528078705E+02  0.18726344053E+02  0.00000000000E+00 0.  1.
         11    1    3    3    0    0 -0.13745631375E+02 -0.14170789216E+01 -0.49545078714E+00  0.13827362956E+02  0.51100000000E-03 0. -1.
        -11    1    3    3    0    0  0.77826600734E+01 -0.22716346782E+02  0.52863471813E+01  0.24587551235E+02  0.51100000000E-03 0.  1.
         12    1    3    3    0    0  0.14551801976E+02  0.22201959016E+02 -0.21318975099E+02  0.34046741756E+02  0.00000000000E+00 0. -1.
</event>
<event>
 7    1  0.3611369E-013  0.7246156E+02  0.7816164E-02  0.1226708E+00
        -11   -1    0    0    0    0  0.00000000000E+00  0.00000000000E+00  0.45593999997E+02  0.45594000000E+02  0.51100000000E-03 0. -1.
         11   -1    0    0    0    0 -0.00000000000E+00 -0.00000000000E+00 -0.45593999997E+02  0.45594000000E+02  0.51100000000E-03 0.  1.
    9900012    2    1    2    0    0  0.12009199794E+02 -0.75518448628E+01  0.12224083511E+02  0.72461562586E+02  0.69999989959E+02 0.  0.
        -12    1    1    2    0    0 -0.12009199794E+02  0.75518448628E+01 -0.12224083511E+02  0.18726437414E+02  0.00000000000E+00 0.  1.
         11    1    3    3    0    0  0.12679212112E+02  0.68757944648E+01  0.87488030394E+00  0.14450065229E+02  0.51100000000E-03 0. -1.
        -11    1    3    3    0    0  0.84701814479E+01 -0.82234394906E+01 -0.20855390219E+02  0.23964895832E+02  0.51100000000E-03 0.  1.
         12    1    3    3    0    0 -0.91401937663E+01 -0.62041998370E+01  0.32204593426E+02  0.34046601525E+02  0.00000000000E+00 0. -1.
</event>
<event>
 7    1  0.3611369E-013  0.7246131E+02  0.7816164E-02  0.1226709E+00
        -11   -1    0    0    0    0  0.00000000000E+00  0.00000000000E+00  0.45593999997E+02  0.45594000000E+02  0.51100000000E-03 0.  1.
         11   -1    0    0    0    0 -0.00000000000E+00 -0.00000000000E+00 -0.45593999997E+02  0.45594000000E+02  0.51100000000E-03 0. -1.
    9900012    2    1    2    0    0 -0.54905225643E+01 -0.10670168043E+02  0.14376737912E+02  0.72461310034E+02  0.69999660962E+02 0.  0.
        -12    1    1    2    0    0  0.54905225643E+01  0.10670168043E+02 -0.14376737912E+02  0.18726689966E+02  0.00000000000E+00 0.  1.
         11    1    3    3    0    0  0.35087090215E+01  0.21909154724E+02 -0.79231044135E+01  0.23560511105E+02  0.51100000000E-03 0. -1.
        -11    1    3    3    0    0  0.89947163615E+01 -0.42468763133E+01  0.55353568501E+01  0.11383367541E+02  0.51100000000E-03 0.  1.
         12    1    3    3    0    0 -0.17993947947E+02 -0.28332446453E+02  0.16764485475E+02  0.37517431389E+02  0.00000000000E+00 0. -1.
</event>
<event>
 7    1  0.3611369E-013  0.7246158E+02  0.7816164E-02  0.1226708E+00
        -11   -1    0    0    0    0  0.00000000000E+00  0.00000000000E+00  0.45593999997E+02  0.45594000000E+02  0.51100000000E-03 0. -1.
         11   -1    0    0    0    0 -0.00000000000E+00 -0.00000000000E+00 -0.45593999997E+02  0.45594000000E+02  0.51100000000E-03 0.  1.
    9900012    2    1    2    0    0  0.53055755172E+01  0.79326477911E+00  0.17941584665E+02  0.72461578535E+02  0.70000010736E+02 0.  0.
        -12    1    1    2    0    0 -0.53055755172E+01 -0.79326477911E+00 -0.17941584665E+02  0.18726421465E+02  0.00000000000E+00 0.  1.
         11    1    3    3    0    0  0.95992865015E+01 -0.81179811784E+01 -0.57749321854E+01  0.13834657992E+02  0.51100000000E-03 0. -1.
        -11    1    3    3    0    0  0.12710126993E+02 -0.17175002112E+02  0.39061367036E+01  0.21720633737E+02  0.51100000000E-03 0.  1.
         12    1    3    3    0    0 -0.17003837978E+02  0.26086248069E+02  0.19810380147E+02  0.36906286807E+02  0.00000000000E+00 0. -1.
</event>
<event>
 7    1  0.3611369E-013  0.7246155E+02  0.7816164E-02  0.1226708E+00
        -11   -1    0    0    0    0  0.00000000000E+00  0.00000000000E+00  0.45593999997E+02  0.45594000000E+02  0.51100000000E-03 0.  1.
         11   -1    0    0    0    0 -0.00000000000E+00 -0.00000000000E+00 -0.45593999997E+02  0.45594000000E+02  0.51100000000E-03 0. -1.
    9900012    2    1    2    0    0 -0.15863810537E+02 -0.40241385453E+01  0.91008672686E+01  0.72461549166E+02  0.69999972477E+02 0.  0.
        -12    1    1    2    0    0  0.15863810537E+02  0.40241385453E+01 -0.91008672686E+01  0.18726450834E+02  0.00000000000E+00 0.  1.
         11    1    3    3    0    0  0.89524506158E+01  0.25834653069E+01  0.32710160423E+01  0.98752322115E+01  0.51100000000E-03 0. -1.
        -11    1    3    3    0    0 -0.12632213332E+02 -0.31531063341E+02  0.75303219878E+01  0.34792046772E+02  0.51100000000E-03 0.  1.
         12    1    3    3    0    0 -0.12184047821E+02  0.24923459489E+02 -0.17004707615E+01  0.27794270183E+02  0.00000000000E+00 0. -1.
</event>
<event>
 7    1  0.3611369E-013  0.7246209E+02  0.7816164E-02  0.1226707E+00
        -11   -1    0    0    0    0  0.00000000000E+00  0.00000000000E+00  0.45593999997E+02  0.45594000000E+02  0.51100000000E-03 0. -1.
         11   -1    0    0    0    0 -0.00000000000E+00 -0.00000000000E+00 -0.45593999997E+02  0.45594000000E+02  0.51100000000E-03 0.  1.
    9900012    2    1    2    0    0  0.13634185162E+02  0.75008049367E+01  0.10416648558E+02  0.72462091560E+02  0.70000679042E+02 0.  0.
        -12    1    1    2    0    0 -0.13634185162E+02 -0.75008049367E+01 -0.10416648558E+02  0.18725908440E+02  0.00000000000E+00 0.  1.
         11    1    3    3    0    0  0.22900562600E+01  0.17753117722E+02  0.65807296324E+01  0.19071537675E+02  0.51100000000E-03 0. -1.
        -11    1    3    3    0    0 -0.15434538540E+02  0.96328555651E+01 -0.50329504957E+01  0.18877168147E+02  0.51100000000E-03 0.  1.
         12    1    3    3    0    0  0.26778667442E+02 -0.19885168351E+02  0.88688694212E+01  0.34513385738E+02  0.00000000000E+00 0. -1.
</event>
<event>
 7    1  0.3611369E-013  0.7246161E+02  0.7816164E-02  0.1226708E+00
        -11   -1    0    0    0    0  0.00000000000E+00  0.00000000000E+00  0.45593999997E+02  0.45594000000E+02  0.51100000000E-03 0.  1.
         11   -1    0    0    0    0 -0.00000000000E+00 -0.00000000000E+00 -0.45593999997E+02  0.45594000000E+02  0.51100000000E-03 0. -1.
    9900012    2    1    2    0    0 -0.16662519082E+02  0.21213993726E+01 -0.82787456799E+01  0.72461614671E+02  0.70000057809E+02 0.  0.
        -12    1    1    2    0    0  0.16662519082E+02 -0.21213993726E+01  0.82787456799E+01  0.18726385329E+02  0.00000000000E+00 0.  1.
         11    1    3    3    0    0 -0.42277444274E+01 -0.49834706087E+01  0.43616973947E+01  0.78570482165E+01  0.51100000000E-03 0. -1.
        -11    1    3    3    0    0 -0.15735816870E+02  0.58022341747E+01  0.23178712994E+02  0.28610043521E+02  0.51100000000E-03 0.  1.
         12    1    3    3    0    0  0.33010422154E+01  0.13026358066E+01 -0.35819156069E+02  0.35994522934E+02  0.00000000000E+00 0. -1.
</event>
<event>
 7    1  0.3611369E-013  0.7246152E+02  0.7816164E-02  0.1226708E+00
        -11   -1    0    0    0    0  0.00000000000E+00  0.00000000000E+00  0.45593999997E+02  0.45594000000E+02  0.51100000000E-03 0.  1.
         11   -1    0    0    0    0 -0.00000000000E+00 -0.00000000000E+00 -0.45593999997E+02  0.45594000000E+02  0.51100000000E-03 0. -1.
    9900012    2    1    2    0    0 -0.11135401082E+02  0.14288945809E+01 -0.14988063222E+02  0.72461523125E+02  0.69999938554E+02 0.  0.
        -12    1    1    2    0    0  0.11135401082E+02 -0.14288945809E+01  0.14988063222E+02  0.18726476875E+02  0.00000000000E+00 0.  1.
         11    1    3    3    0    0 -0.20197064277E+02  0.11324855378E+02 -0.11042930962E+02  0.25653851158E+02  0.51100000000E-03 0. -1.
        -11    1    3    3    0    0 -0.15635849051E+02  0.48418820566E+01  0.42331798976E+01  0.16906904203E+02  0.51100000000E-03 0.  1.
        -12    1    3    3    0    0  0.24697512246E+02 -0.14737842854E+02 -0.81783121574E+01  0.29900767764E+02  0.00000000000E+00 0.  1.
</event>
<event>
 7    1  0.3611369E-013  0.7246158E+02  0.7816164E-02  0.1226708E+00
        -11   -1    0    0    0    0  0.00000000000E+00  0.00000000000E+00  0.45593999997E+02  0.45594000000E+02  0.51100000000E-03 0.  1.
         11   -1    0    0    0    0 -0.00000000000E+00 -0.00000000000E+00 -0.45593999997E+02  0.45594000000E+02  0.51100000000E-03 0. -1.
    9900012    2    1    2    0    0 -0.49579023102E+01 -0.66517086096E+01 -0.16788469592E+02  0.72461581923E+02  0.70000015149E+02 0.  0.
        -12    1    1    2    0    0  0.49579023102E+01  0.66517086096E+01  0.16788469592E+02  0.18726418077E+02  0.00000000000E+00 0.  1.
         11    1    3    3    0    0 -0.17044746787E+02 -0.12387941348E+02  0.11508835653E+02  0.24009118731E+02  0.51100000000E-03 0. -1.
        -11    1    3    3    0    0  0.13820747324E+02 -0.61566094166E+01  0.25528724059E+01  0.15343860462E+02  0.51100000000E-03 0.  1.
         12    1    3    3    0    0 -0.17339028472E+01  0.11892842155E+02 -0.30850177651E+02  0.33108602730E+02  0.00000000000E+00 0. -1.
</event>
<event>
 7    1  0.3611369E-013  0.7246159E+02  0.7816164E-02  0.1226708E+00
        -11   -1    0    0    0    0  0.00000000000E+00  0.00000000000E+00  0.45593999997E+02  0.45594000000E+02  0.51100000000E-03 0. -1.
         11   -1    0    0    0    0 -0.00000000000E+00 -0.00000000000E+00 -0.45593999997E+02  0.45594000000E+02  0.51100000000E-03 0.  1.
    9900012    2    1    2    0    0 -0.11416652773E+02  0.66613265093E+01  0.13265181026E+02  0.72461594604E+02  0.70000031668E+02 0.  0.
        -12    1    1    2    0    0  0.11416652773E+02 -0.66613265093E+01 -0.13265181026E+02  0.18726405396E+02  0.00000000000E+00 0.  1.
         11    1    3    3    0    0 -0.17748243157E+01 -0.23860702526E+02  0.20042946088E+01  0.24010421144E+02  0.51100000000E-03 0. -1.
        -11    1    3    3    0    0  0.31099385202E+00 -0.56115910794E+01 -0.50693972169E+01  0.75687158767E+01  0.51100000000E-03 0.  1.
        -12    1    3    3    0    0 -0.99528223093E+01  0.36133620115E+02  0.16330283634E+02  0.40882457583E+02  0.00000000000E+00 0.  1.
</event>
<event>
 7    1  0.3611369E-013  0.7246157E+02  0.7816164E-02  0.1226708E+00
        -11   -1    0    0    0    0  0.00000000000E+00  0.00000000000E+00  0.45593999997E+02  0.45594000000E+02  0.51100000000E-03 0.  1.
         11   -1    0    0    0    0 -0.00000000000E+00 -0.00000000000E+00 -0.45593999997E+02  0.45594000000E+02  0.51100000000E-03 0. -1.
    9900012    2    1    2    0    0  0.10167965446E+02 -0.12704739784E+02  0.92672131455E+01  0.72461570181E+02  0.69999999852E+02 0.  0.
        -12    1    1    2    0    0 -0.10167965446E+02  0.12704739784E+02 -0.92672131455E+01  0.18726429819E+02  0.00000000000E+00 0.  1.
         11    1    3    3    0    0  0.27188295775E+02 -0.67385283693E+01 -0.18916912613E+02  0.33800307318E+02  0.51100000000E-03 0. -1.
        -11    1    3    3    0    0  0.11168337395E+00 -0.40345512301E+01 -0.15229022603E+01  0.43138507577E+01  0.51100000000E-03 0.  1.
        -12    1    3    3    0    0 -0.17132013704E+02 -0.19316601844E+01  0.29707028019E+02  0.34347412105E+02  0.00000000000E+00 0.  1.
</event>
<event>
 7    1  0.3611369E-013  0.7246157E+02  0.7816164E-02  0.1226708E+00
        -11   -1    0    0    0    0  0.00000000000E+00  0.00000000000E+00  0.45593999997E+02  0.45594000000E+02  0.51100000000E-03 0. -1.
         11   -1    0    0    0    0 -0.00000000000E+00 -0.00000000000E+00 -0.45593999997E+02  0.45594000000E+02  0.51100000000E-03 0.  1.
    9900012    2    1    2    0    0  0.17455003716E+02  0.66394438681E+01 -0.13856340518E+01  0.72461565440E+02  0.69999993676E+02 0.  0.
        -12    1    1    2    0    0 -0.17455003716E+02 -0.66394438681E+01  0.13856340518E+01  0.18726434560E+02  0.00000000000E+00 0.  1.
         11    1    3    3    0    0  0.33080051843E+02  0.13152610847E+02  0.16128232167E+02  0.39081976346E+02  0.51100000000E-03 0. -1.
        -11    1    3    3    0    0  0.52853800627E+01  0.10725881237E+01 -0.58152319235E+00  0.54243762014E+01  0.51100000000E-03 0.  1.
        -12    1    3    3    0    0 -0.20910428189E+02 -0.75857551027E+01 -0.16932343026E+02  0.27955212893E+02  0.00000000000E+00 0.  1.
</event>
<event>
 7    1  0.3611369E-013  0.7246158E+02  0.7816164E-02  0.1226708E+00
        -11   -1    0    0    0    0  0.00000000000E+00  0.00000000000E+00  0.45593999997E+02  0.45594000000E+02  0.51100000000E-03 0. -1.
         11   -1    0    0    0    0 -0.00000000000E+00 -0.00000000000E+00 -0.45593999997E+02  0.45594000000E+02  0.51100000000E-03 0.  1.
    9900012    2    1    2    0    0 -0.91427981455E+00  0.10910175638E+02  0.15192466938E+02  0.72461577712E+02  0.70000009663E+02 0.  0.
        -12    1    1    2    0    0  0.91427981455E+00 -0.10910175638E+02 -0.15192466938E+02  0.18726422288E+02  0.00000000000E+00 0.  1.
         11    1    3    3    0    0  0.13339299940E+02 -0.53832461712E+00  0.36167807194E+01  0.13831406989E+02  0.51100000000E-03 0. -1.
        -11    1    3    3    0    0  0.89260507850E+01 -0.14532745550E+02 -0.78328573550E+01  0.18767757736E+02  0.51100000000E-03 0.  1.
         12    1    3    3    0    0 -0.23179630539E+02  0.25981245804E+02  0.19408543574E+02  0.39862412987E+02  0.00000000000E+00 0. -1.
</event>
<event>
 7    1  0.3611369E-013  0.7246154E+02  0.7816164E-02  0.1226708E+00
        -11   -1    0    0    0    0  0.00000000000E+00  0.00000000000E+00  0.45593999997E+02  0.45594000000E+02  0.51100000000E-03 0.  1.
         11   -1    0    0    0    0 -0.00000000000E+00 -0.00000000000E+00 -0.45593999997E+02  0.45594000000E+02  0.51100000000E-03 0. -1.
    9900012    2    1    2    0    0  0.23509774544E+01  0.12001752757E+02 -0.14181364450E+02  0.72461541127E+02  0.69999962005E+02 0.  0.
        -12    1    1    2    0    0 -0.23509774544E+01 -0.12001752757E+02  0.14181364450E+02  0.18726458873E+02  0.00000000000E+00 0.  1.
         11    1    3    3    0    0  0.41310158955E+01  0.10115009828E+02 -0.17622099380E+02  0.20734442432E+02  0.51100000000E-03 0. -1.
        -11    1    3    3    0    0  0.84191066722E+01  0.21275855404E+02  0.14598438522E+02  0.27141440416E+02  0.51100000000E-03 0.  1.
         12    1    3    3    0    0 -0.10199145113E+02 -0.19389112474E+02 -0.11157703592E+02  0.24585658279E+02  0.00000000000E+00 0. -1.
</event>
<event>
 7    1  0.3611369E-013  0.7246157E+02  0.7816164E-02  0.1226708E+00
        -11   -1    0    0    0    0  0.00000000000E+00  0.00000000000E+00  0.45593999997E+02  0.45594000000E+02  0.51100000000E-03 0. -1.
         11   -1    0    0    0    0 -0.00000000000E+00 -0.00000000000E+00 -0.45593999997E+02  0.45594000000E+02  0.51100000000E-03 0.  1.
    9900012    2    1    2    0    0  0.80183482859E+01  0.11495166940E+02  0.12419601644E+02  0.72461567419E+02  0.69999996254E+02 0.  0.
        -12    1    1    2    0    0 -0.80183482859E+01 -0.11495166940E+02 -0.12419601644E+02  0.18726432581E+02  0.00000000000E+00 0.  1.
         11    1    3    3    0    0  0.23239277528E+02 -0.50396682091E+01 -0.30317273427E+01  0.23971934562E+02  0.51100000000E-03 0. -1.
        -11    1    3    3    0    0  0.48081525500E+01  0.10689752640E+02 -0.10120474921E+02  0.15485901825E+02  0.51100000000E-03 0.  1.
         12    1    3    3    0    0 -0.20029081792E+02  0.58450825093E+01  0.25571803907E+02  0.33003731032E+02  0.00000000000E+00 0. -1.
</event>
<event>
 7    1  0.3611369E-013  0.7246158E+02  0.7816164E-02  0.1226708E+00
        -11   -1    0    0    0    0  0.00000000000E+00  0.00000000000E+00  0.45593999997E+02  0.45594000000E+02  0.51100000000E-03 0.  1.
         11   -1    0    0    0    0 -0.00000000000E+00 -0.00000000000E+00 -0.45593999997E+02  0.45594000000E+02  0.51100000000E-03 0. -1.
    9900012    2    1    2    0    0  0.16825821927E+02 -0.70235729235E+01 -0.42708387217E+01  0.72461576863E+02  0.70000008556E+02 0.  0.
        -12    1    1    2    0    0 -0.16825821927E+02  0.70235729235E+01  0.42708387217E+01  0.18726423137E+02  0.00000000000E+00 0.  1.
         11    1    3    3    0    0  0.23868695732E+02 -0.26087793294E+02 -0.51847421457E+01  0.35737503358E+02  0.51100000000E-03 0. -1.
        -11    1    3    3    0    0 -0.13478682432E+01 -0.84419840341E+01 -0.77368680655E+00  0.85838473175E+01  0.51100000000E-03 0.  1.
        -12    1    3    3    0    0 -0.56950055622E+01  0.27506204404E+02  0.16875902306E+01  0.28140226187E+02  0.00000000000E+00 0.  1.
</event>
<event>
 7    1  0.3611369E-013  0.7246156E+02  0.7816164E-02  0.1226708E+00
        -11   -1    0    0    0    0  0.00000000000E+00  0.00000000000E+00  0.45593999997E+02  0.45594000000E+02  0.51100000000E-03 0. -1.
         11   -1    0    0    0    0 -0.00000000000E+00 -0.00000000000E+00 -0.45593999997E+02  0.45594000000E+02  0.51100000000E-03 0.  1.
    9900012    2    1    2    0    0 -0.18008797997E+02 -0.14604475735E+01 -0.49223677073E+01  0.72461563706E+02  0.69999991418E+02 0.  0.
        -12    1    1    2    0    0  0.18008797997E+02  0.14604475735E+01  0.49223677073E+01  0.18726436294E+02  0.00000000000E+00 0.  1.
         11    1    3    3    0    0  0.13720080424E+02  0.40085986073E+00 -0.83457537155E+01  0.16064025050E+02  0.51100000000E-03 0. -1.
        -11    1    3    3    0    0 -0.15269853352E+02 -0.20318486055E+02 -0.11081845622E+02  0.27727542257E+02  0.51100000000E-03 0.  1.
         12    1    3    3    0    0 -0.16459025070E+02  0.18457178620E+02  0.14505231631E+02  0.28669996399E+02  0.00000000000E+00 0. -1.
</event>
<event>
 7    1  0.3611369E-013  0.7246157E+02  0.7816164E-02  0.1226708E+00
        -11   -1    0    0    0    0  0.00000000000E+00  0.00000000000E+00  0.45593999997E+02  0.45594000000E+02  0.51100000000E-03 0.  1.
         11   -1    0    0    0    0 -0.00000000000E+00 -0.00000000000E+00 -0.45593999997E+02  0.45594000000E+02  0.51100000000E-03 0. -1.
    9900012    2    1    2    0    0 -0.86944580427E+01 -0.16026173443E+02 -0.42717065354E+01  0.72461566474E+02  0.69999995024E+02 0.  0.
        -12    1    1    2    0    0  0.86944580427E+01  0.16026173443E+02  0.42717065354E+01  0.18726433526E+02  0.00000000000E+00 0.  1.
         11    1    3    3    0    0 -0.46713694797E+01  0.67452582725E+01  0.19285568218E+02  0.20958371686E+02  0.51100000000E-03 0. -1.
        -11    1    3    3    0    0  0.57713323196E+01 -0.18597674665E+02  0.57648711832E+01  0.20308016144E+02  0.51100000000E-03 0.  1.
         12    1    3    3    0    0 -0.97944208826E+01 -0.41737570496E+01 -0.29322145936E+02  0.31195178644E+02  0.00000000000E+00 0. -1.
</event>
<event>
 7    1  0.3611369E-013  0.7246145E+02  0.7816164E-02  0.1226708E+00
        -11   -1    0    0    0    0  0.00000000000E+00  0.00000000000E+00  0.45593999997E+02  0.45594000000E+02  0.51100000000E-03 0. -1.
         11   -1    0    0    0    0 -0.00000000000E+00 -0.00000000000E+00 -0.45593999997E+02  0.45594000000E+02  0.51100000000E-03 0.  1.
    9900012    2    1    2    0    0  0.51116784238E+00 -0.35509372617E+01  0.18379692812E+02  0.72461453179E+02  0.69999847435E+02 0.  0.
        -12    1    1    2    0    0 -0.51116784238E+00  0.35509372617E+01 -0.18379692812E+02  0.18726546821E+02  0.00000000000E+00 0.  1.
         11    1    3    3    0    0 -0.23931919731E+01  0.15932209308E+02  0.58353121526E+01  0.17135154783E+02  0.51100000000E-03 0. -1.
        -11    1    3    3    0    0  0.43705908108E+01  0.10284919038E+02 -0.12232354065E+02  0.16568406981E+02  0.51100000000E-03 0.  1.
         12    1    3    3    0    0 -0.14662309953E+01 -0.29768065607E+02  0.24776734724E+02  0.38757891415E+02  0.00000000000E+00 0. -1.
</event>
<event>
 7    1  0.3611369E-013  0.7246160E+02  0.7816164E-02  0.1226708E+00
        -11   -1    0    0    0    0  0.00000000000E+00  0.00000000000E+00  0.45593999997E+02  0.45594000000E+02  0.51100000000E-03 0. -1.
         11   -1    0    0    0    0 -0.00000000000E+00 -0.00000000000E+00 -0.45593999997E+02  0.45594000000E+02  0.51100000000E-03 0.  1.
    9900012    2    1    2    0    0 -0.51916534286E+01 -0.15427480439E+02 -0.92583793446E+01  0.72461601357E+02  0.70000040465E+02 0.  0.
        -12    1    1    2    0    0  0.51916534286E+01  0.15427480439E+02  0.92583793446E+01  0.18726398643E+02  0.00000000000E+00 0.  1.
         11    1    3    3    0    0  0.21052182012E+02  0.72317183104E+01  0.55205251400E+01  0.22933999112E+02  0.51100000000E-03 0. -1.
        -11    1    3    3    0    0 -0.21567544658E+02 -0.16060956410E+01  0.26634946845E+01  0.21790656943E+02  0.51100000000E-03 0.  1.
        -12    1    3    3    0    0 -0.46762907820E+01 -0.21053103109E+02 -0.17442399169E+02  0.27736945303E+02  0.00000000000E+00 0.  1.
</event>
<event>
 7    1  0.3611369E-013  0.7246155E+02  0.7816164E-02  0.1226708E+00
        -11   -1    0    0    0    0  0.00000000000E+00  0.00000000000E+00  0.45593999997E+02  0.45594000000E+02  0.51100000000E-03 0.  1.
         11   -1    0    0    0    0 -0.00000000000E+00 -0.00000000000E+00 -0.45593999997E+02  0.45594000000E+02  0.51100000000E-03 0. -1.
    9900012    2    1    2    0    0 -0.68789036565E+01 -0.17342289712E+02  0.16142265980E+01  0.72461546639E+02  0.69999969184E+02 0.  0.
        -12    1    1    2    0    0  0.68789036565E+01  0.17342289712E+02 -0.16142265980E+01  0.18726453361E+02  0.00000000000E+00 0.  1.
         11    1    3    3    0    0  0.40453658132E+01 -0.98891154352E+01  0.53043137144E+01  0.11928760744E+02  0.51100000000E-03 0. -1.
        -11    1    3    3    0    0 -0.17869661059E+02 -0.93806841755E+01  0.24323798267E+02  0.31606473772E+02  0.51100000000E-03 0.  1.
        -12    1    3    3    0    0  0.69453915891E+01  0.19275098984E+01 -0.28013885383E+02  0.28926312122E+02  0.00000000000E+00 0.  1.
</event>
<event>
 7    1  0.3611369E-013  0.7246163E+02  0.7816164E-02  0.1226708E+00
        -11   -1    0    0    0    0  0.00000000000E+00  0.00000000000E+00  0.45593999997E+02  0.45594000000E+02  0.51100000000E-03 0.  1.
         11   -1    0    0    0    0 -0.00000000000E+00 -0.00000000000E+00 -0.45593999997E+02  0.45594000000E+02  0.51100000000E-03 0. -1.
    9900012    2    1    2    0    0 -0.11665743605E+02 -0.11500280344E+02 -0.90736330964E+01  0.72461632509E+02  0.70000081046E+02 0.  0.
        -12    1    1    2    0    0  0.11665743605E+02  0.11500280344E+02  0.90736330964E+01  0.18726367491E+02  0.00000000000E+00 0.  1.
         11    1    3    3    0    0 -0.54298406734E+01 -0.21367042508E+02  0.10670160810E+02  0.24492570450E+02  0.51100000000E-03 0. -1.
        -11    1    3    3    0    0  0.16824064995E+02 -0.33118682536E+01 -0.82575397147E+01  0.19031673513E+02  0.51100000000E-03 0.  1.
         12    1    3    3    0    0 -0.23059967927E+02  0.13178630418E+02 -0.11486254192E+02  0.28937388546E+02  0.00000000000E+00 0. -1.
</event>
<event>
 7    1  0.3611369E-013  0.7246153E+02  0.7816164E-02  0.1226708E+00
        -11   -1    0    0    0    0  0.00000000000E+00  0.00000000000E+00  0.45593999997E+02  0.45594000000E+02  0.51100000000E-03 0. -1.
         11   -1    0    0    0    0 -0.00000000000E+00 -0.00000000000E+00 -0.45593999997E+02  0.45594000000E+02  0.51100000000E-03 0.  1.
    9900012    2    1    2    0    0 -0.18223551343E+02  0.26910727519E+01 -0.33676475491E+01  0.72461528199E+02  0.69999945163E+02 0.  0.
        -12    1    1    2    0    0  0.18223551343E+02 -0.26910727519E+01  0.33676475491E+01  0.18726471801E+02  0.00000000000E+00 0.  1.
         11    1    3    3    0    0 -0.23121111270E+02  0.73737724264E+01  0.23921826113E+02  0.34076561901E+02  0.51100000000E-03 0. -1.
        -11    1    3    3    0    0 -0.52604326530E+01 -0.74253625738E+01  0.40052361828E-01  0.90999871155E+01  0.51100000000E-03 0.  1.
        -12    1    3    3    0    0  0.10157992581E+02  0.27426628993E+01 -0.27329526024E+02  0.29284979183E+02  0.00000000000E+00 0.  1.
</event>
<event>
 7    1  0.3611369E-013  0.7246160E+02  0.7816164E-02  0.1226708E+00
        -11   -1    0    0    0    0  0.00000000000E+00  0.00000000000E+00  0.45593999997E+02  0.45594000000E+02  0.51100000000E-03 0. -1.
         11   -1    0    0    0    0 -0.00000000000E+00 -0.00000000000E+00 -0.45593999997E+02  0.45594000000E+02  0.51100000000E-03 0.  1.
    9900012    2    1    2    0    0 -0.12064002473E+02 -0.14308988899E+02  0.62500339177E+00  0.72461602904E+02  0.70000042480E+02 0.  0.
        -12    1    1    2    0    0  0.12064002473E+02  0.14308988899E+02 -0.62500339177E+00  0.18726397096E+02  0.00000000000E+00 0.  1.
         11    1    3    3    0    0  0.15584693164E+02  0.94226549579E+01  0.23753779106E+01  0.18366042250E+02  0.51100000000E-03 0. -1.
        -11    1    3    3    0    0 -0.13411411876E+02  0.96093142216E+01  0.49560392471E+01  0.17226932797E+02  0.51100000000E-03 0.  1.
        -12    1    3    3    0    0 -0.14237283760E+02 -0.33340958078E+02 -0.67064137659E+01  0.36868627857E+02  0.00000000000E+00 0.  1.
</event>
<event>
 7    1  0.3611369E-013  0.7246153E+02  0.7816164E-02  0.1226708E+00
        -11   -1    0    0    0    0  0.00000000000E+00  0.00000000000E+00  0.45593999997E+02  0.45594000000E+02  0.51100000000E-03 0.  1.
         11   -1    0    0    0    0 -0.00000000000E+00 -0.00000000000E+00 -0.45593999997E+02  0.45594000000E+02  0.51100000000E-03 0. -1.
    9900012    2    1    2    0    0 -0.25922428760E+01 -0.18243013536E+02 -0.33396665176E+01  0.72461531073E+02  0.69999948907E+02 0.  0.
        -12    1    1    2    0    0  0.25922428760E+01  0.18243013536E+02  0.33396665176E+01  0.18726468927E+02  0.00000000000E+00 0.  1.
         11    1    3    3    0    0 -0.33795318985E+01 -0.16905755731E+02 -0.69234437517E+01  0.18578479118E+02  0.51100000000E-03 0. -1.
        -11    1    3    3    0    0  0.15583487781E+02 -0.15093722412E+02  0.18707124883E+02  0.28646501869E+02  0.51100000000E-03 0.  1.
         12    1    3    3    0    0 -0.14796198758E+02  0.13756464606E+02 -0.15123347649E+02  0.25236550087E+02  0.00000000000E+00 0. -1.
</event>
<event>
 7    1  0.3611369E-013  0.7246158E+02  0.7816164E-02  0.1226708E+00
        -11   -1    0    0    0    0  0.00000000000E+00  0.00000000000E+00  0.45593999997E+02  0.45594000000E+02  0.51100000000E-03 0. -1.
         11   -1    0    0    0    0 -0.00000000000E+00 -0.00000000000E+00 -0.45593999997E+02  0.45594000000E+02  0.51100000000E-03 0.  1.
    9900012    2    1    2    0    0  0.59545630111E+01  0.39259555027E+00  0.17750147246E+02  0.72461583387E+02  0.70000017056E+02 0.  0.
        -12    1    1    2    0    0 -0.59545630111E+01 -0.39259555027E+00 -0.17750147246E+02  0.18726416613E+02  0.00000000000E+00 0.  1.
         11    1    3    3    0    0  0.60344098078E+01  0.21063076897E+02  0.31395080282E+01  0.22134222846E+02  0.51100000000E-03 0. -1.
        -11    1    3    3    0    0  0.18309805448E+02 -0.10842264878E+01  0.14628543220E+02  0.23461005938E+02  0.51100000000E-03 0.  1.
         12    1    3    3    0    0 -0.18389652245E+02 -0.19586254859E+02 -0.17904002177E-01  0.26866354603E+02  0.00000000000E+00 0. -1.
</event>
<event>
 7    1  0.3611369E-013  0.7246159E+02  0.7816164E-02  0.1226708E+00
        -11   -1    0    0    0    0  0.00000000000E+00  0.00000000000E+00  0.45593999997E+02  0.45594000000E+02  0.51100000000E-03 0. -1.
         11   -1    0    0    0    0 -0.00000000000E+00 -0.00000000000E+00 -0.45593999997E+02  0.45594000000E+02  0.51100000000E-03 0.  1.
    9900012    2    1    2    0    0 -0.12753735064E+02  0.39750944447E+01  0.13123228573E+02  0.72461594523E+02  0.70000031562E+02 0.  0.
        -12    1    1    2    0    0  0.12753735064E+02 -0.39750944447E+01 -0.13123228573E+02  0.18726405477E+02  0.00000000000E+00 0.  1.
         11    1    3    3    0    0 -0.31308784472E+02 -0.13115280015E+00  0.52830373095E+01  0.31751656172E+02  0.51100000000E-03 0. -1.
        -11    1    3    3    0    0 -0.52314355460E+01 -0.40133683208E+01  0.13430389255E+02  0.14961630892E+02  0.51100000000E-03 0.  1.
        -12    1    3    3    0    0  0.23786484954E+02  0.81196155657E+01 -0.55901979921E+01  0.25748307459E+02  0.00000000000E+00 0.  1.
</event>
<event>
 7    1  0.3611369E-013  0.7246182E+02  0.7816164E-02  0.1226707E+00
        -11   -1    0    0    0    0  0.00000000000E+00  0.00000000000E+00  0.45593999997E+02  0.45594000000E+02  0.51100000000E-03 0. -1.
         11   -1    0    0    0    0 -0.00000000000E+00 -0.00000000000E+00 -0.45593999997E+02  0.45594000000E+02  0.51100000000E-03 0.  1.
    9900012    2    1    2    0    0 -0.13336169569E+02 -0.50120853032E+01 -0.12152999173E+02  0.72461820284E+02  0.70000325657E+02 0.  0.
        -12    1    1    2    0    0  0.13336169569E+02  0.50120853032E+01  0.12152999173E+02  0.18726179716E+02  0.00000000000E+00 0.  1.
         11    1    3    3    0    0  0.65466121748E+00 -0.97009407690E+00 -0.11552014029E+02  0.11611145173E+02  0.51100000000E-03 0. -1.
        -11    1    3    3    0    0  0.12522221850E+02  0.15905171814E+02 -0.14477129331E+02  0.24887101165E+02  0.51100000000E-03 0.  1.
         12    1    3    3    0    0 -0.26513052637E+02 -0.19947163040E+02  0.13876144187E+02  0.35963573946E+02  0.00000000000E+00 0. -1.
</event>
<event>
 7    1  0.3611369E-013  0.7246144E+02  0.7816164E-02  0.1226708E+00
        -11   -1    0    0    0    0  0.00000000000E+00  0.00000000000E+00  0.45593999997E+02  0.45594000000E+02  0.51100000000E-03 0. -1.
         11   -1    0    0    0    0 -0.00000000000E+00 -0.00000000000E+00 -0.45593999997E+02  0.45594000000E+02  0.51100000000E-03 0.  1.
    9900012    2    1    2    0    0 -0.17046454304E+02  0.64659313038E+01  0.42771621923E+01  0.72461441630E+02  0.69999832391E+02 0.  0.
        -12    1    1    2    0    0  0.17046454304E+02 -0.64659313038E+01 -0.42771621923E+01  0.18726558370E+02  0.00000000000E+00 0.  1.
         11    1    3    3    0    0 -0.18414333374E+02  0.53199679948E+01  0.19407962098E+02  0.27277439875E+02  0.51100000000E-03 0. -1.
        -11    1    3    3    0    0 -0.28103537868E+01  0.16824637853E+02  0.64042820004E+01  0.18220355526E+02  0.51100000000E-03 0.  1.
        -12    1    3    3    0    0  0.41782328572E+01 -0.15678674544E+02 -0.21535081906E+02  0.26963646229E+02  0.00000000000E+00 0.  1.
</event>
<event>
 7    1  0.3611369E-013  0.7246154E+02  0.7816164E-02  0.1226708E+00
        -11   -1    0    0    0    0  0.00000000000E+00  0.00000000000E+00  0.45593999997E+02  0.45594000000E+02  0.51100000000E-03 0. -1.
         11   -1    0    0    0    0 -0.00000000000E+00 -0.00000000000E+00 -0.45593999997E+02  0.45594000000E+02  0.51100000000E-03 0.  1.
    9900012    2    1    2    0    0  0.69487706554E+00  0.18165898382E+02 -0.44941622218E+01  0.72461542453E+02  0.69999963732E+02 0.  0.
        -12    1    1    2    0    0 -0.69487706554E+00 -0.18165898382E+02  0.44941622218E+01  0.18726457547E+02  0.00000000000E+00 0.  1.
         11    1    3    3    0    0 -0.98795688353E+01  0.20778177029E+01 -0.42233380923E+01  0.10943481698E+02  0.51100000000E-03 0. -1.
        -11    1    3    3    0    0 -0.63975546278E+01  0.24312952735E+02 -0.21529422411E+02  0.33099311254E+02  0.51100000000E-03 0.  1.
         12    1    3    3    0    0  0.16972000529E+02 -0.82248720553E+01  0.21258598282E+02  0.28418749501E+02  0.00000000000E+00 0. -1.
</event>
<event>
 7    1  0.3611369E-013  0.7246157E+02  0.7816164E-02  0.1226708E+00
        -11   -1    0    0    0    0  0.00000000000E+00  0.00000000000E+00  0.45593999997E+02  0.45594000000E+02  0.51100000000E-03 0.  1.
         11   -1    0    0    0    0 -0.00000000000E+00 -0.00000000000E+00 -0.45593999997E+02  0.45594000000E+02  0.51100000000E-03 0. -1.
    9900012    2    1    2    0    0  0.13284574732E+02  0.12976186452E+02  0.24120538241E+01  0.72461565628E+02  0.69999993921E+02 0.  0.
        -12    1    1    2    0    0 -0.13284574732E+02 -0.12976186452E+02 -0.24120538241E+01  0.18726434372E+02  0.00000000000E+00 0.  1.
         11    1    3    3    0    0 -0.49544973145E+01 -0.18402702844E+02 -0.86180830484E+01  0.20915971680E+02  0.51100000000E-03 0. -1.
        -11    1    3    3    0    0  0.12916419691E+02 -0.34473037717E+01 -0.28680492402E+01  0.13672728610E+02  0.51100000000E-03 0.  1.
         12    1    3    3    0    0  0.53226523561E+01  0.34826193068E+02  0.13898186113E+02  0.37872865338E+02  0.00000000000E+00 0. -1.
</event>
<event>
 7    1  0.3611369E-013  0.7246158E+02  0.7816164E-02  0.1226708E+00
        -11   -1    0    0    0    0  0.00000000000E+00  0.00000000000E+00  0.45593999997E+02  0.45594000000E+02  0.51100000000E-03 0. -1.
         11   -1    0    0    0    0 -0.00000000000E+00 -0.00000000000E+00 -0.45593999997E+02  0.45594000000E+02  0.51100000000E-03 0.  1.
    9900012    2    1    2    0    0  0.14190606270E+02  0.55201508403E+01  0.10901074410E+02  0.72461580297E+02  0.70000013030E+02 0.  0.
        -12    1    1    2    0    0 -0.14190606270E+02 -0.55201508403E+01 -0.10901074410E+02  0.18726419703E+02  0.00000000000E+00 0.  1.
         11    1    3    3    0    0  0.21876106659E+02  0.69869672776E+01  0.24768177738E+02  0.33776387951E+02  0.51100000000E-03 0. -1.
        -11    1    3    3    0    0 -0.17614930359E+01  0.87273904807E+01  0.91855272869E+01  0.12792345919E+02  0.51100000000E-03 0.  1.
        -12    1    3    3    0    0 -0.59240073537E+01 -0.10194206918E+02 -0.23052630614E+02  0.25892846426E+02  0.00000000000E+00 0.  1.
</event>
<event>
 7    1  0.3611369E-013  0.7246155E+02  0.7816164E-02  0.1226708E+00
        -11   -1    0    0    0    0  0.00000000000E+00  0.00000000000E+00  0.45593999997E+02  0.45594000000E+02  0.51100000000E-03 0.  1.
         11   -1    0    0    0    0 -0.00000000000E+00 -0.00000000000E+00 -0.45593999997E+02  0.45594000000E+02  0.51100000000E-03 0. -1.
    9900012    2    1    2    0    0  0.24966143169E+01  0.64153649313E+01 -0.17415223711E+02  0.72461547929E+02  0.69999970865E+02 0.  0.
        -12    1    1    2    0    0 -0.24966143169E+01 -0.64153649313E+01  0.17415223711E+02  0.18726452071E+02  0.00000000000E+00 0.  1.
         11    1    3    3    0    0  0.16037051085E+02 -0.87533267555E+01  0.55376751148E+00  0.18278796337E+02  0.51100000000E-03 0. -1.
        -11    1    3    3    0    0 -0.16797220970E+02  0.69268172882E+01  0.12759379543E+02  0.22202008842E+02  0.51100000000E-03 0.  1.
        -12    1    3    3    0    0  0.32567842014E+01  0.82418743986E+01 -0.30728370766E+02  0.31980742750E+02  0.00000000000E+00 0.  1.
</event>
<event>
 7    1  0.3611369E-013  0.7246156E+02  0.7816164E-02  0.1226708E+00
        -11   -1    0    0    0    0  0.00000000000E+00  0.00000000000E+00  0.45593999997E+02  0.45594000000E+02  0.51100000000E-03 0.  1.
         11   -1    0    0    0    0 -0.00000000000E+00 -0.00000000000E+00 -0.45593999997E+02  0.45594000000E+02  0.51100000000E-03 0. -1.
    9900012    2    1    2    0    0  0.17652294239E+02  0.62087192966E+01  0.72664951942E+00  0.72461555950E+02  0.69999981314E+02 0.  0.
        -12    1    1    2    0    0 -0.17652294239E+02 -0.62087192966E+01 -0.72664951942E+00  0.18726444050E+02  0.00000000000E+00 0.  1.
         11    1    3    3    0    0 -0.19059326680E+02 -0.64157993388E+01 -0.75351246163E+01  0.21475533006E+02  0.51100000000E-03 0. -1.
        -11    1    3    3    0    0 -0.30264497688E+01  0.55140032880E+01 -0.54797215284E+01  0.83421207587E+01  0.51100000000E-03 0.  1.
        -12    1    3    3    0    0  0.39738070688E+02  0.71105153473E+01  0.13741495664E+02  0.42643902186E+02  0.00000000000E+00 0.  1.
</event>
<event>
 7    1  0.3611369E-013  0.7246151E+02  0.7816164E-02  0.1226708E+00
        -11   -1    0    0    0    0  0.00000000000E+00  0.00000000000E+00  0.45593999997E+02  0.45594000000E+02  0.51100000000E-03 0. -1.
         11   -1    0    0    0    0 -0.00000000000E+00 -0.00000000000E+00 -0.45593999997E+02  0.45594000000E+02  0.51100000000E-03 0.  1.
    9900012    2    1    2    0    0 -0.14305632513E+02 -0.79175736493E+01  0.91291932333E+01  0.72461514394E+02  0.69999927179E+02 0.  0.
        -12    1    1    2    0    0  0.14305632513E+02  0.79175736493E+01 -0.91291932333E+01  0.18726485606E+02  0.00000000000E+00 0.  1.
         11    1    3    3    0    0  0.12182156484E+02 -0.25894638283E+02 -0.19404212281E+01  0.28682790366E+02  0.51100000000E-03 0. -1.
        -11    1    3    3    0    0  0.16143572997E+01  0.38656494712E+01  0.11594568985E+02  0.12328155805E+02  0.51100000000E-03 0.  1.
        -12    1    3    3    0    0 -0.28102146296E+02  0.14111415162E+02 -0.52495452392E+00  0.31450568223E+02  0.00000000000E+00 0.  1.
</event>
<event>
 7    1  0.3611369E-013  0.7246157E+02  0.7816164E-02  0.1226708E+00
        -11   -1    0    0    0    0  0.00000000000E+00  0.00000000000E+00  0.45593999997E+02  0.45594000000E+02  0.51100000000E-03 0. -1.
         11   -1    0    0    0    0 -0.00000000000E+00 -0.00000000000E+00 -0.45593999997E+02  0.45594000000E+02  0.51100000000E-03 0.  1.
    9900012    2    1    2    0    0  0.13441714915E+02  0.11829988043E+02  0.54818818687E+01  0.72461565588E+02  0.69999993869E+02 0.  0.
        -12    1    1    2    0    0 -0.13441714915E+02 -0.11829988043E+02 -0.54818818687E+01  0.18726434412E+02  0.00000000000E+00 0.  1.
         11    1    3    3    0    0  0.26739659216E+01 -0.24551654618E+02 -0.29949147860E+01  0.24877768249E+02  0.51100000000E-03 0. -1.
        -11    1    3    3    0    0  0.63607272482E+01 -0.23527856026E+01  0.50373522638E+01  0.84480393766E+01  0.51100000000E-03 0.  1.
        -12    1    3    3    0    0  0.44070217456E+01  0.38734428263E+02  0.34394443909E+01  0.39135757962E+02  0.00000000000E+00 0.  1.
</event>
<event>
 7    1  0.3611369E-013  0.7246155E+02  0.7816164E-02  0.1226708E+00
        -11   -1    0    0    0    0  0.00000000000E+00  0.00000000000E+00  0.45593999997E+02  0.45594000000E+02  0.51100000000E-03 0. -1.
         11   -1    0    0    0    0 -0.00000000000E+00 -0.00000000000E+00 -0.45593999997E+02  0.45594000000E+02  0.51100000000E-03 0.  1.
    9900012    2    1    2    0    0  0.35058552665E+01  0.15061797722E+02  0.10560836664E+02  0.72461546977E+02  0.69999969625E+02 0.  0.
        -12    1    1    2    0    0 -0.35058552665E+01 -0.15061797722E+02 -0.10560836664E+02  0.18726453023E+02  0.00000000000E+00 0.  1.
         11    1    3    3    0    0 -0.26263952489E+01 -0.44174175334E+01  0.18183426042E+02  0.18895727362E+02  0.51100000000E-03 0. -1.
        -11    1    3    3    0    0  0.20010525062E+01  0.10415762865E+02  0.20854700074E+02  0.23396812660E+02  0.51100000000E-03 0.  1.
        -12    1    3    3    0    0  0.41311980092E+01  0.90634523899E+01 -0.28477289451E+02  0.30169006956E+02  0.00000000000E+00 0.  1.
</event>
<event>
 7    1  0.3611369E-013  0.7246155E+02  0.7816164E-02  0.1226708E+00
        -11   -1    0    0    0    0  0.00000000000E+00  0.00000000000E+00  0.45593999997E+02  0.45594000000E+02  0.51100000000E-03 0.  1.
         11   -1    0    0    0    0 -0.00000000000E+00 -0.00000000000E+00 -0.45593999997E+02  0.45594000000E+02  0.51100000000E-03 0. -1.
    9900012    2    1    2    0    0 -0.42845158978E+01  0.52835102847E+01 -0.17447275521E+02  0.72461548641E+02  0.69999971792E+02 0.  0.
        -12    1    1    2    0    0  0.42845158978E+01 -0.52835102847E+01  0.17447275521E+02  0.18726451359E+02  0.00000000000E+00 0.  1.
         11    1    3    3    0    0 -0.18541732252E+02 -0.11074458205E+02 -0.33816645463E+02  0.40124867228E+02  0.51100000000E-03 0. -1.
        -11    1    3    3    0    0  0.20364731158E+01  0.80672480244E+01 -0.22046418054E+01  0.86074478906E+01  0.51100000000E-03 0.  1.
        -12    1    3    3    0    0  0.12220743238E+02  0.82907204657E+01  0.18574011747E+02  0.23729233522E+02  0.00000000000E+00 0.  1.
</event>
<event>
 7    1  0.3611369E-013  0.7246123E+02  0.7816164E-02  0.1226709E+00
        -11   -1    0    0    0    0  0.00000000000E+00  0.00000000000E+00  0.45593999997E+02  0.45594000000E+02  0.51100000000E-03 0.  1.
         11   -1    0    0    0    0 -0.00000000000E+00 -0.00000000000E+00 -0.45593999997E+02  0.45594000000E+02  0.51100000000E-03 0. -1.
    9900012    2    1    2    0    0  0.24945292378E+01 -0.16238838309E+02 -0.89871781869E+01  0.72461229924E+02  0.69999556603E+02 0.  0.
        -12    1    1    2    0    0 -0.24945292378E+01  0.16238838309E+02  0.89871781869E+01  0.18726770076E+02  0.00000000000E+00 0.  1.
         11    1    3    3    0    0  0.74636558472E+00 -0.28281973468E+01  0.99603689043E+01  0.10380978316E+02  0.51100000000E-03 0. -1.
        -11    1    3    3    0    0 -0.14096526421E+02 -0.20417501959E+02  0.11268306587E+02  0.27249975725E+02  0.51100000000E-03 0.  1.
         12    1    3    3    0    0  0.15844690074E+02  0.70068609976E+01 -0.30215853678E+02  0.34830275883E+02  0.00000000000E+00 0. -1.
</event>
<event>
 7    1  0.3611369E-013  0.7246158E+02  0.7816164E-02  0.1226708E+00
        -11   -1    0    0    0    0  0.00000000000E+00  0.00000000000E+00  0.45593999997E+02  0.45594000000E+02  0.51100000000E-03 0.  1.
         11   -1    0    0    0    0 -0.00000000000E+00 -0.00000000000E+00 -0.45593999997E+02  0.45594000000E+02  0.51100000000E-03 0. -1.
    9900012    2    1    2    0    0 -0.59568182661E+01 -0.12337036188E+02 -0.12766852279E+02  0.72461583822E+02  0.70000017622E+02 0.  0.
        -12    1    1    2    0    0  0.59568182661E+01  0.12337036188E+02  0.12766852279E+02  0.18726416178E+02  0.00000000000E+00 0.  1.
         11    1    3    3    0    0  0.74187317578E+00 -0.19287617971E+02 -0.16999607590E+02  0.25720599551E+02  0.51100000000E-03 0. -1.
        -11    1    3    3    0    0 -0.25734539344E+01 -0.19519874312E+02  0.30618273143E+01  0.19925434627E+02  0.51100000000E-03 0.  1.
         12    1    3    3    0    0 -0.41252375074E+01  0.26470456095E+02  0.11709279964E+01  0.26815549644E+02  0.00000000000E+00 0. -1.
</event>
<event>
 7    1  0.3611369E-013  0.7246158E+02  0.7816164E-02  0.1226708E+00
        -11   -1    0    0    0    0  0.00000000000E+00  0.00000000000E+00  0.45593999997E+02  0.45594000000E+02  0.51100000000E-03 0. -1.
         11   -1    0    0    0    0 -0.00000000000E+00 -0.00000000000E+00 -0.45593999997E+02  0.45594000000E+02  0.51100000000E-03 0.  1.
    9900012    2    1    2    0    0  0.45600126185E+01  0.51974615799E+01  0.17403201533E+02  0.72461581614E+02  0.70000014746E+02 0.  0.
        -12    1    1    2    0    0 -0.45600126185E+01 -0.51974615799E+01 -0.17403201533E+02  0.18726418386E+02  0.00000000000E+00 0.  1.
         11    1    3    3    0    0  0.73147288105E+01  0.78159322975E+00  0.24376668552E+02  0.25462484472E+02  0.51100000000E-03 0. -1.
        -11    1    3    3    0    0  0.14930351339E+02 -0.14307271689E+02 -0.41351722071E+01  0.21088220971E+02  0.51100000000E-03 0.  1.
        -12    1    3    3    0    0 -0.17685067531E+02  0.18723140039E+02 -0.28382948116E+01  0.25910876171E+02  0.00000000000E+00 0.  1.
</event>
<event>
 7    1  0.3611369E-013  0.7246161E+02  0.7816164E-02  0.1226708E+00
        -11   -1    0    0    0    0  0.00000000000E+00  0.00000000000E+00  0.45593999997E+02  0.45594000000E+02  0.51100000000E-03 0.  1.
         11   -1    0    0    0    0 -0.00000000000E+00 -0.00000000000E+00 -0.45593999997E+02  0.45594000000E+02  0.51100000000E-03 0. -1.
    9900012    2    1    2    0    0 -0.98250669977E+01  0.12542260214E+02  0.98406053054E+01  0.72461608314E+02  0.70000049528E+02 0.  0.
        -12    1    1    2    0    0  0.98250669977E+01 -0.12542260214E+02 -0.98406053054E+01  0.18726391686E+02  0.00000000000E+00 0.  1.
         11    1    3    3    0    0 -0.17912989722E+02  0.27513640198E+02 -0.14001494460E+02  0.35691980123E+02  0.51100000000E-03 0. -1.
        -11    1    3    3    0    0 -0.50063555161E+01 -0.36688079435E+01 -0.12123475719E+01  0.63240441314E+01  0.51100000000E-03 0.  1.
        -12    1    3    3    0    0  0.13094278241E+02 -0.11302572040E+02  0.25054447337E+02  0.30445584060E+02  0.00000000000E+00 0.  1.
</event>
<event>
 7    1  0.3611369E-013  0.7246161E+02  0.7816164E-02  0.1226708E+00
        -11   -1    0    0    0    0  0.00000000000E+00  0.00000000000E+00  0.45593999997E+02  0.45594000000E+02  0.51100000000E-03 0.  1.
         11   -1    0    0    0    0 -0.00000000000E+00 -0.00000000000E+00 -0.45593999997E+02  0.45594000000E+02  0.51100000000E-03 0. -1.
    9900012    2    1    2    0    0  0.11872514241E+02  0.12360426875E+02 -0.75459304331E+01  0.72461606513E+02  0.70000047182E+02 0.  0.
        -12    1    1    2    0    0 -0.11872514241E+02 -0.12360426875E+02  0.75459304331E+01  0.18726393487E+02  0.00000000000E+00 0.  1.
         11    1    3    3    0    0  0.29365086055E+01  0.91834021676E+01 -0.26798655565E+00  0.96451944106E+01  0.51100000000E-03 0.  1.
        -11    1    3    3    0    0  0.79918172332E+01  0.58375450044E+01  0.26827270998E+02  0.28594554443E+02  0.51100000000E-03 0. -1.
         12    1    3    3    0    0  0.94418840181E+00 -0.26605202974E+01 -0.34105214875E+02  0.34221857660E+02  0.00000000000E+00 0. -1.
</event>
<event>
 7    1  0.3611369E-013  0.7246157E+02  0.7816164E-02  0.1226708E+00
        -11   -1    0    0    0    0  0.00000000000E+00  0.00000000000E+00  0.45593999997E+02  0.45594000000E+02  0.51100000000E-03 0.  1.
         11   -1    0    0    0    0 -0.00000000000E+00 -0.00000000000E+00 -0.45593999997E+02  0.45594000000E+02  0.51100000000E-03 0. -1.
    9900012    2    1    2    0    0 -0.16080186711E+02 -0.43501864638E+01 -0.85546826368E+01  0.72461571565E+02  0.70000001655E+02 0.  0.
        -12    1    1    2    0    0  0.16080186711E+02  0.43501864638E+01  0.85546826368E+01  0.18726428435E+02  0.00000000000E+00 0.  1.
         11    1    3    3    0    0 -0.55686432460E+01 -0.12999201639E+02  0.67230563778E+01  0.15658496677E+02  0.51100000000E-03 0. -1.
        -11    1    3    3    0    0 -0.23047353232E+02  0.48835490831E+01  0.12079833128E+02  0.26475496432E+02  0.51100000000E-03 0.  1.
         12    1    3    3    0    0  0.12535809767E+02  0.37654660925E+01 -0.27357572143E+02  0.30327578455E+02  0.00000000000E+00 0. -1.
</event>
<event>
 7    1  0.3611369E-013  0.7246155E+02  0.7816164E-02  0.1226708E+00
        -11   -1    0    0    0    0  0.00000000000E+00  0.00000000000E+00  0.45593999997E+02  0.45594000000E+02  0.51100000000E-03 0. -1.
         11   -1    0    0    0    0 -0.00000000000E+00 -0.00000000000E+00 -0.45593999997E+02  0.45594000000E+02  0.51100000000E-03 0.  1.
    9900012    2    1    2    0    0  0.78997583053E+01  0.13844287657E+02  0.98290089856E+01  0.72461550800E+02  0.69999974605E+02 0.  0.
        -12    1    1    2    0    0 -0.78997583053E+01 -0.13844287657E+02 -0.98290089856E+01  0.18726449200E+02  0.00000000000E+00 0.  1.
         11    1    3    3    0    0 -0.42937477802E+01 -0.80735100364E+01 -0.35919639808E+01  0.98244612986E+01  0.51100000000E-03 0.  1.
        -11    1    3    3    0    0 -0.27635825677E+01  0.27203561787E+02 -0.14180304233E+02  0.30801821227E+02  0.51100000000E-03 0. -1.
         12    1    3    3    0    0  0.14957088653E+02 -0.52857640937E+01  0.27601277199E+02  0.31835268274E+02  0.00000000000E+00 0. -1.
</event>
<event>
 7    1  0.3611369E-013  0.7246111E+02  0.7816164E-02  0.1226709E+00
        -11   -1    0    0    0    0  0.00000000000E+00  0.00000000000E+00  0.45593999997E+02  0.45594000000E+02  0.51100000000E-03 0.  1.
         11   -1    0    0    0    0 -0.00000000000E+00 -0.00000000000E+00 -0.45593999997E+02  0.45594000000E+02  0.51100000000E-03 0. -1.
    9900012    2    1    2    0    0 -0.14900399711E+02 -0.91470996969E+01 -0.67085736318E+01  0.72461112790E+02  0.69999404013E+02 0.  0.
        -12    1    1    2    0    0  0.14900399711E+02  0.91470996969E+01  0.67085736318E+01  0.18726887210E+02  0.00000000000E+00 0.  1.
         11    1    3    3    0    0  0.10528268800E+01  0.17279547690E+01 -0.19760646819E+01  0.28282687303E+01  0.51100000000E-03 0. -1.
        -11    1    3    3    0    0  0.23758876272E+02 -0.14898970204E+02  0.51483248201E+01  0.28512607099E+02  0.51100000000E-03 0.  1.
         12    1    3    3    0    0 -0.39712102863E+02  0.40239157386E+01 -0.98808337700E+01  0.41120236960E+02  0.00000000000E+00 0. -1.
</event>
<event>
 7    1  0.3611369E-013  0.7246156E+02  0.7816164E-02  0.1226708E+00
        -11   -1    0    0    0    0  0.00000000000E+00  0.00000000000E+00  0.45593999997E+02  0.45594000000E+02  0.51100000000E-03 0. -1.
         11   -1    0    0    0    0 -0.00000000000E+00 -0.00000000000E+00 -0.45593999997E+02  0.45594000000E+02  0.51100000000E-03 0.  1.
    9900012    2    1    2    0    0 -0.80851853568E+01  0.87072722937E+01  0.14473863464E+02  0.72461560493E+02  0.69999987232E+02 0.  0.
        -12    1    1    2    0    0  0.80851853568E+01 -0.87072722937E+01 -0.14473863464E+02  0.18726439507E+02  0.00000000000E+00 0.  1.
         11    1    3    3    0    0  0.19007203835E+02  0.10763068061E+02 -0.19437801604E+01  0.21929334538E+02  0.51100000000E-03 0. -1.
        -11    1    3    3    0    0 -0.12284724614E+02  0.14317422829E+02 -0.52677307783E+01  0.19587037630E+02  0.51100000000E-03 0.  1.
         12    1    3    3    0    0 -0.14807664578E+02 -0.16373218596E+02  0.21685374403E+02  0.30945188324E+02  0.00000000000E+00 0. -1.
</event>
<event>
 7    1  0.3611369E-013  0.7246147E+02  0.7816164E-02  0.1226708E+00
        -11   -1    0    0    0    0  0.00000000000E+00  0.00000000000E+00  0.45593999997E+02  0.45594000000E+02  0.51100000000E-03 0. -1.
         11   -1    0    0    0    0 -0.00000000000E+00 -0.00000000000E+00 -0.45593999997E+02  0.45594000000E+02  0.51100000000E-03 0.  1.
    9900012    2    1    2    0    0  0.10258774643E+02 -0.95759113448E+01  0.12399296105E+02  0.72461465906E+02  0.69999864015E+02 0.  0.
        -12    1    1    2    0    0 -0.10258774643E+02  0.95759113448E+01 -0.12399296105E+02  0.18726534094E+02  0.00000000000E+00 0.  1.
         11    1    3    3    0    0  0.23175575455E+02 -0.14969760673E+02  0.21302775707E+02  0.34856983309E+02  0.51100000000E-03 0. -1.
        -11    1    3    3    0    0 -0.21603786326E+01  0.59354169628E+01  0.12297478292E+02  0.13824774247E+02  0.51100000000E-03 0.  1.
        -12    1    3    3    0    0 -0.10756422179E+02 -0.54156763459E+00 -0.21200957895E+02  0.23779708351E+02  0.00000000000E+00 0.  1.
</event>
<event>
 7    1  0.3611369E-013  0.7246157E+02  0.7816164E-02  0.1226708E+00
        -11   -1    0    0    0    0  0.00000000000E+00  0.00000000000E+00  0.45593999997E+02  0.45594000000E+02  0.51100000000E-03 0. -1.
         11   -1    0    0    0    0 -0.00000000000E+00 -0.00000000000E+00 -0.45593999997E+02  0.45594000000E+02  0.51100000000E-03 0.  1.
    9900012    2    1    2    0    0  0.23010062564E+01  0.16081193744E+02 -0.93155724941E+01  0.72461566466E+02  0.69999995013E+02 0.  0.
        -12    1    1    2    0    0 -0.23010062564E+01 -0.16081193744E+02  0.93155724941E+01  0.18726433534E+02  0.00000000000E+00 0.  1.
         11    1    3    3    0    0  0.80608868902E+01 -0.52530962242E+01 -0.59603826287E+00  0.96399263103E+01  0.51100000000E-03 0. -1.
        -11    1    3    3    0    0  0.25496027043E+02  0.26727146882E+01 -0.12903340094E+01  0.25668185773E+02  0.51100000000E-03 0.  1.
         12    1    3    3    0    0 -0.31255907677E+02  0.18661575280E+02 -0.74292002218E+01  0.37153454382E+02  0.00000000000E+00 0. -1.
</event>
<event>
 7    1  0.3611369E-013  0.7246153E+02  0.7816164E-02  0.1226708E+00
        -11   -1    0    0    0    0  0.00000000000E+00  0.00000000000E+00  0.45593999997E+02  0.45594000000E+02  0.51100000000E-03 0. -1.
         11   -1    0    0    0    0 -0.00000000000E+00 -0.00000000000E+00 -0.45593999997E+02  0.45594000000E+02  0.51100000000E-03 0.  1.
    9900012    2    1    2    0    0  0.11366961047E+02 -0.12499775169E+02  0.80764183550E+01  0.72461528999E+02  0.69999946205E+02 0.  0.
        -12    1    1    2    0    0 -0.11366961047E+02  0.12499775169E+02 -0.80764183550E+01  0.18726471001E+02  0.00000000000E+00 0.  1.
         11    1    3    3    0    0  0.81440063599E+01 -0.13541627987E+01 -0.28444971942E+01  0.87321109146E+01  0.51100000000E-03 0. -1.
        -11    1    3    3    0    0  0.30372466365E+02 -0.14159541147E+02 -0.18777486386E+01  0.33563451234E+02  0.51100000000E-03 0.  1.
         12    1    3    3    0    0 -0.27149511677E+02  0.30139287763E+01  0.12798664188E+02  0.30165966850E+02  0.00000000000E+00 0. -1.
</event>
<event>
 7    1  0.3611369E-013  0.7246157E+02  0.7816164E-02  0.1226708E+00
        -11   -1    0    0    0    0  0.00000000000E+00  0.00000000000E+00  0.45593999997E+02  0.45594000000E+02  0.51100000000E-03 0. -1.
         11   -1    0    0    0    0 -0.00000000000E+00 -0.00000000000E+00 -0.45593999997E+02  0.45594000000E+02  0.51100000000E-03 0.  1.
    9900012    2    1    2    0    0 -0.16191974084E+02 -0.55355722012E+01 -0.76063454250E+01  0.72461572816E+02  0.70000003285E+02 0.  0.
        -12    1    1    2    0    0  0.16191974084E+02  0.55355722012E+01  0.76063454250E+01  0.18726427184E+02  0.00000000000E+00 0.  1.
         11    1    3    3    0    0  0.24246264649E+01 -0.22918031993E+01 -0.36947038038E+01  0.49781534586E+01  0.51100000000E-03 0. -1.
        -11    1    3    3    0    0 -0.99257014383E+01 -0.33807469726E+02 -0.55356204994E+01  0.35666618187E+02  0.51100000000E-03 0.  1.
         12    1    3    3    0    0 -0.86908991108E+01  0.30563700724E+02  0.16239788783E+01  0.31816801171E+02  0.00000000000E+00 0. -1.
</event>
<event>
 7    1  0.3611369E-013  0.7246154E+02  0.7816164E-02  0.1226708E+00
        -11   -1    0    0    0    0  0.00000000000E+00  0.00000000000E+00  0.45593999997E+02  0.45594000000E+02  0.51100000000E-03 0.  1.
         11   -1    0    0    0    0 -0.00000000000E+00 -0.00000000000E+00 -0.45593999997E+02  0.45594000000E+02  0.51100000000E-03 0. -1.
    9900012    2    1    2    0    0 -0.26687132810E+01  0.17785498317E+02 -0.52186390665E+01  0.72461543457E+02  0.69999965039E+02 0.  0.
        -12    1    1    2    0    0  0.26687132810E+01 -0.17785498317E+02  0.52186390665E+01  0.18726456543E+02  0.00000000000E+00 0.  1.
         11    1    3    3    0    0 -0.36212750805E+01  0.18484902983E+02 -0.14554949659E+01  0.18892425397E+02  0.51100000000E-03 0. -1.
        -11    1    3    3    0    0  0.38701352018E+01 -0.70404140692E+01  0.23808599145E+02  0.25127569924E+02  0.51100000000E-03 0.  1.
         12    1    3    3    0    0 -0.29175734024E+01  0.63410094025E+01 -0.27571743246E+02  0.28441548137E+02  0.00000000000E+00 0. -1.
</event>
<event>
 7    1  0.3611369E-013  0.7246153E+02  0.7816164E-02  0.1226708E+00
        -11   -1    0    0    0    0  0.00000000000E+00  0.00000000000E+00  0.45593999997E+02  0.45594000000E+02  0.51100000000E-03 0. -1.
         11   -1    0    0    0    0 -0.00000000000E+00 -0.00000000000E+00 -0.45593999997E+02  0.45594000000E+02  0.51100000000E-03 0.  1.
    9900012    2    1    2    0    0  0.10927170519E+02  0.15170629760E+02 -0.10628094150E+01  0.72461531387E+02  0.69999949316E+02 0.  0.
        -12    1    1    2    0    0 -0.10927170519E+02 -0.15170629760E+02  0.10628094150E+01  0.18726468613E+02  0.00000000000E+00 0.  1.
         11    1    3    3    0    0  0.15295181577E+02  0.32130511772E+01  0.37571465237E+01  0.16074278447E+02  0.51100000000E-03 0. -1.
        -11    1    3    3    0    0  0.22357752130E+02 -0.53397836151E+01 -0.81270724432E+01  0.24380969548E+02  0.51100000000E-03 0.  1.
         12    1    3    3    0    0 -0.26725763187E+02  0.17297362198E+02  0.33071165045E+01  0.32006283391E+02  0.00000000000E+00 0. -1.
</event>
<event>
 7    1  0.3611369E-013  0.7246157E+02  0.7816164E-02  0.1226708E+00
        -11   -1    0    0    0    0  0.00000000000E+00  0.00000000000E+00  0.45593999997E+02  0.45594000000E+02  0.51100000000E-03 0. -1.
         11   -1    0    0    0    0 -0.00000000000E+00 -0.00000000000E+00 -0.45593999997E+02  0.45594000000E+02  0.51100000000E-03 0.  1.
    9900012    2    1    2    0    0 -0.33946339262E+01 -0.13819017216E+02  0.12173354734E+02  0.72461565694E+02  0.69999994008E+02 0.  0.
        -12    1    1    2    0    0  0.33946339262E+01  0.13819017216E+02 -0.12173354734E+02  0.18726434306E+02  0.00000000000E+00 0.  1.
         11    1    3    3    0    0  0.22895933208E+02  0.12315541051E+01 -0.17776889088E+02  0.29013070656E+02  0.51100000000E-03 0.  1.
        -11    1    3    3    0    0 -0.16372364380E+02 -0.53032349789E+01  0.13269618037E+02  0.21731575639E+02  0.51100000000E-03 0. -1.
        -12    1    3    3    0    0 -0.99182027547E+01 -0.97473363425E+01  0.16680625784E+02  0.21716919400E+02  0.00000000000E+00 0.  1.
</event>
<event>
 7    1  0.3611369E-013  0.7246168E+02  0.7816164E-02  0.1226708E+00
        -11   -1    0    0    0    0  0.00000000000E+00  0.00000000000E+00  0.45593999997E+02  0.45594000000E+02  0.51100000000E-03 0.  1.
         11   -1    0    0    0    0 -0.00000000000E+00 -0.00000000000E+00 -0.45593999997E+02  0.45594000000E+02  0.51100000000E-03 0. -1.
    9900012    2    1    2    0    0 -0.77596830234E+01  0.27340303520E+00 -0.17040764221E+02  0.72461679617E+02  0.70000142413E+02 0.  0.
        -12    1    1    2    0    0  0.77596830234E+01 -0.27340303520E+00  0.17040764221E+02  0.18726320383E+02  0.00000000000E+00 0.  1.
         11    1    3    3    0    0 -0.11162321552E+02  0.31676932813E+00 -0.32212844617E+00  0.11171460613E+02  0.51100000000E-03 0. -1.
        -11    1    3    3    0    0 -0.18799453848E+02 -0.38582713191E+01  0.13597722230E+02  0.23520284281E+02  0.51100000000E-03 0.  1.
         12    1    3    3    0    0  0.22202092377E+02  0.38149050262E+01 -0.30316358005E+02  0.37769934723E+02  0.00000000000E+00 0. -1.
</event>
<event>
 7    1  0.8076958E-013  0.7246159E+02  0.7816164E-02  0.1226708E+00
        -11   -1    0    0    0    0  0.00000000000E+00  0.00000000000E+00  0.45593999997E+02  0.45594000000E+02  0.51100000000E-03 0. -1.
         11   -1    0    0    0    0 -0.00000000000E+00 -0.00000000000E+00 -0.45593999997E+02  0.45594000000E+02  0.51100000000E-03 0.  1.
    9900012    2    1    2    0    0  0.84706350816E+01 -0.13362837630E+02  0.10018045369E+02  0.72461592944E+02  0.70000029506E+02 0.  0.
        -12    1    1    2    0    0 -0.84706350816E+01  0.13362837630E+02 -0.10018045369E+02  0.18726407056E+02  0.00000000000E+00 0.  1.
         11    1    3    3    0    0  0.12272193637E+02 -0.10007973669E+02  0.22386484856E+02  0.27421177547E+02  0.51100000000E-03 0. -1.
        -11    1    3    3    0    0  0.11879895209E+02 -0.18163301351E+02 -0.52720618706E+01  0.22334548636E+02  0.51100000000E-03 0.  1.
        -12    1    3    3    0    0 -0.15681453765E+02  0.14808437390E+02 -0.70963776163E+01  0.22705866761E+02  0.00000000000E+00 0.  1.
</event>
<event>
 7    1  0.3611369E-013  0.7246155E+02  0.7816164E-02  0.1226708E+00
        -11   -1    0    0    0    0  0.00000000000E+00  0.00000000000E+00  0.45593999997E+02  0.45594000000E+02  0.51100000000E-03 0. -1.
         11   -1    0    0    0    0 -0.00000000000E+00 -0.00000000000E+00 -0.45593999997E+02  0.45594000000E+02  0.51100000000E-03 0.  1.
    9900012    2    1    2    0    0 -0.12917671031E+02  0.13122350565E+01  0.13494142078E+02  0.72461546622E+02  0.69999969162E+02 0.  0.
        -12    1    1    2    0    0  0.12917671031E+02 -0.13122350565E+01 -0.13494142078E+02  0.18726453378E+02  0.00000000000E+00 0.  1.
         11    1    3    3    0    0 -0.11426013512E+01  0.64019810069E+01 -0.10799257962E+02  0.12606144195E+02  0.51100000000E-03 0. -1.
        -11    1    3    3    0    0 -0.12494100455E+02 -0.16124131603E+02 -0.10786029817E+02  0.23074414524E+02  0.51100000000E-03 0.  1.
         12    1    3    3    0    0  0.71903077561E+00  0.11034385653E+02  0.35079429858E+02  0.36780987903E+02  0.00000000000E+00 0. -1.
</event>
<event>
 7    1  0.3611369E-013  0.7246164E+02  0.7816164E-02  0.1226708E+00
        -11   -1    0    0    0    0  0.00000000000E+00  0.00000000000E+00  0.45593999997E+02  0.45594000000E+02  0.51100000000E-03 0.  1.
         11   -1    0    0    0    0 -0.00000000000E+00 -0.00000000000E+00 -0.45593999997E+02  0.45594000000E+02  0.51100000000E-03 0. -1.
    9900012    2    1    2    0    0 -0.12307713799E+01 -0.11377076947E+02 -0.14823091981E+02  0.72461635326E+02  0.70000084716E+02 0.  0.
        -12    1    1    2    0    0  0.12307713799E+01  0.11377076947E+02  0.14823091981E+02  0.18726364674E+02  0.00000000000E+00 0.  1.
         11    1    3    3    0    0  0.33948341547E+01  0.77712090877E+01 -0.15600175485E+02  0.17756183853E+02  0.51100000000E-03 0. -1.
        -11    1    3    3    0    0 -0.23249002892E+02 -0.77935657921E+00 -0.11337898760E+02  0.25878011529E+02  0.51100000000E-03 0.  1.
         12    1    3    3    0    0  0.18623397357E+02 -0.18368929455E+02  0.12114982264E+02  0.28827439944E+02  0.00000000000E+00 0. -1.
</event>
<event>
 7    1  0.3611369E-013  0.7246156E+02  0.7816164E-02  0.1226708E+00
        -11   -1    0    0    0    0  0.00000000000E+00  0.00000000000E+00  0.45593999997E+02  0.45594000000E+02  0.51100000000E-03 0.  1.
         11   -1    0    0    0    0 -0.00000000000E+00 -0.00000000000E+00 -0.45593999997E+02  0.45594000000E+02  0.51100000000E-03 0. -1.
    9900012    2    1    2    0    0  0.64353850835E+00  0.72761696334E+01 -0.17243050384E+02  0.72461559524E+02  0.69999985970E+02 0.  0.
        -12    1    1    2    0    0 -0.64353850835E+00 -0.72761696334E+01  0.17243050384E+02  0.18726440476E+02  0.00000000000E+00 0.  1.
         11    1    3    3    0    0  0.11980076732E+02 -0.17271146036E+02  0.88267174220E+00  0.21037914193E+02  0.51100000000E-03 0. -1.
        -11    1    3    3    0    0 -0.17310742514E+02 -0.45607008423E+01 -0.32528192192E+01  0.18194576986E+02  0.51100000000E-03 0.  1.
        -12    1    3    3    0    0  0.59742042904E+01  0.29108016512E+02 -0.14872902907E+02  0.33229068345E+02  0.00000000000E+00 0.  1.
</event>
<event>
 7    1  0.3611369E-013  0.7246152E+02  0.7816164E-02  0.1226708E+00
        -11   -1    0    0    0    0  0.00000000000E+00  0.00000000000E+00  0.45593999997E+02  0.45594000000E+02  0.51100000000E-03 0.  1.
         11   -1    0    0    0    0 -0.00000000000E+00 -0.00000000000E+00 -0.45593999997E+02  0.45594000000E+02  0.51100000000E-03 0. -1.
    9900012    2    1    2    0    0  0.12359082279E+02 -0.13219867972E+02 -0.48134309082E+01  0.72461522994E+02  0.69999938382E+02 0.  0.
        -12    1    1    2    0    0 -0.12359082279E+02  0.13219867972E+02  0.48134309082E+01  0.18726477006E+02  0.00000000000E+00 0.  1.
         11    1    3    3    0    0  0.17951877493E+02  0.17379730209E+02 -0.37723945456E+01  0.25269663403E+02  0.51100000000E-03 0. -1.
        -11    1    3    3    0    0  0.10018752571E+01 -0.65970814843E+01  0.15791097834E+02  0.17143045505E+02  0.51100000000E-03 0.  1.
         12    1    3    3    0    0 -0.65946704710E+01 -0.24002516696E+02 -0.16832134196E+02  0.30048814086E+02  0.00000000000E+00 0. -1.
</event>
<event>
 7    1  0.3611369E-013  0.7246156E+02  0.7816164E-02  0.1226708E+00
        -11   -1    0    0    0    0  0.00000000000E+00  0.00000000000E+00  0.45593999997E+02  0.45594000000E+02  0.51100000000E-03 0.  1.
         11   -1    0    0    0    0 -0.00000000000E+00 -0.00000000000E+00 -0.45593999997E+02  0.45594000000E+02  0.51100000000E-03 0. -1.
    9900012    2    1    2    0    0 -0.31109544367E+01 -0.15747913180E+02 -0.96439028794E+01  0.72461556937E+02  0.69999982600E+02 0.  0.
        -12    1    1    2    0    0  0.31109544367E+01  0.15747913180E+02  0.96439028794E+01  0.18726443063E+02  0.00000000000E+00 0.  1.
         11    1    3    3    0    0 -0.36013214375E+01  0.12000810220E+02 -0.18358182268E+02  0.22226376639E+02  0.51100000000E-03 0. -1.
        -11    1    3    3    0    0  0.45577150663E+01  0.89631415847E+01 -0.44861786041E+01  0.11010743500E+02  0.51100000000E-03 0.  1.
         12    1    3    3    0    0 -0.40673480655E+01 -0.36711864985E+02  0.13200457993E+02  0.39224436799E+02  0.00000000000E+00 0. -1.
</event>
<event>
 7    1  0.3611369E-013  0.7246158E+02  0.7816164E-02  0.1226708E+00
        -11   -1    0    0    0    0  0.00000000000E+00  0.00000000000E+00  0.45593999997E+02  0.45594000000E+02  0.51100000000E-03 0. -1.
         11   -1    0    0    0    0 -0.00000000000E+00 -0.00000000000E+00 -0.45593999997E+02  0.45594000000E+02  0.51100000000E-03 0.  1.
    9900012    2    1    2    0    0 -0.17340396959E+01  0.82465040431E+01  0.16723246461E+02  0.72461582970E+02  0.70000016512E+02 0.  0.
        -12    1    1    2    0    0  0.17340396959E+01 -0.82465040431E+01 -0.16723246461E+02  0.18726417030E+02  0.00000000000E+00 0.  1.
         11    1    3    3    0    0 -0.25240456587E+01  0.45884322518E+01 -0.14563399748E+02  0.15476340960E+02  0.51100000000E-03 0. -1.
        -11    1    3    3    0    0 -0.18219592751E+02  0.78762063180E+01 -0.33181245081E+00  0.19851908869E+02  0.51100000000E-03 0.  1.
         12    1    3    3    0    0  0.19009598714E+02 -0.42181345267E+01  0.31618458660E+02  0.37133333141E+02  0.00000000000E+00 0. -1.
</event>
<event>
 7    1  0.3611369E-013  0.7246158E+02  0.7816164E-02  0.1226708E+00
        -11   -1    0    0    0    0  0.00000000000E+00  0.00000000000E+00  0.45593999997E+02  0.45594000000E+02  0.51100000000E-03 0.  1.
         11   -1    0    0    0    0 -0.00000000000E+00 -0.00000000000E+00 -0.45593999997E+02  0.45594000000E+02  0.51100000000E-03 0. -1.
    9900012    2    1    2    0    0  0.10875089983E+02 -0.87146681627E+01 -0.12508635806E+02  0.72461575006E+02  0.70000006138E+02 0.  0.
        -12    1    1    2    0    0 -0.10875089983E+02  0.87146681627E+01  0.12508635806E+02  0.18726424994E+02  0.00000000000E+00 0.  1.
         11    1    3    3    0    0 -0.90629985255E+00  0.21719495807E+02 -0.14458574872E+02  0.26107628485E+02  0.51100000000E-03 0. -1.
        -11    1    3    3    0    0 -0.11353373353E+02 -0.12021664365E+02  0.28174580294E+01  0.16773716661E+02  0.51100000000E-03 0.  1.
        -12    1    3    3    0    0  0.23134763189E+02 -0.18412499604E+02 -0.86751896289E+00  0.29580229861E+02  0.00000000000E+00 0.  1.
</event>
<event>
 7    1  0.3611369E-013  0.7246160E+02  0.7816164E-02  0.1226708E+00
        -11   -1    0    0    0    0  0.00000000000E+00  0.00000000000E+00  0.45593999997E+02  0.45594000000E+02  0.51100000000E-03 0.  1.
         11   -1    0    0    0    0 -0.00000000000E+00 -0.00000000000E+00 -0.45593999997E+02  0.45594000000E+02  0.51100000000E-03 0. -1.
    9900012    2    1    2    0    0 -0.28694432183E+00  0.18718628914E+02 -0.45664887222E+00  0.72461603292E+02  0.70000042985E+02 0.  0.
        -12    1    1    2    0    0  0.28694432183E+00 -0.18718628914E+02  0.45664887222E+00  0.18726396708E+02  0.00000000000E+00 0.  1.
         11    1    3    3    0    0 -0.58694607672E+01  0.35028346576E+02 -0.41619049909E+00  0.35519133553E+02  0.51100000000E-03 0. -1.
        -11    1    3    3    0    0  0.95843510854E+01  0.78880664727E+01  0.20994992756E+00  0.12414727449E+02  0.51100000000E-03 0.  1.
        -12    1    3    3    0    0 -0.40018346400E+01 -0.24197784135E+02 -0.25040830070E+00  0.24527742290E+02  0.00000000000E+00 0.  1.
</event>
<event>
 7    1  0.3611369E-013  0.7246155E+02  0.7816164E-02  0.1226708E+00
        -11   -1    0    0    0    0  0.00000000000E+00  0.00000000000E+00  0.45593999997E+02  0.45594000000E+02  0.51100000000E-03 0.  1.
         11   -1    0    0    0    0 -0.00000000000E+00 -0.00000000000E+00 -0.45593999997E+02  0.45594000000E+02  0.51100000000E-03 0. -1.
    9900012    2    1    2    0    0  0.16273187172E+01 -0.14489212366E+02 -0.11751367130E+02  0.72461546235E+02  0.69999968658E+02 0.  0.
        -12    1    1    2    0    0 -0.16273187172E+01  0.14489212366E+02  0.11751367130E+02  0.18726453765E+02  0.00000000000E+00 0.  1.
         11    1    3    3    0    0 -0.12471274943E+01 -0.11468563634E+02 -0.25627323650E+02  0.28104145541E+02  0.51100000000E-03 0. -1.
        -11    1    3    3    0    0  0.13271305423E+02 -0.11712364318E+02 -0.73570040732E+01  0.19168529801E+02  0.51100000000E-03 0.  1.
        -12    1    3    3    0    0 -0.10396859211E+02  0.86917155870E+01  0.21232960594E+02  0.25188870893E+02  0.00000000000E+00 0.  1.
</event>
<event>
 7    1  0.3611369E-013  0.7246157E+02  0.7816164E-02  0.1226708E+00
        -11   -1    0    0    0    0  0.00000000000E+00  0.00000000000E+00  0.45593999997E+02  0.45594000000E+02  0.51100000000E-03 0. -1.
         11   -1    0    0    0    0 -0.00000000000E+00 -0.00000000000E+00 -0.45593999997E+02  0.45594000000E+02  0.51100000000E-03 0.  1.
    9900012    2    1    2    0    0 -0.62990578927E+01 -0.48665229078E+01  0.16950453961E+02  0.72461573085E+02  0.70000003635E+02 0.  0.
        -12    1    1    2    0    0  0.62990578927E+01  0.48665229078E+01 -0.16950453961E+02  0.18726426915E+02  0.00000000000E+00 0.  1.
         11    1    3    3    0    0 -0.18351180364E+02  0.64894821783E+01  0.61785897706E+00  0.19474623223E+02  0.51100000000E-03 0. -1.
        -11    1    3    3    0    0  0.27799103345E+02 -0.40063996635E+01 -0.14493490213E+01  0.28123691043E+02  0.51100000000E-03 0.  1.
         12    1    3    3    0    0 -0.15746980873E+02 -0.73496054225E+01  0.17781944005E+02  0.24863258818E+02  0.00000000000E+00 0. -1.
</event>
<event>
 7    1  0.3611369E-013  0.7246159E+02  0.7816164E-02  0.1226708E+00
        -11   -1    0    0    0    0  0.00000000000E+00  0.00000000000E+00  0.45593999997E+02  0.45594000000E+02  0.51100000000E-03 0. -1.
         11   -1    0    0    0    0 -0.00000000000E+00 -0.00000000000E+00 -0.45593999997E+02  0.45594000000E+02  0.51100000000E-03 0.  1.
    9900012    2    1    2    0    0  0.31775400530E+00  0.33555801487E+01  0.18420575024E+02  0.72461588973E+02  0.70000024332E+02 0.  0.
        -12    1    1    2    0    0 -0.31775400530E+00 -0.33555801487E+01 -0.18420575024E+02  0.18726411027E+02  0.00000000000E+00 0.  1.
         11    1    3    3    0    0 -0.55210831465E+01 -0.34026286711E+01  0.30125696781E+02  0.30815870064E+02  0.51100000000E-03 0. -1.
        -11    1    3    3    0    0 -0.10635160441E+02 -0.70993761985E+01  0.56637725927E+01  0.13985210054E+02  0.51100000000E-03 0.  1.
        -12    1    3    3    0    0  0.16473997592E+02  0.13857585018E+02 -0.17368894349E+02  0.27660508855E+02  0.00000000000E+00 0.  1.
</event>
<event>
 7    1  0.3782187E-013  0.7246156E+02  0.7816164E-02  0.1226708E+00
        -11   -1    0    0    0    0  0.00000000000E+00  0.00000000000E+00  0.45593999997E+02  0.45594000000E+02  0.51100000000E-03 0.  1.
         11   -1    0    0    0    0 -0.00000000000E+00 -0.00000000000E+00 -0.45593999997E+02  0.45594000000E+02  0.51100000000E-03 0. -1.
    9900012    2    1    2    0    0 -0.10154420279E+02 -0.15305591974E+02  0.36477434817E+01  0.72461563356E+02  0.69999990961E+02 0.  0.
        -12    1    1    2    0    0  0.10154420279E+02  0.15305591974E+02 -0.36477434817E+01  0.18726436644E+02  0.00000000000E+00 0.  1.
         11    1    3    3    0    0  0.30512521467E+01  0.21986452610E+02 -0.51143617386E+00  0.22203058466E+02  0.51100000000E-03 0. -1.
        -11    1    3    3    0    0 -0.33441386309E+01 -0.13805537505E+01 -0.98316921675E+01  0.10476228471E+02  0.51100000000E-03 0.  1.
        -12    1    3    3    0    0 -0.98615337947E+01 -0.35911490834E+02  0.13990871823E+02  0.39782276419E+02  0.00000000000E+00 0.  1.
</event>
<event>
 7    1  0.3611369E-013  0.7246158E+02  0.7816164E-02  0.1226708E+00
        -11   -1    0    0    0    0  0.00000000000E+00  0.00000000000E+00  0.45593999997E+02  0.45594000000E+02  0.51100000000E-03 0. -1.
         11   -1    0    0    0    0 -0.00000000000E+00 -0.00000000000E+00 -0.45593999997E+02  0.45594000000E+02  0.51100000000E-03 0.  1.
    9900012    2    1    2    0    0  0.13380758813E+02 -0.77410738110E+01  0.10569291718E+02  0.72461578623E+02  0.70000010850E+02 0.  0.
        -12    1    1    2    0    0 -0.13380758813E+02  0.77410738110E+01 -0.10569291718E+02  0.18726421377E+02  0.00000000000E+00 0.  1.
         11    1    3    3    0    0  0.13156595171E+02 -0.15898053341E+02  0.21323938427E+02  0.29674137676E+02  0.51100000000E-03 0. -1.
        -11    1    3    3    0    0  0.12041470112E+01 -0.87038426324E+01 -0.21186428303E+02  0.22936250589E+02  0.51100000000E-03 0.  1.
        -12    1    3    3    0    0 -0.97998336864E+00  0.16860822163E+02  0.10431781594E+02  0.19851190358E+02  0.00000000000E+00 0.  1.
</event>
<event>
 7    1  0.3611369E-013  0.7246158E+02  0.7816164E-02  0.1226708E+00
        -11   -1    0    0    0    0  0.00000000000E+00  0.00000000000E+00  0.45593999997E+02  0.45594000000E+02  0.51100000000E-03 0.  1.
         11   -1    0    0    0    0 -0.00000000000E+00 -0.00000000000E+00 -0.45593999997E+02  0.45594000000E+02  0.51100000000E-03 0. -1.
    9900012    2    1    2    0    0  0.14144380637E+02 -0.20639657968E+01  0.12097737945E+02  0.72461582249E+02  0.70000015573E+02 0.  0.
        -12    1    1    2    0    0 -0.14144380637E+02  0.20639657968E+01 -0.12097737945E+02  0.18726417751E+02  0.00000000000E+00 0.  1.
         11    1    3    3    0    0  0.17485516549E+02  0.95158571537E+01 -0.35603838751E+01  0.20223035379E+02  0.51100000000E-03 0. -1.
        -11    1    3    3    0    0 -0.64339987432E+01  0.12896675141E+02 -0.92937844913E+01  0.17149198230E+02  0.51100000000E-03 0.  1.
        -12    1    3    3    0    0  0.30928628310E+01 -0.24476498091E+02  0.24951906312E+02  0.35089348639E+02  0.00000000000E+00 0.  1.
</event>
<event>
 7    1  0.3611369E-013  0.7246159E+02  0.7816164E-02  0.1226708E+00
        -11   -1    0    0    0    0  0.00000000000E+00  0.00000000000E+00  0.45593999997E+02  0.45594000000E+02  0.51100000000E-03 0.  1.
         11   -1    0    0    0    0 -0.00000000000E+00 -0.00000000000E+00 -0.45593999997E+02  0.45594000000E+02  0.51100000000E-03 0. -1.
    9900012    2    1    2    0    0  0.42376882880E+01  0.12433026002E+02 -0.13346927637E+02  0.72461585101E+02  0.70000019289E+02 0.  0.
        -12    1    1    2    0    0 -0.42376882880E+01 -0.12433026002E+02  0.13346927637E+02  0.18726414899E+02  0.00000000000E+00 0.  1.
         11    1    3    3    0    0  0.89401677868E+01  0.55124730005E+01 -0.15396887747E+02  0.18638082283E+02  0.51100000000E-03 0. -1.
        -11    1    3    3    0    0 -0.55858692663E+01 -0.14466286208E+02 -0.18507501980E+02  0.24145455098E+02  0.51100000000E-03 0.  1.
        -12    1    3    3    0    0  0.88338976754E+00  0.21386839210E+02  0.20557462089E+02  0.29678047720E+02  0.00000000000E+00 0.  1.
</event>
<event>
 7    1  0.3611369E-013  0.7246160E+02  0.7816164E-02  0.1226708E+00
        -11   -1    0    0    0    0  0.00000000000E+00  0.00000000000E+00  0.45593999997E+02  0.45594000000E+02  0.51100000000E-03 0. -1.
         11   -1    0    0    0    0 -0.00000000000E+00 -0.00000000000E+00 -0.45593999997E+02  0.45594000000E+02  0.51100000000E-03 0.  1.
    9900012    2    1    2    0    0  0.17057987866E+02 -0.22719952406E+01  0.73851850812E+01  0.72461604963E+02  0.70000045162E+02 0.  0.
        -12    1    1    2    0    0 -0.17057987866E+02  0.22719952406E+01 -0.73851850812E+01  0.18726395037E+02  0.00000000000E+00 0.  1.
         11    1    3    3    0    0 -0.14708603215E+02  0.17509224330E+02 -0.95507177097E+01  0.24781689898E+02  0.51100000000E-03 0. -1.
        -11    1    3    3    0    0  0.58510197810E+01  0.41028750232E+01 -0.23278344775E+01  0.75157720528E+01  0.51100000000E-03 0.  1.
         12    1    3    3    0    0  0.25915571299E+02 -0.23884094594E+02  0.19263737268E+02  0.40164143012E+02  0.00000000000E+00 0. -1.
</event>
<event>
 7    1  0.3611369E-013  0.7246196E+02  0.7816164E-02  0.1226707E+00
        -11   -1    0    0    0    0  0.00000000000E+00  0.00000000000E+00  0.45593999997E+02  0.45594000000E+02  0.51100000000E-03 0.  1.
         11   -1    0    0    0    0 -0.00000000000E+00 -0.00000000000E+00 -0.45593999997E+02  0.45594000000E+02  0.51100000000E-03 0. -1.
    9900012    2    1    2    0    0 -0.10594453206E+01 -0.18477796204E+02  0.28483370435E+01  0.72461964625E+02  0.70000513687E+02 0.  0.
        -12    1    1    2    0    0  0.10594453206E+01  0.18477796204E+02 -0.28483370435E+01  0.18726035375E+02  0.00000000000E+00 0.  1.
         11    1    3    3    0    0  0.12281409757E+02  0.21622325752E+01 -0.22740847803E+02  0.25935582399E+02  0.51100000000E-03 0. -1.
        -11    1    3    3    0    0 -0.67509907348E+01  0.73862346052E+01  0.54859878064E+01  0.11411765859E+02  0.51100000000E-03 0.  1.
        -12    1    3    3    0    0 -0.65898643426E+01 -0.28026263385E+02  0.20103197040E+02  0.35114616367E+02  0.00000000000E+00 0.  1.
</event>
<event>
 7    1  0.3611369E-013  0.7246156E+02  0.7816164E-02  0.1226708E+00
        -11   -1    0    0    0    0  0.00000000000E+00  0.00000000000E+00  0.45593999997E+02  0.45594000000E+02  0.51100000000E-03 0.  1.
         11   -1    0    0    0    0 -0.00000000000E+00 -0.00000000000E+00 -0.45593999997E+02  0.45594000000E+02  0.51100000000E-03 0. -1.
    9900012    2    1    2    0    0 -0.17460737343E+02 -0.67610387352E+01  0.30097524736E+00  0.72461559350E+02  0.69999985743E+02 0.  0.
        -12    1    1    2    0    0  0.17460737343E+02  0.67610387352E+01 -0.30097524736E+00  0.18726440650E+02  0.00000000000E+00 0.  1.
         11    1    3    3    0    0 -0.19697827017E+02 -0.73781105775E+01  0.67476016982E+01  0.22090066407E+02  0.51100000000E-03 0. -1.
        -11    1    3    3    0    0  0.13887194923E+02  0.76325998524E+01  0.17016346774E+02  0.23252243357E+02  0.51100000000E-03 0.  1.
         12    1    3    3    0    0 -0.11650105248E+02 -0.70155280100E+01 -0.23462973225E+02  0.27119249586E+02  0.00000000000E+00 0. -1.
</event>
<event>
 7    1  0.3611369E-013  0.7246157E+02  0.7816164E-02  0.1226708E+00
        -11   -1    0    0    0    0  0.00000000000E+00  0.00000000000E+00  0.45593999997E+02  0.45594000000E+02  0.51100000000E-03 0. -1.
         11   -1    0    0    0    0 -0.00000000000E+00 -0.00000000000E+00 -0.45593999997E+02  0.45594000000E+02  0.51100000000E-03 0.  1.
    9900012    2    1    2    0    0 -0.17081996310E+02  0.49019718156E+01  0.59038487899E+01  0.72461565311E+02  0.69999993509E+02 0.  0.
        -12    1    1    2    0    0  0.17081996310E+02 -0.49019718156E+01 -0.59038487899E+01  0.18726434689E+02  0.00000000000E+00 0.  1.
         11    1    3    3    0    0 -0.20683553249E+01  0.18541319406E+02  0.11056812481E+02  0.21686671519E+02  0.51100000000E-03 0. -1.
        -11    1    3    3    0    0 -0.26541369325E+02  0.64511242177E+01 -0.18355198619E+01  0.27375726890E+02  0.51100000000E-03 0.  1.
         12    1    3    3    0    0  0.11527728340E+02 -0.20090471808E+02 -0.33174438289E+01  0.23399166902E+02  0.00000000000E+00 0. -1.
</event>
<event>
 7    1  0.3611369E-013  0.7246154E+02  0.7816164E-02  0.1226708E+00
        -11   -1    0    0    0    0  0.00000000000E+00  0.00000000000E+00  0.45593999997E+02  0.45594000000E+02  0.51100000000E-03 0. -1.
         11   -1    0    0    0    0 -0.00000000000E+00 -0.00000000000E+00 -0.45593999997E+02  0.45594000000E+02  0.51100000000E-03 0.  1.
    9900012    2    1    2    0    0 -0.14127023637E+02  0.66556345009E+01  0.10334897495E+02  0.72461538143E+02  0.69999958116E+02 0.  0.
        -12    1    1    2    0    0  0.14127023637E+02 -0.66556345009E+01 -0.10334897495E+02  0.18726461857E+02  0.00000000000E+00 0.  1.
         11    1    3    3    0    0  0.25824693475E+02 -0.27750153411E+01  0.11307858571E+02  0.28328133877E+02  0.51100000000E-03 0. -1.
        -11    1    3    3    0    0 -0.58154261145E+01  0.80337414208E+01 -0.10056657376E+01  0.99685277723E+01  0.51100000000E-03 0.  1.
        -12    1    3    3    0    0 -0.34136290998E+02  0.13969084212E+01  0.32704661883E-01  0.34164876493E+02  0.00000000000E+00 0.  1.
</event>
<event>
 7    1  0.3611369E-013  0.7246156E+02  0.7816164E-02  0.1226708E+00
        -11   -1    0    0    0    0  0.00000000000E+00  0.00000000000E+00  0.45593999997E+02  0.45594000000E+02  0.51100000000E-03 0.  1.
         11   -1    0    0    0    0 -0.00000000000E+00 -0.00000000000E+00 -0.45593999997E+02  0.45594000000E+02  0.51100000000E-03 0. -1.
    9900012    2    1    2    0    0  0.80633493383E+01 -0.16643250022E+02  0.29434785855E+01  0.72461563072E+02  0.69999990592E+02 0.  0.
        -12    1    1    2    0    0 -0.80633493383E+01  0.16643250022E+02 -0.29434785855E+01  0.18726436928E+02  0.00000000000E+00 0.  1.
         11    1    3    3    0    0 -0.53171189377E+01 -0.10185413091E+02  0.16076981267E+02  0.19760660934E+02  0.51100000000E-03 0. -1.
        -11    1    3    3    0    0  0.17842480373E+01  0.16191254067E+02  0.93186263072E+01  0.18766380734E+02  0.51100000000E-03 0.  1.
         12    1    3    3    0    0  0.11596220239E+02 -0.22649090998E+02 -0.22452128988E+02  0.33934521405E+02  0.00000000000E+00 0. -1.
</event>
<event>
 7    1  0.3611369E-013  0.7246158E+02  0.7816164E-02  0.1226708E+00
        -11   -1    0    0    0    0  0.00000000000E+00  0.00000000000E+00  0.45593999997E+02  0.45594000000E+02  0.51100000000E-03 0.  1.
         11   -1    0    0    0    0 -0.00000000000E+00 -0.00000000000E+00 -0.45593999997E+02  0.45594000000E+02  0.51100000000E-03 0. -1.
    9900012    2    1    2    0    0 -0.43420672276E+01 -0.18129461795E+02  0.17742697374E+01  0.72461575731E+02  0.70000007083E+02 0.  0.
        -12    1    1    2    0    0  0.43420672276E+01  0.18129461795E+02 -0.17742697374E+01  0.18726424269E+02  0.00000000000E+00 0.  1.
         11    1    3    3    0    0 -0.74735135756E+01 -0.77851435326E+00  0.18577149832E+01  0.77401934720E+01  0.51100000000E-03 0. -1.
        -11    1    3    3    0    0  0.62635245325E+01 -0.40082363856E+02  0.59310358380E+01  0.41000058758E+02  0.51100000000E-03 0.  1.
         12    1    3    3    0    0 -0.31320781844E+01  0.22731416414E+02 -0.60144810837E+01  0.23721323501E+02  0.00000000000E+00 0. -1.
</event>
<event>
 7    1  0.3611369E-013  0.7246163E+02  0.7816164E-02  0.1226708E+00
        -11   -1    0    0    0    0  0.00000000000E+00  0.00000000000E+00  0.45593999997E+02  0.45594000000E+02  0.51100000000E-03 0.  1.
         11   -1    0    0    0    0 -0.00000000000E+00 -0.00000000000E+00 -0.45593999997E+02  0.45594000000E+02  0.51100000000E-03 0. -1.
    9900012    2    1    2    0    0  0.44056363492E+00  0.86967710918E+01 -0.16578565433E+02  0.72461634748E+02  0.70000083963E+02 0.  0.
        -12    1    1    2    0    0 -0.44056363492E+00 -0.86967710918E+01  0.16578565433E+02  0.18726365252E+02  0.00000000000E+00 0.  1.
         11    1    3    3    0    0 -0.38913784377E+01  0.19410038019E+02 -0.38574404387E+02  0.43357549240E+02  0.51100000000E-03 0. -1.
        -11    1    3    3    0    0  0.50587734024E+01  0.19833055225E+01  0.11095312288E+02  0.12354377531E+02  0.51100000000E-03 0.  1.
        -12    1    3    3    0    0 -0.72683132974E+00 -0.12696572450E+02  0.10900526666E+02  0.16749707978E+02  0.00000000000E+00 0.  1.
</event>
<event>
 7    1  0.3611369E-013  0.7246156E+02  0.7816164E-02  0.1226708E+00
        -11   -1    0    0    0    0  0.00000000000E+00  0.00000000000E+00  0.45593999997E+02  0.45594000000E+02  0.51100000000E-03 0.  1.
         11   -1    0    0    0    0 -0.00000000000E+00 -0.00000000000E+00 -0.45593999997E+02  0.45594000000E+02  0.51100000000E-03 0. -1.
    9900012    2    1    2    0    0 -0.11281185812E+02  0.93508623927E+01 -0.11660870661E+02  0.72461556520E+02  0.69999982057E+02 0.  0.
        -12    1    1    2    0    0  0.11281185812E+02 -0.93508623927E+01  0.11660870661E+02  0.18726443480E+02  0.00000000000E+00 0.  1.
         11    1    3    3    0    0 -0.15720983817E+02 -0.80832023421E+01 -0.13358358255E+02  0.22157013062E+02  0.51100000000E-03 0. -1.
        -11    1    3    3    0    0 -0.14608441135E+02  0.94730925699E+01 -0.15595062765E+02  0.23374174170E+02  0.51100000000E-03 0.  1.
        -12    1    3    3    0    0  0.19048239140E+02  0.79609721649E+01  0.17292550359E+02  0.26930369289E+02  0.00000000000E+00 0.  1.
</event>
<event>
 7    1  0.3611369E-013  0.7246160E+02  0.7816164E-02  0.1226708E+00
        -11   -1    0    0    0    0  0.00000000000E+00  0.00000000000E+00  0.45593999997E+02  0.45594000000E+02  0.51100000000E-03 0.  1.
         11   -1    0    0    0    0 -0.00000000000E+00 -0.00000000000E+00 -0.45593999997E+02  0.45594000000E+02  0.51100000000E-03 0. -1.
    9900012    2    1    2    0    0  0.71274640383E+01  0.77903535287E+01 -0.15465692594E+02  0.72461601544E+02  0.70000040709E+02 0.  0.
        -12    1    1    2    0    0 -0.71274640383E+01 -0.77903535287E+01  0.15465692594E+02  0.18726398456E+02  0.00000000000E+00 0.  1.
         11    1    3    3    0    0  0.14855221426E+02 -0.13318732700E+02 -0.28330589046E+01  0.20151736088E+02  0.51100000000E-03 0. -1.
        -11    1    3    3    0    0 -0.17151773389E+02 -0.33885110557E+01  0.77041836220E+01  0.19105490915E+02  0.51100000000E-03 0.  1.
        -12    1    3    3    0    0  0.94240160009E+01  0.24497597284E+02 -0.20336817311E+02  0.33204374541E+02  0.00000000000E+00 0.  1.
</event>
<event>
 7    1  0.3611369E-013  0.7246154E+02  0.7816164E-02  0.1226708E+00
        -11   -1    0    0    0    0  0.00000000000E+00  0.00000000000E+00  0.45593999997E+02  0.45594000000E+02  0.51100000000E-03 0.  1.
         11   -1    0    0    0    0 -0.00000000000E+00 -0.00000000000E+00 -0.45593999997E+02  0.45594000000E+02  0.51100000000E-03 0. -1.
    9900012    2    1    2    0    0  0.17936359884E+02  0.25708712191E+01 -0.47283983752E+01  0.72461544492E+02  0.69999966388E+02 0.  0.
        -12    1    1    2    0    0 -0.17936359884E+02 -0.25708712191E+01  0.47283983752E+01  0.18726455508E+02  0.00000000000E+00 0.  1.
         11    1    3    3    0    0 -0.18014974433E+02  0.59775358145E+01  0.85353701645E+01  0.20811602109E+02  0.51100000000E-03 0. -1.
        -11    1    3    3    0    0  0.47780788629E+01  0.37158308677E+01  0.10287729556E+02  0.11936281512E+02  0.51100000000E-03 0.  1.
         12    1    3    3    0    0  0.31173255454E+02 -0.71224954631E+01 -0.23551498096E+02  0.39713660871E+02  0.00000000000E+00 0. -1.
</event>
<event>
 7    1  0.3611369E-013  0.7246160E+02  0.7816164E-02  0.1226708E+00
        -11   -1    0    0    0    0  0.00000000000E+00  0.00000000000E+00  0.45593999997E+02  0.45594000000E+02  0.51100000000E-03 0.  1.
         11   -1    0    0    0    0 -0.00000000000E+00 -0.00000000000E+00 -0.45593999997E+02  0.45594000000E+02  0.51100000000E-03 0. -1.
    9900012    2    1    2    0    0 -0.80479463034E+01 -0.14833208889E+02 -0.81169289097E+01  0.72461599904E+02  0.70000038572E+02 0.  0.
        -12    1    1    2    0    0  0.80479463034E+01  0.14833208889E+02  0.81169289097E+01  0.18726400096E+02  0.00000000000E+00 0.  1.
         11    1    3    3    0    0 -0.12983589610E+02  0.59420332052E+01  0.65825659874E+01  0.15722961967E+02  0.51100000000E-03 0.  1.
        -11    1    3    3    0    0 -0.16684825403E+02 -0.26124766603E+02 -0.19137840970E+01  0.31057195602E+02  0.51100000000E-03 0. -1.
         12    1    3    3    0    0  0.21620468710E+02  0.53495245090E+01 -0.12785710800E+02  0.25681442335E+02  0.00000000000E+00 0. -1.
</event>
<event>
 7    1  0.3611369E-013  0.7246160E+02  0.7816164E-02  0.1226708E+00
        -11   -1    0    0    0    0  0.00000000000E+00  0.00000000000E+00  0.45593999997E+02  0.45594000000E+02  0.51100000000E-03 0. -1.
         11   -1    0    0    0    0 -0.00000000000E+00 -0.00000000000E+00 -0.45593999997E+02  0.45594000000E+02  0.51100000000E-03 0.  1.
    9900012    2    1    2    0    0 -0.11269178526E+02 -0.11759255257E+02  0.92414133472E+01  0.72461596461E+02  0.70000034087E+02 0.  0.
        -12    1    1    2    0    0  0.11269178526E+02  0.11759255257E+02 -0.92414133472E+01  0.18726403539E+02  0.00000000000E+00 0.  1.
         11    1    3    3    0    0 -0.12454346271E+02 -0.31886485610E+01 -0.23768429556E+01  0.13073928384E+02  0.51100000000E-03 0. -1.
        -11    1    3    3    0    0  0.89356064227E+01  0.22136239201E+02  0.13920905409E+02  0.27634213500E+02  0.51100000000E-03 0.  1.
         12    1    3    3    0    0 -0.77504386775E+01 -0.30706845897E+02 -0.23026491058E+01  0.31753454577E+02  0.00000000000E+00 0. -1.
</event>
<event>
 7    1  0.3611369E-013  0.7246157E+02  0.7816164E-02  0.1226708E+00
        -11   -1    0    0    0    0  0.00000000000E+00  0.00000000000E+00  0.45593999997E+02  0.45594000000E+02  0.51100000000E-03 0.  1.
         11   -1    0    0    0    0 -0.00000000000E+00 -0.00000000000E+00 -0.45593999997E+02  0.45594000000E+02  0.51100000000E-03 0. -1.
    9900012    2    1    2    0    0 -0.64611228299E+01  0.10477688883E+02 -0.14112091538E+02  0.72461569477E+02  0.69999998935E+02 0.  0.
        -12    1    1    2    0    0  0.64611228299E+01 -0.10477688883E+02  0.14112091538E+02  0.18726430523E+02  0.00000000000E+00 0.  1.
         11    1    3    3    0    0  0.39184792166E+01  0.11408458049E+02  0.12872584449E+02  0.17641168473E+02  0.51100000000E-03 0.  1.
        -11    1    3    3    0    0 -0.25129401041E+02  0.12232388292E+02 -0.15612209228E+02  0.32013422142E+02  0.51100000000E-03 0. -1.
         12    1    3    3    0    0  0.14749798994E+02 -0.13163157458E+02 -0.11372466759E+02  0.22806978862E+02  0.00000000000E+00 0. -1.
</event>
<event>
 7    1  0.3611369E-013  0.7246155E+02  0.7816164E-02  0.1226708E+00
        -11   -1    0    0    0    0  0.00000000000E+00  0.00000000000E+00  0.45593999997E+02  0.45594000000E+02  0.51100000000E-03 0. -1.
         11   -1    0    0    0    0 -0.00000000000E+00 -0.00000000000E+00 -0.45593999997E+02  0.45594000000E+02  0.51100000000E-03 0.  1.
    9900012    2    1    2    0    0 -0.12590143087E+02 -0.12539164263E+02 -0.59108144662E+01  0.72461546224E+02  0.69999968644E+02 0.  0.
        -12    1    1    2    0    0  0.12590143087E+02  0.12539164263E+02  0.59108144662E+01  0.18726453776E+02  0.00000000000E+00 0.  1.
         11    1    3    3    0    0 -0.76428367570E+01  0.76195613588E+01  0.63909465636E+01  0.12542522363E+02  0.51100000000E-03 0. -1.
        -11    1    3    3    0    0 -0.21014881836E+02 -0.25098157741E+02 -0.22988256510E+02  0.40000033978E+02  0.51100000000E-03 0.  1.
         12    1    3    3    0    0  0.16067575506E+02  0.49394321197E+01  0.10686495481E+02  0.19918989883E+02  0.00000000000E+00 0. -1.
</event>
<event>
 7    1  0.3611369E-013  0.7246148E+02  0.7816164E-02  0.1226708E+00
        -11   -1    0    0    0    0  0.00000000000E+00  0.00000000000E+00  0.45593999997E+02  0.45594000000E+02  0.51100000000E-03 0. -1.
         11   -1    0    0    0    0 -0.00000000000E+00 -0.00000000000E+00 -0.45593999997E+02  0.45594000000E+02  0.51100000000E-03 0.  1.
    9900012    2    1    2    0    0  0.39518967254E+01  0.11852687106E+01  0.18266369089E+02  0.72461478984E+02  0.69999881052E+02 0.  0.
        -12    1    1    2    0    0 -0.39518967254E+01 -0.11852687106E+01 -0.18266369089E+02  0.18726521016E+02  0.00000000000E+00 0.  1.
         11    1    3    3    0    0  0.87052404541E+01  0.13168219314E+01 -0.74894380694E+00  0.88360708717E+01  0.51100000000E-03 0. -1.
        -11    1    3    3    0    0  0.86336272533E+01 -0.28265962380E+02  0.88325890719E+01  0.30846698021E+02  0.51100000000E-03 0.  1.
         12    1    3    3    0    0 -0.13386970982E+02  0.28134409159E+02  0.10182723824E+02  0.32778710092E+02  0.00000000000E+00 0. -1.
</event>
<event>
 7    1  0.3611369E-013  0.7246190E+02  0.7816164E-02  0.1226707E+00
        -11   -1    0    0    0    0  0.00000000000E+00  0.00000000000E+00  0.45593999997E+02  0.45594000000E+02  0.51100000000E-03 0.  1.
         11   -1    0    0    0    0 -0.00000000000E+00 -0.00000000000E+00 -0.45593999997E+02  0.45594000000E+02  0.51100000000E-03 0. -1.
    9900012    2    1    2    0    0  0.17506861532E+02  0.23074128020E-01 -0.66465136830E+01  0.72461898504E+02  0.70000427552E+02 0.  0.
        -12    1    1    2    0    0 -0.17506861532E+02 -0.23074128020E-01  0.66465136830E+01  0.18726101496E+02  0.00000000000E+00 0.  1.
         11    1    3    3    0    0 -0.21103646766E+00 -0.20864886554E+01  0.61030401327E+01  0.64532991890E+01  0.51100000000E-03 0. -1.
        -11    1    3    3    0    0  0.92878511725E+01  0.25065618093E+02  0.13656903158E+02  0.30017668029E+02  0.51100000000E-03 0.  1.
         12    1    3    3    0    0  0.84300468271E+01 -0.22956055310E+02 -0.26406456974E+02  0.35990931285E+02  0.00000000000E+00 0. -1.
</event>
<event>
 7    1  0.3611369E-013  0.7246157E+02  0.7816164E-02  0.1226708E+00
        -11   -1    0    0    0    0  0.00000000000E+00  0.00000000000E+00  0.45593999997E+02  0.45594000000E+02  0.51100000000E-03 0. -1.
         11   -1    0    0    0    0 -0.00000000000E+00 -0.00000000000E+00 -0.45593999997E+02  0.45594000000E+02  0.51100000000E-03 0.  1.
    9900012    2    1    2    0    0  0.86256527502E+01 -0.15410274420E+02 -0.62290260915E+01  0.72461569238E+02  0.69999998623E+02 0.  0.
        -12    1    1    2    0    0 -0.86256527502E+01  0.15410274420E+02  0.62290260915E+01  0.18726430762E+02  0.00000000000E+00 0.  1.
         11    1    3    3    0    0 -0.11686207255E+02 -0.18342608269E+02 -0.90716911683E+01  0.23565107660E+02  0.51100000000E-03 0. -1.
        -11    1    3    3    0    0 -0.86038810700E+01  0.14761747867E+02  0.43058430262E+01  0.17620336376E+02  0.51100000000E-03 0.  1.
         12    1    3    3    0    0  0.28915741075E+02 -0.11829414018E+02 -0.14631779494E+01  0.31276125202E+02  0.00000000000E+00 0. -1.
</event>
<event>
 7    1  0.3611369E-013  0.7246163E+02  0.7816164E-02  0.1226708E+00
        -11   -1    0    0    0    0  0.00000000000E+00  0.00000000000E+00  0.45593999997E+02  0.45594000000E+02  0.51100000000E-03 0. -1.
         11   -1    0    0    0    0 -0.00000000000E+00 -0.00000000000E+00 -0.45593999997E+02  0.45594000000E+02  0.51100000000E-03 0.  1.
    9900012    2    1    2    0    0 -0.56669012912E+01 -0.67198289187E+01  0.16535025317E+02  0.72461630006E+02  0.70000077785E+02 0.  0.
        -12    1    1    2    0    0  0.56669012912E+01  0.67198289187E+01 -0.16535025317E+02  0.18726369994E+02  0.00000000000E+00 0.  1.
         11    1    3    3    0    0 -0.28916835129E+01 -0.14190605486E+02  0.25474051295E+02  0.29302941955E+02  0.51100000000E-03 0. -1.
        -11    1    3    3    0    0  0.64650937872E+01 -0.50798221330E+01  0.13518774863E+02  0.15822746432E+02  0.51100000000E-03 0.  1.
        -12    1    3    3    0    0 -0.92403115656E+01  0.12550598700E+02 -0.22457800842E+02  0.27335941619E+02  0.00000000000E+00 0.  1.
</event>
<event>
 7    1  0.3611369E-013  0.7246163E+02  0.7816164E-02  0.1226708E+00
        -11   -1    0    0    0    0  0.00000000000E+00  0.00000000000E+00  0.45593999997E+02  0.45594000000E+02  0.51100000000E-03 0.  1.
         11   -1    0    0    0    0 -0.00000000000E+00 -0.00000000000E+00 -0.45593999997E+02  0.45594000000E+02  0.51100000000E-03 0. -1.
    9900012    2    1    2    0    0 -0.11460321642E+02  0.12099055229E+02  0.85411323248E+01  0.72461626861E+02  0.70000073688E+02 0.  0.
        -12    1    1    2    0    0  0.11460321642E+02 -0.12099055229E+02 -0.85411323248E+01  0.18726373139E+02  0.00000000000E+00 0.  1.
         11    1    3    3    0    0 -0.83364259715E+01 -0.14246373282E+02 -0.79023246764E+01  0.18300324730E+02  0.51100000000E-03 0. -1.
        -11    1    3    3    0    0  0.12385714858E+02  0.20154445003E+01 -0.91999124849E+01  0.15559766678E+02  0.51100000000E-03 0.  1.
         12    1    3    3    0    0 -0.15509610529E+02  0.24329984010E+02  0.25643369486E+02  0.38601535453E+02  0.00000000000E+00 0. -1.
</event>
<event>
 7    1  0.3611369E-013  0.7246170E+02  0.7816164E-02  0.1226708E+00
        -11   -1    0    0    0    0  0.00000000000E+00  0.00000000000E+00  0.45593999997E+02  0.45594000000E+02  0.51100000000E-03 0.  1.
         11   -1    0    0    0    0 -0.00000000000E+00 -0.00000000000E+00 -0.45593999997E+02  0.45594000000E+02  0.51100000000E-03 0. -1.
    9900012    2    1    2    0    0 -0.30208017538E+01 -0.12559099944E+02 -0.13557958820E+02  0.72461695452E+02  0.70000163041E+02 0.  0.
        -12    1    1    2    0    0  0.30208017538E+01  0.12559099944E+02  0.13557958820E+02  0.18726304548E+02  0.00000000000E+00 0.  1.
         11    1    3    3    0    0 -0.99116540110E+01  0.22042842906E+01 -0.16027194771E+02  0.18972894533E+02  0.51100000000E-03 0. -1.
        -11    1    3    3    0    0  0.54660345477E+01 -0.31934962365E+02  0.11060340099E+02  0.34235222772E+02  0.51100000000E-03 0.  1.
         12    1    3    3    0    0  0.14248177095E+01  0.17171578130E+02 -0.85911041484E+01  0.19253578147E+02  0.00000000000E+00 0. -1.
</event>
<event>
 7    1  0.3611369E-013  0.7246146E+02  0.7816164E-02  0.1226708E+00
        -11   -1    0    0    0    0  0.00000000000E+00  0.00000000000E+00  0.45593999997E+02  0.45594000000E+02  0.51100000000E-03 0. -1.
         11   -1    0    0    0    0 -0.00000000000E+00 -0.00000000000E+00 -0.45593999997E+02  0.45594000000E+02  0.51100000000E-03 0.  1.
    9900012    2    1    2    0    0  0.26050829482E+01 -0.16166236267E+02 -0.90856816234E+01  0.72461461004E+02  0.69999857629E+02 0.  0.
        -12    1    1    2    0    0 -0.26050829482E+01  0.16166236267E+02  0.90856816234E+01  0.18726538996E+02  0.00000000000E+00 0.  1.
         11    1    3    3    0    0 -0.10025056893E+02 -0.19944400473E+02 -0.19363731965E+01  0.22406035289E+02  0.51100000000E-03 0. -1.
        -11    1    3    3    0    0  0.25821996006E+02 -0.11608479063E+02  0.70258274103E+00  0.28320061558E+02  0.51100000000E-03 0.  1.
        -12    1    3    3    0    0 -0.13191856164E+02  0.15386643269E+02 -0.78518911679E+01  0.21735364157E+02  0.00000000000E+00 0.  1.
</event>
<event>
 7    1  0.3611369E-013  0.7246161E+02  0.7816164E-02  0.1226708E+00
        -11   -1    0    0    0    0  0.00000000000E+00  0.00000000000E+00  0.45593999997E+02  0.45594000000E+02  0.51100000000E-03 0.  1.
         11   -1    0    0    0    0 -0.00000000000E+00 -0.00000000000E+00 -0.45593999997E+02  0.45594000000E+02  0.51100000000E-03 0. -1.
    9900012    2    1    2    0    0 -0.33251564869E+01 -0.17512010826E+02 -0.57402615936E+01  0.72461607075E+02  0.70000047913E+02 0.  0.
        -12    1    1    2    0    0  0.33251564869E+01  0.17512010826E+02  0.57402615936E+01  0.18726392925E+02  0.00000000000E+00 0.  1.
         11    1    3    3    0    0 -0.50530282349E+01  0.16915085769E+02  0.42001143139E+01  0.18146464709E+02  0.51100000000E-03 0. -1.
        -11    1    3    3    0    0  0.12973944544E+02 -0.10263986130E+01  0.74701758335E+01  0.15006007410E+02  0.51100000000E-03 0.  1.
        -12    1    3    3    0    0 -0.11246072796E+02 -0.33400697982E+02 -0.17410551741E+02  0.39309134956E+02  0.00000000000E+00 0.  1.
</event>
<event>
 7    1  0.3611369E-013  0.7246159E+02  0.7816164E-02  0.1226708E+00
        -11   -1    0    0    0    0  0.00000000000E+00  0.00000000000E+00  0.45593999997E+02  0.45594000000E+02  0.51100000000E-03 0.  1.
         11   -1    0    0    0    0 -0.00000000000E+00 -0.00000000000E+00 -0.45593999997E+02  0.45594000000E+02  0.51100000000E-03 0. -1.
    9900012    2    1    2    0    0  0.76355842983E+01  0.42068416007E+01 -0.16573432121E+02  0.72461593081E+02  0.70000029684E+02 0.  0.
        -12    1    1    2    0    0 -0.76355842983E+01 -0.42068416007E+01  0.16573432121E+02  0.18726406919E+02  0.00000000000E+00 0.  1.
         11    1    3    3    0    0 -0.15045864143E+02  0.29155704748E+02 -0.36233364665E+01  0.33008509729E+02  0.51100000000E-03 0. -1.
        -11    1    3    3    0    0  0.14088188024E+02 -0.99155548169E+01 -0.13863249926E+02  0.22113004497E+02  0.51100000000E-03 0.  1.
        -12    1    3    3    0    0  0.85932604179E+01 -0.15033308330E+02  0.91315427217E+00  0.17340078855E+02  0.00000000000E+00 0.  1.
</event>
<event>
 7    1  0.3611369E-013  0.7246157E+02  0.7816164E-02  0.1226708E+00
        -11   -1    0    0    0    0  0.00000000000E+00  0.00000000000E+00  0.45593999997E+02  0.45594000000E+02  0.51100000000E-03 0.  1.
         11   -1    0    0    0    0 -0.00000000000E+00 -0.00000000000E+00 -0.45593999997E+02  0.45594000000E+02  0.51100000000E-03 0. -1.
    9900012    2    1    2    0    0 -0.17644151506E+02  0.49750918946E+01  0.38225085129E+01  0.72461569666E+02  0.69999999182E+02 0.  0.
        -12    1    1    2    0    0  0.17644151506E+02 -0.49750918946E+01 -0.38225085129E+01  0.18726430334E+02  0.00000000000E+00 0.  1.
         11    1    3    3    0    0 -0.12715209335E+02  0.25105849801E+02  0.71374731061E+01  0.29033149421E+02  0.51100000000E-03 0. -1.
        -11    1    3    3    0    0 -0.20090897315E+02 -0.31650352663E+01 -0.36959297741E+01  0.20671756101E+02  0.51100000000E-03 0.  1.
        -12    1    3    3    0    0  0.15161955144E+02 -0.16965722641E+02  0.38096518091E+00  0.22756664144E+02  0.00000000000E+00 0.  1.
</event>
<event>
 7    1  0.3611369E-013  0.7246156E+02  0.7816164E-02  0.1226708E+00
        -11   -1    0    0    0    0  0.00000000000E+00  0.00000000000E+00  0.45593999997E+02  0.45594000000E+02  0.51100000000E-03 0.  1.
         11   -1    0    0    0    0 -0.00000000000E+00 -0.00000000000E+00 -0.45593999997E+02  0.45594000000E+02  0.51100000000E-03 0. -1.
    9900012    2    1    2    0    0 -0.11537176750E+02  0.14632887502E+02 -0.18579185949E+01  0.72461555983E+02  0.69999981357E+02 0.  0.
        -12    1    1    2    0    0  0.11537176750E+02 -0.14632887502E+02  0.18579185949E+01  0.18726444017E+02  0.00000000000E+00 0.  1.
         11    1    3    3    0    0 -0.19371934621E+02 -0.56210626209E+01  0.17013346800E+01  0.20242597064E+02  0.51100000000E-03 0. -1.
        -11    1    3    3    0    0  0.20680356892E+02 -0.30083416284E+01  0.90890459895E+01  0.22788989398E+02  0.51100000000E-03 0.  1.
         12    1    3    3    0    0 -0.12845599022E+02  0.23262291751E+02 -0.12648299264E+02  0.29429969521E+02  0.00000000000E+00 0. -1.
</event>
<event>
 7    1  0.3611369E-013  0.7246159E+02  0.7816164E-02  0.1226708E+00
        -11   -1    0    0    0    0  0.00000000000E+00  0.00000000000E+00  0.45593999997E+02  0.45594000000E+02  0.51100000000E-03 0. -1.
         11   -1    0    0    0    0 -0.00000000000E+00 -0.00000000000E+00 -0.45593999997E+02  0.45594000000E+02  0.51100000000E-03 0.  1.
    9900012    2    1    2    0    0 -0.82497557420E+01 -0.42724754308E+01  0.16259334007E+02  0.72461589280E+02  0.70000024732E+02 0.  0.
        -12    1    1    2    0    0  0.82497557420E+01  0.42724754308E+01 -0.16259334007E+02  0.18726410720E+02  0.00000000000E+00 0.  1.
         11    1    3    3    0    0  0.18730751012E+02 -0.75949155382E+01  0.18174680697E+02  0.27181662830E+02  0.51100000000E-03 0. -1.
        -11    1    3    3    0    0 -0.17427967474E+02 -0.15901579409E+02  0.10160726185E+01  0.23614120390E+02  0.51100000000E-03 0.  1.
         12    1    3    3    0    0 -0.95525392796E+01  0.19224019517E+02 -0.29314193085E+01  0.21665806060E+02  0.00000000000E+00 0. -1.
</event>
<event>
 7    1  0.3611369E-013  0.7246166E+02  0.7816164E-02  0.1226708E+00
        -11   -1    0    0    0    0  0.00000000000E+00  0.00000000000E+00  0.45593999997E+02  0.45594000000E+02  0.51100000000E-03 0. -1.
         11   -1    0    0    0    0 -0.00000000000E+00 -0.00000000000E+00 -0.45593999997E+02  0.45594000000E+02  0.51100000000E-03 0.  1.
    9900012    2    1    2    0    0 -0.68256057190E+01 -0.55621174118E+01  0.16527243218E+02  0.72461659943E+02  0.70000116784E+02 0.  0.
        -12    1    1    2    0    0  0.68256057190E+01  0.55621174118E+01 -0.16527243218E+02  0.18726340057E+02  0.00000000000E+00 0.  1.
         11    1    3    3    0    0 -0.11193687292E+02  0.11390792605E+02  0.11520947762E+02  0.19692156534E+02  0.51100000000E-03 0. -1.
        -11    1    3    3    0    0 -0.66274459243E+01  0.15755687278E+02  0.63546895336E+01  0.18235865771E+02  0.51100000000E-03 0.  1.
        -12    1    3    3    0    0  0.10995527497E+02 -0.32708597295E+02 -0.13483940776E+01  0.34533637638E+02  0.00000000000E+00 0.  1.
</event>
<event>
 7    1  0.3611369E-013  0.7246158E+02  0.7816164E-02  0.1226708E+00
        -11   -1    0    0    0    0  0.00000000000E+00  0.00000000000E+00  0.45593999997E+02  0.45594000000E+02  0.51100000000E-03 0.  1.
         11   -1    0    0    0    0 -0.00000000000E+00 -0.00000000000E+00 -0.45593999997E+02  0.45594000000E+02  0.51100000000E-03 0. -1.
    9900012    2    1    2    0    0  0.14053680787E+02  0.10653555277E+02 -0.62987727562E+01  0.72461582245E+02  0.70000015567E+02 0.  0.
        -12    1    1    2    0    0 -0.14053680787E+02 -0.10653555277E+02  0.62987727562E+01  0.18726417755E+02  0.00000000000E+00 0.  1.
         11    1    3    3    0    0  0.46104293046E+01  0.32745373178E+01 -0.15199259193E+02  0.16217155524E+02  0.51100000000E-03 0. -1.
        -11    1    3    3    0    0 -0.35283953558E+01 -0.70809439434E+01 -0.19951258620E+02  0.21462573510E+02  0.51100000000E-03 0.  1.
        -12    1    3    3    0    0  0.12971646838E+02  0.14459961903E+02  0.28851745056E+02  0.34781853210E+02  0.00000000000E+00 0.  1.
</event>
<event>
 7    1  0.3611369E-013  0.7246164E+02  0.7816164E-02  0.1226708E+00
        -11   -1    0    0    0    0  0.00000000000E+00  0.00000000000E+00  0.45593999997E+02  0.45594000000E+02  0.51100000000E-03 0. -1.
         11   -1    0    0    0    0 -0.00000000000E+00 -0.00000000000E+00 -0.45593999997E+02  0.45594000000E+02  0.51100000000E-03 0.  1.
    9900012    2    1    2    0    0  0.11555164493E+02  0.10735780061E+02  0.10094436731E+02  0.72461642829E+02  0.70000094490E+02 0.  0.
        -12    1    1    2    0    0 -0.11555164493E+02 -0.10735780061E+02 -0.10094436731E+02  0.18726357171E+02  0.00000000000E+00 0.  1.
         11    1    3    3    0    0 -0.88834725438E+01 -0.11861283990E+02 -0.54338511177E+01  0.15783943758E+02  0.51100000000E-03 0. -1.
        -11    1    3    3    0    0 -0.62036707209E+01  0.22254670264E+02 -0.42550181984E+01  0.23491723204E+02  0.51100000000E-03 0.  1.
         12    1    3    3    0    0  0.26642307757E+02  0.34239378671E+00  0.19783306047E+02  0.33185975868E+02  0.00000000000E+00 0. -1.
</event>
<event>
 7    1  0.3611369E-013  0.7246167E+02  0.7816164E-02  0.1226708E+00
        -11   -1    0    0    0    0  0.00000000000E+00  0.00000000000E+00  0.45593999997E+02  0.45594000000E+02  0.51100000000E-03 0.  1.
         11   -1    0    0    0    0 -0.00000000000E+00 -0.00000000000E+00 -0.45593999997E+02  0.45594000000E+02  0.51100000000E-03 0. -1.
    9900012    2    1    2    0    0 -0.13269450317E+02  0.88919006792E+01 -0.97740171855E+01  0.72461665031E+02  0.70000123413E+02 0.  0.
        -12    1    1    2    0    0  0.13269450317E+02 -0.88919006792E+01  0.97740171855E+01  0.18726334969E+02  0.00000000000E+00 0.  1.
         11    1    3    3    0    0  0.12441269085E+02 -0.37996362053E+01 -0.22555795615E+01  0.13202653187E+02  0.51100000000E-03 0. -1.
        -11    1    3    3    0    0 -0.70703747755E+01  0.35072053807E+01 -0.28593156024E+02  0.29662421693E+02  0.51100000000E-03 0.  1.
        -12    1    3    3    0    0 -0.18640344627E+02  0.91843315039E+01  0.21074718400E+02  0.29596590152E+02  0.00000000000E+00 0.  1.
</event>
<event>
 7    1  0.3611369E-013  0.7246153E+02  0.7816164E-02  0.1226708E+00
        -11   -1    0    0    0    0  0.00000000000E+00  0.00000000000E+00  0.45593999997E+02  0.45594000000E+02  0.51100000000E-03 0.  1.
         11   -1    0    0    0    0 -0.00000000000E+00 -0.00000000000E+00 -0.45593999997E+02  0.45594000000E+02  0.51100000000E-03 0. -1.
    9900012    2    1    2    0    0 -0.12564719548E+02 -0.95097783879E+01 -0.10117931755E+02  0.72461531958E+02  0.69999950060E+02 0.  0.
        -12    1    1    2    0    0  0.12564719548E+02  0.95097783879E+01  0.10117931755E+02  0.18726468042E+02  0.00000000000E+00 0.  1.
         11    1    3    3    0    0 -0.20374720022E+02 -0.23120042318E+02  0.19278154551E+02  0.36349866793E+02  0.51100000000E-03 0.  1.
        -11    1    3    3    0    0  0.43552655786E+01  0.45679696105E-01 -0.16547652123E+02  0.17111259916E+02  0.51100000000E-03 0. -1.
        -12    1    3    3    0    0  0.34547348948E+01  0.13564584234E+02 -0.12848434183E+02  0.19000405249E+02  0.00000000000E+00 0.  1.
</event>
<event>
 7    1  0.3611369E-013  0.7246157E+02  0.7816164E-02  0.1226708E+00
        -11   -1    0    0    0    0  0.00000000000E+00  0.00000000000E+00  0.45593999997E+02  0.45594000000E+02  0.51100000000E-03 0.  1.
         11   -1    0    0    0    0 -0.00000000000E+00 -0.00000000000E+00 -0.45593999997E+02  0.45594000000E+02  0.51100000000E-03 0. -1.
    9900012    2    1    2    0    0  0.95023676788E+01  0.85761165551E+01 -0.13668742256E+02  0.72461567304E+02  0.69999996104E+02 0.  0.
        -12    1    1    2    0    0 -0.95023676788E+01 -0.85761165551E+01  0.13668742256E+02  0.18726432696E+02  0.00000000000E+00 0.  1.
         11    1    3    3    0    0  0.92588001989E+01  0.15491052497E+02 -0.13732648487E+02  0.22677824484E+02  0.51100000000E-03 0.  1.
        -11    1    3    3    0    0 -0.17642334394E+02  0.16226489035E+01 -0.16305906043E+02  0.24078362163E+02  0.51100000000E-03 0. -1.
        -12    1    3    3    0    0  0.17885901874E+02 -0.85375848451E+01  0.16369812274E+02  0.25705380657E+02  0.00000000000E+00 0.  1.
</event>
<event>
 7    1  0.3611369E-013  0.7246153E+02  0.7816164E-02  0.1226708E+00
        -11   -1    0    0    0    0  0.00000000000E+00  0.00000000000E+00  0.45593999997E+02  0.45594000000E+02  0.51100000000E-03 0. -1.
         11   -1    0    0    0    0 -0.00000000000E+00 -0.00000000000E+00 -0.45593999997E+02  0.45594000000E+02  0.51100000000E-03 0.  1.
    9900012    2    1    2    0    0 -0.12892620684E+02  0.67766224317E+00  0.13564729088E+02  0.72461527576E+02  0.69999944352E+02 0.  0.
        -12    1    1    2    0    0  0.12892620684E+02 -0.67766224317E+00 -0.13564729088E+02  0.18726472424E+02  0.00000000000E+00 0.  1.
         11    1    3    3    0    0 -0.60789997576E+01  0.61855842836E+00 -0.69146163749E+01  0.92276092491E+01  0.51100000000E-03 0.  1.
        -11    1    3    3    0    0 -0.26540857619E+02  0.14957120712E+02 -0.10051488696E+01  0.30481845542E+02  0.51100000000E-03 0. -1.
         12    1    3    3    0    0  0.19727236693E+02 -0.14898016898E+02  0.21484494332E+02  0.32752072785E+02  0.00000000000E+00 0. -1.
</event>
<event>
 7    1  0.3611369E-013  0.7246161E+02  0.7816164E-02  0.1226708E+00
        -11   -1    0    0    0    0  0.00000000000E+00  0.00000000000E+00  0.45593999997E+02  0.45594000000E+02  0.51100000000E-03 0.  1.
         11   -1    0    0    0    0 -0.00000000000E+00 -0.00000000000E+00 -0.45593999997E+02  0.45594000000E+02  0.51100000000E-03 0. -1.
    9900012    2    1    2    0    0  0.20372447469E+00 -0.81283689121E+01 -0.16869082832E+02  0.72461605782E+02  0.70000046229E+02 0.  0.
        -12    1    1    2    0    0 -0.20372447469E+00  0.81283689121E+01  0.16869082832E+02  0.18726394218E+02  0.00000000000E+00 0.  1.
         11    1    3    3    0    0  0.22489981210E+02 -0.11247576076E+02  0.62263627520E+01  0.25905111770E+02  0.51100000000E-03 0. -1.
        -11    1    3    3    0    0 -0.47359230027E+01  0.96182327646E+01  0.57546798073E+01  0.12167814436E+02  0.51100000000E-03 0.  1.
        -12    1    3    3    0    0 -0.17550333733E+02 -0.64990256011E+01 -0.28850125391E+02  0.34388679576E+02  0.00000000000E+00 0.  1.
</event>
<event>
 7    1  0.3611369E-013  0.7246156E+02  0.7816164E-02  0.1226708E+00
        -11   -1    0    0    0    0  0.00000000000E+00  0.00000000000E+00  0.45593999997E+02  0.45594000000E+02  0.51100000000E-03 0.  1.
         11   -1    0    0    0    0 -0.00000000000E+00 -0.00000000000E+00 -0.45593999997E+02  0.45594000000E+02  0.51100000000E-03 0. -1.
    9900012    2    1    2    0    0 -0.35087609271E+01  0.17533277211E+02 -0.55634803978E+01  0.72461560746E+02  0.69999987561E+02 0.  0.
        -12    1    1    2    0    0  0.35087609271E+01 -0.17533277211E+02  0.55634803978E+01  0.18726439254E+02  0.00000000000E+00 0.  1.
         11    1    3    3    0    0  0.30290078087E+01 -0.18596648777E+02 -0.13502775543E+02  0.23180491402E+02  0.51100000000E-03 0. -1.
        -11    1    3    3    0    0  0.84478214688E+01  0.37638131986E+01  0.99158689545E+01  0.13559367048E+02  0.51100000000E-03 0.  1.
        -12    1    3    3    0    0 -0.14985590205E+02  0.32366112789E+02 -0.19765738097E+01  0.35721702295E+02  0.00000000000E+00 0.  1.
</event>
<event>
 7    1  0.3611369E-013  0.7246159E+02  0.7816164E-02  0.1226708E+00
        -11   -1    0    0    0    0  0.00000000000E+00  0.00000000000E+00  0.45593999997E+02  0.45594000000E+02  0.51100000000E-03 0.  1.
         11   -1    0    0    0    0 -0.00000000000E+00 -0.00000000000E+00 -0.45593999997E+02  0.45594000000E+02  0.51100000000E-03 0. -1.
    9900012    2    1    2    0    0  0.15707062593E+02  0.99223959534E+01  0.23478772958E+01  0.72461593923E+02  0.70000030781E+02 0.  0.
        -12    1    1    2    0    0 -0.15707062593E+02 -0.99223959534E+01 -0.23478772958E+01  0.18726406077E+02  0.00000000000E+00 0.  1.
         11    1    3    3    0    0  0.12075838527E+02 -0.15723333851E+02 -0.55421350913E+01  0.20585537767E+02  0.51100000000E-03 0. -1.
        -11    1    3    3    0    0 -0.18471941237E+02  0.81032426911E+01 -0.51079040447E+01  0.20807831198E+02  0.51100000000E-03 0.  1.
         12    1    3    3    0    0  0.22103165302E+02  0.17542487114E+02  0.12997916432E+02  0.31068224958E+02  0.00000000000E+00 0. -1.
</event>
<event>
 7    1  0.3611369E-013  0.7246165E+02  0.7816164E-02  0.1226708E+00
        -11   -1    0    0    0    0  0.00000000000E+00  0.00000000000E+00  0.45593999997E+02  0.45594000000E+02  0.51100000000E-03 0.  1.
         11   -1    0    0    0    0 -0.00000000000E+00 -0.00000000000E+00 -0.45593999997E+02  0.45594000000E+02  0.51100000000E-03 0. -1.
    9900012    2    1    2    0    0 -0.11438077206E+01  0.17384513711E+02 -0.68663477758E+01  0.72461645714E+02  0.70000098248E+02 0.  0.
        -12    1    1    2    0    0  0.11438077206E+01 -0.17384513711E+02  0.68663477758E+01  0.18726354286E+02  0.00000000000E+00 0.  1.
         11    1    3    3    0    0  0.73102209904E+01  0.17554079027E+02 -0.27453975178E+01  0.19212553948E+02  0.51100000000E-03 0. -1.
        -11    1    3    3    0    0 -0.22458045081E+02  0.31534714528E+01 -0.21110004792E+02  0.30982906152E+02  0.51100000000E-03 0.  1.
         12    1    3    3    0    0  0.14004016370E+02 -0.33230367685E+01  0.16989054534E+02  0.22266185614E+02  0.00000000000E+00 0. -1.
</event>
<event>
 7    1  0.3611369E-013  0.7246148E+02  0.7816164E-02  0.1226708E+00
        -11   -1    0    0    0    0  0.00000000000E+00  0.00000000000E+00  0.45593999997E+02  0.45594000000E+02  0.51100000000E-03 0. -1.
         11   -1    0    0    0    0 -0.00000000000E+00 -0.00000000000E+00 -0.45593999997E+02  0.45594000000E+02  0.51100000000E-03 0.  1.
    9900012    2    1    2    0    0 -0.11616719037E+02 -0.11751279463E+02  0.88114526480E+01  0.72461483293E+02  0.69999886664E+02 0.  0.
        -12    1    1    2    0    0  0.11616719037E+02  0.11751279463E+02 -0.88114526480E+01  0.18726516707E+02  0.00000000000E+00 0.  1.
         11    1    3    3    0    0 -0.15733500913E+02 -0.28945511370E+02 -0.31751480530E+01  0.33097843507E+02  0.51100000000E-03 0. -1.
        -11    1    3    3    0    0 -0.57339107520E+00 -0.58921827940E+01 -0.69562408026E+01  0.91343243739E+01  0.51100000000E-03 0.  1.
        -12    1    3    3    0    0  0.46901729503E+01  0.23086414700E+02  0.18942841504E+02  0.30229315412E+02  0.00000000000E+00 0.  1.
</event>
<event>
 7    1  0.4829257E-013  0.7246156E+02  0.7816164E-02  0.1226708E+00
        -11   -1    0    0    0    0  0.00000000000E+00  0.00000000000E+00  0.45593999997E+02  0.45594000000E+02  0.51100000000E-03 0. -1.
         11   -1    0    0    0    0 -0.00000000000E+00 -0.00000000000E+00 -0.45593999997E+02  0.45594000000E+02  0.51100000000E-03 0.  1.
    9900012    2    1    2    0    0  0.58454422848E+01  0.16111524344E+02  0.75451354212E+01  0.72461561986E+02  0.69999989176E+02 0.  0.
        -12    1    1    2    0    0 -0.58454422848E+01 -0.16111524344E+02 -0.75451354212E+01  0.18726438014E+02  0.00000000000E+00 0.  1.
         11    1    3    3    0    0 -0.23463590734E+02  0.18586420759E+02  0.38939770584E+01  0.30185396872E+02  0.51100000000E-03 0. -1.
        -11    1    3    3    0    0  0.33049660459E+01 -0.45101637171E+01  0.13329595386E+02  0.14454843159E+02  0.51100000000E-03 0.  1.
        -12    1    3    3    0    0  0.26004066973E+02  0.20352673021E+01 -0.96784370233E+01  0.27821321955E+02  0.00000000000E+00 0.  1.
</event>
<event>
 7    1  0.3611369E-013  0.7246154E+02  0.7816164E-02  0.1226708E+00
        -11   -1    0    0    0    0  0.00000000000E+00  0.00000000000E+00  0.45593999997E+02  0.45594000000E+02  0.51100000000E-03 0. -1.
         11   -1    0    0    0    0 -0.00000000000E+00 -0.00000000000E+00 -0.45593999997E+02  0.45594000000E+02  0.51100000000E-03 0.  1.
    9900012    2    1    2    0    0  0.33304204705E+01 -0.16612076281E+02  0.79766943575E+01  0.72461536592E+02  0.69999956097E+02 0.  0.
        -12    1    1    2    0    0 -0.33304204705E+01  0.16612076281E+02 -0.79766943575E+01  0.18726463408E+02  0.00000000000E+00 0.  1.
         11    1    3    3    0    0  0.21746623394E+02  0.19492374920E+01  0.12140738763E+01  0.21867536018E+02  0.51100000000E-03 0. -1.
        -11    1    3    3    0    0 -0.17493000233E+02  0.10896369757E+02  0.39891095080E+01  0.20991639430E+02  0.51100000000E-03 0.  1.
         12    1    3    3    0    0 -0.92320269060E+00 -0.29457683531E+02  0.27735109732E+01  0.29602361144E+02  0.00000000000E+00 0. -1.
</event>
<event>
 7    1  0.3611369E-013  0.7246161E+02  0.7816164E-02  0.1226708E+00
        -11   -1    0    0    0    0  0.00000000000E+00  0.00000000000E+00  0.45593999997E+02  0.45594000000E+02  0.51100000000E-03 0. -1.
         11   -1    0    0    0    0 -0.00000000000E+00 -0.00000000000E+00 -0.45593999997E+02  0.45594000000E+02  0.51100000000E-03 0.  1.
    9900012    2    1    2    0    0  0.31868398439E+01  0.18359886370E+02 -0.18537562211E+01  0.72461607186E+02  0.70000048058E+02 0.  0.
        -12    1    1    2    0    0 -0.31868398439E+01 -0.18359886370E+02  0.18537562211E+01  0.18726392814E+02  0.00000000000E+00 0.  1.
         11    1    3    3    0    0 -0.59798999339E+00 -0.98051160961E+01  0.18161899914E+02  0.20648305074E+02  0.51100000000E-03 0. -1.
        -11    1    3    3    0    0 -0.14441333501E+02  0.41112046755E+01  0.98340946113E+00  0.15047299146E+02  0.51100000000E-03 0.  1.
        -12    1    3    3    0    0  0.18226163338E+02  0.24053797791E+02 -0.20999065596E+02  0.36766002966E+02  0.00000000000E+00 0.  1.
</event>
<event>
 7    1  0.3611369E-013  0.7246158E+02  0.7816164E-02  0.1226708E+00
        -11   -1    0    0    0    0  0.00000000000E+00  0.00000000000E+00  0.45593999997E+02  0.45594000000E+02  0.51100000000E-03 0.  1.
         11   -1    0    0    0    0 -0.00000000000E+00 -0.00000000000E+00 -0.45593999997E+02  0.45594000000E+02  0.51100000000E-03 0. -1.
    9900012    2    1    2    0    0  0.72982643763E+01  0.60689313882E+01 -0.16142560257E+02  0.72461579019E+02  0.70000011366E+02 0.  0.
        -12    1    1    2    0    0 -0.72982643763E+01 -0.60689313882E+01  0.16142560257E+02  0.18726420981E+02  0.00000000000E+00 0.  1.
         11    1    3    3    0    0 -0.19701723405E+01 -0.19103123866E+01 -0.37459526927E+00  0.27696921025E+01  0.51100000000E-03 0. -1.
        -11    1    3    3    0    0  0.49258431033E+01 -0.15480072835E+02  0.20576627023E+02  0.26216295794E+02  0.51100000000E-03 0.  1.
         12    1    3    3    0    0  0.43425936136E+01  0.23459316610E+02 -0.36344592010E+02  0.43475591123E+02  0.00000000000E+00 0. -1.
</event>
<event>
 7    1  0.3611369E-013  0.7246155E+02  0.7816164E-02  0.1226708E+00
        -11   -1    0    0    0    0  0.00000000000E+00  0.00000000000E+00  0.45593999997E+02  0.45594000000E+02  0.51100000000E-03 0. -1.
         11   -1    0    0    0    0 -0.00000000000E+00 -0.00000000000E+00 -0.45593999997E+02  0.45594000000E+02  0.51100000000E-03 0.  1.
    9900012    2    1    2    0    0 -0.66274891632E+01  0.16283949400E+02  0.64489741941E+01  0.72461551089E+02  0.69999974981E+02 0.  0.
        -12    1    1    2    0    0  0.66274891632E+01 -0.16283949400E+02 -0.64489741941E+01  0.18726448911E+02  0.00000000000E+00 0.  1.
         11    1    3    3    0    0 -0.36022955379E+01  0.38008986990E+02 -0.86884625370E+01  0.39155446705E+02  0.51100000000E-03 0. -1.
        -11    1    3    3    0    0  0.15351599932E+01 -0.83305732965E+01  0.17039898374E+02  0.19029274934E+02  0.51100000000E-03 0.  1.
        -12    1    3    3    0    0 -0.45603536185E+01 -0.13394464293E+02 -0.19024616434E+01  0.14276829450E+02  0.00000000000E+00 0.  1.
</event>
<event>
 7    1  0.3611369E-013  0.7246162E+02  0.7816164E-02  0.1226708E+00
        -11   -1    0    0    0    0  0.00000000000E+00  0.00000000000E+00  0.45593999997E+02  0.45594000000E+02  0.51100000000E-03 0.  1.
         11   -1    0    0    0    0 -0.00000000000E+00 -0.00000000000E+00 -0.45593999997E+02  0.45594000000E+02  0.51100000000E-03 0. -1.
    9900012    2    1    2    0    0 -0.98419735495E+01  0.15394358836E+02  0.41020060082E+01  0.72461623398E+02  0.70000069178E+02 0.  0.
        -12    1    1    2    0    0  0.98419735495E+01 -0.15394358836E+02 -0.41020060082E+01  0.18726376602E+02  0.00000000000E+00 0.  1.
         11    1    3    3    0    0 -0.11227022132E+02 -0.36931832216E+01 -0.23956245725E+02  0.26713055568E+02  0.51100000000E-03 0. -1.
        -11    1    3    3    0    0  0.77012041485E+01  0.11561426674E+02 -0.20825345182E+01  0.14046781922E+02  0.51100000000E-03 0.  1.
        -12    1    3    3    0    0 -0.63161555657E+01  0.75261153840E+01  0.30140786252E+02  0.31701785908E+02  0.00000000000E+00 0.  1.
</event>
<event>
 7    1  0.3611369E-013  0.7246161E+02  0.7816164E-02  0.1226708E+00
        -11   -1    0    0    0    0  0.00000000000E+00  0.00000000000E+00  0.45593999997E+02  0.45594000000E+02  0.51100000000E-03 0.  1.
         11   -1    0    0    0    0 -0.00000000000E+00 -0.00000000000E+00 -0.45593999997E+02  0.45594000000E+02  0.51100000000E-03 0. -1.
    9900012    2    1    2    0    0 -0.70081018176E+01  0.64638786829E+01 -0.16117769825E+02  0.72461608921E+02  0.70000050319E+02 0.  0.
        -12    1    1    2    0    0  0.70081018176E+01 -0.64638786829E+01  0.16117769825E+02  0.18726391079E+02  0.00000000000E+00 0.  1.
         11    1    3    3    0    0 -0.43272622003E+01 -0.88115691423E+01 -0.23450772827E+02  0.25422582389E+02  0.51100000000E-03 0. -1.
        -11    1    3    3    0    0 -0.19502222207E+02  0.15650432202E+01  0.14314832892E+02  0.24242534362E+02  0.51100000000E-03 0.  1.
        -12    1    3    3    0    0  0.16821382590E+02  0.13710404605E+02 -0.69818298898E+01  0.22796492170E+02  0.00000000000E+00 0.  1.
</event>
<event>
 7    1  0.3611369E-013  0.7246156E+02  0.7816164E-02  0.1226708E+00
        -11   -1    0    0    0    0  0.00000000000E+00  0.00000000000E+00  0.45593999997E+02  0.45594000000E+02  0.51100000000E-03 0.  1.
         11   -1    0    0    0    0 -0.00000000000E+00 -0.00000000000E+00 -0.45593999997E+02  0.45594000000E+02  0.51100000000E-03 0. -1.
    9900012    2    1    2    0    0  0.76021611966E+00  0.16934772963E+02 -0.79570890454E+01  0.72461555331E+02  0.69999980508E+02 0.  0.
        -12    1    1    2    0    0 -0.76021611966E+00 -0.16934772963E+02  0.79570890454E+01  0.18726444669E+02  0.00000000000E+00 0.  1.
         11    1    3    3    0    0 -0.15508577016E+01 -0.30619112943E+01 -0.88725092631E+01  0.95132476721E+01  0.51100000000E-03 0. -1.
        -11    1    3    3    0    0 -0.16451264828E+01 -0.20059819933E+02 -0.81062821998E+01  0.21698263255E+02  0.51100000000E-03 0.  1.
         12    1    3    3    0    0  0.39562003041E+01  0.40056504191E+02  0.90217024175E+01  0.41250044404E+02  0.00000000000E+00 0. -1.
</event>
<event>
 7    1  0.3611369E-013  0.7246156E+02  0.7816164E-02  0.1226708E+00
        -11   -1    0    0    0    0  0.00000000000E+00  0.00000000000E+00  0.45593999997E+02  0.45594000000E+02  0.51100000000E-03 0. -1.
         11   -1    0    0    0    0 -0.00000000000E+00 -0.00000000000E+00 -0.45593999997E+02  0.45594000000E+02  0.51100000000E-03 0.  1.
    9900012    2    1    2    0    0  0.39695832585E+01 -0.18120114412E+02 -0.25658507319E+01  0.72461555395E+02  0.69999980591E+02 0.  0.
        -12    1    1    2    0    0 -0.39695832585E+01  0.18120114412E+02  0.25658507319E+01  0.18726444605E+02  0.00000000000E+00 0.  1.
         11    1    3    3    0    0  0.25054498484E+02  0.67826228001E+01 -0.10309606065E+02  0.27928835347E+02  0.51100000000E-03 0. -1.
        -11    1    3    3    0    0 -0.16469649867E+02 -0.15347915199E+01 -0.53081195499E+01  0.17371847489E+02  0.51100000000E-03 0.  1.
        -12    1    3    3    0    0 -0.46152653584E+01 -0.23367945693E+02  0.13051874883E+02  0.27160872559E+02  0.00000000000E+00 0.  1.
</event>
<event>
 7    1  0.3611369E-013  0.7246152E+02  0.7816164E-02  0.1226708E+00
        -11   -1    0    0    0    0  0.00000000000E+00  0.00000000000E+00  0.45593999997E+02  0.45594000000E+02  0.51100000000E-03 0.  1.
         11   -1    0    0    0    0 -0.00000000000E+00 -0.00000000000E+00 -0.45593999997E+02  0.45594000000E+02  0.51100000000E-03 0. -1.
    9900012    2    1    2    0    0  0.66370768880E+00 -0.92776934195E+01 -0.16253151304E+02  0.72461520609E+02  0.69999935276E+02 0.  0.
        -12    1    1    2    0    0 -0.66370768880E+00  0.92776934195E+01  0.16253151304E+02  0.18726479391E+02  0.00000000000E+00 0.  1.
         11    1    3    3    0    0 -0.18124569157E+02  0.47589872155E+01  0.84301443623E+00  0.18757895406E+02  0.51100000000E-03 0. -1.
        -11    1    3    3    0    0  0.12086900129E+02 -0.10945971463E+02  0.14154764849E+02  0.21593165914E+02  0.51100000000E-03 0.  1.
        -12    1    3    3    0    0  0.67013767167E+01 -0.30907091721E+01 -0.31250930589E+02  0.32110459289E+02  0.00000000000E+00 0.  1.
</event>
<event>
 7    1  0.3611369E-013  0.7246155E+02  0.7816164E-02  0.1226708E+00
        -11   -1    0    0    0    0  0.00000000000E+00  0.00000000000E+00  0.45593999997E+02  0.45594000000E+02  0.51100000000E-03 0.  1.
         11   -1    0    0    0    0 -0.00000000000E+00 -0.00000000000E+00 -0.45593999997E+02  0.45594000000E+02  0.51100000000E-03 0. -1.
    9900012    2    1    2    0    0 -0.96253361209E+01  0.13824982108E+02 -0.81794127501E+01  0.72461547622E+02  0.69999970465E+02 0.  0.
        -12    1    1    2    0    0  0.96253361209E+01 -0.13824982108E+02  0.81794127501E+01  0.18726452378E+02  0.00000000000E+00 0.  1.
         11    1    3    3    0    0 -0.71742045649E+01  0.13848326569E+02  0.87830047144E+01  0.17899344457E+02  0.51100000000E-03 0. -1.
        -11    1    3    3    0    0  0.22970642740E+02 -0.34043595191E+01  0.10140242608E+01  0.23243673055E+02  0.51100000000E-03 0.  1.
         12    1    3    3    0    0 -0.25421774296E+02  0.33810150577E+01 -0.17976441725E+02  0.31318530110E+02  0.00000000000E+00 0. -1.
</event>
<event>
 7    1  0.3611369E-013  0.7246154E+02  0.7816164E-02  0.1226708E+00
        -11   -1    0    0    0    0  0.00000000000E+00  0.00000000000E+00  0.45593999997E+02  0.45594000000E+02  0.51100000000E-03 0.  1.
         11   -1    0    0    0    0 -0.00000000000E+00 -0.00000000000E+00 -0.45593999997E+02  0.45594000000E+02  0.51100000000E-03 0. -1.
    9900012    2    1    2    0    0  0.62063762853E+01 -0.17623301033E+02  0.12571597634E+01  0.72461540202E+02  0.69999960799E+02 0.  0.
        -12    1    1    2    0    0 -0.62063762853E+01  0.17623301033E+02 -0.12571597634E+01  0.18726459798E+02  0.00000000000E+00 0.  1.
         11    1    3    3    0    0  0.43193731414E+01 -0.30497905310E+02 -0.25053710021E+02  0.39704755366E+02  0.51100000000E-03 0. -1.
        -11    1    3    3    0    0 -0.27659571567E+01 -0.23271884989E+01  0.48879823493E+01  0.60793664974E+01  0.51100000000E-03 0.  1.
        -12    1    3    3    0    0  0.46529603006E+01  0.15201792776E+02  0.21422887435E+02  0.26677418339E+02  0.00000000000E+00 0.  1.
</event>
<event>
 7    1  0.3611369E-013  0.7246155E+02  0.7816164E-02  0.1226708E+00
        -11   -1    0    0    0    0  0.00000000000E+00  0.00000000000E+00  0.45593999997E+02  0.45594000000E+02  0.51100000000E-03 0.  1.
         11   -1    0    0    0    0 -0.00000000000E+00 -0.00000000000E+00 -0.45593999997E+02  0.45594000000E+02  0.51100000000E-03 0. -1.
    9900012    2    1    2    0    0  0.14022893479E+02  0.65225479154E+01 -0.10559114637E+02  0.72461546125E+02  0.69999968514E+02 0.  0.
        -12    1    1    2    0    0 -0.14022893479E+02 -0.65225479154E+01  0.10559114637E+02  0.18726453875E+02  0.00000000000E+00 0.  1.
         11    1    3    3    0    0  0.28204225460E+01  0.14909205343E+02  0.17230540379E+02  0.22959327284E+02  0.51100000000E-03 0. -1.
        -11    1    3    3    0    0 -0.89126688309E+01 -0.29706306426E+01  0.50095290619E+01  0.10646863096E+02  0.51100000000E-03 0.  1.
        -12    1    3    3    0    0  0.20115139764E+02 -0.54160267852E+01 -0.32799184078E+02  0.38855355745E+02  0.00000000000E+00 0.  1.
</event>
<event>
 7    1  0.3611369E-013  0.7246151E+02  0.7816164E-02  0.1226708E+00
        -11   -1    0    0    0    0  0.00000000000E+00  0.00000000000E+00  0.45593999997E+02  0.45594000000E+02  0.51100000000E-03 0.  1.
         11   -1    0    0    0    0 -0.00000000000E+00 -0.00000000000E+00 -0.45593999997E+02  0.45594000000E+02  0.51100000000E-03 0. -1.
    9900012    2    1    2    0    0  0.18336289367E+02  0.24214643829E+01 -0.29323244165E+01  0.72461507429E+02  0.69999918107E+02 0.  0.
        -12    1    1    2    0    0 -0.18336289367E+02 -0.24214643829E+01  0.29323244165E+01  0.18726492571E+02  0.00000000000E+00 0.  1.
         11    1    3    3    0    0 -0.34475500494E+01 -0.47678937276E+01 -0.23823924829E+01  0.63477717464E+01  0.51100000000E-03 0. -1.
        -11    1    3    3    0    0 -0.20671915677E+02  0.10530563308E+01 -0.86942278492E+01  0.22450537266E+02  0.51100000000E-03 0.  1.
        -12    1    3    3    0    0  0.42455755093E+02  0.61363017797E+01  0.81442959156E+01  0.43663198417E+02  0.00000000000E+00 0.  1.
</event>
<event>
 7    1  0.3611369E-013  0.7246151E+02  0.7816164E-02  0.1226708E+00
        -11   -1    0    0    0    0  0.00000000000E+00  0.00000000000E+00  0.45593999997E+02  0.45594000000E+02  0.51100000000E-03 0.  1.
         11   -1    0    0    0    0 -0.00000000000E+00 -0.00000000000E+00 -0.45593999997E+02  0.45594000000E+02  0.51100000000E-03 0. -1.
    9900012    2    1    2    0    0 -0.15231793961E+02 -0.68766750490E+01 -0.84489777787E+01  0.72461509873E+02  0.69999921289E+02 0.  0.
        -12    1    1    2    0    0  0.15231793961E+02  0.68766750490E+01  0.84489777787E+01  0.18726490127E+02  0.00000000000E+00 0.  1.
         11    1    3    3    0    0 -0.15083368874E+02 -0.31352425484E+02  0.11843215910E+01  0.34812141821E+02  0.51100000000E-03 0. -1.
        -11    1    3    3    0    0 -0.80822307258E+00 -0.57027546675E+01 -0.38133967536E+01  0.69077225186E+01  0.51100000000E-03 0.  1.
        -12    1    3    3    0    0  0.65979798612E+00  0.30178505102E+02 -0.58199026160E+01  0.30741645533E+02  0.00000000000E+00 0.  1.
</event>
<event>
 7    1  0.3611369E-013  0.7246153E+02  0.7816164E-02  0.1226708E+00
        -11   -1    0    0    0    0  0.00000000000E+00  0.00000000000E+00  0.45593999997E+02  0.45594000000E+02  0.51100000000E-03 0.  1.
         11   -1    0    0    0    0 -0.00000000000E+00 -0.00000000000E+00 -0.45593999997E+02  0.45594000000E+02  0.51100000000E-03 0. -1.
    9900012    2    1    2    0    0  0.14761717569E+02 -0.82003544543E+01 -0.80948525099E+01  0.72461527937E+02  0.69999944822E+02 0.  0.
        -12    1    1    2    0    0 -0.14761717569E+02  0.82003544543E+01  0.80948525099E+01  0.18726472063E+02  0.00000000000E+00 0.  1.
         11    1    3    3    0    0  0.11687649710E+02 -0.21077041474E+02 -0.16705523877E+01  0.24158509445E+02  0.51100000000E-03 0. -1.
        -11    1    3    3    0    0  0.12241848564E+02  0.29103808857E+01  0.17057424013E+02  0.21196435724E+02  0.51100000000E-03 0.  1.
         12    1    3    3    0    0 -0.91677807057E+01  0.99663061341E+01 -0.23481724135E+02  0.27106582768E+02  0.00000000000E+00 0. -1.
</event>
<event>
 7    1  0.3611369E-013  0.7246151E+02  0.7816164E-02  0.1226708E+00
        -11   -1    0    0    0    0  0.00000000000E+00  0.00000000000E+00  0.45593999997E+02  0.45594000000E+02  0.51100000000E-03 0.  1.
         11   -1    0    0    0    0 -0.00000000000E+00 -0.00000000000E+00 -0.45593999997E+02  0.45594000000E+02  0.51100000000E-03 0. -1.
    9900012    2    1    2    0    0  0.17288174475E+02 -0.45666081144E+01 -0.55629569190E+01  0.72461511380E+02  0.69999923253E+02 0.  0.
        -12    1    1    2    0    0 -0.17288174475E+02  0.45666081144E+01  0.55629569190E+01  0.18726488620E+02  0.00000000000E+00 0.  1.
         11    1    3    3    0    0  0.11275777338E+02  0.56070727839E+01  0.15007573717E+02  0.19591061455E+02  0.51100000000E-03 0. -1.
        -11    1    3    3    0    0  0.46322192569E+01  0.18885101073E+02 -0.61038971509E+01  0.20380433226E+02  0.51100000000E-03 0.  1.
         12    1    3    3    0    0  0.13801778802E+01 -0.29058781972E+02 -0.14466633485E+02  0.32490016698E+02  0.00000000000E+00 0. -1.
</event>
<event>
 7    1  0.3611369E-013  0.7246162E+02  0.7816164E-02  0.1226708E+00
        -11   -1    0    0    0    0  0.00000000000E+00  0.00000000000E+00  0.45593999997E+02  0.45594000000E+02  0.51100000000E-03 0.  1.
         11   -1    0    0    0    0 -0.00000000000E+00 -0.00000000000E+00 -0.45593999997E+02  0.45594000000E+02  0.51100000000E-03 0. -1.
    9900012    2    1    2    0    0 -0.18443682163E+01  0.17097450525E+02 -0.74130056393E+01  0.72461623917E+02  0.70000069854E+02 0.  0.
        -12    1    1    2    0    0  0.18443682163E+01 -0.17097450525E+02  0.74130056393E+01  0.18726376083E+02  0.00000000000E+00 0.  1.
         11    1    3    3    0    0 -0.53978128533E+01 -0.42723271947E+01  0.78545368257E+01  0.10444276531E+02  0.51100000000E-03 0. -1.
        -11    1    3    3    0    0  0.11171552247E+02  0.29578146456E+02  0.10988609703E+02  0.33472673495E+02  0.51100000000E-03 0.  1.
         12    1    3    3    0    0 -0.76181076105E+01 -0.82083687361E+01 -0.26256152168E+02  0.28544673891E+02  0.00000000000E+00 0. -1.
</event>
<event>
 7    1  0.3611369E-013  0.7246139E+02  0.7816164E-02  0.1226708E+00
        -11   -1    0    0    0    0  0.00000000000E+00  0.00000000000E+00  0.45593999997E+02  0.45594000000E+02  0.51100000000E-03 0.  1.
         11   -1    0    0    0    0 -0.00000000000E+00 -0.00000000000E+00 -0.45593999997E+02  0.45594000000E+02  0.51100000000E-03 0. -1.
    9900012    2    1    2    0    0  0.44002673831E+01 -0.50607938502E+00 -0.18195256572E+02  0.72461392429E+02  0.69999768297E+02 0.  0.
        -12    1    1    2    0    0 -0.44002673831E+01  0.50607938502E+00  0.18195256572E+02  0.18726607571E+02  0.00000000000E+00 0.  1.
         11    1    3    3    0    0 -0.12806014483E+02 -0.16564056743E+02 -0.26802740313E+01  0.21107957075E+02  0.51100000000E-03 0. -1.
        -11    1    3    3    0    0 -0.66087339135E+01 -0.42195638977E+01  0.87627964987E+01  0.11758685563E+02  0.51100000000E-03 0.  1.
         12    1    3    3    0    0  0.23815015780E+02  0.20277541256E+02 -0.24277779039E+02  0.39594749792E+02  0.00000000000E+00 0. -1.
</event>
<event>
 7    1  0.3611369E-013  0.7246142E+02  0.7816164E-02  0.1226708E+00
        -11   -1    0    0    0    0  0.00000000000E+00  0.00000000000E+00  0.45593999997E+02  0.45594000000E+02  0.51100000000E-03 0.  1.
         11   -1    0    0    0    0 -0.00000000000E+00 -0.00000000000E+00 -0.45593999997E+02  0.45594000000E+02  0.51100000000E-03 0. -1.
    9900012    2    1    2    0    0  0.16482599041E+01 -0.16003828703E+02  0.95836157835E+01  0.72461415011E+02  0.69999797714E+02 0.  0.
        -12    1    1    2    0    0 -0.16482599041E+01  0.16003828703E+02 -0.95836157835E+01  0.18726584989E+02  0.00000000000E+00 0.  1.
         11    1    3    3    0    0  0.19875743570E+02 -0.21429428100E+02 -0.88293981047E+01  0.30532340924E+02  0.51100000000E-03 0. -1.
        -11    1    3    3    0    0 -0.22155801966E-01 -0.11529615337E+02  0.10213653665E+01  0.11574787608E+02  0.51100000000E-03 0.  1.
        -12    1    3    3    0    0 -0.18205327864E+02  0.16955214734E+02  0.17391648522E+02  0.30354286478E+02  0.00000000000E+00 0.  1.
</event>
<event>
 7    1  0.3611369E-013  0.7246159E+02  0.7816164E-02  0.1226708E+00
        -11   -1    0    0    0    0  0.00000000000E+00  0.00000000000E+00  0.45593999997E+02  0.45594000000E+02  0.51100000000E-03 0. -1.
         11   -1    0    0    0    0 -0.00000000000E+00 -0.00000000000E+00 -0.45593999997E+02  0.45594000000E+02  0.51100000000E-03 0.  1.
    9900012    2    1    2    0    0  0.73719790687E+00  0.18505861705E+02  0.27691123043E+01  0.72461591878E+02  0.70000028117E+02 0.  0.
        -12    1    1    2    0    0 -0.73719790687E+00 -0.18505861705E+02 -0.27691123043E+01  0.18726408122E+02  0.00000000000E+00 0.  1.
         11    1    3    3    0    0  0.31930690781E+01 -0.60365648411E+01 -0.71958993944E+01  0.99205228478E+01  0.51100000000E-03 0. -1.
        -11    1    3    3    0    0  0.17466821042E+02  0.18646683526E+01 -0.15209156817E+02  0.23235431494E+02  0.51100000000E-03 0.  1.
         12    1    3    3    0    0 -0.19922692213E+02  0.22677758193E+02  0.25174168516E+02  0.39305637536E+02  0.00000000000E+00 0. -1.
</event>
<event>
 7    1  0.3611369E-013  0.7246155E+02  0.7816164E-02  0.1226708E+00
        -11   -1    0    0    0    0  0.00000000000E+00  0.00000000000E+00  0.45593999997E+02  0.45594000000E+02  0.51100000000E-03 0.  1.
         11   -1    0    0    0    0 -0.00000000000E+00 -0.00000000000E+00 -0.45593999997E+02  0.45594000000E+02  0.51100000000E-03 0. -1.
    9900012    2    1    2    0    0 -0.16302373042E+02 -0.12826365571E+01  0.91250949070E+01  0.72461551314E+02  0.69999975274E+02 0.  0.
        -12    1    1    2    0    0  0.16302373042E+02  0.12826365571E+01 -0.91250949070E+01  0.18726448686E+02  0.00000000000E+00 0.  1.
         11    1    3    3    0    0 -0.84711594565E+01  0.35720659387E+00 -0.31485018011E+01  0.90444017459E+01  0.51100000000E-03 0. -1.
        -11    1    3    3    0    0 -0.15115590968E+02  0.74523349228E+01  0.34458669673E+02  0.38359070662E+02  0.51100000000E-03 0.  1.
         12    1    3    3    0    0  0.72843773828E+01 -0.90921780737E+01 -0.22185072965E+02  0.25058078906E+02  0.00000000000E+00 0. -1.
</event>
<event>
 7    1  0.3611369E-013  0.7246161E+02  0.7816164E-02  0.1226708E+00
        -11   -1    0    0    0    0  0.00000000000E+00  0.00000000000E+00  0.45593999997E+02  0.45594000000E+02  0.51100000000E-03 0.  1.
         11   -1    0    0    0    0 -0.00000000000E+00 -0.00000000000E+00 -0.45593999997E+02  0.45594000000E+02  0.51100000000E-03 0. -1.
    9900012    2    1    2    0    0  0.17637041571E+02 -0.62578813992E+01 -0.67171299058E+00  0.72461614515E+02  0.70000057606E+02 0.  0.
        -12    1    1    2    0    0 -0.17637041571E+02  0.62578813992E+01  0.67171299058E+00  0.18726385485E+02  0.00000000000E+00 0.  1.
         11    1    3    3    0    0  0.27622451766E+02 -0.48850002592E+01 -0.31837683066E+01  0.28231178686E+02  0.51100000000E-03 0. -1.
        -11    1    3    3    0    0  0.15988816158E+01  0.18142691151E+02 -0.71477469827E+01  0.19565376352E+02  0.51100000000E-03 0.  1.
        -12    1    3    3    0    0 -0.11584291810E+02 -0.19515572291E+02  0.96598022988E+01  0.24665059477E+02  0.00000000000E+00 0.  1.
</event>
<event>
 7    1  0.3611369E-013  0.7246159E+02  0.7816164E-02  0.1226708E+00
        -11   -1    0    0    0    0  0.00000000000E+00  0.00000000000E+00  0.45593999997E+02  0.45594000000E+02  0.51100000000E-03 0.  1.
         11   -1    0    0    0    0 -0.00000000000E+00 -0.00000000000E+00 -0.45593999997E+02  0.45594000000E+02  0.51100000000E-03 0. -1.
    9900012    2    1    2    0    0  0.96309549099E+01  0.18070889946E+01 -0.15957989965E+02  0.72461593328E+02  0.70000030006E+02 0.  0.
        -12    1    1    2    0    0 -0.96309549099E+01 -0.18070889946E+01  0.15957989965E+02  0.18726406672E+02  0.00000000000E+00 0.  1.
         11    1    3    3    0    0  0.13284923997E+02  0.33073229451E+01 -0.12101366306E+02  0.18272127884E+02  0.51100000000E-03 0. -1.
        -11    1    3    3    0    0  0.17530737060E+02 -0.19519718944E+02 -0.21995080661E+01  0.26328387826E+02  0.51100000000E-03 0.  1.
         12    1    3    3    0    0 -0.21184706147E+02  0.18019484993E+02 -0.16571155926E+01  0.27861077618E+02  0.00000000000E+00 0. -1.
</event>
<event>
 7    1  0.3611369E-013  0.7246161E+02  0.7816164E-02  0.1226708E+00
        -11   -1    0    0    0    0  0.00000000000E+00  0.00000000000E+00  0.45593999997E+02  0.45594000000E+02  0.51100000000E-03 0. -1.
         11   -1    0    0    0    0 -0.00000000000E+00 -0.00000000000E+00 -0.45593999997E+02  0.45594000000E+02  0.51100000000E-03 0.  1.
    9900012    2    1    2    0    0 -0.67058374278E+01 -0.17403418424E+02 -0.16823709475E+01  0.72461612189E+02  0.70000054575E+02 0.  0.
        -12    1    1    2    0    0  0.67058374278E+01  0.17403418424E+02  0.16823709475E+01  0.18726387811E+02  0.00000000000E+00 0.  1.
         11    1    3    3    0    0 -0.31058971500E+01 -0.52819524274E+01  0.28621426180E+02  0.29269978739E+02  0.51100000000E-03 0. -1.
        -11    1    3    3    0    0  0.89613820589E+01 -0.15372906145E+02 -0.17066189324E+02  0.24655373249E+02  0.51100000000E-03 0.  1.
        -12    1    3    3    0    0 -0.12561322337E+02  0.32514401485E+01 -0.13237607803E+02  0.18536260201E+02  0.00000000000E+00 0.  1.
</event>
<event>
 7    1  0.3611369E-013  0.7246160E+02  0.7816164E-02  0.1226708E+00
        -11   -1    0    0    0    0  0.00000000000E+00  0.00000000000E+00  0.45593999997E+02  0.45594000000E+02  0.51100000000E-03 0.  1.
         11   -1    0    0    0    0 -0.00000000000E+00 -0.00000000000E+00 -0.45593999997E+02  0.45594000000E+02  0.51100000000E-03 0. -1.
    9900012    2    1    2    0    0 -0.16858601975E+02 -0.19321526804E+01 -0.79203701422E+01  0.72461603184E+02  0.70000042845E+02 0.  0.
        -12    1    1    2    0    0  0.16858601975E+02  0.19321526804E+01  0.79203701422E+01  0.18726396816E+02  0.00000000000E+00 0.  1.
         11    1    3    3    0    0  0.14647574637E+00 -0.99698544271E+01 -0.70748252976E+01  0.12225898973E+02  0.51100000000E-03 0. -1.
        -11    1    3    3    0    0 -0.28176395969E+02 -0.82849693119E+01 -0.17664461830E+02  0.34272193077E+02  0.51100000000E-03 0.  1.
        -12    1    3    3    0    0  0.11171318247E+02  0.16322671059E+02  0.16818916985E+02  0.25963511134E+02  0.00000000000E+00 0.  1.
</event>
<event>
 7    1  0.3611369E-013  0.7246184E+02  0.7816164E-02  0.1226707E+00
        -11   -1    0    0    0    0  0.00000000000E+00  0.00000000000E+00  0.45593999997E+02  0.45594000000E+02  0.51100000000E-03 0. -1.
         11   -1    0    0    0    0 -0.00000000000E+00 -0.00000000000E+00 -0.45593999997E+02  0.45594000000E+02  0.51100000000E-03 0.  1.
    9900012    2    1    2    0    0 -0.35739903928E+01 -0.14666727449E+02  0.11080737116E+02  0.72461840853E+02  0.70000352452E+02 0.  0.
        -12    1    1    2    0    0  0.35739903928E+01  0.14666727449E+02 -0.11080737116E+02  0.18726159147E+02  0.00000000000E+00 0.  1.
         11    1    3    3    0    0 -0.97360868499E+01 -0.36417493105E+02  0.20892465122E+02  0.43098959272E+02  0.51100000000E-03 0. -1.
        -11    1    3    3    0    0 -0.63474364069E+00 -0.20511563356E+01  0.97897529257E+00  0.23597742873E+01  0.51100000000E-03 0.  1.
        -12    1    3    3    0    0  0.67968400978E+01  0.23801921992E+02 -0.10790703299E+02  0.27003107293E+02  0.00000000000E+00 0.  1.
</event>
<event>
 7    1  0.3611369E-013  0.7246143E+02  0.7816164E-02  0.1226708E+00
        -11   -1    0    0    0    0  0.00000000000E+00  0.00000000000E+00  0.45593999997E+02  0.45594000000E+02  0.51100000000E-03 0.  1.
         11   -1    0    0    0    0 -0.00000000000E+00 -0.00000000000E+00 -0.45593999997E+02  0.45594000000E+02  0.51100000000E-03 0. -1.
    9900012    2    1    2    0    0 -0.47934853425E+01  0.16898058776E+02 -0.64932632269E+01  0.72461431722E+02  0.69999819483E+02 0.  0.
        -12    1    1    2    0    0  0.47934853425E+01 -0.16898058776E+02  0.64932632269E+01  0.18726568278E+02  0.00000000000E+00 0.  1.
         11    1    3    3    0    0 -0.19756863997E+01 -0.96944076280E+01  0.22752257043E+01  0.10151922393E+02  0.51100000000E-03 0. -1.
        -11    1    3    3    0    0 -0.26957056970E+02  0.16957651679E+02 -0.15560965509E+02  0.35445571216E+02  0.51100000000E-03 0.  1.
         12    1    3    3    0    0  0.24139258027E+02  0.96348147252E+01  0.67924765779E+01  0.26863938113E+02  0.00000000000E+00 0. -1.
</event>
<event>
 7    1  0.3611369E-013  0.7246158E+02  0.7816164E-02  0.1226708E+00
        -11   -1    0    0    0    0  0.00000000000E+00  0.00000000000E+00  0.45593999997E+02  0.45594000000E+02  0.51100000000E-03 0. -1.
         11   -1    0    0    0    0 -0.00000000000E+00 -0.00000000000E+00 -0.45593999997E+02  0.45594000000E+02  0.51100000000E-03 0.  1.
    9900012    2    1    2    0    0 -0.16934440951E+02  0.34352625231E+01  0.72182127672E+01  0.72461577104E+02  0.70000008871E+02 0.  0.
        -12    1    1    2    0    0  0.16934440951E+02 -0.34352625231E+01 -0.72182127672E+01  0.18726422896E+02  0.00000000000E+00 0.  1.
         11    1    3    3    0    0  0.55900130182E+01 -0.19663684037E+01  0.46971159494E+01  0.75615969706E+01  0.51100000000E-03 0. -1.
        -11    1    3    3    0    0  0.18376643230E+02 -0.79178492955E+01  0.79747550407E+01  0.21540428782E+02  0.51100000000E-03 0.  1.
         12    1    3    3    0    0 -0.40901097199E+02  0.13319480222E+02 -0.54536582228E+01  0.43359551352E+02  0.00000000000E+00 0. -1.
</event>
<event>
 7    1  0.3611369E-013  0.7246163E+02  0.7816164E-02  0.1226708E+00
        -11   -1    0    0    0    0  0.00000000000E+00  0.00000000000E+00  0.45593999997E+02  0.45594000000E+02  0.51100000000E-03 0.  1.
         11   -1    0    0    0    0 -0.00000000000E+00 -0.00000000000E+00 -0.45593999997E+02  0.45594000000E+02  0.51100000000E-03 0. -1.
    9900012    2    1    2    0    0  0.18599074670E+02 -0.14227785445E+01 -0.16513404961E+01  0.72461633486E+02  0.70000082319E+02 0.  0.
        -12    1    1    2    0    0 -0.18599074670E+02  0.14227785445E+01  0.16513404961E+01  0.18726366514E+02  0.00000000000E+00 0.  1.
         11    1    3    3    0    0  0.22970484826E+01  0.14963896980E+02  0.46038940641E+01  0.15823731714E+02  0.51100000000E-03 0. -1.
        -11    1    3    3    0    0 -0.40210623031E+01  0.44701131134E+00 -0.24322201311E+02  0.24656403591E+02  0.51100000000E-03 0.  1.
        -12    1    3    3    0    0  0.20323088491E+02 -0.16833686836E+02  0.18066966751E+02  0.31981498181E+02  0.00000000000E+00 0.  1.
</event>
<event>
 7    1  0.3611369E-013  0.7246158E+02  0.7816164E-02  0.1226708E+00
        -11   -1    0    0    0    0  0.00000000000E+00  0.00000000000E+00  0.45593999997E+02  0.45594000000E+02  0.51100000000E-03 0.  1.
         11   -1    0    0    0    0 -0.00000000000E+00 -0.00000000000E+00 -0.45593999997E+02  0.45594000000E+02  0.51100000000E-03 0. -1.
    9900012    2    1    2    0    0 -0.98875866381E+01 -0.83702001874E+01 -0.13522362649E+02  0.72461577162E+02  0.70000008946E+02 0.  0.
        -12    1    1    2    0    0  0.98875866381E+01  0.83702001874E+01  0.13522362649E+02  0.18726422838E+02  0.00000000000E+00 0.  1.
         11    1    3    3    0    0 -0.21309529722E+01  0.81228186888E+01 -0.93186525269E+01  0.12544258814E+02  0.51100000000E-03 0. -1.
        -11    1    3    3    0    0 -0.30614386645E+02 -0.51214593442E+01  0.73443310752E+01  0.31896852739E+02  0.51100000000E-03 0.  1.
        -12    1    3    3    0    0  0.22857752979E+02 -0.11371559532E+02 -0.11548041197E+02  0.28020465609E+02  0.00000000000E+00 0.  1.
</event>
<event>
 7    1  0.3611369E-013  0.7246161E+02  0.7816164E-02  0.1226708E+00
        -11   -1    0    0    0    0  0.00000000000E+00  0.00000000000E+00  0.45593999997E+02  0.45594000000E+02  0.51100000000E-03 0. -1.
         11   -1    0    0    0    0 -0.00000000000E+00 -0.00000000000E+00 -0.45593999997E+02  0.45594000000E+02  0.51100000000E-03 0.  1.
    9900012    2    1    2    0    0 -0.88732310598E+01 -0.20389648338E+00  0.16489452120E+02  0.72461605942E+02  0.70000046437E+02 0.  0.
        -12    1    1    2    0    0  0.88732310598E+01  0.20389648338E+00 -0.16489452120E+02  0.18726394058E+02  0.00000000000E+00 0.  1.
         11    1    3    3    0    0  0.11715385340E+01  0.40487226064E+01 -0.34545700471E+01  0.54496524432E+01  0.51100000000E-03 0. -1.
        -11    1    3    3    0    0  0.21479151321E+02  0.47215440763E+01 -0.85362317173E+01  0.23590552603E+02  0.51100000000E-03 0.  1.
         12    1    3    3    0    0 -0.31523920915E+02 -0.89741631660E+01  0.28480253884E+02  0.43421400895E+02  0.00000000000E+00 0. -1.
</event>
<event>
 7    1  0.3611369E-013  0.7246182E+02  0.7816164E-02  0.1226707E+00
        -11   -1    0    0    0    0  0.00000000000E+00  0.00000000000E+00  0.45593999997E+02  0.45594000000E+02  0.51100000000E-03 0.  1.
         11   -1    0    0    0    0 -0.00000000000E+00 -0.00000000000E+00 -0.45593999997E+02  0.45594000000E+02  0.51100000000E-03 0. -1.
    9900012    2    1    2    0    0  0.29398189555E+01 -0.18256272760E+02 -0.29556509587E+01  0.72461817710E+02  0.70000322304E+02 0.  0.
        -12    1    1    2    0    0 -0.29398189555E+01  0.18256272760E+02  0.29556509587E+01  0.18726182290E+02  0.00000000000E+00 0.  1.
         11    1    3    3    0    0  0.44098346254E+01 -0.26399174779E+02  0.63680884715E+01  0.27512099547E+02  0.51100000000E-03 0. -1.
        -11    1    3    3    0    0  0.44930110002E+01 -0.16165274028E+02  0.30116163284E+01  0.17046203841E+02  0.51100000000E-03 0.  1.
        -12    1    3    3    0    0 -0.59630266701E+01  0.24308176047E+02 -0.12335355759E+02  0.27903514321E+02  0.00000000000E+00 0.  1.
</event>
<event>
 7    1  0.3611369E-013  0.7246157E+02  0.7816164E-02  0.1226708E+00
        -11   -1    0    0    0    0  0.00000000000E+00  0.00000000000E+00  0.45593999997E+02  0.45594000000E+02  0.51100000000E-03 0. -1.
         11   -1    0    0    0    0 -0.00000000000E+00 -0.00000000000E+00 -0.45593999997E+02  0.45594000000E+02  0.51100000000E-03 0.  1.
    9900012    2    1    2    0    0 -0.56438580436E+00  0.19202468619E+01  0.18619166955E+02  0.72461567947E+02  0.69999996942E+02 0.  0.
        -12    1    1    2    0    0  0.56438580436E+00 -0.19202468619E+01 -0.18619166955E+02  0.18726432053E+02  0.00000000000E+00 0.  1.
         11    1    3    3    0    0 -0.27027145966E+01  0.40494175364E+01  0.17694146473E+02  0.18351710227E+02  0.51100000000E-03 0. -1.
        -11    1    3    3    0    0  0.25404036798E+02 -0.12500156490E+02 -0.24316259262E+01  0.28417104054E+02  0.51100000000E-03 0.  1.
         12    1    3    3    0    0 -0.23265708006E+02  0.10370985815E+02  0.33566464082E+01  0.25692753666E+02  0.00000000000E+00 0. -1.
</event>
<event>
 7    1  0.3611369E-013  0.7246157E+02  0.7816164E-02  0.1226708E+00
        -11   -1    0    0    0    0  0.00000000000E+00  0.00000000000E+00  0.45593999997E+02  0.45594000000E+02  0.51100000000E-03 0.  1.
         11   -1    0    0    0    0 -0.00000000000E+00 -0.00000000000E+00 -0.45593999997E+02  0.45594000000E+02  0.51100000000E-03 0. -1.
    9900012    2    1    2    0    0  0.10187519324E+02 -0.34761011671E+01  0.15323524142E+02  0.72461568908E+02  0.69999998194E+02 0.  0.
        -12    1    1    2    0    0 -0.10187519324E+02  0.34761011671E+01 -0.15323524142E+02  0.18726431092E+02  0.00000000000E+00 0.  1.
         11    1    3    3    0    0  0.43764989011E+01  0.20811914717E+01 -0.16126832699E+02  0.16839234951E+02  0.51100000000E-03 0. -1.
        -11    1    3    3    0    0  0.24281993856E+02  0.36946231371E+01  0.12370175156E+02  0.27500667254E+02  0.51100000000E-03 0.  1.
        -12    1    3    3    0    0 -0.18470973433E+02 -0.92519157759E+01  0.19080181685E+02  0.28121666704E+02  0.00000000000E+00 0.  1.
</event>
<event>
 7    1  0.3611369E-013  0.7246155E+02  0.7816164E-02  0.1226708E+00
        -11   -1    0    0    0    0  0.00000000000E+00  0.00000000000E+00  0.45593999997E+02  0.45594000000E+02  0.51100000000E-03 0. -1.
         11   -1    0    0    0    0 -0.00000000000E+00 -0.00000000000E+00 -0.45593999997E+02  0.45594000000E+02  0.51100000000E-03 0.  1.
    9900012    2    1    2    0    0  0.57992560576E+01 -0.12789607484E+02  0.12388480343E+02  0.72461551442E+02  0.69999975441E+02 0.  0.
        -12    1    1    2    0    0 -0.57992560576E+01  0.12789607484E+02 -0.12388480343E+02  0.18726448558E+02  0.00000000000E+00 0.  1.
         11    1    3    3    0    0  0.69492897544E+00 -0.19577734918E+02  0.21751853669E+02  0.29273089504E+02  0.51100000000E-03 0. -1.
        -11    1    3    3    0    0 -0.16750543552E+02  0.10171526125E+02 -0.75427858902E+01  0.20998434995E+02  0.51100000000E-03 0.  1.
         12    1    3    3    0    0  0.21854870634E+02 -0.33833986905E+01 -0.18205874362E+01  0.22190026943E+02  0.00000000000E+00 0. -1.
</event>
<event>
 7    1  0.3611369E-013  0.7246158E+02  0.7816164E-02  0.1226708E+00
        -11   -1    0    0    0    0  0.00000000000E+00  0.00000000000E+00  0.45593999997E+02  0.45594000000E+02  0.51100000000E-03 0.  1.
         11   -1    0    0    0    0 -0.00000000000E+00 -0.00000000000E+00 -0.45593999997E+02  0.45594000000E+02  0.51100000000E-03 0. -1.
    9900012    2    1    2    0    0  0.91103281182E+01  0.13935185261E+02 -0.85727059114E+01  0.72461581407E+02  0.70000014476E+02 0.  0.
        -12    1    1    2    0    0 -0.91103281182E+01 -0.13935185261E+02  0.85727059114E+01  0.18726418593E+02  0.00000000000E+00 0.  1.
         11    1    3    3    0    0  0.12318719793E+02 -0.11202201195E+02  0.60028801971E+01  0.17699568918E+02  0.51100000000E-03 0.  1.
        -11    1    3    3    0    0  0.18244598599E+02  0.32705422240E+01  0.39653091781E+01  0.18954827924E+02  0.51100000000E-03 0. -1.
         12    1    3    3    0    0 -0.21452990274E+02  0.21866844233E+02 -0.18540895287E+02  0.35807184564E+02  0.00000000000E+00 0. -1.
</event>
<event>
 7    1  0.3611369E-013  0.7246152E+02  0.7816164E-02  0.1226708E+00
        -11   -1    0    0    0    0  0.00000000000E+00  0.00000000000E+00  0.45593999997E+02  0.45594000000E+02  0.51100000000E-03 0. -1.
         11   -1    0    0    0    0 -0.00000000000E+00 -0.00000000000E+00 -0.45593999997E+02  0.45594000000E+02  0.51100000000E-03 0.  1.
    9900012    2    1    2    0    0 -0.10669491194E+02 -0.11655520056E+02  0.10049463573E+02  0.72461523871E+02  0.69999939525E+02 0.  0.
        -12    1    1    2    0    0  0.10669491194E+02  0.11655520056E+02 -0.10049463573E+02  0.18726476129E+02  0.00000000000E+00 0.  1.
         11    1    3    3    0    0 -0.18789782886E+02  0.17089648399E+02  0.87688540636E+01  0.26870147472E+02  0.51100000000E-03 0. -1.
        -11    1    3    3    0    0 -0.11998197034E+02 -0.12538221893E+02 -0.66230813341E+01  0.18574954830E+02  0.51100000000E-03 0.  1.
        -12    1    3    3    0    0  0.20118488726E+02 -0.16206946561E+02  0.79036908432E+01  0.27016421570E+02  0.00000000000E+00 0.  1.
</event>
<event>
 7    1  0.3611369E-013  0.7246168E+02  0.7816164E-02  0.1226708E+00
        -11   -1    0    0    0    0  0.00000000000E+00  0.00000000000E+00  0.45593999997E+02  0.45594000000E+02  0.51100000000E-03 0.  1.
         11   -1    0    0    0    0 -0.00000000000E+00 -0.00000000000E+00 -0.45593999997E+02  0.45594000000E+02  0.51100000000E-03 0. -1.
    9900012    2    1    2    0    0  0.39326740374E+01 -0.16804211035E+02  0.72682664813E+01  0.72461678117E+02  0.70000140459E+02 0.  0.
        -12    1    1    2    0    0 -0.39326740374E+01  0.16804211035E+02 -0.72682664813E+01  0.18726321883E+02  0.00000000000E+00 0.  1.
         11    1    3    3    0    0  0.72595266250E+01  0.16456931510E+02 -0.17989361689E+02  0.25439112716E+02  0.51100000000E-03 0. -1.
        -11    1    3    3    0    0 -0.37867126773E+01  0.11973165624E+01  0.69380309753E+01  0.79943125987E+01  0.51100000000E-03 0.  1.
        -12    1    3    3    0    0  0.45986008967E+00 -0.34458459108E+02  0.18319597195E+02  0.39028252802E+02  0.00000000000E+00 0.  1.
</event>
<event>
 7    1  0.3611369E-013  0.7246157E+02  0.7816164E-02  0.1226708E+00
        -11   -1    0    0    0    0  0.00000000000E+00  0.00000000000E+00  0.45593999997E+02  0.45594000000E+02  0.51100000000E-03 0.  1.
         11   -1    0    0    0    0 -0.00000000000E+00 -0.00000000000E+00 -0.45593999997E+02  0.45594000000E+02  0.51100000000E-03 0. -1.
    9900012    2    1    2    0    0 -0.11398878906E+02 -0.14665249029E+02 -0.23822830842E+01  0.72461568357E+02  0.69999997476E+02 0.  0.
        -12    1    1    2    0    0  0.11398878906E+02  0.14665249029E+02  0.23822830842E+01  0.18726431643E+02  0.00000000000E+00 0.  1.
         11    1    3    3    0    0  0.39060268091E+01  0.97230840886E+01  0.14520132053E+02  0.17906134276E+02  0.51100000000E-03 0. -1.
        -11    1    3    3    0    0  0.73457462778E+01 -0.22493053411E+02  0.36129784081E+01  0.23936395998E+02  0.51100000000E-03 0.  1.
         12    1    3    3    0    0 -0.22650651993E+02 -0.18952797068E+01 -0.20515393545E+02  0.30619038083E+02  0.00000000000E+00 0. -1.
</event>
<event>
 7    1  0.3611369E-013  0.7246158E+02  0.7816164E-02  0.1226708E+00
        -11   -1    0    0    0    0  0.00000000000E+00  0.00000000000E+00  0.45593999997E+02  0.45594000000E+02  0.51100000000E-03 0. -1.
         11   -1    0    0    0    0 -0.00000000000E+00 -0.00000000000E+00 -0.45593999997E+02  0.45594000000E+02  0.51100000000E-03 0.  1.
    9900012    2    1    2    0    0 -0.69447890248E+01 -0.98006415998E+01  0.14366495005E+02  0.72461578850E+02  0.70000011145E+02 0.  0.
        -12    1    1    2    0    0  0.69447890248E+01  0.98006415998E+01 -0.14366495005E+02  0.18726421150E+02  0.00000000000E+00 0.  1.
         11    1    3    3    0    0 -0.84440776110E+01  0.20646241309E+02  0.23942879057E+02  0.32723557030E+02  0.51100000000E-03 0. -1.
        -11    1    3    3    0    0  0.64492342656E+01  0.11721351293E+01 -0.13279806493E+01  0.66880532474E+01  0.51100000000E-03 0.  1.
        -12    1    3    3    0    0 -0.49499456794E+01 -0.31619018038E+02 -0.82484034021E+01  0.33049968572E+02  0.00000000000E+00 0.  1.
</event>
<event>
 7    1  0.3611369E-013  0.7246164E+02  0.7816164E-02  0.1226708E+00
        -11   -1    0    0    0    0  0.00000000000E+00  0.00000000000E+00  0.45593999997E+02  0.45594000000E+02  0.51100000000E-03 0. -1.
         11   -1    0    0    0    0 -0.00000000000E+00 -0.00000000000E+00 -0.45593999997E+02  0.45594000000E+02  0.51100000000E-03 0.  1.
    9900012    2    1    2    0    0 -0.63643744120E+01 -0.11661981501E+02  0.13197334162E+02  0.72461636146E+02  0.70000085784E+02 0.  0.
        -12    1    1    2    0    0  0.63643744120E+01  0.11661981501E+02 -0.13197334162E+02  0.18726363854E+02  0.00000000000E+00 0.  1.
         11    1    3    3    0    0  0.33259387116E+01  0.10836327509E+02  0.18541493244E+02  0.21731885196E+02  0.51100000000E-03 0. -1.
        -11    1    3    3    0    0 -0.98143223287E+01  0.54907664423E+01  0.13057775804E+02  0.17232961095E+02  0.51100000000E-03 0.  1.
        -12    1    3    3    0    0  0.12400920502E+00 -0.27989075453E+02 -0.18401934887E+02  0.33496789855E+02  0.00000000000E+00 0.  1.
</event>
<event>
 7    1  0.3611369E-013  0.7246197E+02  0.7816164E-02  0.1226707E+00
        -11   -1    0    0    0    0  0.00000000000E+00  0.00000000000E+00  0.45593999997E+02  0.45594000000E+02  0.51100000000E-03 0.  1.
         11   -1    0    0    0    0 -0.00000000000E+00 -0.00000000000E+00 -0.45593999997E+02  0.45594000000E+02  0.51100000000E-03 0. -1.
    9900012    2    1    2    0    0 -0.14557757296E+02  0.15087962781E+01 -0.11681583109E+02  0.72461971387E+02  0.70000522496E+02 0.  0.
        -12    1    1    2    0    0  0.14557757296E+02 -0.15087962781E+01  0.11681583109E+02  0.18726028613E+02  0.00000000000E+00 0.  1.
         11    1    3    3    0    0 -0.22229654072E+01  0.23429304399E+02 -0.11373132945E+02  0.26138516275E+02  0.51100000000E-03 0. -1.
        -11    1    3    3    0    0 -0.16746645204E+02 -0.97346253451E+01 -0.16596892045E+02  0.25508231652E+02  0.51100000000E-03 0.  1.
        -12    1    3    3    0    0  0.44118533158E+01 -0.12185882776E+02  0.16288441882E+02  0.20815223459E+02  0.00000000000E+00 0.  1.
</event>
<event>
 7    1  0.3611369E-013  0.7246159E+02  0.7816164E-02  0.1226708E+00
        -11   -1    0    0    0    0  0.00000000000E+00  0.00000000000E+00  0.45593999997E+02  0.45594000000E+02  0.51100000000E-03 0.  1.
         11   -1    0    0    0    0 -0.00000000000E+00 -0.00000000000E+00 -0.45593999997E+02  0.45594000000E+02  0.51100000000E-03 0. -1.
    9900012    2    1    2    0    0  0.18063626992E+01 -0.48642000840E+01 -0.17993196219E+02  0.72461588202E+02  0.70000023328E+02 0.  0.
        -12    1    1    2    0    0 -0.18063626992E+01  0.48642000840E+01  0.17993196219E+02  0.18726411798E+02  0.00000000000E+00 0.  1.
         11    1    3    3    0    0 -0.98460515311E+00 -0.12105981181E+01  0.14298121003E+00  0.15669840455E+01  0.51100000000E-03 0. -1.
        -11    1    3    3    0    0 -0.10775878662E+02 -0.32103628090E+02  0.12567370017E+01  0.33887193534E+02  0.51100000000E-03 0.  1.
         12    1    3    3    0    0  0.13566846514E+02  0.28450026124E+02 -0.19392914431E+02  0.37007410622E+02  0.00000000000E+00 0. -1.
</event>
<event>
 7    1  0.3611369E-013  0.7246158E+02  0.7816164E-02  0.1226708E+00
        -11   -1    0    0    0    0  0.00000000000E+00  0.00000000000E+00  0.45593999997E+02  0.45594000000E+02  0.51100000000E-03 0.  1.
         11   -1    0    0    0    0 -0.00000000000E+00 -0.00000000000E+00 -0.45593999997E+02  0.45594000000E+02  0.51100000000E-03 0. -1.
    9900012    2    1    2    0    0 -0.17617158756E+02  0.63337262652E+01  0.44564291911E+00  0.72461575658E+02  0.70000006987E+02 0.  0.
        -12    1    1    2    0    0  0.17617158756E+02 -0.63337262652E+01 -0.44564291911E+00  0.18726424342E+02  0.00000000000E+00 0.  1.
         11    1    3    3    0    0 -0.21288657067E+02  0.66713888303E+01  0.21420975316E+02  0.30928506792E+02  0.51100000000E-03 0. -1.
        -11    1    3    3    0    0 -0.87516561917E+01  0.87788678059E+01  0.32566422223E+01  0.12816619089E+02  0.51100000000E-03 0.  1.
         12    1    3    3    0    0  0.12423154503E+02 -0.91165303710E+01 -0.24231974619E+02  0.28716449777E+02  0.00000000000E+00 0. -1.
</event>
<event>
 7    1  0.3611369E-013  0.7246159E+02  0.7816164E-02  0.1226708E+00
        -11   -1    0    0    0    0  0.00000000000E+00  0.00000000000E+00  0.45593999997E+02  0.45594000000E+02  0.51100000000E-03 0.  1.
         11   -1    0    0    0    0 -0.00000000000E+00 -0.00000000000E+00 -0.45593999997E+02  0.45594000000E+02  0.51100000000E-03 0. -1.
    9900012    2    1    2    0    0  0.58707419000E+01 -0.99371319786E+01 -0.14746741022E+02  0.72461586217E+02  0.70000020742E+02 0.  0.
        -12    1    1    2    0    0 -0.58707419000E+01  0.99371319786E+01  0.14746741022E+02  0.18726413783E+02  0.00000000000E+00 0.  1.
         11    1    3    3    0    0  0.16903516444E+02 -0.13614655486E+02 -0.35618256287E+01  0.21994870180E+02  0.51100000000E-03 0. -1.
        -11    1    3    3    0    0  0.16419203572E+02 -0.48159088915E+01  0.45491383489E+01  0.17705306672E+02  0.51100000000E-03 0.  1.
         12    1    3    3    0    0 -0.27451978116E+02  0.84934323986E+01 -0.15734053742E+02  0.32761409364E+02  0.00000000000E+00 0. -1.
</event>
<event>
 7    1  0.3611369E-013  0.7246161E+02  0.7816164E-02  0.1226708E+00
        -11   -1    0    0    0    0  0.00000000000E+00  0.00000000000E+00  0.45593999997E+02  0.45594000000E+02  0.51100000000E-03 0.  1.
         11   -1    0    0    0    0 -0.00000000000E+00 -0.00000000000E+00 -0.45593999997E+02  0.45594000000E+02  0.51100000000E-03 0. -1.
    9900012    2    1    2    0    0 -0.16745843198E+02 -0.53474983618E+01  0.64543410528E+01  0.72461614295E+02  0.70000057319E+02 0.  0.
        -12    1    1    2    0    0  0.16745843198E+02  0.53474983618E+01 -0.64543410528E+01  0.18726385705E+02  0.00000000000E+00 0.  1.
         11    1    3    3    0    0 -0.17303741463E+02 -0.10168831308E+02 -0.14899248187E+02  0.24996243630E+02  0.51100000000E-03 0. -1.
        -11    1    3    3    0    0 -0.11178228510E+02 -0.15384765969E+02  0.91586285589E+01  0.21107446409E+02  0.51100000000E-03 0.  1.
        -12    1    3    3    0    0  0.11736126775E+02  0.20206098916E+02  0.12194960681E+02  0.26357924256E+02  0.00000000000E+00 0.  1.
</event>
<event>
 7    1  0.3611369E-013  0.7246159E+02  0.7816164E-02  0.1226708E+00
        -11   -1    0    0    0    0  0.00000000000E+00  0.00000000000E+00  0.45593999997E+02  0.45594000000E+02  0.51100000000E-03 0. -1.
         11   -1    0    0    0    0 -0.00000000000E+00 -0.00000000000E+00 -0.45593999997E+02  0.45594000000E+02  0.51100000000E-03 0.  1.
    9900012    2    1    2    0    0 -0.22469259947E+01  0.14418322642E+02  0.11736337296E+02  0.72461593047E+02  0.70000029640E+02 0.  0.
        -12    1    1    2    0    0  0.22469259947E+01 -0.14418322642E+02 -0.11736337296E+02  0.18726406953E+02  0.00000000000E+00 0.  1.
         11    1    3    3    0    0  0.22822957262E+02  0.13698132813E+01  0.13687143808E+02  0.26647732971E+02  0.51100000000E-03 0. -1.
        -11    1    3    3    0    0 -0.12339573572E+02  0.24451795272E+02  0.40779873983E+01  0.27690889286E+02  0.51100000000E-03 0.  1.
        -12    1    3    3    0    0 -0.12730309684E+02 -0.11403285912E+02 -0.60287939103E+01  0.18122970790E+02  0.00000000000E+00 0.  1.
</event>
<event>
 7    1  0.3611369E-013  0.7246160E+02  0.7816164E-02  0.1226708E+00
        -11   -1    0    0    0    0  0.00000000000E+00  0.00000000000E+00  0.45593999997E+02  0.45594000000E+02  0.51100000000E-03 0. -1.
         11   -1    0    0    0    0 -0.00000000000E+00 -0.00000000000E+00 -0.45593999997E+02  0.45594000000E+02  0.51100000000E-03 0.  1.
    9900012    2    1    2    0    0  0.16937830171E+02 -0.78420855332E+01 -0.15131753249E+01  0.72461598959E+02  0.70000037341E+02 0.  0.
        -12    1    1    2    0    0 -0.16937830171E+02  0.78420855332E+01  0.15131753249E+01  0.18726401041E+02  0.00000000000E+00 0.  1.
         11    1    3    3    0    0 -0.87225181757E+01  0.11291368593E+00  0.66381690703E+01  0.10961768183E+02  0.51100000000E-03 0. -1.
        -11    1    3    3    0    0  0.55494567381E+01  0.23209857408E+02 -0.34783385849E+01  0.24116235000E+02  0.51100000000E-03 0.  1.
         12    1    3    3    0    0  0.20110891608E+02 -0.31164856627E+02 -0.46730058103E+01  0.37383595776E+02  0.00000000000E+00 0. -1.
</event>
<event>
 7    1  0.3611369E-013  0.7246164E+02  0.7816164E-02  0.1226708E+00
        -11   -1    0    0    0    0  0.00000000000E+00  0.00000000000E+00  0.45593999997E+02  0.45594000000E+02  0.51100000000E-03 0. -1.
         11   -1    0    0    0    0 -0.00000000000E+00 -0.00000000000E+00 -0.45593999997E+02  0.45594000000E+02  0.51100000000E-03 0.  1.
    9900012    2    1    2    0    0 -0.11360052294E+02  0.12662188417E+02 -0.78291030472E+01  0.72461637349E+02  0.70000087351E+02 0.  0.
        -12    1    1    2    0    0  0.11360052294E+02 -0.12662188417E+02  0.78291030472E+01  0.18726362651E+02  0.00000000000E+00 0.  1.
         11    1    3    3    0    0  0.19895128275E+01  0.17564136637E+01  0.34046102501E+00  0.26756427676E+01  0.51100000000E-03 0. -1.
        -11    1    3    3    0    0  0.18727943068E+02 -0.81585436437E+01 -0.21971012673E+02  0.30000384733E+02  0.51100000000E-03 0.  1.
         12    1    3    3    0    0 -0.32077508189E+02  0.19064318397E+02  0.13801448601E+02  0.39785609849E+02  0.00000000000E+00 0. -1.
</event>
<event>
 7    1  0.3611369E-013  0.7246117E+02  0.7816164E-02  0.1226709E+00
        -11   -1    0    0    0    0  0.00000000000E+00  0.00000000000E+00  0.45593999997E+02  0.45594000000E+02  0.51100000000E-03 0. -1.
         11   -1    0    0    0    0 -0.00000000000E+00 -0.00000000000E+00 -0.45593999997E+02  0.45594000000E+02  0.51100000000E-03 0.  1.
    9900012    2    1    2    0    0 -0.29786716832E+01  0.24885573503E+01  0.18320174259E+02  0.72461169313E+02  0.69999477646E+02 0.  0.
        -12    1    1    2    0    0  0.29786716832E+01 -0.24885573503E+01 -0.18320174259E+02  0.18726830687E+02  0.00000000000E+00 0.  1.
         11    1    3    3    0    0 -0.16282577235E+01 -0.13714793595E+02  0.97326963748E+01  0.16895921566E+02  0.51100000000E-03 0. -1.
        -11    1    3    3    0    0 -0.20074858783E+00  0.16833526784E+02 -0.20455791968E+02  0.26492401727E+02  0.51100000000E-03 0.  1.
         12    1    3    3    0    0 -0.11496653719E+01 -0.63017583812E+00  0.29043269852E+02  0.29072846021E+02  0.00000000000E+00 0. -1.
</event>
<event>
 7    1  0.3611369E-013  0.7246147E+02  0.7816164E-02  0.1226708E+00
        -11   -1    0    0    0    0  0.00000000000E+00  0.00000000000E+00  0.45593999997E+02  0.45594000000E+02  0.51100000000E-03 0.  1.
         11   -1    0    0    0    0 -0.00000000000E+00 -0.00000000000E+00 -0.45593999997E+02  0.45594000000E+02  0.51100000000E-03 0. -1.
    9900012    2    1    2    0    0  0.12308228989E+02 -0.13221091042E+02 -0.49389486043E+01  0.72461469021E+02  0.69999868072E+02 0.  0.
        -12    1    1    2    0    0 -0.12308228989E+02  0.13221091042E+02  0.49389486043E+01  0.18726530979E+02  0.00000000000E+00 0.  1.
         11    1    3    3    0    0 -0.44719806229E+01 -0.14650476510E+02 -0.42148320210E+01  0.15887097970E+02  0.51100000000E-03 0. -1.
        -11    1    3    3    0    0 -0.10998443985E+02 -0.11439233949E+02  0.15279490214E+02  0.22029177581E+02  0.51100000000E-03 0.  1.
         12    1    3    3    0    0  0.27778653597E+02  0.12868619417E+02 -0.16003606798E+02  0.34545193470E+02  0.00000000000E+00 0. -1.
</event>
<event>
 7    1  0.3611369E-013  0.7246155E+02  0.7816164E-02  0.1226708E+00
        -11   -1    0    0    0    0  0.00000000000E+00  0.00000000000E+00  0.45593999997E+02  0.45594000000E+02  0.51100000000E-03 0.  1.
         11   -1    0    0    0    0 -0.00000000000E+00 -0.00000000000E+00 -0.45593999997E+02  0.45594000000E+02  0.51100000000E-03 0. -1.
    9900012    2    1    2    0    0 -0.44097496720E+01  0.96047123219E+01 -0.15459097757E+02  0.72461545600E+02  0.69999967831E+02 0.  0.
        -12    1    1    2    0    0  0.44097496720E+01 -0.96047123219E+01  0.15459097757E+02  0.18726454400E+02  0.00000000000E+00 0.  1.
         11    1    3    3    0    0 -0.10951840933E+02 -0.10645723423E+02  0.35755653016E+01  0.15686265155E+02  0.51100000000E-03 0. -1.
        -11    1    3    3    0    0 -0.12894553788E+02  0.12008499856E+02  0.10469306527E+02  0.20495852400E+02  0.51100000000E-03 0.  1.
         12    1    3    3    0    0  0.19436645049E+02  0.82419358886E+01 -0.29503969585E+02  0.36279428045E+02  0.00000000000E+00 0. -1.
</event>
<event>
 7    1  0.3611369E-013  0.7246160E+02  0.7816164E-02  0.1226708E+00
        -11   -1    0    0    0    0  0.00000000000E+00  0.00000000000E+00  0.45593999997E+02  0.45594000000E+02  0.51100000000E-03 0. -1.
         11   -1    0    0    0    0 -0.00000000000E+00 -0.00000000000E+00 -0.45593999997E+02  0.45594000000E+02  0.51100000000E-03 0.  1.
    9900012    2    1    2    0    0  0.16264170076E+02 -0.78066279403E+01  0.50211038933E+01  0.72461597453E+02  0.70000035379E+02 0.  0.
        -12    1    1    2    0    0 -0.16264170076E+02  0.78066279403E+01 -0.50211038933E+01  0.18726402547E+02  0.00000000000E+00 0.  1.
         11    1    3    3    0    0 -0.21142585876E+01 -0.18962786268E+02 -0.21189906540E+02  0.28514373426E+02  0.51100000000E-03 0. -1.
        -11    1    3    3    0    0  0.16527940408E+02 -0.16548400790E+00  0.13702862439E+01  0.16585472069E+02  0.51100000000E-03 0.  1.
         12    1    3    3    0    0  0.18504882556E+01  0.11321642336E+02  0.24840724190E+02  0.27361751958E+02  0.00000000000E+00 0. -1.
</event>
<event>
 7    1  0.3611369E-013  0.7246163E+02  0.7816164E-02  0.1226708E+00
        -11   -1    0    0    0    0  0.00000000000E+00  0.00000000000E+00  0.45593999997E+02  0.45594000000E+02  0.51100000000E-03 0.  1.
         11   -1    0    0    0    0 -0.00000000000E+00 -0.00000000000E+00 -0.45593999997E+02  0.45594000000E+02  0.51100000000E-03 0. -1.
    9900012    2    1    2    0    0 -0.16137263232E+02  0.94436049603E+01 -0.10411518033E+01  0.72461629921E+02  0.70000077675E+02 0.  0.
        -12    1    1    2    0    0  0.16137263232E+02 -0.94436049603E+01  0.10411518033E+01  0.18726370079E+02  0.00000000000E+00 0.  1.
         11    1    3    3    0    0 -0.83881965798E+01  0.28468163813E+02 -0.53352042919E+01  0.30153981459E+02  0.51100000000E-03 0. -1.
        -11    1    3    3    0    0  0.86929550244E+01 -0.20146155631E+02 -0.61617889077E+01  0.22790407995E+02  0.51100000000E-03 0.  1.
        -12    1    3    3    0    0 -0.16442021676E+02  0.11215967779E+01  0.10455841396E+02  0.19517240467E+02  0.00000000000E+00 0.  1.
</event>
<event>
 7    1  0.3611369E-013  0.7246157E+02  0.7816164E-02  0.1226708E+00
        -11   -1    0    0    0    0  0.00000000000E+00  0.00000000000E+00  0.45593999997E+02  0.45594000000E+02  0.51100000000E-03 0.  1.
         11   -1    0    0    0    0 -0.00000000000E+00 -0.00000000000E+00 -0.45593999997E+02  0.45594000000E+02  0.51100000000E-03 0. -1.
    9900012    2    1    2    0    0 -0.19903695153E+01  0.68041347596E+01 -0.17332668902E+02  0.72461568629E+02  0.69999997830E+02 0.  0.
        -12    1    1    2    0    0  0.19903695153E+01 -0.68041347596E+01  0.17332668902E+02  0.18726431371E+02  0.00000000000E+00 0.  1.
         11    1    3    3    0    0 -0.19196167358E+02 -0.11410733774E+02 -0.15870643749E+02  0.27396624241E+02  0.51100000000E-03 0. -1.
        -11    1    3    3    0    0 -0.89688974100E+00 -0.72714064026E+01  0.94469972556E+01  0.11955062513E+02  0.51100000000E-03 0.  1.
         12    1    3    3    0    0  0.18102687584E+02  0.25486274936E+02 -0.10909022408E+02  0.33109881875E+02  0.00000000000E+00 0. -1.
</event>
<event>
 7    1  0.3611369E-013  0.7246158E+02  0.7816164E-02  0.1226708E+00
        -11   -1    0    0    0    0  0.00000000000E+00  0.00000000000E+00  0.45593999997E+02  0.45594000000E+02  0.51100000000E-03 0.  1.
         11   -1    0    0    0    0 -0.00000000000E+00 -0.00000000000E+00 -0.45593999997E+02  0.45594000000E+02  0.51100000000E-03 0. -1.
    9900012    2    1    2    0    0  0.16270933062E+02  0.46420991777E+01  0.80241087436E+01  0.72461583668E+02  0.70000017422E+02 0.  0.
        -12    1    1    2    0    0 -0.16270933062E+02 -0.46420991777E+01 -0.80241087436E+01  0.18726416332E+02  0.00000000000E+00 0.  1.
         11    1    3    3    0    0  0.62014971286E+01  0.23474038298E+02  0.21585110415E+01  0.24375155606E+02  0.51100000000E-03 0. -1.
        -11    1    3    3    0    0  0.63564602369E+01  0.82596746545E+01  0.15855160390E+02  0.18974006519E+02  0.51100000000E-03 0.  1.
         12    1    3    3    0    0  0.37129756968E+01 -0.27091613774E+02 -0.99895626877E+01  0.29112421543E+02  0.00000000000E+00 0. -1.
</event>
<event>
 7    1  0.3611369E-013  0.7246152E+02  0.7816164E-02  0.1226708E+00
        -11   -1    0    0    0    0  0.00000000000E+00  0.00000000000E+00  0.45593999997E+02  0.45594000000E+02  0.51100000000E-03 0. -1.
         11   -1    0    0    0    0 -0.00000000000E+00 -0.00000000000E+00 -0.45593999997E+02  0.45594000000E+02  0.51100000000E-03 0.  1.
    9900012    2    1    2    0    0 -0.17091364566E+02 -0.10059004575E+01  0.75864682516E+01  0.72461519311E+02  0.69999933585E+02 0.  0.
        -12    1    1    2    0    0  0.17091364566E+02  0.10059004575E+01 -0.75864682516E+01  0.18726480689E+02  0.00000000000E+00 0.  1.
         11    1    3    3    0    0  0.40611351262E+01  0.53961789014E+01 -0.20475566517E+02  0.21560621273E+02  0.51100000000E-03 0.  1.
        -11    1    3    3    0    0  0.90834780593E+01 -0.70495137611E+01  0.12147588661E+02  0.16726300501E+02  0.51100000000E-03 0. -1.
         12    1    3    3    0    0 -0.30235977751E+02  0.64743440220E+00  0.15914446107E+02  0.34174597536E+02  0.00000000000E+00 0. -1.
</event>
<event>
 7    1  0.3611369E-013  0.7246158E+02  0.7816164E-02  0.1226708E+00
        -11   -1    0    0    0    0  0.00000000000E+00  0.00000000000E+00  0.45593999997E+02  0.45594000000E+02  0.51100000000E-03 0.  1.
         11   -1    0    0    0    0 -0.00000000000E+00 -0.00000000000E+00 -0.45593999997E+02  0.45594000000E+02  0.51100000000E-03 0. -1.
    9900012    2    1    2    0    0 -0.32127818709E+00  0.10620061386E+02 -0.15420436781E+02  0.72461580320E+02  0.70000013060E+02 0.  0.
        -12    1    1    2    0    0  0.32127818709E+00 -0.10620061386E+02  0.15420436781E+02  0.18726419680E+02  0.00000000000E+00 0.  1.
         11    1    3    3    0    0 -0.13757394363E+02 -0.63111512567E+01 -0.18305340862E+02  0.23752516376E+02  0.51100000000E-03 0. -1.
        -11    1    3    3    0    0 -0.13154592383E+02  0.80531051078E+01  0.11658731604E+02  0.19334472466E+02  0.51100000000E-03 0.  1.
        -12    1    3    3    0    0  0.26590708559E+02  0.88781075351E+01 -0.87738275231E+01  0.29374591478E+02  0.00000000000E+00 0.  1.
</event>
<event>
 7    1  0.3611369E-013  0.7246157E+02  0.7816164E-02  0.1226708E+00
        -11   -1    0    0    0    0  0.00000000000E+00  0.00000000000E+00  0.45593999997E+02  0.45594000000E+02  0.51100000000E-03 0. -1.
         11   -1    0    0    0    0 -0.00000000000E+00 -0.00000000000E+00 -0.45593999997E+02  0.45594000000E+02  0.51100000000E-03 0.  1.
    9900012    2    1    2    0    0  0.12617950417E+02  0.10875595412E+02  0.85549856665E+01  0.72461574071E+02  0.70000004920E+02 0.  0.
        -12    1    1    2    0    0 -0.12617950417E+02 -0.10875595412E+02 -0.85549856665E+01  0.18726425929E+02  0.00000000000E+00 0.  1.
         11    1    3    3    0    0  0.73871503072E+01 -0.73778605178E+01  0.26356150695E+02  0.28348712408E+02  0.51100000000E-03 0. -1.
        -11    1    3    3    0    0  0.18616947534E+02  0.57035592171E+01 -0.14322702450E+01  0.19523645191E+02  0.51100000000E-03 0.  1.
        -12    1    3    3    0    0 -0.13386147423E+02  0.12549896713E+02 -0.16368894783E+02  0.24589216473E+02  0.00000000000E+00 0.  1.
</event>
<event>
 7    1  0.3611369E-013  0.7246137E+02  0.7816164E-02  0.1226709E+00
        -11   -1    0    0    0    0  0.00000000000E+00  0.00000000000E+00  0.45593999997E+02  0.45594000000E+02  0.51100000000E-03 0.  1.
         11   -1    0    0    0    0 -0.00000000000E+00 -0.00000000000E+00 -0.45593999997E+02  0.45594000000E+02  0.51100000000E-03 0. -1.
    9900012    2    1    2    0    0 -0.12641245782E+02  0.91583086250E+01  0.10344601465E+02  0.72461374803E+02  0.69999745336E+02 0.  0.
        -12    1    1    2    0    0  0.12641245782E+02 -0.91583086250E+01 -0.10344601465E+02  0.18726625197E+02  0.00000000000E+00 0.  1.
         11    1    3    3    0    0  0.65608947117E+01  0.49836258138E+01 -0.76725545786E+01  0.11258328459E+02  0.51100000000E-03 0. -1.
        -11    1    3    3    0    0 -0.33616419189E+02  0.10242052097E+02 -0.27000741082E+01  0.35245619170E+02  0.51100000000E-03 0.  1.
         12    1    3    3    0    0  0.14414278695E+02 -0.60673692861E+01  0.20717230152E+02  0.25957427174E+02  0.00000000000E+00 0. -1.
</event>
<event>
 7    1  0.3611369E-013  0.7246157E+02  0.7816164E-02  0.1226708E+00
        -11   -1    0    0    0    0  0.00000000000E+00  0.00000000000E+00  0.45593999997E+02  0.45594000000E+02  0.51100000000E-03 0.  1.
         11   -1    0    0    0    0 -0.00000000000E+00 -0.00000000000E+00 -0.45593999997E+02  0.45594000000E+02  0.51100000000E-03 0. -1.
    9900012    2    1    2    0    0 -0.97989799258E+00  0.57935124838E+01 -0.17780729856E+02  0.72461565711E+02  0.69999994029E+02 0.  0.
        -12    1    1    2    0    0  0.97989799258E+00 -0.57935124838E+01  0.17780729856E+02  0.18726434289E+02  0.00000000000E+00 0.  1.
         11    1    3    3    0    0  0.10788418868E+02 -0.33679525227E+01 -0.33287478261E+02  0.35153794889E+02  0.51100000000E-03 0. -1.
        -11    1    3    3    0    0  0.57002694226E+01  0.11570252378E+02 -0.12797125895E+01  0.12961538341E+02  0.51100000000E-03 0.  1.
        -12    1    3    3    0    0 -0.17468586283E+02 -0.24087873715E+01  0.16786460994E+02  0.24346232482E+02  0.00000000000E+00 0.  1.
</event>
<event>
 7    1  0.3611369E-013  0.7246157E+02  0.7816164E-02  0.1226708E+00
        -11   -1    0    0    0    0  0.00000000000E+00  0.00000000000E+00  0.45593999997E+02  0.45594000000E+02  0.51100000000E-03 0.  1.
         11   -1    0    0    0    0 -0.00000000000E+00 -0.00000000000E+00 -0.45593999997E+02  0.45594000000E+02  0.51100000000E-03 0. -1.
    9900012    2    1    2    0    0  0.54012796318E+01 -0.75132016228E+01 -0.16280573905E+02  0.72461571965E+02  0.70000002176E+02 0.  0.
        -12    1    1    2    0    0 -0.54012796318E+01  0.75132016228E+01  0.16280573905E+02  0.18726428035E+02  0.00000000000E+00 0.  1.
         11    1    3    3    0    0 -0.55803880993E+01 -0.87362459489E+01  0.25532886373E+01  0.10676235654E+02  0.51100000000E-03 0. -1.
        -11    1    3    3    0    0 -0.15995212734E+02 -0.21552863225E+01  0.12416850996E+02  0.20363454482E+02  0.51100000000E-03 0.  1.
         12    1    3    3    0    0  0.26976880465E+02  0.33783306486E+01 -0.31250713538E+02  0.41421881829E+02  0.00000000000E+00 0. -1.
</event>
<event>
 7    1  0.3611369E-013  0.7246153E+02  0.7816164E-02  0.1226708E+00
        -11   -1    0    0    0    0  0.00000000000E+00  0.00000000000E+00  0.45593999997E+02  0.45594000000E+02  0.51100000000E-03 0. -1.
         11   -1    0    0    0    0 -0.00000000000E+00 -0.00000000000E+00 -0.45593999997E+02  0.45594000000E+02  0.51100000000E-03 0.  1.
    9900012    2    1    2    0    0 -0.11157246885E+02  0.80638460088E+01  0.12695308022E+02  0.72461531666E+02  0.69999949680E+02 0.  0.
        -12    1    1    2    0    0  0.11157246885E+02 -0.80638460088E+01 -0.12695308022E+02  0.18726468334E+02  0.00000000000E+00 0.  1.
         11    1    3    3    0    0  0.74722262178E+01  0.16232135159E+01  0.19669806541E+02  0.21103797677E+02  0.51100000000E-03 0. -1.
        -11    1    3    3    0    0  0.10120399761E+02  0.15539166554E+02  0.45181649886E+01  0.19086697033E+02  0.51100000000E-03 0.  1.
         12    1    3    3    0    0 -0.28749872864E+02 -0.90985340608E+01 -0.11492663508E+02  0.32271036956E+02  0.00000000000E+00 0. -1.
</event>
<event>
 7    1  0.3611369E-013  0.7246167E+02  0.7816164E-02  0.1226708E+00
        -11   -1    0    0    0    0  0.00000000000E+00  0.00000000000E+00  0.45593999997E+02  0.45594000000E+02  0.51100000000E-03 0. -1.
         11   -1    0    0    0    0 -0.00000000000E+00 -0.00000000000E+00 -0.45593999997E+02  0.45594000000E+02  0.51100000000E-03 0.  1.
    9900012    2    1    2    0    0  0.78570820795E+01  0.16658957282E+02  0.33794986535E+01  0.72461665396E+02  0.70000123888E+02 0.  0.
        -12    1    1    2    0    0 -0.78570820795E+01 -0.16658957282E+02 -0.33794986535E+01  0.18726334604E+02  0.00000000000E+00 0.  1.
         11    1    3    3    0    0 -0.74575381886E+00  0.31194365405E+02 -0.14494365011E+02  0.34405394913E+02  0.51100000000E-03 0. -1.
        -11    1    3    3    0    0 -0.63346377463E+00  0.39213689270E+01 -0.55576975290E+01  0.68312819222E+01  0.51100000000E-03 0.  1.
        -12    1    3    3    0    0  0.92362996730E+01 -0.18456777050E+02  0.23431561193E+02  0.31224988561E+02  0.00000000000E+00 0.  1.
</event>
<event>
 7    1  0.3611369E-013  0.7246158E+02  0.7816164E-02  0.1226708E+00
        -11   -1    0    0    0    0  0.00000000000E+00  0.00000000000E+00  0.45593999997E+02  0.45594000000E+02  0.51100000000E-03 0.  1.
         11   -1    0    0    0    0 -0.00000000000E+00 -0.00000000000E+00 -0.45593999997E+02  0.45594000000E+02  0.51100000000E-03 0. -1.
    9900012    2    1    2    0    0  0.14652370923E+02  0.92558932647E+01 -0.70933196207E+01  0.72461582376E+02  0.70000015738E+02 0.  0.
        -12    1    1    2    0    0 -0.14652370923E+02 -0.92558932647E+01  0.70933196207E+01  0.18726417624E+02  0.00000000000E+00 0.  1.
         11    1    3    3    0    0 -0.54555177636E+01 -0.13318385386E+02  0.74804381616E+01  0.16220327330E+02  0.51100000000E-03 0. -1.
        -11    1    3    3    0    0  0.19540985462E+02 -0.84974286168E+01  0.12937601516E+01  0.21347838802E+02  0.51100000000E-03 0.  1.
         12    1    3    3    0    0  0.56690322439E+00  0.31071707267E+02 -0.15867517934E+02  0.34893416244E+02  0.00000000000E+00 0. -1.
</event>
<event>
 7    1  0.3611369E-013  0.7246161E+02  0.7816164E-02  0.1226708E+00
        -11   -1    0    0    0    0  0.00000000000E+00  0.00000000000E+00  0.45593999997E+02  0.45594000000E+02  0.51100000000E-03 0.  1.
         11   -1    0    0    0    0 -0.00000000000E+00 -0.00000000000E+00 -0.45593999997E+02  0.45594000000E+02  0.51100000000E-03 0. -1.
    9900012    2    1    2    0    0 -0.14550578403E+02 -0.11787676413E+02  0.94958455429E-01  0.72461610487E+02  0.70000052359E+02 0.  0.
        -12    1    1    2    0    0  0.14550578403E+02  0.11787676413E+02 -0.94958455429E-01  0.18726389513E+02  0.00000000000E+00 0.  1.
         11    1    3    3    0    0 -0.11878000557E+02  0.30679945434E+01 -0.10512135488E+02  0.16155633090E+02  0.51100000000E-03 0. -1.
        -11    1    3    3    0    0  0.18229680179E+02  0.10632606325E+02 -0.15783546727E+01  0.21162815513E+02  0.51100000000E-03 0.  1.
         12    1    3    3    0    0 -0.20902258024E+02 -0.25488277281E+02  0.12185448616E+02  0.35143161885E+02  0.00000000000E+00 0. -1.
</event>
<event>
 7    1  0.5779264E-013  0.7246159E+02  0.7816164E-02  0.1226708E+00
        -11   -1    0    0    0    0  0.00000000000E+00  0.00000000000E+00  0.45593999997E+02  0.45594000000E+02  0.51100000000E-03 0. -1.
         11   -1    0    0    0    0 -0.00000000000E+00 -0.00000000000E+00 -0.45593999997E+02  0.45594000000E+02  0.51100000000E-03 0.  1.
    9900012    2    1    2    0    0  0.67907037878E+01  0.11527858610E+01  0.17413668997E+02  0.72461589743E+02  0.70000025335E+02 0.  0.
        -12    1    1    2    0    0 -0.67907037878E+01 -0.11527858610E+01 -0.17413668997E+02  0.18726410257E+02  0.00000000000E+00 0.  1.
         11    1    3    3    0    0 -0.12565272082E+01 -0.44592659387E+01  0.38132129084E+02  0.38412539386E+02  0.51100000000E-03 0. -1.
        -11    1    3    3    0    0 -0.35587301174E+01 -0.76381207452E+01 -0.26932855362E+01  0.88464250298E+01  0.51100000000E-03 0.  1.
        -12    1    3    3    0    0  0.11605961113E+02  0.13250172545E+02 -0.18025174550E+02  0.25202625328E+02  0.00000000000E+00 0.  1.
</event>
<event>
 7    1  0.3611369E-013  0.7246159E+02  0.7816164E-02  0.1226708E+00
        -11   -1    0    0    0    0  0.00000000000E+00  0.00000000000E+00  0.45593999997E+02  0.45594000000E+02  0.51100000000E-03 0.  1.
         11   -1    0    0    0    0 -0.00000000000E+00 -0.00000000000E+00 -0.45593999997E+02  0.45594000000E+02  0.51100000000E-03 0. -1.
    9900012    2    1    2    0    0  0.14429924419E+02  0.97870161749E+01 -0.68315332527E+01  0.72461594821E+02  0.70000031950E+02 0.  0.
        -12    1    1    2    0    0 -0.14429924419E+02 -0.97870161749E+01  0.68315332527E+01  0.18726405179E+02  0.00000000000E+00 0.  1.
         11    1    3    3    0    0  0.24565808033E+02 -0.39039727627E+01  0.24469226185E+01  0.24994146479E+02  0.51100000000E-03 0. -1.
        -11    1    3    3    0    0  0.12982565158E+02  0.12194685505E+02  0.70164367132E+01  0.19143869438E+02  0.51100000000E-03 0.  1.
        -12    1    3    3    0    0 -0.23118448772E+02  0.14963034323E+01 -0.16294892584E+02  0.28323578904E+02  0.00000000000E+00 0.  1.
</event>
<event>
 7    1  0.3611369E-013  0.7246164E+02  0.7816164E-02  0.1226708E+00
        -11   -1    0    0    0    0  0.00000000000E+00  0.00000000000E+00  0.45593999997E+02  0.45594000000E+02  0.51100000000E-03 0. -1.
         11   -1    0    0    0    0 -0.00000000000E+00 -0.00000000000E+00 -0.45593999997E+02  0.45594000000E+02  0.51100000000E-03 0.  1.
    9900012    2    1    2    0    0 -0.13786694942E+02 -0.12663733387E+02 -0.48332208282E+00  0.72461636206E+02  0.70000085862E+02 0.  0.
        -12    1    1    2    0    0  0.13786694942E+02  0.12663733387E+02  0.48332208282E+00  0.18726363794E+02  0.00000000000E+00 0.  1.
         11    1    3    3    0    0 -0.77845912217E+01 -0.25763769715E+02 -0.35031738857E+00  0.26916433882E+02  0.51100000000E-03 0. -1.
        -11    1    3    3    0    0  0.18618165283E+02  0.48326042428E+01  0.26843983817E+01  0.19421537972E+02  0.51100000000E-03 0.  1.
         12    1    3    3    0    0 -0.24620269003E+02  0.82674320851E+01 -0.28174030760E+01  0.26123664352E+02  0.00000000000E+00 0. -1.
</event>
<event>
 7    1  0.3989400E-013  0.7246157E+02  0.7816164E-02  0.1226708E+00
        -11   -1    0    0    0    0  0.00000000000E+00  0.00000000000E+00  0.45593999997E+02  0.45594000000E+02  0.51100000000E-03 0. -1.
         11   -1    0    0    0    0 -0.00000000000E+00 -0.00000000000E+00 -0.45593999997E+02  0.45594000000E+02  0.51100000000E-03 0.  1.
    9900012    2    1    2    0    0  0.35828353938E+00 -0.16664074909E+02  0.85357807250E+01  0.72461566484E+02  0.69999995036E+02 0.  0.
        -12    1    1    2    0    0 -0.35828353938E+00  0.16664074909E+02 -0.85357807250E+01  0.18726433516E+02  0.00000000000E+00 0.  1.
         11    1    3    3    0    0  0.18756243147E+02  0.15901025490E+00  0.25396594331E+02  0.31572281279E+02  0.51100000000E-03 0. -1.
        -11    1    3    3    0    0 -0.14597003630E+02 -0.46193997823E+01  0.45334462259E+01  0.15967576656E+02  0.51100000000E-03 0.  1.
        -12    1    3    3    0    0 -0.38009559774E+01 -0.12203685381E+02 -0.21394259832E+02  0.24921708549E+02  0.00000000000E+00 0.  1.
</event>
<event>
 7    1  0.3611369E-013  0.7246165E+02  0.7816164E-02  0.1226708E+00
        -11   -1    0    0    0    0  0.00000000000E+00  0.00000000000E+00  0.45593999997E+02  0.45594000000E+02  0.51100000000E-03 0.  1.
         11   -1    0    0    0    0 -0.00000000000E+00 -0.00000000000E+00 -0.45593999997E+02  0.45594000000E+02  0.51100000000E-03 0. -1.
    9900012    2    1    2    0    0 -0.47307548440E+01 -0.15951907484E+02  0.85925973742E+01  0.72461651627E+02  0.70000105950E+02 0.  0.
        -12    1    1    2    0    0  0.47307548440E+01  0.15951907484E+02 -0.85925973742E+01  0.18726348373E+02  0.00000000000E+00 0.  1.
         11    1    3    3    0    0 -0.13487003722E+02  0.20165402928E+02 -0.11252343063E+02  0.26742437610E+02  0.51100000000E-03 0. -1.
        -11    1    3    3    0    0  0.83821119084E+01 -0.11378683314E+02  0.21165718607E+00  0.14134321103E+02  0.51100000000E-03 0.  1.
        -12    1    3    3    0    0  0.37413696994E+00 -0.24738627098E+02  0.19633283251E+02  0.31584892914E+02  0.00000000000E+00 0.  1.
</event>
<event>
 7    1  0.3611369E-013  0.7246155E+02  0.7816164E-02  0.1226708E+00
        -11   -1    0    0    0    0  0.00000000000E+00  0.00000000000E+00  0.45593999997E+02  0.45594000000E+02  0.51100000000E-03 0. -1.
         11   -1    0    0    0    0 -0.00000000000E+00 -0.00000000000E+00 -0.45593999997E+02  0.45594000000E+02  0.51100000000E-03 0.  1.
    9900012    2    1    2    0    0 -0.16594113394E+02 -0.13655128905E+01  0.85703443995E+01  0.72461547375E+02  0.69999970144E+02 0.  0.
        -12    1    1    2    0    0  0.16594113394E+02  0.13655128905E+01 -0.85703443995E+01  0.18726452625E+02  0.00000000000E+00 0.  1.
         11    1    3    3    0    0 -0.93326607345E+01 -0.91414397681E+01  0.18636907185E+02  0.22759586708E+02  0.51100000000E-03 0. -1.
        -11    1    3    3    0    0 -0.60860633607E-01 -0.19883459006E+02 -0.63903615136E+01  0.20885218854E+02  0.51100000000E-03 0.  1.
        -12    1    3    3    0    0 -0.72005920257E+01  0.27659385883E+02 -0.36762012718E+01  0.28816741814E+02  0.00000000000E+00 0.  1.
</event>
<event>
 7    1  0.3611369E-013  0.7246167E+02  0.7816164E-02  0.1226708E+00
        -11   -1    0    0    0    0  0.00000000000E+00  0.00000000000E+00  0.45593999997E+02  0.45594000000E+02  0.51100000000E-03 0.  1.
         11   -1    0    0    0    0 -0.00000000000E+00 -0.00000000000E+00 -0.45593999997E+02  0.45594000000E+02  0.51100000000E-03 0. -1.
    9900012    2    1    2    0    0 -0.13631015151E+02 -0.10784121410E+01 -0.12794832281E+02  0.72461674149E+02  0.70000135289E+02 0.  0.
        -12    1    1    2    0    0  0.13631015151E+02  0.10784121410E+01  0.12794832281E+02  0.18726325851E+02  0.00000000000E+00 0.  1.
         11    1    3    3    0    0 -0.33640029974E+01  0.63920322126E+01 -0.34040617493E+02  0.34798537779E+02  0.51100000000E-03 0. -1.
        -11    1    3    3    0    0  0.82169412298E+00 -0.69777369675E+01 -0.53585576331E+01  0.88361832591E+01  0.51100000000E-03 0.  1.
        -12    1    3    3    0    0 -0.11088706277E+02 -0.49270738612E+00  0.26604342845E+02  0.28826953111E+02  0.00000000000E+00 0.  1.
</event>
<event>
 7    1  0.3611369E-013  0.7246157E+02  0.7816164E-02  0.1226708E+00
        -11   -1    0    0    0    0  0.00000000000E+00  0.00000000000E+00  0.45593999997E+02  0.45594000000E+02  0.51100000000E-03 0. -1.
         11   -1    0    0    0    0 -0.00000000000E+00 -0.00000000000E+00 -0.45593999997E+02  0.45594000000E+02  0.51100000000E-03 0.  1.
    9900012    2    1    2    0    0 -0.60326785054E+01 -0.48784441166E+01  0.17043670733E+02  0.72461571109E+02  0.70000001062E+02 0.  0.
        -12    1    1    2    0    0  0.60326785054E+01  0.48784441166E+01 -0.17043670733E+02  0.18726428891E+02  0.00000000000E+00 0.  1.
         11    1    3    3    0    0  0.15304486388E+02  0.27847153270E+01  0.20341782279E+02  0.25608007529E+02  0.51100000000E-03 0. -1.
        -11    1    3    3    0    0  0.44276657626E+01  0.12436169451E+02  0.30899463801E+01  0.13557665862E+02  0.51100000000E-03 0.  1.
        -12    1    3    3    0    0 -0.25764830656E+02 -0.20099328895E+02 -0.63880579262E+01  0.33295897718E+02  0.00000000000E+00 0.  1.
</event>
<event>
 7    1  0.3611369E-013  0.7246157E+02  0.7816164E-02  0.1226708E+00
        -11   -1    0    0    0    0  0.00000000000E+00  0.00000000000E+00  0.45593999997E+02  0.45594000000E+02  0.51100000000E-03 0.  1.
         11   -1    0    0    0    0 -0.00000000000E+00 -0.00000000000E+00 -0.45593999997E+02  0.45594000000E+02  0.51100000000E-03 0. -1.
    9900012    2    1    2    0    0 -0.13753671612E+02 -0.37529505912E+01  0.12142119669E+02  0.72461569721E+02  0.69999999253E+02 0.  0.
        -12    1    1    2    0    0  0.13753671612E+02  0.37529505912E+01 -0.12142119669E+02  0.18726430279E+02  0.00000000000E+00 0.  1.
         11    1    3    3    0    0  0.86653919858E+00 -0.99040194006E+01 -0.10527869147E+02  0.14480211308E+02  0.51100000000E-03 0. -1.
        -11    1    3    3    0    0  0.11473186858E+02 -0.14025130275E+02  0.29170142781E+00  0.18122455294E+02  0.51100000000E-03 0.  1.
        -12    1    3    3    0    0 -0.26093397669E+02  0.20176199085E+02  0.22378287388E+02  0.39858903119E+02  0.00000000000E+00 0.  1.
</event>
<event>
 7    1  0.3611369E-013  0.7246149E+02  0.7816164E-02  0.1226708E+00
        -11   -1    0    0    0    0  0.00000000000E+00  0.00000000000E+00  0.45593999997E+02  0.45594000000E+02  0.51100000000E-03 0.  1.
         11   -1    0    0    0    0 -0.00000000000E+00 -0.00000000000E+00 -0.45593999997E+02  0.45594000000E+02  0.51100000000E-03 0. -1.
    9900012    2    1    2    0    0 -0.18213661554E+02 -0.12259668950E+01  0.41763460977E+01  0.72461485942E+02  0.69999890115E+02 0.  0.
        -12    1    1    2    0    0  0.18213661554E+02  0.12259668950E+01 -0.41763460977E+01  0.18726514058E+02  0.00000000000E+00 0.  1.
         11    1    3    3    0    0 -0.12776997607E+01  0.10240260941E+02 -0.13444583559E+02  0.16948518760E+02  0.51100000000E-03 0. -1.
        -11    1    3    3    0    0 -0.22735267692E+02  0.11932983845E+02  0.18076665337E+02  0.31401502041E+02  0.51100000000E-03 0.  1.
         12    1    3    3    0    0  0.57993058988E+01 -0.23399211681E+02 -0.45573567956E+00  0.24111465140E+02  0.00000000000E+00 0. -1.
</event>
<event>
 7    1  0.3611369E-013  0.7246156E+02  0.7816164E-02  0.1226708E+00
        -11   -1    0    0    0    0  0.00000000000E+00  0.00000000000E+00  0.45593999997E+02  0.45594000000E+02  0.51100000000E-03 0.  1.
         11   -1    0    0    0    0 -0.00000000000E+00 -0.00000000000E+00 -0.45593999997E+02  0.45594000000E+02  0.51100000000E-03 0. -1.
    9900012    2    1    2    0    0 -0.34689781507E+01  0.10876694025E+02 -0.14843961556E+02  0.72461562085E+02  0.69999989306E+02 0.  0.
        -12    1    1    2    0    0  0.34689781507E+01 -0.10876694025E+02  0.14843961556E+02  0.18726437915E+02  0.00000000000E+00 0.  1.
         11    1    3    3    0    0 -0.11432837091E+02 -0.69771727228E-01 -0.48231976484E+01  0.12408781884E+02  0.51100000000E-03 0. -1.
        -11    1    3    3    0    0  0.10419146629E+02  0.24581160723E+02  0.15603254352E+02  0.30923350815E+02  0.51100000000E-03 0.  1.
         12    1    3    3    0    0 -0.24552876890E+01 -0.13634694971E+02 -0.25624018260E+02  0.29129429386E+02  0.00000000000E+00 0. -1.
</event>
<event>
 7    1  0.3611369E-013  0.7246156E+02  0.7816164E-02  0.1226708E+00
        -11   -1    0    0    0    0  0.00000000000E+00  0.00000000000E+00  0.45593999997E+02  0.45594000000E+02  0.51100000000E-03 0.  1.
         11   -1    0    0    0    0 -0.00000000000E+00 -0.00000000000E+00 -0.45593999997E+02  0.45594000000E+02  0.51100000000E-03 0. -1.
    9900012    2    1    2    0    0 -0.75139044396E+01  0.66591531466E+01 -0.15807482446E+02  0.72461559285E+02  0.69999985658E+02 0.  0.
        -12    1    1    2    0    0  0.75139044396E+01 -0.66591531466E+01  0.15807482446E+02  0.18726440715E+02  0.00000000000E+00 0.  1.
         11    1    3    3    0    0 -0.96330997440E+00  0.31206011715E+01 -0.15357274834E+02  0.15700700888E+02  0.51100000000E-03 0. -1.
        -11    1    3    3    0    0  0.48722696585E+01  0.27981402006E+02  0.59795151231E+01  0.29025031803E+02  0.51100000000E-03 0.  1.
         12    1    3    3    0    0 -0.11422864124E+02 -0.24442850030E+02 -0.64297227357E+01  0.27735826594E+02  0.00000000000E+00 0. -1.
</event>
<event>
 7    1  0.3754596E-013  0.7246154E+02  0.7816164E-02  0.1226708E+00
        -11   -1    0    0    0    0  0.00000000000E+00  0.00000000000E+00  0.45593999997E+02  0.45594000000E+02  0.51100000000E-03 0.  1.
         11   -1    0    0    0    0 -0.00000000000E+00 -0.00000000000E+00 -0.45593999997E+02  0.45594000000E+02  0.51100000000E-03 0. -1.
    9900012    2    1    2    0    0  0.12496592876E+01 -0.18007557915E+02 -0.49846394305E+01  0.72461536889E+02  0.69999956484E+02 0.  0.
        -12    1    1    2    0    0 -0.12496592876E+01  0.18007557915E+02  0.49846394305E+01  0.18726463111E+02  0.00000000000E+00 0.  1.
         11    1    3    3    0    0 -0.32107879116E+01  0.15545606055E+02 -0.14913479890E+02  0.21780424912E+02  0.51100000000E-03 0. -1.
        -11    1    3    3    0    0  0.17646839715E+01 -0.13288330904E+02 -0.13882298400E+02  0.19297980642E+02  0.51100000000E-03 0.  1.
        -12    1    3    3    0    0  0.26957632277E+01 -0.20264833066E+02  0.23811138860E+02  0.31383131335E+02  0.00000000000E+00 0.  1.
</event>
<event>
 7    1  0.3611369E-013  0.7246157E+02  0.7816164E-02  0.1226708E+00
        -11   -1    0    0    0    0  0.00000000000E+00  0.00000000000E+00  0.45593999997E+02  0.45594000000E+02  0.51100000000E-03 0.  1.
         11   -1    0    0    0    0 -0.00000000000E+00 -0.00000000000E+00 -0.45593999997E+02  0.45594000000E+02  0.51100000000E-03 0. -1.
    9900012    2    1    2    0    0 -0.17921636400E+02  0.39643875511E+01 -0.37118546033E+01  0.72461567225E+02  0.69999996001E+02 0.  0.
        -12    1    1    2    0    0  0.17921636400E+02 -0.39643875511E+01  0.37118546033E+01  0.18726432775E+02  0.00000000000E+00 0.  1.
         11    1    3    3    0    0 -0.43770069289E+01  0.34459426436E+02 -0.97618767070E+01  0.36081913711E+02  0.51100000000E-03 0. -1.
        -11    1    3    3    0    0 -0.75465859009E+00 -0.88287776985E+01  0.68612966814E+01  0.11206882602E+02  0.51100000000E-03 0.  1.
        -12    1    3    3    0    0 -0.12789970881E+02 -0.21666261187E+02 -0.81127457781E+00  0.25172770912E+02  0.00000000000E+00 0.  1.
</event>
<event>
 7    1  0.3611369E-013  0.7246140E+02  0.7816164E-02  0.1226708E+00
        -11   -1    0    0    0    0  0.00000000000E+00  0.00000000000E+00  0.45593999997E+02  0.45594000000E+02  0.51100000000E-03 0. -1.
         11   -1    0    0    0    0 -0.00000000000E+00 -0.00000000000E+00 -0.45593999997E+02  0.45594000000E+02  0.51100000000E-03 0.  1.
    9900012    2    1    2    0    0 -0.13457458899E+02 -0.12937765971E+02 -0.14821287933E+01  0.72461396088E+02  0.69999773063E+02 0.  0.
        -12    1    1    2    0    0  0.13457458899E+02  0.12937765971E+02  0.14821287933E+01  0.18726603912E+02  0.00000000000E+00 0.  1.
         11    1    3    3    0    0  0.10407571518E+02 -0.22485492706E+02  0.70550760555E+00  0.24787348958E+02  0.51100000000E-03 0. -1.
        -11    1    3    3    0    0  0.65857265196E+01 -0.64693785619E+01 -0.86673733433E+01  0.12662859618E+02  0.51100000000E-03 0.  1.
        -12    1    3    3    0    0 -0.30450756936E+02  0.16017105297E+02  0.64797369445E+01  0.35011187511E+02  0.00000000000E+00 0.  1.
</event>
<event>
 7    1  0.3611369E-013  0.7246161E+02  0.7816164E-02  0.1226708E+00
        -11   -1    0    0    0    0  0.00000000000E+00  0.00000000000E+00  0.45593999997E+02  0.45594000000E+02  0.51100000000E-03 0. -1.
         11   -1    0    0    0    0 -0.00000000000E+00 -0.00000000000E+00 -0.45593999997E+02  0.45594000000E+02  0.51100000000E-03 0.  1.
    9900012    2    1    2    0    0 -0.14564628795E+02 -0.11760879002E+02 -0.48065715060E+00  0.72461609047E+02  0.70000050482E+02 0.  0.
        -12    1    1    2    0    0  0.14564628795E+02  0.11760879002E+02  0.48065715060E+00  0.18726390953E+02  0.00000000000E+00 0.  1.
         11    1    3    3    0    0 -0.47947296082E+01 -0.16842284901E+02 -0.19579289693E+02  0.26267862072E+02  0.51100000000E-03 0. -1.
        -11    1    3    3    0    0  0.21398987400E+01  0.13812442463E+02 -0.74319038696E+01  0.15830222007E+02  0.51100000000E-03 0.  1.
         12    1    3    3    0    0 -0.11909797927E+02 -0.87310365643E+01  0.26530536412E+02  0.30363524967E+02  0.00000000000E+00 0. -1.
</event>
<event>
 7    1  0.3611369E-013  0.7246158E+02  0.7816164E-02  0.1226708E+00
        -11   -1    0    0    0    0  0.00000000000E+00  0.00000000000E+00  0.45593999997E+02  0.45594000000E+02  0.51100000000E-03 0.  1.
         11   -1    0    0    0    0 -0.00000000000E+00 -0.00000000000E+00 -0.45593999997E+02  0.45594000000E+02  0.51100000000E-03 0. -1.
    9900012    2    1    2    0    0  0.10234713341E+02 -0.86445249398E+01 -0.13084398966E+02  0.72461583768E+02  0.70000017552E+02 0.  0.
        -12    1    1    2    0    0 -0.10234713341E+02  0.86445249398E+01  0.13084398966E+02  0.18726416232E+02  0.00000000000E+00 0.  1.
         11    1    3    3    0    0 -0.86923635572E+01  0.16719089574E+01 -0.81196362792E+01  0.12011700851E+02  0.51100000000E-03 0. -1.
        -11    1    3    3    0    0  0.17757317868E+02 -0.32858381426E+02 -0.54397851616E-01  0.37349679077E+02  0.51100000000E-03 0.  1.
         12    1    3    3    0    0  0.11697590302E+01  0.22541947529E+02 -0.49103648352E+01  0.23100203839E+02  0.00000000000E+00 0. -1.
</event>
<event>
 7    1  0.3611369E-013  0.7246157E+02  0.7816164E-02  0.1226708E+00
        -11   -1    0    0    0    0  0.00000000000E+00  0.00000000000E+00  0.45593999997E+02  0.45594000000E+02  0.51100000000E-03 0. -1.
         11   -1    0    0    0    0 -0.00000000000E+00 -0.00000000000E+00 -0.45593999997E+02  0.45594000000E+02  0.51100000000E-03 0.  1.
    9900012    2    1    2    0    0 -0.15871668346E+02 -0.63390816878E+01  0.76541146612E+01  0.72461567238E+02  0.69999996019E+02 0.  0.
        -12    1    1    2    0    0  0.15871668346E+02  0.63390816878E+01 -0.76541146612E+01  0.18726432762E+02  0.00000000000E+00 0.  1.
         11    1    3    3    0    0 -0.28749665688E+02 -0.20834579008E+02 -0.13973148817E+02  0.38155888769E+02  0.51100000000E-03 0. -1.
        -11    1    3    3    0    0 -0.38163033653E+00 -0.33361275170E+01  0.68230600495E+01  0.76045734413E+01  0.51100000000E-03 0.  1.
        -12    1    3    3    0    0  0.13259627678E+02  0.17831624838E+02  0.14804203429E+02  0.26701105027E+02  0.00000000000E+00 0.  1.
</event>
<event>
 7    1  0.3611369E-013  0.7246149E+02  0.7816164E-02  0.1226708E+00
        -11   -1    0    0    0    0  0.00000000000E+00  0.00000000000E+00  0.45593999997E+02  0.45594000000E+02  0.51100000000E-03 0.  1.
         11   -1    0    0    0    0 -0.00000000000E+00 -0.00000000000E+00 -0.45593999997E+02  0.45594000000E+02  0.51100000000E-03 0. -1.
    9900012    2    1    2    0    0  0.18610717932E+02 -0.20749297322E+01  0.13457134291E+00  0.72461487650E+02  0.69999892340E+02 0.  0.
        -12    1    1    2    0    0 -0.18610717932E+02  0.20749297322E+01 -0.13457134291E+00  0.18726512350E+02  0.00000000000E+00 0.  1.
         11    1    3    3    0    0  0.25323356480E+02 -0.82828054756E+01  0.16007238351E+02  0.31082292867E+02  0.51100000000E-03 0. -1.
        -11    1    3    3    0    0  0.31275738331E+01 -0.33797532356E+01  0.10598218988E+02  0.11555375199E+02  0.51100000000E-03 0.  1.
        -12    1    3    3    0    0 -0.98402123806E+01  0.95876289790E+01 -0.26470885996E+02  0.29823819584E+02  0.00000000000E+00 0.  1.
</event>
<event>
 7    1  0.3611369E-013  0.7246153E+02  0.7816164E-02  0.1226708E+00
        -11   -1    0    0    0    0  0.00000000000E+00  0.00000000000E+00  0.45593999997E+02  0.45594000000E+02  0.51100000000E-03 0. -1.
         11   -1    0    0    0    0 -0.00000000000E+00 -0.00000000000E+00 -0.45593999997E+02  0.45594000000E+02  0.51100000000E-03 0.  1.
    9900012    2    1    2    0    0 -0.42156208568E+01  0.16982967337E+02 -0.66699365037E+01  0.72461529651E+02  0.69999947054E+02 0.  0.
        -12    1    1    2    0    0  0.42156208568E+01 -0.16982967337E+02  0.66699365037E+01  0.18726470349E+02  0.00000000000E+00 0.  1.
         11    1    3    3    0    0 -0.60234848646E+01 -0.56963429877E+01  0.43828981298E+01  0.93776590695E+01  0.51100000000E-03 0. -1.
        -11    1    3    3    0    0  0.13717732294E+02  0.18509402504E+02 -0.31518362489E+02  0.39040765036E+02  0.51100000000E-03 0.  1.
         12    1    3    3    0    0 -0.11909868287E+02  0.41699078210E+01  0.20465527856E+02  0.24043105545E+02  0.00000000000E+00 0. -1.
</event>
<event>
 7    1  0.3611369E-013  0.7246158E+02  0.7816164E-02  0.1226708E+00
        -11   -1    0    0    0    0  0.00000000000E+00  0.00000000000E+00  0.45593999997E+02  0.45594000000E+02  0.51100000000E-03 0.  1.
         11   -1    0    0    0    0 -0.00000000000E+00 -0.00000000000E+00 -0.45593999997E+02  0.45594000000E+02  0.51100000000E-03 0. -1.
    9900012    2    1    2    0    0  0.23326878034E+01 -0.18152401936E+02 -0.39658273219E+01  0.72461577096E+02  0.70000008860E+02 0.  0.
        -12    1    1    2    0    0 -0.23326878034E+01  0.18152401936E+02  0.39658273219E+01  0.18726422904E+02  0.00000000000E+00 0.  1.
         11    1    3    3    0    0  0.20780445970E+02 -0.21031543232E+02 -0.15655766153E+02  0.33455279995E+02  0.51100000000E-03 0. -1.
        -11    1    3    3    0    0  0.62309110242E+01 -0.79562494641E+01  0.16241227216E+01  0.10235425375E+02  0.51100000000E-03 0.  1.
        -12    1    3    3    0    0 -0.24678669191E+02  0.10835390760E+02  0.10065816109E+02  0.28770871726E+02  0.00000000000E+00 0.  1.
</event>
<event>
 7    1  0.3611369E-013  0.7246175E+02  0.7816164E-02  0.1226708E+00
        -11   -1    0    0    0    0  0.00000000000E+00  0.00000000000E+00  0.45593999997E+02  0.45594000000E+02  0.51100000000E-03 0.  1.
         11   -1    0    0    0    0 -0.00000000000E+00 -0.00000000000E+00 -0.45593999997E+02  0.45594000000E+02  0.51100000000E-03 0. -1.
    9900012    2    1    2    0    0 -0.81563301115E+01  0.49581542012E+00 -0.16849361360E+02  0.72461747517E+02  0.70000230865E+02 0.  0.
        -12    1    1    2    0    0  0.81563301115E+01 -0.49581542012E+00  0.16849361360E+02  0.18726252483E+02  0.00000000000E+00 0.  1.
         11    1    3    3    0    0  0.16200183778E+02 -0.15102172436E+01  0.85083369154E+01  0.18360787235E+02  0.51100000000E-03 0. -1.
        -11    1    3    3    0    0 -0.18400884596E+01  0.18084721756E+02 -0.17748552463E+02  0.25405790704E+02  0.51100000000E-03 0.  1.
        -12    1    3    3    0    0 -0.22516425430E+02 -0.16078689092E+02 -0.76091458126E+01  0.28695169577E+02  0.00000000000E+00 0.  1.
</event>
<event>
 7    1  0.3611369E-013  0.7246151E+02  0.7816164E-02  0.1226708E+00
        -11   -1    0    0    0    0  0.00000000000E+00  0.00000000000E+00  0.45593999997E+02  0.45594000000E+02  0.51100000000E-03 0. -1.
         11   -1    0    0    0    0 -0.00000000000E+00 -0.00000000000E+00 -0.45593999997E+02  0.45594000000E+02  0.51100000000E-03 0.  1.
    9900012    2    1    2    0    0 -0.13142874464E+02 -0.89173381643E+01 -0.99210559292E+01  0.72461510210E+02  0.69999921729E+02 0.  0.
        -12    1    1    2    0    0  0.13142874464E+02  0.89173381643E+01  0.99210559292E+01  0.18726489790E+02  0.00000000000E+00 0.  1.
         11    1    3    3    0    0 -0.12604688269E+02  0.16401126698E+02 -0.92159387035E+00  0.20705662483E+02  0.51100000000E-03 0. -1.
        -11    1    3    3    0    0  0.60242238749E+01 -0.47425346268E+01 -0.24174037286E+02  0.25360737113E+02  0.51100000000E-03 0.  1.
        -12    1    3    3    0    0 -0.65624100692E+01 -0.20575930236E+02  0.15174575227E+02  0.26395110614E+02  0.00000000000E+00 0.  1.
</event>
<event>
 7    1  0.3611369E-013  0.7246156E+02  0.7816164E-02  0.1226708E+00
        -11   -1    0    0    0    0  0.00000000000E+00  0.00000000000E+00  0.45593999997E+02  0.45594000000E+02  0.51100000000E-03 0.  1.
         11   -1    0    0    0    0 -0.00000000000E+00 -0.00000000000E+00 -0.45593999997E+02  0.45594000000E+02  0.51100000000E-03 0. -1.
    9900012    2    1    2    0    0  0.36597944259E+01 -0.11626505098E+01 -0.18328492786E+02  0.72461561490E+02  0.69999988531E+02 0.  0.
        -12    1    1    2    0    0 -0.36597944259E+01  0.11626505098E+01  0.18328492786E+02  0.18726438510E+02  0.00000000000E+00 0.  1.
         11    1    3    3    0    0 -0.34276702568E+01  0.82239421630E+01 -0.11184530651E+02  0.14299506084E+02  0.51100000000E-03 0. -1.
        -11    1    3    3    0    0 -0.22816682438E+02  0.14385718086E+01  0.61770101357E+01  0.23681763887E+02  0.51100000000E-03 0.  1.
        -12    1    3    3    0    0  0.29904147121E+02 -0.10825164481E+02 -0.13320972271E+02  0.34480291520E+02  0.00000000000E+00 0.  1.
</event>
<event>
 7    1  0.3611369E-013  0.7246157E+02  0.7816164E-02  0.1226708E+00
        -11   -1    0    0    0    0  0.00000000000E+00  0.00000000000E+00  0.45593999997E+02  0.45594000000E+02  0.51100000000E-03 0.  1.
         11   -1    0    0    0    0 -0.00000000000E+00 -0.00000000000E+00 -0.45593999997E+02  0.45594000000E+02  0.51100000000E-03 0. -1.
    9900012    2    1    2    0    0  0.14594720071E+02  0.86242846104E+01  0.79558128346E+01  0.72461572235E+02  0.70000002528E+02 0.  0.
        -12    1    1    2    0    0 -0.14594720071E+02 -0.86242846104E+01 -0.79558128346E+01  0.18726427765E+02  0.00000000000E+00 0.  1.
         11    1    3    3    0    0  0.10968024155E+02 -0.98242834519E+01 -0.16276108200E+02  0.21948252723E+02  0.51100000000E-03 0. -1.
        -11    1    3    3    0    0 -0.13948922106E+02 -0.37585865740E+01  0.21590259043E+01  0.14606874890E+02  0.51100000000E-03 0.  1.
         12    1    3    3    0    0  0.17575618022E+02  0.22207154636E+02  0.22072895131E+02  0.35906444621E+02  0.00000000000E+00 0. -1.
</event>
<event>
 7    1  0.3611369E-013  0.7246156E+02  0.7816164E-02  0.1226708E+00
        -11   -1    0    0    0    0  0.00000000000E+00  0.00000000000E+00  0.45593999997E+02  0.45594000000E+02  0.51100000000E-03 0. -1.
         11   -1    0    0    0    0 -0.00000000000E+00 -0.00000000000E+00 -0.45593999997E+02  0.45594000000E+02  0.51100000000E-03 0.  1.
    9900012    2    1    2    0    0 -0.43405055365E+01  0.78796963804E+01  0.16424066464E+02  0.72461559800E+02  0.69999986329E+02 0.  0.
        -12    1    1    2    0    0  0.43405055365E+01 -0.78796963804E+01 -0.16424066464E+02  0.18726440200E+02  0.00000000000E+00 0.  1.
         11    1    3    3    0    0 -0.12152453186E+01  0.75498800697E+00  0.58680106485E+01  0.60398987829E+01  0.51100000000E-03 0. -1.
        -11    1    3    3    0    0  0.11862850014E+02  0.25093797463E+02 -0.15181674326E+02  0.31637147741E+02  0.51100000000E-03 0.  1.
         12    1    3    3    0    0 -0.14988110232E+02 -0.17969089090E+02  0.25737730141E+02  0.34784513276E+02  0.00000000000E+00 0. -1.
</event>
<event>
 7    1  0.3611369E-013  0.7246170E+02  0.7816164E-02  0.1226708E+00
        -11   -1    0    0    0    0  0.00000000000E+00  0.00000000000E+00  0.45593999997E+02  0.45594000000E+02  0.51100000000E-03 0.  1.
         11   -1    0    0    0    0 -0.00000000000E+00 -0.00000000000E+00 -0.45593999997E+02  0.45594000000E+02  0.51100000000E-03 0. -1.
    9900012    2    1    2    0    0 -0.47173238744E+01 -0.54138088382E+01 -0.17294853391E+02  0.72461696988E+02  0.70000165042E+02 0.  0.
        -12    1    1    2    0    0  0.47173238744E+01  0.54138088382E+01  0.17294853391E+02  0.18726303012E+02  0.00000000000E+00 0.  1.
         11    1    3    3    0    0 -0.12278426687E+02 -0.44436660961E+00  0.25951937801E+00  0.12289205595E+02  0.51100000000E-03 0. -1.
        -11    1    3    3    0    0 -0.17208707653E+02  0.16141524277E+02 -0.13995527006E+02  0.27432885403E+02  0.51100000000E-03 0.  1.
         12    1    3    3    0    0  0.24769810465E+02 -0.21110966506E+02 -0.35588457630E+01  0.32739605991E+02  0.00000000000E+00 0. -1.
</event>
<event>
 7    1  0.3611369E-013  0.7246152E+02  0.7816164E-02  0.1226708E+00
        -11   -1    0    0    0    0  0.00000000000E+00  0.00000000000E+00  0.45593999997E+02  0.45594000000E+02  0.51100000000E-03 0. -1.
         11   -1    0    0    0    0 -0.00000000000E+00 -0.00000000000E+00 -0.45593999997E+02  0.45594000000E+02  0.51100000000E-03 0.  1.
    9900012    2    1    2    0    0 -0.93490069113E+00  0.28029977246E+00  0.18701032824E+02  0.72461515120E+02  0.69999928125E+02 0.  0.
        -12    1    1    2    0    0  0.93490069113E+00 -0.28029977246E+00 -0.18701032824E+02  0.18726484880E+02  0.00000000000E+00 0.  1.
         11    1    3    3    0    0 -0.51963551852E+01 -0.29644720049E+02  0.15707738057E+02  0.33949146810E+02  0.51100000000E-03 0. -1.
        -11    1    3    3    0    0  0.87153393261E+01  0.15457817301E+01 -0.26440658548E+01  0.92378387749E+01  0.51100000000E-03 0.  1.
        -12    1    3    3    0    0 -0.44538848321E+01  0.28379238091E+02  0.56373606221E+01  0.29274529535E+02  0.00000000000E+00 0.  1.
</event>
