<event>
 7    1  0.6293596E-013  0.5930196E+02  0.7816164E-02  0.1266605E+00
        -11   -1    0    0    0    0  0.00000000000E+00  0.00000000000E+00  0.45593999997E+02  0.45594000000E+02  0.51100000000E-03 0. -1.
         11   -1    0    0    0    0 -0.00000000000E+00 -0.00000000000E+00 -0.45593999997E+02  0.45594000000E+02  0.51100000000E-03 0.  1.
    9900012    2    1    2    0    0  0.29804736973E+02 -0.16221504990E+01  0.11214526031E+02  0.59301963677E+02  0.50000035836E+02 0.  0.
        -12    1    1    2    0    0 -0.29804736973E+02  0.16221504990E+01 -0.11214526031E+02  0.31886036323E+02  0.00000000000E+00 0.  1.
         11    1    3    3    0    0  0.88237122929E+01  0.23082839193E+02  0.10215081182E+02  0.26739918617E+02  0.51100000000E-03 0. -1.
        -11    1    3    3    0    0  0.60583942787E+01 -0.80640471816E+01  0.15427302864E+01  0.10203578548E+02  0.51100000000E-03 0.  1.
         12    1    3    3    0    0  0.14922630402E+02 -0.16640942510E+02 -0.54328543768E+00  0.22358466512E+02  0.00000000000E+00 0. -1.
</event>
<event>
 7    1  0.6293596E-013  0.5930191E+02  0.7816164E-02  0.1266605E+00
        -11   -1    0    0    0    0  0.00000000000E+00  0.00000000000E+00  0.45593999997E+02  0.45594000000E+02  0.51100000000E-03 0.  1.
         11   -1    0    0    0    0 -0.00000000000E+00 -0.00000000000E+00 -0.45593999997E+02  0.45594000000E+02  0.51100000000E-03 0. -1.
    9900012    2    1    2    0    0  0.22510792033E+02  0.11279482498E+01 -0.22554705946E+02  0.59301909216E+02  0.49999936511E+02 0.  0.
        -12    1    1    2    0    0 -0.22510792033E+02 -0.11279482498E+01  0.22554705946E+02  0.31886090784E+02  0.00000000000E+00 0.  1.
         11    1    3    3    0    0  0.27332266754E+02 -0.41259505366E+01  0.36083235535E+01  0.27876446561E+02  0.51100000000E-03 0. -1.
        -11    1    3    3    0    0 -0.49138684496E+01  0.72284192541E+01 -0.48011447485E+01  0.99723186476E+01  0.51100000000E-03 0.  1.
         12    1    3    3    0    0  0.92393728691E-01 -0.19745204677E+01 -0.21361884750E+02  0.21453144007E+02  0.00000000000E+00 0. -1.
</event>
<event>
 7    1  0.6293596E-013  0.5930194E+02  0.7816164E-02  0.1266605E+00
        -11   -1    0    0    0    0  0.00000000000E+00  0.00000000000E+00  0.45593999997E+02  0.45594000000E+02  0.51100000000E-03 0. -1.
         11   -1    0    0    0    0 -0.00000000000E+00 -0.00000000000E+00 -0.45593999997E+02  0.45594000000E+02  0.51100000000E-03 0.  1.
    9900012    2    1    2    0    0 -0.14903085262E+02  0.26425683846E+02  0.98133564459E+01  0.59301942204E+02  0.49999996673E+02 0.  0.
        -12    1    1    2    0    0  0.14903085262E+02 -0.26425683846E+02 -0.98133564459E+01  0.31886057796E+02  0.00000000000E+00 0.  1.
         11    1    3    3    0    0  0.11687925841E+01  0.14540828962E+02  0.70755102426E+01  0.16213100519E+02  0.51100000000E-03 0. -1.
        -11    1    3    3    0    0 -0.24819458624E+02 -0.24412841188E+01 -0.34958343495E+01  0.25183054870E+02  0.51100000000E-03 0.  1.
        -12    1    3    3    0    0  0.87475807776E+01  0.14326139003E+02  0.62336805528E+01  0.17905786814E+02  0.00000000000E+00 0.  1.
</event>
<event>
 7    1  0.6293596E-013  0.5930195E+02  0.7816164E-02  0.1266605E+00
        -11   -1    0    0    0    0  0.00000000000E+00  0.00000000000E+00  0.45593999997E+02  0.45594000000E+02  0.51100000000E-03 0.  1.
         11   -1    0    0    0    0 -0.00000000000E+00 -0.00000000000E+00 -0.45593999997E+02  0.45594000000E+02  0.51100000000E-03 0. -1.
    9900012    2    1    2    0    0 -0.17768069032E+02  0.35783475232E+01 -0.26233787398E+02  0.59301945848E+02  0.50000003320E+02 0.  0.
        -12    1    1    2    0    0  0.17768069032E+02 -0.35783475232E+01  0.26233787398E+02  0.31886054152E+02  0.00000000000E+00 0.  1.
         11    1    3    3    0    0  0.35958870072E+01  0.12708513653E+02 -0.16212334120E+02  0.20911157321E+02  0.51100000000E-03 0. -1.
        -11    1    3    3    0    0 -0.24746815063E+02 -0.14833579320E+02 -0.12320292341E+02  0.31372432721E+02  0.51100000000E-03 0.  1.
        -12    1    3    3    0    0  0.33828590233E+01  0.57034131898E+01  0.22988390633E+01  0.70183558063E+01  0.00000000000E+00 0.  1.
</event>
<event>
 7    1  0.6293596E-013  0.5930198E+02  0.7816164E-02  0.1266605E+00
        -11   -1    0    0    0    0  0.00000000000E+00  0.00000000000E+00  0.45593999997E+02  0.45594000000E+02  0.51100000000E-03 0.  1.
         11   -1    0    0    0    0 -0.00000000000E+00 -0.00000000000E+00 -0.45593999997E+02  0.45594000000E+02  0.51100000000E-03 0. -1.
    9900012    2    1    2    0    0  0.14102792607E+02 -0.23055579322E+02 -0.16919501166E+02  0.59301983991E+02  0.50000072884E+02 0.  0.
        -12    1    1    2    0    0 -0.14102792607E+02  0.23055579322E+02  0.16919501166E+02  0.31886016009E+02  0.00000000000E+00 0.  1.
         11    1    3    3    0    0  0.26428608417E+01  0.57590821781E+01 -0.26216738430E+01  0.68574714701E+01  0.51100000000E-03 0. -1.
        -11    1    3    3    0    0  0.68580008758E+01 -0.33484570827E+02 -0.23257647867E+02  0.41342071114E+02  0.51100000000E-03 0.  1.
        -12    1    3    3    0    0  0.46019308896E+01  0.46699093267E+01  0.89598205432E+01  0.11102441407E+02  0.00000000000E+00 0.  1.
</event>
<event>
 7    1  0.6293596E-013  0.5930194E+02  0.7816164E-02  0.1266605E+00
        -11   -1    0    0    0    0  0.00000000000E+00  0.00000000000E+00  0.45593999997E+02  0.45594000000E+02  0.51100000000E-03 0. -1.
         11   -1    0    0    0    0 -0.00000000000E+00 -0.00000000000E+00 -0.45593999997E+02  0.45594000000E+02  0.51100000000E-03 0.  1.
    9900012    2    1    2    0    0 -0.24743452716E+02 -0.18294598950E+02  0.83540248797E+01  0.59301944510E+02  0.50000000879E+02 0.  0.
        -12    1    1    2    0    0  0.24743452716E+02  0.18294598950E+02 -0.83540248797E+01  0.31886055490E+02  0.00000000000E+00 0.  1.
         11    1    3    3    0    0 -0.94798326937E+01  0.13548706030E+02 -0.21457737449E+01  0.16674501738E+02  0.51100000000E-03 0. -1.
        -11    1    3    3    0    0 -0.61136874463E+01 -0.21680862196E+02  0.16267567285E+02  0.27786160321E+02  0.51100000000E-03 0.  1.
         12    1    3    3    0    0 -0.91499325758E+01 -0.10162442784E+02 -0.57677686602E+01  0.14841282451E+02  0.00000000000E+00 0. -1.
</event>
<event>
 7    1  0.6293596E-013  0.5930185E+02  0.7816164E-02  0.1266605E+00
        -11   -1    0    0    0    0  0.00000000000E+00  0.00000000000E+00  0.45593999997E+02  0.45594000000E+02  0.51100000000E-03 0. -1.
         11   -1    0    0    0    0 -0.00000000000E+00 -0.00000000000E+00 -0.45593999997E+02  0.45594000000E+02  0.51100000000E-03 0.  1.
    9900012    2    1    2    0    0 -0.26670881941E+02  0.95719267538E+01  0.14620834528E+02  0.59301850537E+02  0.49999829496E+02 0.  0.
        -12    1    1    2    0    0  0.26670881941E+02 -0.95719267538E+01 -0.14620834528E+02  0.31886149463E+02  0.00000000000E+00 0.  1.
         11    1    3    3    0    0 -0.95434584295E+01 -0.10415372026E+01  0.11452738625E+02  0.14944150053E+02  0.51100000000E-03 0. -1.
        -11    1    3    3    0    0 -0.10611928322E+02  0.44455647127E+00 -0.17470146847E+02  0.20445456324E+02  0.51100000000E-03 0.  1.
         12    1    3    3    0    0 -0.65154951889E+01  0.10168907485E+02  0.20638242749E+02  0.23912244160E+02  0.00000000000E+00 0. -1.
</event>
<event>
 7    1  0.6293596E-013  0.5930210E+02  0.7816164E-02  0.1266604E+00
        -11   -1    0    0    0    0  0.00000000000E+00  0.00000000000E+00  0.45593999997E+02  0.45594000000E+02  0.51100000000E-03 0.  1.
         11   -1    0    0    0    0 -0.00000000000E+00 -0.00000000000E+00 -0.45593999997E+02  0.45594000000E+02  0.51100000000E-03 0. -1.
    9900012    2    1    2    0    0  0.20969592330E+02  0.23884551534E+02  0.25524526954E+01  0.59302099993E+02  0.50000284443E+02 0.  0.
        -12    1    1    2    0    0 -0.20969592330E+02 -0.23884551534E+02 -0.25524526954E+01  0.31885900007E+02  0.00000000000E+00 0.  1.
         11    1    3    3    0    0  0.19943415687E+02 -0.41878822727E+01 -0.11804910756E+02  0.23550671018E+02  0.51100000000E-03 0. -1.
        -11    1    3    3    0    0  0.51528528005E+01  0.37991895166E+01  0.81420297677E+01  0.10357527792E+02  0.51100000000E-03 0.  1.
         12    1    3    3    0    0 -0.41266761576E+01  0.24273244290E+02  0.62153336836E+01  0.25393901183E+02  0.00000000000E+00 0. -1.
</event>
<event>
 7    1  0.6293596E-013  0.5930192E+02  0.7816164E-02  0.1266605E+00
        -11   -1    0    0    0    0  0.00000000000E+00  0.00000000000E+00  0.45593999997E+02  0.45594000000E+02  0.51100000000E-03 0.  1.
         11   -1    0    0    0    0 -0.00000000000E+00 -0.00000000000E+00 -0.45593999997E+02  0.45594000000E+02  0.51100000000E-03 0. -1.
    9900012    2    1    2    0    0  0.42132853647E+00 -0.31854380123E+02 -0.13576540154E+01  0.59301917218E+02  0.49999951106E+02 0.  0.
        -12    1    1    2    0    0 -0.42132853647E+00  0.31854380123E+02  0.13576540154E+01  0.31886082782E+02  0.00000000000E+00 0.  1.
         11    1    3    3    0    0 -0.34954254096E+01 -0.16581353350E+01 -0.16325784982E+02  0.16777922014E+02  0.51100000000E-03 0. -1.
        -11    1    3    3    0    0  0.88550858774E+01 -0.31845938658E+02  0.83300900490E+01  0.34087633467E+02  0.51100000000E-03 0.  1.
        -12    1    3    3    0    0 -0.49383319314E+01  0.16496938699E+01  0.66380409176E+01  0.84363617367E+01  0.00000000000E+00 0.  1.
</event>
<event>
 7    1  0.6293596E-013  0.5930194E+02  0.7816164E-02  0.1266605E+00
        -11   -1    0    0    0    0  0.00000000000E+00  0.00000000000E+00  0.45593999997E+02  0.45594000000E+02  0.51100000000E-03 0.  1.
         11   -1    0    0    0    0 -0.00000000000E+00 -0.00000000000E+00 -0.45593999997E+02  0.45594000000E+02  0.51100000000E-03 0. -1.
    9900012    2    1    2    0    0 -0.10151690293E+02 -0.18614219601E+02 -0.23815430510E+02  0.59301941643E+02  0.49999995651E+02 0.  0.
        -12    1    1    2    0    0  0.10151690293E+02  0.18614219601E+02  0.23815430510E+02  0.31886058357E+02  0.00000000000E+00 0.  1.
         11    1    3    3    0    0  0.61595398282E+01  0.11195940665E+02 -0.78051263212E+01  0.14973610634E+02  0.51100000000E-03 0. -1.
        -11    1    3    3    0    0 -0.26395329936E+01 -0.16126655204E+02  0.36542624603E+01  0.16744843292E+02  0.51100000000E-03 0.  1.
         12    1    3    3    0    0 -0.13671697127E+02 -0.13683505062E+02 -0.19664566649E+02  0.27583487717E+02  0.00000000000E+00 0. -1.
</event>
<event>
 7    1  0.6293596E-013  0.5930191E+02  0.7816164E-02  0.1266605E+00
        -11   -1    0    0    0    0  0.00000000000E+00  0.00000000000E+00  0.45593999997E+02  0.45594000000E+02  0.51100000000E-03 0. -1.
         11   -1    0    0    0    0 -0.00000000000E+00 -0.00000000000E+00 -0.45593999997E+02  0.45594000000E+02  0.51100000000E-03 0.  1.
    9900012    2    1    2    0    0  0.69832470139E+01 -0.29770675724E+02 -0.90367936709E+01  0.59301913508E+02  0.49999944339E+02 0.  0.
        -12    1    1    2    0    0 -0.69832470139E+01  0.29770675724E+02  0.90367936709E+01  0.31886086492E+02  0.00000000000E+00 0.  1.
         11    1    3    3    0    0 -0.44603554164E+01 -0.22597059457E+02  0.68370471391E+01  0.24026383007E+02  0.51100000000E-03 0. -1.
        -11    1    3    3    0    0  0.14461890299E+02  0.64812219888E+01 -0.14037888749E+02  0.21171084768E+02  0.51100000000E-03 0.  1.
         12    1    3    3    0    0 -0.30182878683E+01 -0.13654838256E+02 -0.18359520609E+01  0.14104445733E+02  0.00000000000E+00 0. -1.
</event>
<event>
 7    1  0.6293596E-013  0.5930194E+02  0.7816164E-02  0.1266605E+00
        -11   -1    0    0    0    0  0.00000000000E+00  0.00000000000E+00  0.45593999997E+02  0.45594000000E+02  0.51100000000E-03 0. -1.
         11   -1    0    0    0    0 -0.00000000000E+00 -0.00000000000E+00 -0.45593999997E+02  0.45594000000E+02  0.51100000000E-03 0.  1.
    9900012    2    1    2    0    0  0.11324048947E+02  0.28036485164E+02  0.10121379447E+02  0.59301938676E+02  0.49999990239E+02 0.  0.
        -12    1    1    2    0    0 -0.11324048947E+02 -0.28036485164E+02 -0.10121379447E+02  0.31886061324E+02  0.00000000000E+00 0.  1.
         11    1    3    3    0    0 -0.11409152318E+02 -0.26588679948E+01  0.51272409297E+01  0.12787765069E+02  0.51100000000E-03 0. -1.
        -11    1    3    3    0    0  0.25155161399E+02  0.13300408528E+02  0.53221182004E+01  0.28948367043E+02  0.51100000000E-03 0.  1.
         12    1    3    3    0    0 -0.24219601341E+01  0.17394944630E+02 -0.32797968349E+00  0.17565806564E+02  0.00000000000E+00 0. -1.
</event>
<event>
 7    1  0.6293596E-013  0.5930196E+02  0.7816164E-02  0.1266605E+00
        -11   -1    0    0    0    0  0.00000000000E+00  0.00000000000E+00  0.45593999997E+02  0.45594000000E+02  0.51100000000E-03 0. -1.
         11   -1    0    0    0    0 -0.00000000000E+00 -0.00000000000E+00 -0.45593999997E+02  0.45594000000E+02  0.51100000000E-03 0.  1.
    9900012    2    1    2    0    0 -0.52575093360E+01  0.28930070714E+02 -0.12334056849E+02  0.59301963020E+02  0.50000034638E+02 0.  0.
        -12    1    1    2    0    0  0.52575093360E+01 -0.28930070714E+02  0.12334056849E+02  0.31886036980E+02  0.00000000000E+00 0.  1.
         11    1    3    3    0    0  0.15575137168E+02  0.94261532020E+01 -0.10823758699E+02  0.21179967295E+02  0.51100000000E-03 0. -1.
        -11    1    3    3    0    0 -0.23511484843E+02  0.16588776068E+02 -0.85736724282E+01  0.30024744298E+02  0.51100000000E-03 0.  1.
         12    1    3    3    0    0  0.26788383392E+01  0.29151414433E+01  0.70633742780E+01  0.80972514270E+01  0.00000000000E+00 0. -1.
</event>
<event>
 7    1  0.6293596E-013  0.5930194E+02  0.7816164E-02  0.1266605E+00
        -11   -1    0    0    0    0  0.00000000000E+00  0.00000000000E+00  0.45593999997E+02  0.45594000000E+02  0.51100000000E-03 0.  1.
         11   -1    0    0    0    0 -0.00000000000E+00 -0.00000000000E+00 -0.45593999997E+02  0.45594000000E+02  0.51100000000E-03 0. -1.
    9900012    2    1    2    0    0  0.96416585311E+00  0.31421991117E+02  0.53338426132E+01  0.59301936923E+02  0.49999987042E+02 0.  0.
        -12    1    1    2    0    0 -0.96416585311E+00 -0.31421991117E+02 -0.53338426132E+01  0.31886063077E+02  0.00000000000E+00 0.  1.
         11    1    3    3    0    0 -0.43706979829E+01  0.91218927663E+01 -0.10981929529E+02  0.14930328360E+02  0.51100000000E-03 0. -1.
        -11    1    3    3    0    0  0.77206664649E+01  0.28780836194E+02  0.20617276021E+02  0.36235580490E+02  0.51100000000E-03 0.  1.
        -12    1    3    3    0    0 -0.23858026290E+01 -0.64807378434E+01 -0.43015038788E+01  0.81360280726E+01  0.00000000000E+00 0.  1.
</event>
<event>
 7    1  0.6293596E-013  0.5930191E+02  0.7816164E-02  0.1266605E+00
        -11   -1    0    0    0    0  0.00000000000E+00  0.00000000000E+00  0.45593999997E+02  0.45594000000E+02  0.51100000000E-03 0.  1.
         11   -1    0    0    0    0 -0.00000000000E+00 -0.00000000000E+00 -0.45593999997E+02  0.45594000000E+02  0.51100000000E-03 0. -1.
    9900012    2    1    2    0    0  0.24897735434E+02  0.58537585079E+01 -0.19040987083E+02  0.59301907302E+02  0.49999933022E+02 0.  0.
        -12    1    1    2    0    0 -0.24897735434E+02 -0.58537585079E+01  0.19040987083E+02  0.31886092698E+02  0.00000000000E+00 0.  1.
         11    1    3    3    0    0  0.15416225349E+02  0.19753482917E+02  0.31091254174E+01  0.25249292118E+02  0.51100000000E-03 0. -1.
        -11    1    3    3    0    0  0.19858060012E+01 -0.10640367544E+02 -0.41569445705E+00  0.10832065782E+02  0.51100000000E-03 0.  1.
         12    1    3    3    0    0  0.74957040839E+01 -0.32593568644E+01 -0.21734418043E+02  0.23220549403E+02  0.00000000000E+00 0. -1.
</event>
<event>
 7    1  0.6293596E-013  0.5930195E+02  0.7816164E-02  0.1266605E+00
        -11   -1    0    0    0    0  0.00000000000E+00  0.00000000000E+00  0.45593999997E+02  0.45594000000E+02  0.51100000000E-03 0.  1.
         11   -1    0    0    0    0 -0.00000000000E+00 -0.00000000000E+00 -0.45593999997E+02  0.45594000000E+02  0.51100000000E-03 0. -1.
    9900012    2    1    2    0    0 -0.30096015152E+02 -0.10090428646E+02  0.30220862842E+01  0.59301954717E+02  0.50000019495E+02 0.  0.
        -12    1    1    2    0    0  0.30096015152E+02  0.10090428646E+02 -0.30220862842E+01  0.31886045283E+02  0.00000000000E+00 0.  1.
         11    1    3    3    0    0 -0.19006295855E+02  0.11985249629E+02 -0.62772726671E+01  0.23330015928E+02  0.51100000000E-03 0. -1.
        -11    1    3    3    0    0 -0.18591480832E+02 -0.16427193829E+02  0.95351361406E+01  0.26578462674E+02  0.51100000000E-03 0.  1.
        -12    1    3    3    0    0  0.75017615349E+01 -0.56484844460E+01 -0.23577718928E+00  0.93934761163E+01  0.00000000000E+00 0.  1.
</event>
<event>
 7    1  0.6293596E-013  0.5930193E+02  0.7816164E-02  0.1266605E+00
        -11   -1    0    0    0    0  0.00000000000E+00  0.00000000000E+00  0.45593999997E+02  0.45594000000E+02  0.51100000000E-03 0.  1.
         11   -1    0    0    0    0 -0.00000000000E+00 -0.00000000000E+00 -0.45593999997E+02  0.45594000000E+02  0.51100000000E-03 0. -1.
    9900012    2    1    2    0    0  0.16411924049E+02  0.26937516476E+02 -0.46626596662E+01  0.59301930313E+02  0.49999974988E+02 0.  0.
        -12    1    1    2    0    0 -0.16411924049E+02 -0.26937516476E+02  0.46626596662E+01  0.31886069687E+02  0.00000000000E+00 0.  1.
         11    1    3    3    0    0  0.29797014313E+00  0.25358377164E+02 -0.12581698775E+02  0.28309631275E+02  0.51100000000E-03 0. -1.
        -11    1    3    3    0    0  0.15048561805E+02  0.11248395249E+02  0.96348677871E+01  0.21114362070E+02  0.51100000000E-03 0.  1.
        -12    1    3    3    0    0  0.10653921013E+01 -0.96692559366E+01 -0.17158286785E+01  0.98779369684E+01  0.00000000000E+00 0.  1.
</event>
<event>
 7    1  0.6293596E-013  0.5930194E+02  0.7816164E-02  0.1266605E+00
        -11   -1    0    0    0    0  0.00000000000E+00  0.00000000000E+00  0.45593999997E+02  0.45594000000E+02  0.51100000000E-03 0.  1.
         11   -1    0    0    0    0 -0.00000000000E+00 -0.00000000000E+00 -0.45593999997E+02  0.45594000000E+02  0.51100000000E-03 0. -1.
    9900012    2    1    2    0    0  0.51563860209E+01  0.23885721292E+02 -0.20484257650E+02  0.59301940195E+02  0.49999993010E+02 0.  0.
        -12    1    1    2    0    0 -0.51563860209E+01 -0.23885721292E+02  0.20484257650E+02  0.31886059805E+02  0.00000000000E+00 0.  1.
         11    1    3    3    0    0 -0.14003547338E+02  0.26654756270E+00 -0.36502391190E+01  0.14473929374E+02  0.51100000000E-03 0. -1.
        -11    1    3    3    0    0  0.16365089055E+02  0.23176667416E+02 -0.63028870859E+00  0.28379064755E+02  0.51100000000E-03 0.  1.
        -12    1    3    3    0    0  0.27948443037E+01  0.44250631354E+00 -0.16203729822E+02  0.16448946066E+02  0.00000000000E+00 0.  1.
</event>
<event>
 7    1  0.6293596E-013  0.5930194E+02  0.7816164E-02  0.1266605E+00
        -11   -1    0    0    0    0  0.00000000000E+00  0.00000000000E+00  0.45593999997E+02  0.45594000000E+02  0.51100000000E-03 0. -1.
         11   -1    0    0    0    0 -0.00000000000E+00 -0.00000000000E+00 -0.45593999997E+02  0.45594000000E+02  0.51100000000E-03 0.  1.
    9900012    2    1    2    0    0 -0.13167648084E+02 -0.28777322169E+02 -0.38986604811E+01  0.59301940650E+02  0.49999993841E+02 0.  0.
        -12    1    1    2    0    0  0.13167648084E+02  0.28777322169E+02  0.38986604811E+01  0.31886059350E+02  0.00000000000E+00 0.  1.
         11    1    3    3    0    0  0.54333694382E+01  0.34735691198E+01 -0.83561943741E+01  0.10555243747E+02  0.51100000000E-03 0. -1.
        -11    1    3    3    0    0 -0.19253999671E+00 -0.29876599087E+02  0.11944463797E+01  0.29901086051E+02  0.51100000000E-03 0.  1.
        -12    1    3    3    0    0 -0.18408477525E+02 -0.23742922025E+01  0.32630875133E+01  0.18845610852E+02  0.00000000000E+00 0.  1.
</event>
<event>
 7    1  0.6293596E-013  0.5930192E+02  0.7816164E-02  0.1266605E+00
        -11   -1    0    0    0    0  0.00000000000E+00  0.00000000000E+00  0.45593999997E+02  0.45594000000E+02  0.51100000000E-03 0. -1.
         11   -1    0    0    0    0 -0.00000000000E+00 -0.00000000000E+00 -0.45593999997E+02  0.45594000000E+02  0.51100000000E-03 0.  1.
    9900012    2    1    2    0    0  0.19445222501E+02  0.21830339175E+02  0.12729560211E+02  0.59301920125E+02  0.49999956408E+02 0.  0.
        -12    1    1    2    0    0 -0.19445222501E+02 -0.21830339175E+02 -0.12729560211E+02  0.31886079875E+02  0.00000000000E+00 0.  1.
         11    1    3    3    0    0  0.26829432228E+02  0.38505580456E+01  0.52731047568E+00  0.27109468596E+02  0.51100000000E-03 0. -1.
        -11    1    3    3    0    0 -0.12420075739E+02  0.26958912880E+01  0.13452305938E+01  0.12780287822E+02  0.51100000000E-03 0.  1.
         12    1    3    3    0    0  0.50358660119E+01  0.15283889842E+02  0.10857019142E+02  0.19412163708E+02  0.00000000000E+00 0. -1.
</event>
<event>
 7    1  0.6293596E-013  0.5930199E+02  0.7816164E-02  0.1266605E+00
        -11   -1    0    0    0    0  0.00000000000E+00  0.00000000000E+00  0.45593999997E+02  0.45594000000E+02  0.51100000000E-03 0.  1.
         11   -1    0    0    0    0 -0.00000000000E+00 -0.00000000000E+00 -0.45593999997E+02  0.45594000000E+02  0.51100000000E-03 0. -1.
    9900012    2    1    2    0    0  0.29551665756E+02  0.79192758539E+01  0.89834099300E+01  0.59301991580E+02  0.50000086724E+02 0.  0.
        -12    1    1    2    0    0 -0.29551665756E+02 -0.79192758539E+01 -0.89834099300E+01  0.31886008420E+02  0.00000000000E+00 0.  1.
         11    1    3    3    0    0  0.24824773642E+02 -0.88361757206E+01 -0.11739723969E+02  0.28847331018E+02  0.51100000000E-03 0. -1.
        -11    1    3    3    0    0 -0.48979353362E+00  0.11222178935E+02  0.19839608760E+02  0.22798843693E+02  0.51100000000E-03 0.  1.
         12    1    3    3    0    0  0.52166856474E+01  0.55332726396E+01  0.88352513965E+00  0.76558168683E+01  0.00000000000E+00 0. -1.
</event>
<event>
 7    1  0.6293596E-013  0.5930193E+02  0.7816164E-02  0.1266605E+00
        -11   -1    0    0    0    0  0.00000000000E+00  0.00000000000E+00  0.45593999997E+02  0.45594000000E+02  0.51100000000E-03 0.  1.
         11   -1    0    0    0    0 -0.00000000000E+00 -0.00000000000E+00 -0.45593999997E+02  0.45594000000E+02  0.51100000000E-03 0. -1.
    9900012    2    1    2    0    0  0.59153023380E+01  0.19909184154E+02 -0.24194113158E+02  0.59301928951E+02  0.49999972504E+02 0.  0.
        -12    1    1    2    0    0 -0.59153023380E+01 -0.19909184154E+02  0.24194113158E+02  0.31886071049E+02  0.00000000000E+00 0.  1.
         11    1    3    3    0    0 -0.31561344650E+01 -0.11068936413E+00 -0.68753719230E+01  0.75659881203E+01  0.51100000000E-03 0. -1.
        -11    1    3    3    0    0  0.81298972727E+01  0.90132240097E+01  0.13998114955E+02  0.18527834716E+02  0.51100000000E-03 0.  1.
        -12    1    3    3    0    0  0.94153953030E+00  0.11006649509E+02 -0.31316856190E+02  0.33208106115E+02  0.00000000000E+00 0.  1.
</event>
<event>
 7    1  0.6293596E-013  0.5930190E+02  0.7816164E-02  0.1266605E+00
        -11   -1    0    0    0    0  0.00000000000E+00  0.00000000000E+00  0.45593999997E+02  0.45594000000E+02  0.51100000000E-03 0. -1.
         11   -1    0    0    0    0 -0.00000000000E+00 -0.00000000000E+00 -0.45593999997E+02  0.45594000000E+02  0.51100000000E-03 0.  1.
    9900012    2    1    2    0    0  0.27919348729E+00  0.14028909697E+02  0.28632762552E+02  0.59301900401E+02  0.49999920435E+02 0.  0.
        -12    1    1    2    0    0 -0.27919348729E+00 -0.14028909697E+02 -0.28632762552E+02  0.31886099599E+02  0.00000000000E+00 0.  1.
         11    1    3    3    0    0  0.87780916708E+01  0.10253836094E+02  0.27364806063E+02  0.30512762234E+02  0.51100000000E-03 0. -1.
        -11    1    3    3    0    0  0.86494668050E+01 -0.41215415300E+01  0.23960186978E+01  0.98762992288E+01  0.51100000000E-03 0.  1.
         12    1    3    3    0    0 -0.17148364989E+02  0.78966151339E+01 -0.11280622089E+01  0.18912838938E+02  0.00000000000E+00 0. -1.
</event>
<event>
 7    1  0.6293596E-013  0.5930188E+02  0.7816164E-02  0.1266605E+00
        -11   -1    0    0    0    0  0.00000000000E+00  0.00000000000E+00  0.45593999997E+02  0.45594000000E+02  0.51100000000E-03 0. -1.
         11   -1    0    0    0    0 -0.00000000000E+00 -0.00000000000E+00 -0.45593999997E+02  0.45594000000E+02  0.51100000000E-03 0.  1.
    9900012    2    1    2    0    0  0.15921890700E+02  0.22029436231E+02  0.16670986288E+02  0.59301883147E+02  0.49999888969E+02 0.  0.
        -12    1    1    2    0    0 -0.15921890700E+02 -0.22029436231E+02 -0.16670986288E+02  0.31886116853E+02  0.00000000000E+00 0.  1.
         11    1    3    3    0    0  0.19026506752E+02  0.76894707090E+01  0.13006405749E+02  0.24296141869E+02  0.51100000000E-03 0. -1.
        -11    1    3    3    0    0 -0.17295945043E+02  0.57596178415E+01  0.18861184449E+01  0.18327038922E+02  0.51100000000E-03 0.  1.
        -12    1    3    3    0    0  0.14191328991E+02  0.85803476803E+01  0.17784620944E+01  0.16678702356E+02  0.00000000000E+00 0.  1.
</event>
<event>
 7    1  0.6293596E-013  0.5930195E+02  0.7816164E-02  0.1266605E+00
        -11   -1    0    0    0    0  0.00000000000E+00  0.00000000000E+00  0.45593999997E+02  0.45594000000E+02  0.51100000000E-03 0.  1.
         11   -1    0    0    0    0 -0.00000000000E+00 -0.00000000000E+00 -0.45593999997E+02  0.45594000000E+02  0.51100000000E-03 0. -1.
    9900012    2    1    2    0    0  0.20189316250E+02 -0.24492252686E+02  0.30399735081E+01  0.59301947074E+02  0.50000005555E+02 0.  0.
        -12    1    1    2    0    0 -0.20189316250E+02  0.24492252686E+02 -0.30399735081E+01  0.31886052926E+02  0.00000000000E+00 0.  1.
         11    1    3    3    0    0  0.10350926737E+02 -0.30737420599E+02  0.67596814759E+01  0.33130409042E+02  0.51100000000E-03 0. -1.
        -11    1    3    3    0    0  0.14303563885E+02  0.58172754308E+01  0.51124373746E+01  0.16265597112E+02  0.51100000000E-03 0.  1.
         12    1    3    3    0    0 -0.44651743718E+01  0.42789248165E+00 -0.88321453423E+01  0.99059409192E+01  0.00000000000E+00 0. -1.
</event>
<event>
 7    1  0.6293596E-013  0.5930193E+02  0.7816164E-02  0.1266605E+00
        -11   -1    0    0    0    0  0.00000000000E+00  0.00000000000E+00  0.45593999997E+02  0.45594000000E+02  0.51100000000E-03 0.  1.
         11   -1    0    0    0    0 -0.00000000000E+00 -0.00000000000E+00 -0.45593999997E+02  0.45594000000E+02  0.51100000000E-03 0. -1.
    9900012    2    1    2    0    0 -0.10407186654E+02 -0.51668140287E+01 -0.29693705986E+02  0.59301926607E+02  0.49999968229E+02 0.  0.
        -12    1    1    2    0    0  0.10407186654E+02  0.51668140287E+01  0.29693705986E+02  0.31886073393E+02  0.00000000000E+00 0.  1.
         11    1    3    3    0    0 -0.16398694107E+02  0.74995751986E+01 -0.61154497582E+01  0.19040995840E+02  0.51100000000E-03 0. -1.
        -11    1    3    3    0    0  0.13867271585E+02 -0.11893018264E+02 -0.33947132314E+01  0.18581420366E+02  0.51100000000E-03 0.  1.
         12    1    3    3    0    0 -0.78757641321E+01 -0.77337096319E+00 -0.20183542996E+02  0.21679510400E+02  0.00000000000E+00 0. -1.
</event>
<event>
 7    1  0.6293596E-013  0.5930195E+02  0.7816164E-02  0.1266605E+00
        -11   -1    0    0    0    0  0.00000000000E+00  0.00000000000E+00  0.45593999997E+02  0.45594000000E+02  0.51100000000E-03 0. -1.
         11   -1    0    0    0    0 -0.00000000000E+00 -0.00000000000E+00 -0.45593999997E+02  0.45594000000E+02  0.51100000000E-03 0.  1.
    9900012    2    1    2    0    0  0.27639876215E+02  0.10705180068E+02  0.11754010043E+02  0.59301946786E+02  0.50000005031E+02 0.  0.
        -12    1    1    2    0    0 -0.27639876215E+02 -0.10705180068E+02 -0.11754010043E+02  0.31886053214E+02  0.00000000000E+00 0.  1.
         11    1    3    3    0    0  0.21518295612E+02  0.23080647926E+02 -0.14724033708E+01  0.31589892793E+02  0.51100000000E-03 0. -1.
        -11    1    3    3    0    0  0.51183979617E+00 -0.80933831790E+01  0.17621558570E+02  0.19398045209E+02  0.51100000000E-03 0.  1.
        -12    1    3    3    0    0  0.56097408069E+01 -0.42820846789E+01 -0.43951451561E+01  0.83140087840E+01  0.00000000000E+00 0.  1.
</event>
<event>
 7    1  0.7745742E-013  0.5930194E+02  0.7816164E-02  0.1266605E+00
        -11   -1    0    0    0    0  0.00000000000E+00  0.00000000000E+00  0.45593999997E+02  0.45594000000E+02  0.51100000000E-03 0.  1.
         11   -1    0    0    0    0 -0.00000000000E+00 -0.00000000000E+00 -0.45593999997E+02  0.45594000000E+02  0.51100000000E-03 0. -1.
    9900012    2    1    2    0    0 -0.26636111140E+02 -0.17510674994E+02 -0.78417777995E+00  0.59301935799E+02  0.49999984993E+02 0.  0.
        -12    1    1    2    0    0  0.26636111140E+02  0.17510674994E+02  0.78417777995E+00  0.31886064201E+02  0.00000000000E+00 0.  1.
         11    1    3    3    0    0 -0.44378291230E+01 -0.18692876327E+02 -0.11386003196E+02  0.22332913418E+02  0.51100000000E-03 0. -1.
        -11    1    3    3    0    0  0.19588439759E+00  0.85526555833E+00  0.14250261010E+02  0.14277247248E+02  0.51100000000E-03 0.  1.
         12    1    3    3    0    0 -0.22394166415E+02  0.32693577490E+00 -0.36484355930E+01  0.22691775133E+02  0.00000000000E+00 0. -1.
</event>
<event>
 7    1  0.6293596E-013  0.5930195E+02  0.7816164E-02  0.1266605E+00
        -11   -1    0    0    0    0  0.00000000000E+00  0.00000000000E+00  0.45593999997E+02  0.45594000000E+02  0.51100000000E-03 0.  1.
         11   -1    0    0    0    0 -0.00000000000E+00 -0.00000000000E+00 -0.45593999997E+02  0.45594000000E+02  0.51100000000E-03 0. -1.
    9900012    2    1    2    0    0 -0.79585826928E+01  0.97699442959E+01 -0.29290433401E+02  0.59301947581E+02  0.50000006480E+02 0.  0.
        -12    1    1    2    0    0  0.79585826928E+01 -0.97699442959E+01  0.29290433401E+02  0.31886052419E+02  0.00000000000E+00 0.  1.
         11    1    3    3    0    0 -0.11300434148E+02 -0.12372601478E+02 -0.70074364134E+00  0.16771169345E+02  0.51100000000E-03 0. -1.
        -11    1    3    3    0    0  0.24068671388E+01  0.79317463466E+01  0.22266610829E+01  0.85827518530E+01  0.51100000000E-03 0.  1.
         12    1    3    3    0    0  0.93498431616E+00  0.14210799428E+02 -0.30816350843E+02  0.33948026383E+02  0.00000000000E+00 0. -1.
</event>
<event>
 7    1  0.6293596E-013  0.5930178E+02  0.7816164E-02  0.1266605E+00
        -11   -1    0    0    0    0  0.00000000000E+00  0.00000000000E+00  0.45593999997E+02  0.45594000000E+02  0.51100000000E-03 0. -1.
         11   -1    0    0    0    0 -0.00000000000E+00 -0.00000000000E+00 -0.45593999997E+02  0.45594000000E+02  0.51100000000E-03 0.  1.
    9900012    2    1    2    0    0 -0.16248110282E+02  0.24267661397E+02  0.12798847271E+02  0.59301780894E+02  0.49999702483E+02 0.  0.
        -12    1    1    2    0    0  0.16248110282E+02 -0.24267661397E+02 -0.12798847271E+02  0.31886219106E+02  0.00000000000E+00 0.  1.
         11    1    3    3    0    0 -0.15811957922E+02 -0.80463312811E+01  0.16330981661E+02  0.24113531942E+02  0.51100000000E-03 0. -1.
        -11    1    3    3    0    0 -0.26557801828E+01  0.68805373398E+01 -0.60431737082E+01  0.95349311058E+01  0.51100000000E-03 0.  1.
         12    1    3    3    0    0  0.22196278232E+01  0.25433455338E+02  0.25110393176E+01  0.25653317847E+02  0.00000000000E+00 0. -1.
</event>
<event>
 7    1  0.6293596E-013  0.5930197E+02  0.7816164E-02  0.1266605E+00
        -11   -1    0    0    0    0  0.00000000000E+00  0.00000000000E+00  0.45593999997E+02  0.45594000000E+02  0.51100000000E-03 0.  1.
         11   -1    0    0    0    0 -0.00000000000E+00 -0.00000000000E+00 -0.45593999997E+02  0.45594000000E+02  0.51100000000E-03 0. -1.
    9900012    2    1    2    0    0  0.96220344035E+01  0.16080896908E+02 -0.25798069006E+02  0.59301966131E+02  0.50000040312E+02 0.  0.
        -12    1    1    2    0    0 -0.96220344035E+01 -0.16080896908E+02  0.25798069006E+02  0.31886033869E+02  0.00000000000E+00 0.  1.
         11    1    3    3    0    0  0.32129082338E+01  0.47922868594E+01 -0.10795319668E+02  0.12240413377E+02  0.51100000000E-03 0. -1.
        -11    1    3    3    0    0 -0.15957888809E+02  0.69492796896E+01  0.34479781592E+01  0.17743597637E+02  0.51100000000E-03 0.  1.
        -12    1    3    3    0    0  0.22367014979E+02  0.43393303592E+01 -0.18450727498E+02  0.29317955117E+02  0.00000000000E+00 0.  1.
</event>
<event>
 7    1  0.6293596E-013  0.5930195E+02  0.7816164E-02  0.1266605E+00
        -11   -1    0    0    0    0  0.00000000000E+00  0.00000000000E+00  0.45593999997E+02  0.45594000000E+02  0.51100000000E-03 0. -1.
         11   -1    0    0    0    0 -0.00000000000E+00 -0.00000000000E+00 -0.45593999997E+02  0.45594000000E+02  0.51100000000E-03 0.  1.
    9900012    2    1    2    0    0 -0.72195340194E+01 -0.25519182200E+01  0.30952972481E+02  0.59301945627E+02  0.50000002916E+02 0.  0.
        -12    1    1    2    0    0  0.72195340194E+01  0.25519182200E+01 -0.30952972481E+02  0.31886054373E+02  0.00000000000E+00 0.  1.
         11    1    3    3    0    0 -0.17857798887E+02  0.25838179673E+01 -0.15237319183E+01  0.18107977678E+02  0.51100000000E-03 0. -1.
        -11    1    3    3    0    0  0.40445680352E+01 -0.72466022159E+01  0.33210644650E+02  0.34231837412E+02  0.51100000000E-03 0.  1.
        -12    1    3    3    0    0  0.65936968325E+01  0.21108660286E+01 -0.73394025054E+00  0.69621305361E+01  0.00000000000E+00 0.  1.
</event>
<event>
 7    1  0.6293596E-013  0.5930194E+02  0.7816164E-02  0.1266605E+00
        -11   -1    0    0    0    0  0.00000000000E+00  0.00000000000E+00  0.45593999997E+02  0.45594000000E+02  0.51100000000E-03 0. -1.
         11   -1    0    0    0    0 -0.00000000000E+00 -0.00000000000E+00 -0.45593999997E+02  0.45594000000E+02  0.51100000000E-03 0.  1.
    9900012    2    1    2    0    0 -0.12927699629E+01  0.24142444151E+02  0.20789233861E+02  0.59301935515E+02  0.49999984475E+02 0.  0.
        -12    1    1    2    0    0  0.12927699629E+01 -0.24142444151E+02 -0.20789233861E+02  0.31886064485E+02  0.00000000000E+00 0.  1.
         11    1    3    3    0    0  0.11476305929E+02  0.91736672507E+01  0.11814158883E+02  0.18853013525E+02  0.51100000000E-03 0. -1.
        -11    1    3    3    0    0 -0.13302773636E+02 -0.77983591234E+01 -0.12799261263E+01  0.15473086395E+02  0.51100000000E-03 0.  1.
        -12    1    3    3    0    0  0.53369774467E+00  0.22767136024E+02  0.10255001105E+02  0.24975835595E+02  0.00000000000E+00 0.  1.
</event>
<event>
 7    1  0.6293596E-013  0.5930180E+02  0.7816164E-02  0.1266605E+00
        -11   -1    0    0    0    0  0.00000000000E+00  0.00000000000E+00  0.45593999997E+02  0.45594000000E+02  0.51100000000E-03 0. -1.
         11   -1    0    0    0    0 -0.00000000000E+00 -0.00000000000E+00 -0.45593999997E+02  0.45594000000E+02  0.51100000000E-03 0.  1.
    9900012    2    1    2    0    0  0.88430344950E+01 -0.15448245302E+02  0.26455290908E+02  0.59301796730E+02  0.49999731363E+02 0.  0.
        -12    1    1    2    0    0 -0.88430344950E+01  0.15448245302E+02 -0.26455290908E+02  0.31886203270E+02  0.00000000000E+00 0.  1.
         11    1    3    3    0    0  0.18799807356E+00 -0.20868289024E+02  0.35887652064E+02  0.41514387880E+02  0.51100000000E-03 0. -1.
        -11    1    3    3    0    0  0.27618070866E+01 -0.12754428565E+01 -0.82459852108E+01  0.87892323454E+01  0.51100000000E-03 0.  1.
         12    1    3    3    0    0  0.58932293349E+01  0.66954865788E+01 -0.11863759459E+01  0.89981765044E+01  0.00000000000E+00 0. -1.
</event>
<event>
 7    1  0.6293596E-013  0.5930195E+02  0.7816164E-02  0.1266605E+00
        -11   -1    0    0    0    0  0.00000000000E+00  0.00000000000E+00  0.45593999997E+02  0.45594000000E+02  0.51100000000E-03 0.  1.
         11   -1    0    0    0    0 -0.00000000000E+00 -0.00000000000E+00 -0.45593999997E+02  0.45594000000E+02  0.51100000000E-03 0. -1.
    9900012    2    1    2    0    0  0.27097353515E+02  0.14469122391E+02 -0.85497600703E+01  0.59301945563E+02  0.50000002800E+02 0.  0.
        -12    1    1    2    0    0 -0.27097353515E+02 -0.14469122391E+02  0.85497600703E+01  0.31886054437E+02  0.00000000000E+00 0.  1.
         11    1    3    3    0    0  0.46934602596E+01 -0.54719622114E+01 -0.17128668971E+01  0.74097808955E+01  0.51100000000E-03 0. -1.
        -11    1    3    3    0    0  0.14174114324E+02  0.15584822765E+02  0.16504645735E+02  0.26761830068E+02  0.51100000000E-03 0.  1.
        -12    1    3    3    0    0  0.82297789322E+01  0.43562618370E+01 -0.23341538908E+02  0.25130334599E+02  0.00000000000E+00 0.  1.
</event>
<event>
 7    1  0.6293596E-013  0.5930195E+02  0.7816164E-02  0.1266605E+00
        -11   -1    0    0    0    0  0.00000000000E+00  0.00000000000E+00  0.45593999997E+02  0.45594000000E+02  0.51100000000E-03 0.  1.
         11   -1    0    0    0    0 -0.00000000000E+00 -0.00000000000E+00 -0.45593999997E+02  0.45594000000E+02  0.51100000000E-03 0. -1.
    9900012    2    1    2    0    0 -0.23256599296E+02  0.17672575149E+02 -0.12787915993E+02  0.59301951034E+02  0.50000012778E+02 0.  0.
        -12    1    1    2    0    0  0.23256599296E+02 -0.17672575149E+02  0.12787915993E+02  0.31886048966E+02  0.00000000000E+00 0.  1.
         11    1    3    3    0    0  0.18807807532E+01 -0.69924838349E+01 -0.14070310043E+01  0.73764424305E+01  0.51100000000E-03 0. -1.
        -11    1    3    3    0    0 -0.10624530476E+02  0.29737413275E+02  0.18637611919E+01  0.31633336880E+02  0.51100000000E-03 0.  1.
        -12    1    3    3    0    0 -0.14512849573E+02 -0.50723542915E+01 -0.13244646181E+02  0.20292171723E+02  0.00000000000E+00 0.  1.
</event>
<event>
 7    1  0.6293596E-013  0.5930195E+02  0.7816164E-02  0.1266605E+00
        -11   -1    0    0    0    0  0.00000000000E+00  0.00000000000E+00  0.45593999997E+02  0.45594000000E+02  0.51100000000E-03 0.  1.
         11   -1    0    0    0    0 -0.00000000000E+00 -0.00000000000E+00 -0.45593999997E+02  0.45594000000E+02  0.51100000000E-03 0. -1.
    9900012    2    1    2    0    0 -0.51329905657E+01  0.44286606346E+00 -0.31467069251E+02  0.59301950233E+02  0.50000011317E+02 0.  0.
        -12    1    1    2    0    0  0.51329905657E+01 -0.44286606346E+00  0.31467069251E+02  0.31886049767E+02  0.00000000000E+00 0.  1.
         11    1    3    3    0    0  0.18116708447E+02  0.61449237900E+01 -0.25825874421E+02  0.32139555119E+02  0.51100000000E-03 0. -1.
        -11    1    3    3    0    0 -0.13995772049E+02 -0.74330929375E+01  0.61448378391E+00  0.15859069848E+02  0.51100000000E-03 0.  1.
         12    1    3    3    0    0 -0.92539269640E+01  0.17310352110E+01 -0.62556786134E+01  0.11303325266E+02  0.00000000000E+00 0. -1.
</event>
<event>
 7    1  0.6293596E-013  0.5930195E+02  0.7816164E-02  0.1266605E+00
        -11   -1    0    0    0    0  0.00000000000E+00  0.00000000000E+00  0.45593999997E+02  0.45594000000E+02  0.51100000000E-03 0.  1.
         11   -1    0    0    0    0 -0.00000000000E+00 -0.00000000000E+00 -0.45593999997E+02  0.45594000000E+02  0.51100000000E-03 0. -1.
    9900012    2    1    2    0    0 -0.10318140555E+02  0.29776649452E+02  0.48587120507E+01  0.59301953524E+02  0.50000017318E+02 0.  0.
        -12    1    1    2    0    0  0.10318140555E+02 -0.29776649452E+02 -0.48587120507E+01  0.31886046476E+02  0.00000000000E+00 0.  1.
         11    1    3    3    0    0  0.24055964499E+01  0.14449282165E+02 -0.18882329626E+02  0.23897929236E+02  0.51100000000E-03 0. -1.
        -11    1    3    3    0    0 -0.15284982580E+02  0.11969178938E+02  0.11753918351E+02  0.22694636674E+02  0.51100000000E-03 0.  1.
         12    1    3    3    0    0  0.25612455754E+01  0.33581883492E+01  0.11987123326E+02  0.12709387614E+02  0.00000000000E+00 0. -1.
</event>
<event>
 7    1  0.6293596E-013  0.5930192E+02  0.7816164E-02  0.1266605E+00
        -11   -1    0    0    0    0  0.00000000000E+00  0.00000000000E+00  0.45593999997E+02  0.45594000000E+02  0.51100000000E-03 0. -1.
         11   -1    0    0    0    0 -0.00000000000E+00 -0.00000000000E+00 -0.45593999997E+02  0.45594000000E+02  0.51100000000E-03 0.  1.
    9900012    2    1    2    0    0 -0.21092778633E+02 -0.59770142107E+01 -0.23153656738E+02  0.59301924204E+02  0.49999963846E+02 0.  0.
        -12    1    1    2    0    0  0.21092778633E+02  0.59770142107E+01  0.23153656738E+02  0.31886075796E+02  0.00000000000E+00 0.  1.
         11    1    3    3    0    0  0.56849098385E+01 -0.14003641266E+02 -0.17682431940E+01  0.15216663657E+02  0.51100000000E-03 0. -1.
        -11    1    3    3    0    0 -0.14592433695E+02 -0.48140261917E+01 -0.21446536084E+02  0.26383098369E+02  0.51100000000E-03 0.  1.
         12    1    3    3    0    0 -0.12185254776E+02  0.12840653247E+02  0.61122539330E-01  0.17702162177E+02  0.00000000000E+00 0. -1.
</event>
<event>
 7    1  0.6293596E-013  0.5930196E+02  0.7816164E-02  0.1266605E+00
        -11   -1    0    0    0    0  0.00000000000E+00  0.00000000000E+00  0.45593999997E+02  0.45594000000E+02  0.51100000000E-03 0.  1.
         11   -1    0    0    0    0 -0.00000000000E+00 -0.00000000000E+00 -0.45593999997E+02  0.45594000000E+02  0.51100000000E-03 0. -1.
    9900012    2    1    2    0    0 -0.25992164474E+02 -0.17519888590E+02 -0.58464099483E+01  0.59301958860E+02  0.50000027051E+02 0.  0.
        -12    1    1    2    0    0  0.25992164474E+02  0.17519888590E+02  0.58464099483E+01  0.31886041140E+02  0.00000000000E+00 0.  1.
         11    1    3    3    0    0 -0.17504853632E+02 -0.82306211334E+01 -0.21567019946E+02  0.28970664033E+02  0.51100000000E-03 0. -1.
        -11    1    3    3    0    0  0.11936703635E+01 -0.86291715324E+01  0.18319996203E+02  0.20285702143E+02  0.51100000000E-03 0.  1.
        -12    1    3    3    0    0 -0.96809812059E+01 -0.66009592429E+00 -0.25993862060E+01  0.10045592685E+02  0.00000000000E+00 0.  1.
</event>
<event>
 7    1  0.6293596E-013  0.5930196E+02  0.7816164E-02  0.1266605E+00
        -11   -1    0    0    0    0  0.00000000000E+00  0.00000000000E+00  0.45593999997E+02  0.45594000000E+02  0.51100000000E-03 0.  1.
         11   -1    0    0    0    0 -0.00000000000E+00 -0.00000000000E+00 -0.45593999997E+02  0.45594000000E+02  0.51100000000E-03 0. -1.
    9900012    2    1    2    0    0  0.20351644591E+02  0.20559138429E+02 -0.13410887692E+02  0.59301960434E+02  0.50000029921E+02 0.  0.
        -12    1    1    2    0    0 -0.20351644591E+02 -0.20559138429E+02  0.13410887692E+02  0.31886039566E+02  0.00000000000E+00 0.  1.
         11    1    3    3    0    0  0.17833802967E+02  0.25500070674E+01 -0.41639135563E+01  0.18490139012E+02  0.51100000000E-03 0. -1.
        -11    1    3    3    0    0 -0.12824999121E+02 -0.32591781279E+01 -0.78648919473E+00  0.13255995249E+02  0.51100000000E-03 0.  1.
        -12    1    3    3    0    0  0.15342840744E+02  0.21268309490E+02 -0.84604849411E+01  0.27555826174E+02  0.00000000000E+00 0.  1.
</event>
<event>
 7    1  0.6293596E-013  0.5930194E+02  0.7816164E-02  0.1266605E+00
        -11   -1    0    0    0    0  0.00000000000E+00  0.00000000000E+00  0.45593999997E+02  0.45594000000E+02  0.51100000000E-03 0.  1.
         11   -1    0    0    0    0 -0.00000000000E+00 -0.00000000000E+00 -0.45593999997E+02  0.45594000000E+02  0.51100000000E-03 0. -1.
    9900012    2    1    2    0    0  0.16090806015E+01 -0.25007557705E+02 -0.19716833418E+02  0.59301943443E+02  0.49999998933E+02 0.  0.
        -12    1    1    2    0    0 -0.16090806015E+01  0.25007557705E+02  0.19716833418E+02  0.31886056557E+02  0.00000000000E+00 0.  1.
         11    1    3    3    0    0  0.43783667586E+01  0.48609525101E+01 -0.22463663201E+02  0.23396904057E+02  0.51100000000E-03 0. -1.
        -11    1    3    3    0    0 -0.11235276013E+02 -0.17801280988E+02  0.12263800860E+01  0.21086038990E+02  0.51100000000E-03 0.  1.
         12    1    3    3    0    0  0.84659898559E+01 -0.12067229227E+02  0.15204496970E+01  0.14819000396E+02  0.00000000000E+00 0. -1.
</event>
<event>
 7    1  0.6293596E-013  0.5930191E+02  0.7816164E-02  0.1266605E+00
        -11   -1    0    0    0    0  0.00000000000E+00  0.00000000000E+00  0.45593999997E+02  0.45594000000E+02  0.51100000000E-03 0. -1.
         11   -1    0    0    0    0 -0.00000000000E+00 -0.00000000000E+00 -0.45593999997E+02  0.45594000000E+02  0.51100000000E-03 0.  1.
    9900012    2    1    2    0    0 -0.82773188713E+01  0.30789463752E+02  0.46651076212E+00  0.59301910272E+02  0.49999938438E+02 0.  0.
        -12    1    1    2    0    0  0.82773188713E+01 -0.30789463752E+02 -0.46651076212E+00  0.31886089728E+02  0.00000000000E+00 0.  1.
         11    1    3    3    0    0 -0.37541003956E+01  0.16835639017E+02 -0.35780636971E+01  0.17616314909E+02  0.51100000000E-03 0. -1.
        -11    1    3    3    0    0  0.11448890664E+02 -0.14097930463E+01 -0.10152091503E+02  0.15366508257E+02  0.51100000000E-03 0.  1.
        -12    1    3    3    0    0 -0.15972109139E+02  0.15363617782E+02  0.14196665962E+02  0.26319087107E+02  0.00000000000E+00 0.  1.
</event>
<event>
 7    1  0.6293596E-013  0.5930196E+02  0.7816164E-02  0.1266605E+00
        -11   -1    0    0    0    0  0.00000000000E+00  0.00000000000E+00  0.45593999997E+02  0.45594000000E+02  0.51100000000E-03 0.  1.
         11   -1    0    0    0    0 -0.00000000000E+00 -0.00000000000E+00 -0.45593999997E+02  0.45594000000E+02  0.51100000000E-03 0. -1.
    9900012    2    1    2    0    0  0.31412597831E+02 -0.35742292296E+01 -0.41464565146E+01  0.59301960442E+02  0.50000029935E+02 0.  0.
        -12    1    1    2    0    0 -0.31412597831E+02  0.35742292296E+01  0.41464565146E+01  0.31886039558E+02  0.00000000000E+00 0.  1.
         11    1    3    3    0    0  0.24583660268E+02 -0.11461251540E+02 -0.23432193199E+02  0.35843888146E+02  0.51100000000E-03 0. -1.
        -11    1    3    3    0    0 -0.13815874224E+01  0.40636616777E+01  0.58957804718E+01  0.72926235107E+01  0.51100000000E-03 0.  1.
         12    1    3    3    0    0  0.82105249853E+01  0.38233606324E+01  0.13389956212E+02  0.16165448785E+02  0.00000000000E+00 0. -1.
</event>
<event>
 7    1  0.6293596E-013  0.5930192E+02  0.7816164E-02  0.1266605E+00
        -11   -1    0    0    0    0  0.00000000000E+00  0.00000000000E+00  0.45593999997E+02  0.45594000000E+02  0.51100000000E-03 0. -1.
         11   -1    0    0    0    0 -0.00000000000E+00 -0.00000000000E+00 -0.45593999997E+02  0.45594000000E+02  0.51100000000E-03 0.  1.
    9900012    2    1    2    0    0  0.27778643969E+02  0.34106101904E+01 -0.15278630182E+02  0.59301923683E+02  0.49999962896E+02 0.  0.
        -12    1    1    2    0    0 -0.27778643969E+02 -0.34106101904E+01  0.15278630182E+02  0.31886076317E+02  0.00000000000E+00 0.  1.
         11    1    3    3    0    0  0.18357573099E+02  0.84320328543E+01 -0.93446013472E+00  0.20223078009E+02  0.51100000000E-03 0. -1.
        -11    1    3    3    0    0 -0.11309468210E+02 -0.71218758663E+00  0.29843347769E+01  0.11718256554E+02  0.51100000000E-03 0.  1.
        -12    1    3    3    0    0  0.20730539080E+02 -0.43092350772E+01 -0.17328504825E+02  0.27360589120E+02  0.00000000000E+00 0.  1.
</event>
<event>
 7    1  0.6293596E-013  0.5930192E+02  0.7816164E-02  0.1266605E+00
        -11   -1    0    0    0    0  0.00000000000E+00  0.00000000000E+00  0.45593999997E+02  0.45594000000E+02  0.51100000000E-03 0. -1.
         11   -1    0    0    0    0 -0.00000000000E+00 -0.00000000000E+00 -0.45593999997E+02  0.45594000000E+02  0.51100000000E-03 0.  1.
    9900012    2    1    2    0    0 -0.15633228501E+00 -0.31872879982E+02  0.90413024193E+00  0.59301915737E+02  0.49999948405E+02 0.  0.
        -12    1    1    2    0    0  0.15633228501E+00  0.31872879982E+02 -0.90413024193E+00  0.31886084263E+02  0.00000000000E+00 0.  1.
         11    1    3    3    0    0  0.66469332687E+01  0.10720100072E+01  0.14371131481E+02  0.15870108621E+02  0.51100000000E-03 0. -1.
        -11    1    3    3    0    0 -0.99101982343E+01 -0.22106261523E+01 -0.54209200802E+01  0.11510224664E+02  0.51100000000E-03 0.  1.
         12    1    3    3    0    0  0.31069326806E+01 -0.30734263837E+02 -0.80460811589E+01  0.31921582453E+02  0.00000000000E+00 0. -1.
</event>
<event>
 7    1  0.6293596E-013  0.5930194E+02  0.7816164E-02  0.1266605E+00
        -11   -1    0    0    0    0  0.00000000000E+00  0.00000000000E+00  0.45593999997E+02  0.45594000000E+02  0.51100000000E-03 0. -1.
         11   -1    0    0    0    0 -0.00000000000E+00 -0.00000000000E+00 -0.45593999997E+02  0.45594000000E+02  0.51100000000E-03 0.  1.
    9900012    2    1    2    0    0  0.20137733329E+02 -0.97720614764E+01  0.22709017869E+02  0.59301937501E+02  0.49999988096E+02 0.  0.
        -12    1    1    2    0    0 -0.20137733329E+02  0.97720614764E+01 -0.22709017869E+02  0.31886062499E+02  0.00000000000E+00 0.  1.
         11    1    3    3    0    0  0.84334135699E+01 -0.11941602090E+02  0.12144332194E+02  0.19005502614E+02  0.51100000000E-03 0. -1.
        -11    1    3    3    0    0  0.21074623580E+02  0.12785877265E+02  0.79235348541E+01  0.25892099593E+02  0.51100000000E-03 0.  1.
        -12    1    3    3    0    0 -0.93703038206E+01 -0.10616336652E+02  0.26411508206E+01  0.14404335294E+02  0.00000000000E+00 0.  1.
</event>
<event>
 7    1  0.6293596E-013  0.5930197E+02  0.7816164E-02  0.1266605E+00
        -11   -1    0    0    0    0  0.00000000000E+00  0.00000000000E+00  0.45593999997E+02  0.45594000000E+02  0.51100000000E-03 0. -1.
         11   -1    0    0    0    0 -0.00000000000E+00 -0.00000000000E+00 -0.45593999997E+02  0.45594000000E+02  0.51100000000E-03 0.  1.
    9900012    2    1    2    0    0 -0.15626029294E+02  0.22992758318E+02  0.15616629582E+02  0.59301970990E+02  0.50000049172E+02 0.  0.
        -12    1    1    2    0    0  0.15626029294E+02 -0.22992758318E+02 -0.15616629582E+02  0.31886029010E+02  0.00000000000E+00 0.  1.
         11    1    3    3    0    0  0.75075007534E+01  0.12700202521E+02  0.24489829456E+02  0.28590373531E+02  0.51100000000E-03 0. -1.
        -11    1    3    3    0    0 -0.16663190123E+02  0.54327038833E+00 -0.11919107960E+01  0.16714595400E+02  0.51100000000E-03 0.  1.
         12    1    3    3    0    0 -0.64703399244E+01  0.97492854089E+01 -0.76812890778E+01  0.13997002058E+02  0.00000000000E+00 0. -1.
</event>
<event>
 7    1  0.6293596E-013  0.5930185E+02  0.7816164E-02  0.1266605E+00
        -11   -1    0    0    0    0  0.00000000000E+00  0.00000000000E+00  0.45593999997E+02  0.45594000000E+02  0.51100000000E-03 0.  1.
         11   -1    0    0    0    0 -0.00000000000E+00 -0.00000000000E+00 -0.45593999997E+02  0.45594000000E+02  0.51100000000E-03 0. -1.
    9900012    2    1    2    0    0  0.88078723994E+01 -0.10625436808E+02 -0.28744535671E+02  0.59301845411E+02  0.49999820146E+02 0.  0.
        -12    1    1    2    0    0 -0.88078723994E+01  0.10625436808E+02  0.28744535671E+02  0.31886154589E+02  0.00000000000E+00 0.  1.
         11    1    3    3    0    0  0.81631065916E+01  0.25711116194E+01 -0.35247197856E+02  0.36271364479E+02  0.51100000000E-03 0. -1.
        -11    1    3    3    0    0  0.28502009987E+01 -0.12980326230E+02 -0.27031616272E+01  0.13561695979E+02  0.51100000000E-03 0.  1.
         12    1    3    3    0    0 -0.22054351910E+01 -0.21622219702E+00  0.92058238128E+01  0.94687849533E+01  0.00000000000E+00 0. -1.
</event>
<event>
 7    1  0.6293596E-013  0.5930195E+02  0.7816164E-02  0.1266605E+00
        -11   -1    0    0    0    0  0.00000000000E+00  0.00000000000E+00  0.45593999997E+02  0.45594000000E+02  0.51100000000E-03 0.  1.
         11   -1    0    0    0    0 -0.00000000000E+00 -0.00000000000E+00 -0.45593999997E+02  0.45594000000E+02  0.51100000000E-03 0. -1.
    9900012    2    1    2    0    0  0.23433125838E+02 -0.13841735365E+02 -0.16613707964E+02  0.59301947927E+02  0.50000007112E+02 0.  0.
        -12    1    1    2    0    0 -0.23433125838E+02  0.13841735365E+02  0.16613707964E+02  0.31886052073E+02  0.00000000000E+00 0.  1.
         11    1    3    3    0    0  0.23704273883E+02  0.63668441307E+01 -0.14128059744E+02  0.28320158490E+02  0.51100000000E-03 0. -1.
        -11    1    3    3    0    0  0.11533697535E+02 -0.10504340366E+02 -0.12958014644E+01  0.15653959468E+02  0.51100000000E-03 0.  1.
         12    1    3    3    0    0 -0.11804845579E+02 -0.97042391302E+01 -0.11898467559E+01  0.15327829969E+02  0.00000000000E+00 0. -1.
</event>
<event>
 7    1  0.6293596E-013  0.5930197E+02  0.7816164E-02  0.1266605E+00
        -11   -1    0    0    0    0  0.00000000000E+00  0.00000000000E+00  0.45593999997E+02  0.45594000000E+02  0.51100000000E-03 0.  1.
         11   -1    0    0    0    0 -0.00000000000E+00 -0.00000000000E+00 -0.45593999997E+02  0.45594000000E+02  0.51100000000E-03 0. -1.
    9900012    2    1    2    0    0  0.29503130911E+02 -0.16368813513E+01 -0.11983526548E+02  0.59301968220E+02  0.50000044122E+02 0.  0.
        -12    1    1    2    0    0 -0.29503130911E+02  0.16368813513E+01  0.11983526548E+02  0.31886031780E+02  0.00000000000E+00 0.  1.
         11    1    3    3    0    0 -0.11440565146E+02 -0.39586116764E+01  0.94975028624E-01  0.12106451081E+02  0.51100000000E-03 0.  1.
        -11    1    3    3    0    0  0.30832852616E+02  0.68640877198E+01 -0.16037080104E+02  0.35425533718E+02  0.51100000000E-03 0. -1.
        -12    1    3    3    0    0  0.10110843441E+02 -0.45423573947E+01  0.39585785273E+01  0.11769983421E+02  0.00000000000E+00 0.  1.
</event>
<event>
 7    1  0.6293596E-013  0.5930194E+02  0.7816164E-02  0.1266605E+00
        -11   -1    0    0    0    0  0.00000000000E+00  0.00000000000E+00  0.45593999997E+02  0.45594000000E+02  0.51100000000E-03 0. -1.
         11   -1    0    0    0    0 -0.00000000000E+00 -0.00000000000E+00 -0.45593999997E+02  0.45594000000E+02  0.51100000000E-03 0.  1.
    9900012    2    1    2    0    0  0.20554966394E+02  0.14563446503E+02  0.19547900986E+02  0.59301936423E+02  0.49999986130E+02 0.  0.
        -12    1    1    2    0    0 -0.20554966394E+02 -0.14563446503E+02 -0.19547900986E+02  0.31886063577E+02  0.00000000000E+00 0.  1.
         11    1    3    3    0    0  0.78451375343E+01 -0.52861951073E+01  0.24978509239E+02  0.26709847729E+02  0.51100000000E-03 0. -1.
        -11    1    3    3    0    0  0.16527944902E+02  0.71734594579E+01 -0.68538169466E+01  0.19277092371E+02  0.51100000000E-03 0.  1.
        -12    1    3    3    0    0 -0.38181160429E+01  0.12676182152E+02  0.14232086931E+01  0.13314996322E+02  0.00000000000E+00 0.  1.
</event>
<event>
 7    1  0.6293596E-013  0.5930194E+02  0.7816164E-02  0.1266605E+00
        -11   -1    0    0    0    0  0.00000000000E+00  0.00000000000E+00  0.45593999997E+02  0.45594000000E+02  0.51100000000E-03 0. -1.
         11   -1    0    0    0    0 -0.00000000000E+00 -0.00000000000E+00 -0.45593999997E+02  0.45594000000E+02  0.51100000000E-03 0.  1.
    9900012    2    1    2    0    0  0.20459525561E+02 -0.20377077735E+02  0.13524172846E+02  0.59301941380E+02  0.49999995170E+02 0.  0.
        -12    1    1    2    0    0 -0.20459525561E+02  0.20377077735E+02 -0.13524172846E+02  0.31886058620E+02  0.00000000000E+00 0.  1.
         11    1    3    3    0    0  0.14978373986E+02 -0.18959269167E+02  0.11712740272E+02  0.26851328823E+02  0.51100000000E-03 0. -1.
        -11    1    3    3    0    0  0.39409647063E+01  0.14742363155E+02 -0.29303725140E+01  0.15538840290E+02  0.51100000000E-03 0.  1.
        -12    1    3    3    0    0  0.15401868683E+01 -0.16160171723E+02  0.47418050878E+01  0.16911772267E+02  0.00000000000E+00 0.  1.
</event>
<event>
 7    1  0.6293596E-013  0.5930186E+02  0.7816164E-02  0.1266605E+00
        -11   -1    0    0    0    0  0.00000000000E+00  0.00000000000E+00  0.45593999997E+02  0.45594000000E+02  0.51100000000E-03 0. -1.
         11   -1    0    0    0    0 -0.00000000000E+00 -0.00000000000E+00 -0.45593999997E+02  0.45594000000E+02  0.51100000000E-03 0.  1.
    9900012    2    1    2    0    0  0.24488043234E+02 -0.13311520626E+02  0.15487585204E+02  0.59301856641E+02  0.49999840628E+02 0.  0.
        -12    1    1    2    0    0 -0.24488043234E+02  0.13311520626E+02 -0.15487585204E+02  0.31886143359E+02  0.00000000000E+00 0.  1.
         11    1    3    3    0    0  0.22740130567E+02 -0.20041906383E+02  0.30052848021E+02  0.42684484583E+02  0.51100000000E-03 0. -1.
        -11    1    3    3    0    0 -0.32091730238E+00  0.44765004771E+01 -0.58006731263E+01  0.73341566260E+01  0.51100000000E-03 0.  1.
         12    1    3    3    0    0  0.20688299696E+01  0.22538852794E+01 -0.87645896917E+01  0.92832154321E+01  0.00000000000E+00 0. -1.
</event>
<event>
 7    1  0.6293596E-013  0.5930196E+02  0.7816164E-02  0.1266605E+00
        -11   -1    0    0    0    0  0.00000000000E+00  0.00000000000E+00  0.45593999997E+02  0.45594000000E+02  0.51100000000E-03 0.  1.
         11   -1    0    0    0    0 -0.00000000000E+00 -0.00000000000E+00 -0.45593999997E+02  0.45594000000E+02  0.51100000000E-03 0. -1.
    9900012    2    1    2    0    0  0.20196383478E+02  0.17886093437E+02 -0.16997447131E+02  0.59301961472E+02  0.50000031815E+02 0.  0.
        -12    1    1    2    0    0 -0.20196383478E+02 -0.17886093437E+02  0.16997447131E+02  0.31886038528E+02  0.00000000000E+00 0.  1.
         11    1    3    3    0    0  0.31064865490E+01 -0.21426436984E+01 -0.53299801266E+01  0.65306867256E+01  0.51100000000E-03 0. -1.
        -11    1    3    3    0    0  0.21655884191E+02  0.28266270901E+02  0.25694254828E+01  0.35700999122E+02  0.51100000000E-03 0.  1.
        -12    1    3    3    0    0 -0.45659872625E+01 -0.82375337654E+01 -0.14236892487E+02  0.17070275625E+02  0.00000000000E+00 0.  1.
</event>
<event>
 7    1  0.6293596E-013  0.5930197E+02  0.7816164E-02  0.1266605E+00
        -11   -1    0    0    0    0  0.00000000000E+00  0.00000000000E+00  0.45593999997E+02  0.45594000000E+02  0.51100000000E-03 0.  1.
         11   -1    0    0    0    0 -0.00000000000E+00 -0.00000000000E+00 -0.45593999997E+02  0.45594000000E+02  0.51100000000E-03 0. -1.
    9900012    2    1    2    0    0  0.31262460458E+01  0.68380889631E+01 -0.30986865263E+02  0.59301973377E+02  0.50000053525E+02 0.  0.
        -12    1    1    2    0    0 -0.31262460458E+01 -0.68380889631E+01  0.30986865263E+02  0.31886026623E+02  0.00000000000E+00 0.  1.
         11    1    3    3    0    0 -0.88981600587E+01 -0.29630052665E+01 -0.99996045491E+01  0.13709439961E+02  0.51100000000E-03 0. -1.
        -11    1    3    3    0    0  0.21111081007E+02 -0.58371123937E+01 -0.14974710618E+02  0.26532839666E+02  0.51100000000E-03 0.  1.
        -12    1    3    3    0    0 -0.90866749026E+01  0.15638206623E+02 -0.60125500958E+01  0.19059693750E+02  0.00000000000E+00 0.  1.
</event>
<event>
 7    1  0.6293596E-013  0.5930194E+02  0.7816164E-02  0.1266605E+00
        -11   -1    0    0    0    0  0.00000000000E+00  0.00000000000E+00  0.45593999997E+02  0.45594000000E+02  0.51100000000E-03 0.  1.
         11   -1    0    0    0    0 -0.00000000000E+00 -0.00000000000E+00 -0.45593999997E+02  0.45594000000E+02  0.51100000000E-03 0. -1.
    9900012    2    1    2    0    0  0.75337231100E+01 -0.97423146842E+01 -0.29411755835E+02  0.59301936264E+02  0.49999985840E+02 0.  0.
        -12    1    1    2    0    0 -0.75337231100E+01  0.97423146842E+01  0.29411755835E+02  0.31886063736E+02  0.00000000000E+00 0.  1.
         11    1    3    3    0    0  0.76805139165E+01  0.72658399341E+01 -0.80340364760E+01  0.13278872931E+02  0.51100000000E-03 0. -1.
        -11    1    3    3    0    0 -0.10156421455E+02 -0.12855243488E+02 -0.28628000955E+02  0.32984429976E+02  0.51100000000E-03 0.  1.
        -12    1    3    3    0    0  0.10009630649E+02 -0.41529111301E+01  0.72502815960E+01  0.13038633356E+02  0.00000000000E+00 0.  1.
</event>
<event>
 7    1  0.6293596E-013  0.5930194E+02  0.7816164E-02  0.1266605E+00
        -11   -1    0    0    0    0  0.00000000000E+00  0.00000000000E+00  0.45593999997E+02  0.45594000000E+02  0.51100000000E-03 0. -1.
         11   -1    0    0    0    0 -0.00000000000E+00 -0.00000000000E+00 -0.45593999997E+02  0.45594000000E+02  0.51100000000E-03 0.  1.
    9900012    2    1    2    0    0  0.29052347558E+02 -0.61982913829E+01  0.11587205297E+02  0.59301936566E+02  0.49999986392E+02 0.  0.
        -12    1    1    2    0    0 -0.29052347558E+02  0.61982913829E+01 -0.11587205297E+02  0.31886063434E+02  0.00000000000E+00 0.  1.
         11    1    3    3    0    0  0.13580804219E+02  0.10500384461E+02  0.93669446225E+01  0.19555970160E+02  0.51100000000E-03 0. -1.
        -11    1    3    3    0    0  0.13786883653E+02 -0.98523671908E+01 -0.14050810356E+02  0.22013009155E+02  0.51100000000E-03 0.  1.
        -12    1    3    3    0    0  0.16846596861E+01 -0.68463086532E+01  0.16271071030E+02  0.17732957252E+02  0.00000000000E+00 0.  1.
</event>
<event>
 7    1  0.6293596E-013  0.5930195E+02  0.7816164E-02  0.1266605E+00
        -11   -1    0    0    0    0  0.00000000000E+00  0.00000000000E+00  0.45593999997E+02  0.45594000000E+02  0.51100000000E-03 0.  1.
         11   -1    0    0    0    0 -0.00000000000E+00 -0.00000000000E+00 -0.45593999997E+02  0.45594000000E+02  0.51100000000E-03 0. -1.
    9900012    2    1    2    0    0  0.57645283479E+01 -0.51800756661E+01 -0.30929870606E+02  0.59301954985E+02  0.50000019984E+02 0.  0.
        -12    1    1    2    0    0 -0.57645283479E+01  0.51800756661E+01  0.30929870606E+02  0.31886045015E+02  0.00000000000E+00 0.  1.
         11    1    3    3    0    0 -0.10694062265E+02  0.27264779592E+01 -0.26839785957E+02  0.29020178502E+02  0.51100000000E-03 0. -1.
        -11    1    3    3    0    0  0.19591685334E+02  0.18767927414E+01 -0.18545409650E+01  0.19768556034E+02  0.51100000000E-03 0.  1.
         12    1    3    3    0    0 -0.31330947201E+01 -0.97833463667E+01 -0.22355436835E+01  0.10513220449E+02  0.00000000000E+00 0. -1.
</event>
<event>
 7    1  0.6293596E-013  0.5930194E+02  0.7816164E-02  0.1266605E+00
        -11   -1    0    0    0    0  0.00000000000E+00  0.00000000000E+00  0.45593999997E+02  0.45594000000E+02  0.51100000000E-03 0. -1.
         11   -1    0    0    0    0 -0.00000000000E+00 -0.00000000000E+00 -0.45593999997E+02  0.45594000000E+02  0.51100000000E-03 0.  1.
    9900012    2    1    2    0    0  0.21740862876E+02 -0.65575677543E+00  0.23315782040E+02  0.59301939916E+02  0.49999992501E+02 0.  0.
        -12    1    1    2    0    0 -0.21740862876E+02  0.65575677543E+00 -0.23315782040E+02  0.31886060084E+02  0.00000000000E+00 0.  1.
         11    1    3    3    0    0  0.28801213461E+02  0.13268531363E+01  0.24675345208E+02  0.37949217350E+02  0.51100000000E-03 0. -1.
        -11    1    3    3    0    0  0.42962012145E+01  0.23073665417E+01 -0.65364693472E+01  0.81551650518E+01  0.51100000000E-03 0.  1.
         12    1    3    3    0    0 -0.11356551800E+02 -0.42899764534E+01  0.51769061798E+01  0.13197557514E+02  0.00000000000E+00 0. -1.
</event>
<event>
 7    1  0.6293596E-013  0.5930191E+02  0.7816164E-02  0.1266605E+00
        -11   -1    0    0    0    0  0.00000000000E+00  0.00000000000E+00  0.45593999997E+02  0.45594000000E+02  0.51100000000E-03 0. -1.
         11   -1    0    0    0    0 -0.00000000000E+00 -0.00000000000E+00 -0.45593999997E+02  0.45594000000E+02  0.51100000000E-03 0.  1.
    9900012    2    1    2    0    0  0.28586401634E+02  0.89610324764E+01 -0.10919726604E+02  0.59301907569E+02  0.49999933508E+02 0.  0.
        -12    1    1    2    0    0 -0.28586401634E+02 -0.89610324764E+01  0.10919726604E+02  0.31886092431E+02  0.00000000000E+00 0.  1.
         11    1    3    3    0    0 -0.27058697753E+01 -0.13494017960E+02  0.61643186537E+01  0.15080088749E+02  0.51100000000E-03 0. -1.
        -11    1    3    3    0    0  0.13570878093E+02  0.17950796400E+02 -0.93347114233E+01  0.24362607850E+02  0.51100000000E-03 0.  1.
         12    1    3    3    0    0  0.17721393316E+02  0.45042540365E+01 -0.77493338341E+01  0.19859210970E+02  0.00000000000E+00 0. -1.
</event>
<event>
 7    1  0.6293596E-013  0.5930195E+02  0.7816164E-02  0.1266605E+00
        -11   -1    0    0    0    0  0.00000000000E+00  0.00000000000E+00  0.45593999997E+02  0.45594000000E+02  0.51100000000E-03 0.  1.
         11   -1    0    0    0    0 -0.00000000000E+00 -0.00000000000E+00 -0.45593999997E+02  0.45594000000E+02  0.51100000000E-03 0. -1.
    9900012    2    1    2    0    0 -0.33423253347E+01  0.31683760936E+02 -0.12993454272E+01  0.59301950633E+02  0.50000012047E+02 0.  0.
        -12    1    1    2    0    0  0.33423253347E+01 -0.31683760936E+02  0.12993454272E+01  0.31886049367E+02  0.00000000000E+00 0.  1.
         11    1    3    3    0    0  0.42925575038E+01  0.13975735762E+02 -0.21759925007E+02  0.26215292800E+02  0.51100000000E-03 0. -1.
        -11    1    3    3    0    0 -0.36165257826E+01  0.62140315769E+01  0.19603468050E+02  0.20880359361E+02  0.51100000000E-03 0.  1.
         12    1    3    3    0    0 -0.40183570558E+01  0.11493993597E+02  0.85711152947E+00  0.12206298473E+02  0.00000000000E+00 0. -1.
</event>
<event>
 7    1  0.6297598E-013  0.5930190E+02  0.7816164E-02  0.1266605E+00
        -11   -1    0    0    0    0  0.00000000000E+00  0.00000000000E+00  0.45593999997E+02  0.45594000000E+02  0.51100000000E-03 0.  1.
         11   -1    0    0    0    0 -0.00000000000E+00 -0.00000000000E+00 -0.45593999997E+02  0.45594000000E+02  0.51100000000E-03 0. -1.
    9900012    2    1    2    0    0  0.23782186979E+02  0.18750556170E+02 -0.99773544215E+01  0.59301899965E+02  0.49999919640E+02 0.  0.
        -12    1    1    2    0    0 -0.23782186979E+02 -0.18750556170E+02  0.99773544215E+01  0.31886100035E+02  0.00000000000E+00 0.  1.
         11    1    3    3    0    0  0.17830140835E+02  0.24896585444E+02 -0.16034552566E+02  0.34566758095E+02  0.51100000000E-03 0. -1.
        -11    1    3    3    0    0  0.11966091894E+02 -0.92543100942E+01 -0.73551408844E+00  0.15144985697E+02  0.51100000000E-03 0.  1.
        -12    1    3    3    0    0 -0.60140457494E+01  0.31082808202E+01  0.67927122328E+01  0.95901561724E+01  0.00000000000E+00 0.  1.
</event>
<event>
 7    1  0.6293596E-013  0.5930194E+02  0.7816164E-02  0.1266605E+00
        -11   -1    0    0    0    0  0.00000000000E+00  0.00000000000E+00  0.45593999997E+02  0.45594000000E+02  0.51100000000E-03 0.  1.
         11   -1    0    0    0    0 -0.00000000000E+00 -0.00000000000E+00 -0.45593999997E+02  0.45594000000E+02  0.51100000000E-03 0. -1.
    9900012    2    1    2    0    0  0.29222554001E+02 -0.12703426135E+02  0.11774254523E+01  0.59301936765E+02  0.49999986755E+02 0.  0.
        -12    1    1    2    0    0 -0.29222554001E+02  0.12703426135E+02 -0.11774254523E+01  0.31886063235E+02  0.00000000000E+00 0.  1.
         11    1    3    3    0    0  0.33106467320E+02 -0.10984384648E+02 -0.15675273357E+02  0.38241457602E+02  0.51100000000E-03 0. -1.
        -11    1    3    3    0    0 -0.51543547131E+01 -0.24595479518E+01  0.18194511456E+02  0.19069792763E+02  0.51100000000E-03 0.  1.
         12    1    3    3    0    0  0.12704413941E+01  0.74050646480E+00 -0.13418126476E+01  0.19906863996E+01  0.00000000000E+00 0. -1.
</event>
<event>
 7    1  0.6293596E-013  0.5930187E+02  0.7816164E-02  0.1266605E+00
        -11   -1    0    0    0    0  0.00000000000E+00  0.00000000000E+00  0.45593999997E+02  0.45594000000E+02  0.51100000000E-03 0. -1.
         11   -1    0    0    0    0 -0.00000000000E+00 -0.00000000000E+00 -0.45593999997E+02  0.45594000000E+02  0.51100000000E-03 0.  1.
    9900012    2    1    2    0    0  0.63006833287E+01  0.18100316201E+02  0.25483433845E+02  0.59301867316E+02  0.49999860097E+02 0.  0.
        -12    1    1    2    0    0 -0.63006833287E+01 -0.18100316201E+02 -0.25483433845E+02  0.31886132684E+02  0.00000000000E+00 0.  1.
         11    1    3    3    0    0  0.21438380184E+01  0.26321007531E+02  0.30794086220E+02  0.40566824195E+02  0.51100000000E-03 0. -1.
        -11    1    3    3    0    0  0.53159031461E+01 -0.12113046805E+02 -0.17680639210E+01  0.13345815054E+02  0.51100000000E-03 0.  1.
        -12    1    3    3    0    0 -0.11590578358E+01  0.38923554753E+01 -0.35425884539E+01  0.53892280678E+01  0.00000000000E+00 0.  1.
</event>
<event>
 7    1  0.6293596E-013  0.5930196E+02  0.7816164E-02  0.1266605E+00
        -11   -1    0    0    0    0  0.00000000000E+00  0.00000000000E+00  0.45593999997E+02  0.45594000000E+02  0.51100000000E-03 0. -1.
         11   -1    0    0    0    0 -0.00000000000E+00 -0.00000000000E+00 -0.45593999997E+02  0.45594000000E+02  0.51100000000E-03 0.  1.
    9900012    2    1    2    0    0  0.22254184650E+02 -0.21920529393E+02  0.64001112858E+01  0.59301956536E+02  0.50000022813E+02 0.  0.
        -12    1    1    2    0    0 -0.22254184650E+02  0.21920529393E+02 -0.64001112858E+01  0.31886043464E+02  0.00000000000E+00 0.  1.
         11    1    3    3    0    0  0.91213015440E+01  0.12709733496E+01 -0.10619396142E+02  0.14056496356E+02  0.51100000000E-03 0. -1.
        -11    1    3    3    0    0  0.41740998257E+01 -0.31360621036E+01  0.22093162486E+02  0.22701670066E+02  0.51100000000E-03 0.  1.
         12    1    3    3    0    0  0.89587832802E+01 -0.20055440639E+02 -0.50736550584E+01  0.22543790115E+02  0.00000000000E+00 0. -1.
</event>
<event>
 7    1  0.6293596E-013  0.5930194E+02  0.7816164E-02  0.1266605E+00
        -11   -1    0    0    0    0  0.00000000000E+00  0.00000000000E+00  0.45593999997E+02  0.45594000000E+02  0.51100000000E-03 0.  1.
         11   -1    0    0    0    0 -0.00000000000E+00 -0.00000000000E+00 -0.45593999997E+02  0.45594000000E+02  0.51100000000E-03 0. -1.
    9900012    2    1    2    0    0 -0.11882131638E+02  0.28480922594E+02 -0.80232496460E+01  0.59301944444E+02  0.50000000759E+02 0.  0.
        -12    1    1    2    0    0  0.11882131638E+02 -0.28480922594E+02  0.80232496460E+01  0.31886055556E+02  0.00000000000E+00 0.  1.
         11    1    3    3    0    0 -0.24394908489E+02  0.20237294199E+01  0.33372809194E+01  0.24705150984E+02  0.51100000000E-03 0. -1.
        -11    1    3    3    0    0  0.31898937523E+01  0.17123334078E+02 -0.36295520065E+00  0.17421702811E+02  0.51100000000E-03 0.  1.
         12    1    3    3    0    0  0.93228830988E+01  0.93338590962E+01 -0.10997575365E+02  0.17175090649E+02  0.00000000000E+00 0. -1.
</event>
<event>
 7    1  0.6293596E-013  0.5930193E+02  0.7816164E-02  0.1266605E+00
        -11   -1    0    0    0    0  0.00000000000E+00  0.00000000000E+00  0.45593999997E+02  0.45594000000E+02  0.51100000000E-03 0.  1.
         11   -1    0    0    0    0 -0.00000000000E+00 -0.00000000000E+00 -0.45593999997E+02  0.45594000000E+02  0.51100000000E-03 0. -1.
    9900012    2    1    2    0    0 -0.12574037266E+02 -0.12467873599E+02 -0.26517295916E+02  0.59301933012E+02  0.49999979910E+02 0.  0.
        -12    1    1    2    0    0  0.12574037266E+02  0.12467873599E+02  0.26517295916E+02  0.31886066988E+02  0.00000000000E+00 0.  1.
         11    1    3    3    0    0 -0.88590799082E+01  0.13659848103E+02 -0.16607605303E+01  0.16365600289E+02  0.51100000000E-03 0. -1.
        -11    1    3    3    0    0 -0.74737022974E+01 -0.20128580550E+02 -0.27921009274E+02  0.35222134236E+02  0.51100000000E-03 0.  1.
        -12    1    3    3    0    0  0.37587449397E+01 -0.59991411521E+01  0.30644738880E+01  0.77141984869E+01  0.00000000000E+00 0.  1.
</event>
<event>
 7    1  0.6293596E-013  0.5930194E+02  0.7816164E-02  0.1266605E+00
        -11   -1    0    0    0    0  0.00000000000E+00  0.00000000000E+00  0.45593999997E+02  0.45594000000E+02  0.51100000000E-03 0.  1.
         11   -1    0    0    0    0 -0.00000000000E+00 -0.00000000000E+00 -0.45593999997E+02  0.45594000000E+02  0.51100000000E-03 0. -1.
    9900012    2    1    2    0    0 -0.27907600606E+02 -0.12056420328E+02 -0.96192267301E+01  0.59301937754E+02  0.49999988557E+02 0.  0.
        -12    1    1    2    0    0  0.27907600606E+02  0.12056420328E+02  0.96192267301E+01  0.31886062246E+02  0.00000000000E+00 0.  1.
         11    1    3    3    0    0 -0.11789007723E+02  0.97734960419E+01 -0.16305356877E+02  0.22368875500E+02  0.51100000000E-03 0. -1.
        -11    1    3    3    0    0 -0.90077115630E+01 -0.11517981449E+02 -0.87608126633E+01  0.17045662294E+02  0.51100000000E-03 0.  1.
         12    1    3    3    0    0 -0.71108813197E+01 -0.10311934921E+02  0.15446942810E+02  0.19887399959E+02  0.00000000000E+00 0. -1.
</event>
<event>
 7    1  0.6293596E-013  0.5930197E+02  0.7816164E-02  0.1266605E+00
        -11   -1    0    0    0    0  0.00000000000E+00  0.00000000000E+00  0.45593999997E+02  0.45594000000E+02  0.51100000000E-03 0.  1.
         11   -1    0    0    0    0 -0.00000000000E+00 -0.00000000000E+00 -0.45593999997E+02  0.45594000000E+02  0.51100000000E-03 0. -1.
    9900012    2    1    2    0    0  0.96269556438E+01 -0.29218282038E+02  0.83864533225E+01  0.59301970465E+02  0.50000048215E+02 0.  0.
        -12    1    1    2    0    0 -0.96269556438E+01  0.29218282038E+02 -0.83864533225E+01  0.31886029535E+02  0.00000000000E+00 0.  1.
         11    1    3    3    0    0  0.11658345615E+02 -0.57018140917E+00 -0.71234604800E+01  0.13674275805E+02  0.51100000000E-03 0. -1.
        -11    1    3    3    0    0  0.46238665959E+01 -0.24848970498E+02  0.23531594462E+02  0.34533858969E+02  0.51100000000E-03 0.  1.
        -12    1    3    3    0    0 -0.66552565672E+01 -0.37991301304E+01 -0.80216806597E+01  0.11093835691E+02  0.00000000000E+00 0.  1.
</event>
<event>
 7    1  0.6293596E-013  0.5930194E+02  0.7816164E-02  0.1266605E+00
        -11   -1    0    0    0    0  0.00000000000E+00  0.00000000000E+00  0.45593999997E+02  0.45594000000E+02  0.51100000000E-03 0. -1.
         11   -1    0    0    0    0 -0.00000000000E+00 -0.00000000000E+00 -0.45593999997E+02  0.45594000000E+02  0.51100000000E-03 0.  1.
    9900012    2    1    2    0    0  0.22672226948E+02 -0.10800975019E+01  0.22394744819E+02  0.59301935945E+02  0.49999985259E+02 0.  0.
        -12    1    1    2    0    0 -0.22672226948E+02  0.10800975019E+01 -0.22394744819E+02  0.31886064055E+02  0.00000000000E+00 0.  1.
         11    1    3    3    0    0  0.10037315315E+02 -0.79386940348E+01  0.50490750787E+01  0.13757315186E+02  0.51100000000E-03 0. -1.
        -11    1    3    3    0    0  0.14893645342E+02  0.13064075158E+02 -0.64615453071E+01  0.20838481214E+02  0.51100000000E-03 0.  1.
        -12    1    3    3    0    0 -0.22587337086E+01 -0.62054786247E+01  0.23807215048E+02  0.24706139546E+02  0.00000000000E+00 0.  1.
</event>
<event>
 7    1  0.6293596E-013  0.5930193E+02  0.7816164E-02  0.1266605E+00
        -11   -1    0    0    0    0  0.00000000000E+00  0.00000000000E+00  0.45593999997E+02  0.45594000000E+02  0.51100000000E-03 0.  1.
         11   -1    0    0    0    0 -0.00000000000E+00 -0.00000000000E+00 -0.45593999997E+02  0.45594000000E+02  0.51100000000E-03 0. -1.
    9900012    2    1    2    0    0 -0.90936735866E+01  0.28225784520E+02 -0.11718863448E+02  0.59301928251E+02  0.49999971227E+02 0.  0.
        -12    1    1    2    0    0  0.90936735866E+01 -0.28225784520E+02  0.11718863448E+02  0.31886071749E+02  0.00000000000E+00 0.  1.
         11    1    3    3    0    0  0.78702563748E+01  0.83653732116E+01 -0.32574234942E+00  0.11490279053E+02  0.51100000000E-03 0. -1.
        -11    1    3    3    0    0 -0.27923594845E+02  0.21327185704E+02 -0.65578055616E+01  0.35743262486E+02  0.51100000000E-03 0.  1.
        -12    1    3    3    0    0  0.10959664883E+02 -0.14667743955E+01 -0.48353155367E+01  0.12068386712E+02  0.00000000000E+00 0.  1.
</event>
<event>
 7    1  0.6293596E-013  0.5930195E+02  0.7816164E-02  0.1266605E+00
        -11   -1    0    0    0    0  0.00000000000E+00  0.00000000000E+00  0.45593999997E+02  0.45594000000E+02  0.51100000000E-03 0. -1.
         11   -1    0    0    0    0 -0.00000000000E+00 -0.00000000000E+00 -0.45593999997E+02  0.45594000000E+02  0.51100000000E-03 0.  1.
    9900012    2    1    2    0    0 -0.15383622416E+02  0.24207851044E+02  0.13929984419E+02  0.59301947301E+02  0.50000005969E+02 0.  0.
        -12    1    1    2    0    0  0.15383622416E+02 -0.24207851044E+02 -0.13929984419E+02  0.31886052699E+02  0.00000000000E+00 0.  1.
         11    1    3    3    0    0 -0.43353492572E+01 -0.46331213380E+01  0.65516972898E+01  0.91206252063E+01  0.51100000000E-03 0. -1.
        -11    1    3    3    0    0  0.14181541776E+01  0.26221542151E+02  0.19413287663E+02  0.32656640553E+02  0.51100000000E-03 0.  1.
        -12    1    3    3    0    0 -0.12466427336E+02  0.26194302306E+01 -0.12035000534E+02  0.17524681541E+02  0.00000000000E+00 0.  1.
</event>
<event>
 7    1  0.6293596E-013  0.5930192E+02  0.7816164E-02  0.1266605E+00
        -11   -1    0    0    0    0  0.00000000000E+00  0.00000000000E+00  0.45593999997E+02  0.45594000000E+02  0.51100000000E-03 0.  1.
         11   -1    0    0    0    0 -0.00000000000E+00 -0.00000000000E+00 -0.45593999997E+02  0.45594000000E+02  0.51100000000E-03 0. -1.
    9900012    2    1    2    0    0 -0.24399614709E+02  0.14058547216E+02 -0.14957869070E+02  0.59301924749E+02  0.49999964841E+02 0.  0.
        -12    1    1    2    0    0  0.24399614709E+02 -0.14058547216E+02  0.14957869070E+02  0.31886075251E+02  0.00000000000E+00 0.  1.
         11    1    3    3    0    0 -0.14265050502E+01 -0.54275009426E+01 -0.25576466996E+02  0.26184887768E+02  0.51100000000E-03 0. -1.
        -11    1    3    3    0    0 -0.70522885548E+01  0.52641066451E+01  0.74597578789E+01  0.11536619111E+02  0.51100000000E-03 0.  1.
         12    1    3    3    0    0 -0.15920821104E+02  0.14221941513E+02  0.31588400469E+01  0.21580417871E+02  0.00000000000E+00 0. -1.
</event>
<event>
 7    1  0.6293596E-013  0.5930194E+02  0.7816164E-02  0.1266605E+00
        -11   -1    0    0    0    0  0.00000000000E+00  0.00000000000E+00  0.45593999997E+02  0.45594000000E+02  0.51100000000E-03 0. -1.
         11   -1    0    0    0    0 -0.00000000000E+00 -0.00000000000E+00 -0.45593999997E+02  0.45594000000E+02  0.51100000000E-03 0.  1.
    9900012    2    1    2    0    0  0.81023736215E+01  0.30634830504E+02 -0.35467506599E+01  0.59301941313E+02  0.49999995049E+02 0.  0.
        -12    1    1    2    0    0 -0.81023736215E+01 -0.30634830504E+02  0.35467506599E+01  0.31886058687E+02  0.00000000000E+00 0.  1.
         11    1    3    3    0    0  0.62977399913E+01  0.37565356687E+02 -0.18593027728E+01  0.38134951935E+02  0.51100000000E-03 0. -1.
        -11    1    3    3    0    0 -0.39019791665E+01 -0.68152672173E+01  0.71671962747E+01  0.10632121677E+02  0.51100000000E-03 0.  1.
        -12    1    3    3    0    0  0.57066127967E+01 -0.11525896561E+00 -0.88546441618E+01  0.10534867701E+02  0.00000000000E+00 0.  1.
</event>
<event>
 7    1  0.6293596E-013  0.5930199E+02  0.7816164E-02  0.1266605E+00
        -11   -1    0    0    0    0  0.00000000000E+00  0.00000000000E+00  0.45593999997E+02  0.45594000000E+02  0.51100000000E-03 0. -1.
         11   -1    0    0    0    0 -0.00000000000E+00 -0.00000000000E+00 -0.45593999997E+02  0.45594000000E+02  0.51100000000E-03 0.  1.
    9900012    2    1    2    0    0 -0.57209005364E+01 -0.17796391309E+01  0.31318078485E+02  0.59301986477E+02  0.50000077417E+02 0.  0.
        -12    1    1    2    0    0  0.57209005364E+01  0.17796391309E+01 -0.31318078485E+02  0.31886013523E+02  0.00000000000E+00 0.  1.
         11    1    3    3    0    0  0.56712923338E+00  0.79480593862E+01  0.71254311740E+01  0.10689483301E+02  0.51100000000E-03 0. -1.
        -11    1    3    3    0    0 -0.22383077937E+02 -0.12105370445E+02  0.18151938273E+02  0.31257559644E+02  0.51100000000E-03 0.  1.
        -12    1    3    3    0    0  0.16095048167E+02  0.23776719279E+01  0.60407090384E+01  0.17354943532E+02  0.00000000000E+00 0.  1.
</event>
<event>
 7    1  0.6293596E-013  0.5930195E+02  0.7816164E-02  0.1266605E+00
        -11   -1    0    0    0    0  0.00000000000E+00  0.00000000000E+00  0.45593999997E+02  0.45594000000E+02  0.51100000000E-03 0. -1.
         11   -1    0    0    0    0 -0.00000000000E+00 -0.00000000000E+00 -0.45593999997E+02  0.45594000000E+02  0.51100000000E-03 0.  1.
    9900012    2    1    2    0    0 -0.24380708484E+02 -0.22616884594E+00  0.20548732288E+02  0.59301945099E+02  0.50000001953E+02 0.  0.
        -12    1    1    2    0    0  0.24380708484E+02  0.22616884594E+00 -0.20548732288E+02  0.31886054901E+02  0.00000000000E+00 0.  1.
         11    1    3    3    0    0 -0.35590312902E+02  0.89887856086E+01  0.22698412485E+02  0.43158852728E+02  0.51100000000E-03 0. -1.
        -11    1    3    3    0    0  0.11388234839E+01 -0.13666324751E+01 -0.28460888389E+01  0.33563112474E+01  0.51100000000E-03 0.  1.
         12    1    3    3    0    0  0.10070780934E+02 -0.78483219795E+01  0.69640864147E+00  0.12786781124E+02  0.00000000000E+00 0. -1.
</event>
<event>
 7    1  0.6293596E-013  0.5930196E+02  0.7816164E-02  0.1266605E+00
        -11   -1    0    0    0    0  0.00000000000E+00  0.00000000000E+00  0.45593999997E+02  0.45594000000E+02  0.51100000000E-03 0.  1.
         11   -1    0    0    0    0 -0.00000000000E+00 -0.00000000000E+00 -0.45593999997E+02  0.45594000000E+02  0.51100000000E-03 0. -1.
    9900012    2    1    2    0    0  0.25980122865E+02 -0.57564299145E+00 -0.18477588126E+02  0.59301962117E+02  0.50000032990E+02 0.  0.
        -12    1    1    2    0    0 -0.25980122865E+02  0.57564299145E+00  0.18477588126E+02  0.31886037883E+02  0.00000000000E+00 0.  1.
         11    1    3    3    0    0  0.11560315242E+02  0.21418939318E+01 -0.31984775145E+02  0.34077183561E+02  0.51100000000E-03 0. -1.
        -11    1    3    3    0    0  0.22947794233E+01 -0.35957962229E+01  0.12287608375E+02  0.13006962863E+02  0.51100000000E-03 0.  1.
         12    1    3    3    0    0  0.12125028200E+02  0.87825929965E+00  0.12195786443E+01  0.12217815693E+02  0.00000000000E+00 0. -1.
</event>
<event>
 7    1  0.6293596E-013  0.5930194E+02  0.7816164E-02  0.1266605E+00
        -11   -1    0    0    0    0  0.00000000000E+00  0.00000000000E+00  0.45593999997E+02  0.45594000000E+02  0.51100000000E-03 0.  1.
         11   -1    0    0    0    0 -0.00000000000E+00 -0.00000000000E+00 -0.45593999997E+02  0.45594000000E+02  0.51100000000E-03 0. -1.
    9900012    2    1    2    0    0 -0.11722411497E+02 -0.15470963498E+02 -0.25297335863E+02  0.59301939650E+02  0.49999992017E+02 0.  0.
        -12    1    1    2    0    0  0.11722411497E+02  0.15470963498E+02  0.25297335863E+02  0.31886060350E+02  0.00000000000E+00 0.  1.
         11    1    3    3    0    0 -0.84022111915E+01 -0.18251712443E+02 -0.20325036405E+02  0.28580225072E+02  0.51100000000E-03 0. -1.
        -11    1    3    3    0    0  0.52151274038E+01  0.80939185999E+00  0.11170926151E+02  0.12354847646E+02  0.51100000000E-03 0.  1.
        -12    1    3    3    0    0 -0.85353277089E+01  0.19713570858E+01 -0.16143225609E+02  0.18366866933E+02  0.00000000000E+00 0.  1.
</event>
<event>
 7    1  0.6293596E-013  0.5930194E+02  0.7816164E-02  0.1266605E+00
        -11   -1    0    0    0    0  0.00000000000E+00  0.00000000000E+00  0.45593999997E+02  0.45594000000E+02  0.51100000000E-03 0.  1.
         11   -1    0    0    0    0 -0.00000000000E+00 -0.00000000000E+00 -0.45593999997E+02  0.45594000000E+02  0.51100000000E-03 0. -1.
    9900012    2    1    2    0    0  0.23343643919E+02 -0.11277296814E+02 -0.18563875938E+02  0.59301943100E+02  0.49999998307E+02 0.  0.
        -12    1    1    2    0    0 -0.23343643919E+02  0.11277296814E+02  0.18563875938E+02  0.31886056900E+02  0.00000000000E+00 0.  1.
         11    1    3    3    0    0  0.20539381041E+01  0.91038893767E+01 -0.19737216206E+01  0.95391320787E+01  0.51100000000E-03 0. -1.
        -11    1    3    3    0    0  0.22339806811E+02 -0.28277626447E+02 -0.19865146024E+02  0.41149910725E+02  0.51100000000E-03 0.  1.
        -12    1    3    3    0    0 -0.10501009958E+01  0.78964402567E+01  0.32749917074E+01  0.86129002962E+01  0.00000000000E+00 0.  1.
</event>
<event>
 7    1  0.6293596E-013  0.5930216E+02  0.7816164E-02  0.1266604E+00
        -11   -1    0    0    0    0  0.00000000000E+00  0.00000000000E+00  0.45593999997E+02  0.45594000000E+02  0.51100000000E-03 0.  1.
         11   -1    0    0    0    0 -0.00000000000E+00 -0.00000000000E+00 -0.45593999997E+02  0.45594000000E+02  0.51100000000E-03 0. -1.
    9900012    2    1    2    0    0  0.23462465419E+02 -0.78493456073E+01 -0.20114860186E+02  0.59302155016E+02  0.50000384791E+02 0.  0.
        -12    1    1    2    0    0 -0.23462465419E+02  0.78493456073E+01  0.20114860186E+02  0.31885844984E+02  0.00000000000E+00 0.  1.
         11    1    3    3    0    0  0.15020148671E+02 -0.14928877106E+02 -0.15951810827E+02  0.26512949792E+02  0.51100000000E-03 0. -1.
        -11    1    3    3    0    0  0.50331972886E+01  0.15579475180E+02 -0.12347823254E+02  0.20506629689E+02  0.51100000000E-03 0.  1.
        -12    1    3    3    0    0  0.34091194596E+01 -0.84999436813E+01  0.81847738944E+01  0.12282575535E+02  0.00000000000E+00 0.  1.
</event>
<event>
 7    1  0.6293596E-013  0.5930197E+02  0.7816164E-02  0.1266605E+00
        -11   -1    0    0    0    0  0.00000000000E+00  0.00000000000E+00  0.45593999997E+02  0.45594000000E+02  0.51100000000E-03 0.  1.
         11   -1    0    0    0    0 -0.00000000000E+00 -0.00000000000E+00 -0.45593999997E+02  0.45594000000E+02  0.51100000000E-03 0. -1.
    9900012    2    1    2    0    0 -0.10967597526E+02 -0.75039600252E+01 -0.28984846677E+02  0.59301969384E+02  0.50000046244E+02 0.  0.
        -12    1    1    2    0    0  0.10967597526E+02  0.75039600252E+01  0.28984846677E+02  0.31886030616E+02  0.00000000000E+00 0.  1.
         11    1    3    3    0    0 -0.60781207307E+01  0.12315237346E+02  0.45077405613E+01  0.14454353937E+02  0.51100000000E-03 0. -1.
        -11    1    3    3    0    0  0.44589887507E+01 -0.19534886778E+02 -0.19094088669E+02  0.27678125017E+02  0.51100000000E-03 0.  1.
         12    1    3    3    0    0 -0.93484655463E+01 -0.28431059303E+00 -0.14398498569E+02  0.17169490430E+02  0.00000000000E+00 0. -1.
</event>
<event>
 7    1  0.6293596E-013  0.5930209E+02  0.7816164E-02  0.1266604E+00
        -11   -1    0    0    0    0  0.00000000000E+00  0.00000000000E+00  0.45593999997E+02  0.45594000000E+02  0.51100000000E-03 0.  1.
         11   -1    0    0    0    0 -0.00000000000E+00 -0.00000000000E+00 -0.45593999997E+02  0.45594000000E+02  0.51100000000E-03 0. -1.
    9900012    2    1    2    0    0 -0.26240370668E+02 -0.17076463331E+02 -0.60455489221E+01  0.59302089091E+02  0.50000264561E+02 0.  0.
        -12    1    1    2    0    0  0.26240370668E+02  0.17076463331E+02  0.60455489221E+01  0.31885910909E+02  0.00000000000E+00 0.  1.
         11    1    3    3    0    0 -0.26649981290E+01  0.42688100505E+01 -0.20370558291E+01  0.54290469686E+01  0.51100000000E-03 0. -1.
        -11    1    3    3    0    0 -0.21376204914E+02 -0.12206076260E+02  0.17632093366E+02  0.30279054657E+02  0.51100000000E-03 0.  1.
        -12    1    3    3    0    0 -0.21991676249E+01 -0.91391971212E+01 -0.21640586459E+02  0.23593987466E+02  0.00000000000E+00 0.  1.
</event>
<event>
 7    1  0.6293596E-013  0.5930195E+02  0.7816164E-02  0.1266605E+00
        -11   -1    0    0    0    0  0.00000000000E+00  0.00000000000E+00  0.45593999997E+02  0.45594000000E+02  0.51100000000E-03 0.  1.
         11   -1    0    0    0    0 -0.00000000000E+00 -0.00000000000E+00 -0.45593999997E+02  0.45594000000E+02  0.51100000000E-03 0. -1.
    9900012    2    1    2    0    0 -0.16526441197E-01 -0.18305186407E+02 -0.26108242610E+02  0.59301945765E+02  0.50000003167E+02 0.  0.
        -12    1    1    2    0    0  0.16526441197E-01  0.18305186407E+02  0.26108242610E+02  0.31886054235E+02  0.00000000000E+00 0.  1.
         11    1    3    3    0    0 -0.29768889427E+01  0.69790951506E+01  0.81366468463E+01  0.11125406018E+02  0.51100000000E-03 0.  1.
        -11    1    3    3    0    0  0.65835397279E+00 -0.29042783565E+02 -0.32037670186E+02  0.43247300707E+02  0.51100000000E-03 0. -1.
        -12    1    3    3    0    0  0.23020085287E+01  0.37585020077E+01 -0.22072192702E+01  0.49292390402E+01  0.00000000000E+00 0.  1.
</event>
<event>
 7    1  0.6293596E-013  0.5930179E+02  0.7816164E-02  0.1266605E+00
        -11   -1    0    0    0    0  0.00000000000E+00  0.00000000000E+00  0.45593999997E+02  0.45594000000E+02  0.51100000000E-03 0. -1.
         11   -1    0    0    0    0 -0.00000000000E+00 -0.00000000000E+00 -0.45593999997E+02  0.45594000000E+02  0.51100000000E-03 0.  1.
    9900012    2    1    2    0    0 -0.40744286697E+01 -0.13174825218E+01  0.31597370725E+02  0.59301787213E+02  0.49999714007E+02 0.  0.
        -12    1    1    2    0    0  0.40744286697E+01  0.13174825218E+01 -0.31597370725E+02  0.31886212787E+02  0.00000000000E+00 0.  1.
         11    1    3    3    0    0 -0.16867093689E+02 -0.55583367135E+01  0.33473781044E+01  0.18072047393E+02  0.51100000000E-03 0. -1.
        -11    1    3    3    0    0  0.20689468504E+02  0.64532716654E+01  0.22310217953E+02  0.31103772239E+02  0.51100000000E-03 0.  1.
        -12    1    3    3    0    0 -0.78968034839E+01 -0.22124174737E+01  0.59397746673E+01  0.10125967580E+02  0.00000000000E+00 0.  1.
</event>
<event>
 7    1  0.6293596E-013  0.5930191E+02  0.7816164E-02  0.1266605E+00
        -11   -1    0    0    0    0  0.00000000000E+00  0.00000000000E+00  0.45593999997E+02  0.45594000000E+02  0.51100000000E-03 0.  1.
         11   -1    0    0    0    0 -0.00000000000E+00 -0.00000000000E+00 -0.45593999997E+02  0.45594000000E+02  0.51100000000E-03 0. -1.
    9900012    2    1    2    0    0 -0.14672526490E+02 -0.29256199514E+01 -0.28158136383E+02  0.59301906946E+02  0.49999932372E+02 0.  0.
        -12    1    1    2    0    0  0.14672526490E+02  0.29256199514E+01  0.28158136383E+02  0.31886093054E+02  0.00000000000E+00 0.  1.
         11    1    3    3    0    0  0.75867090019E+01 -0.75939709873E+01 -0.70882803410E+01  0.12863524684E+02  0.51100000000E-03 0. -1.
        -11    1    3    3    0    0 -0.29122990269E+02 -0.35457271069E+01 -0.98897349087E+01  0.30960096895E+02  0.51100000000E-03 0.  1.
        -12    1    3    3    0    0  0.68637547768E+01  0.82140781428E+01 -0.11180121133E+02  0.15478285368E+02  0.00000000000E+00 0.  1.
</event>
<event>
 7    1  0.6293596E-013  0.5930192E+02  0.7816164E-02  0.1266605E+00
        -11   -1    0    0    0    0  0.00000000000E+00  0.00000000000E+00  0.45593999997E+02  0.45594000000E+02  0.51100000000E-03 0.  1.
         11   -1    0    0    0    0 -0.00000000000E+00 -0.00000000000E+00 -0.45593999997E+02  0.45594000000E+02  0.51100000000E-03 0. -1.
    9900012    2    1    2    0    0  0.66607809772E+01 -0.11863754781E+02 -0.28837608217E+02  0.59301916384E+02  0.49999949584E+02 0.  0.
        -12    1    1    2    0    0 -0.66607809772E+01  0.11863754781E+02  0.28837608217E+02  0.31886083616E+02  0.00000000000E+00 0.  1.
         11    1    3    3    0    0  0.19443988567E+02 -0.40025271712E+01 -0.89828081401E+00  0.19871985906E+02  0.51100000000E-03 0.  1.
        -11    1    3    3    0    0 -0.52156892281E+01 -0.99997896841E+01 -0.29348340836E+02  0.31440806573E+02  0.51100000000E-03 0. -1.
         12    1    3    3    0    0 -0.75675183620E+01  0.21385620747E+01  0.14090134335E+01  0.79891239046E+01  0.00000000000E+00 0. -1.
</event>
<event>
 7    1  0.6293596E-013  0.5930192E+02  0.7816164E-02  0.1266605E+00
        -11   -1    0    0    0    0  0.00000000000E+00  0.00000000000E+00  0.45593999997E+02  0.45594000000E+02  0.51100000000E-03 0. -1.
         11   -1    0    0    0    0 -0.00000000000E+00 -0.00000000000E+00 -0.45593999997E+02  0.45594000000E+02  0.51100000000E-03 0.  1.
    9900012    2    1    2    0    0  0.28050788125E+02 -0.57008944011E+01  0.14049029345E+02  0.59301919385E+02  0.49999955058E+02 0.  0.
        -12    1    1    2    0    0 -0.28050788125E+02  0.57008944011E+01 -0.14049029345E+02  0.31886080615E+02  0.00000000000E+00 0.  1.
         11    1    3    3    0    0  0.20702568406E+02  0.79495831559E+01 -0.10439353611E+02  0.24510657173E+02  0.51100000000E-03 0.  1.
        -11    1    3    3    0    0 -0.15887115569E+01 -0.82895672037E+00  0.17635030002E+02  0.17725841506E+02  0.51100000000E-03 0. -1.
         12    1    3    3    0    0  0.89369312762E+01 -0.12821520837E+02  0.68533529532E+01  0.17065420707E+02  0.00000000000E+00 0. -1.
</event>
<event>
 7    1  0.6293596E-013  0.5930196E+02  0.7816164E-02  0.1266605E+00
        -11   -1    0    0    0    0  0.00000000000E+00  0.00000000000E+00  0.45593999997E+02  0.45594000000E+02  0.51100000000E-03 0.  1.
         11   -1    0    0    0    0 -0.00000000000E+00 -0.00000000000E+00 -0.45593999997E+02  0.45594000000E+02  0.51100000000E-03 0. -1.
    9900012    2    1    2    0    0  0.10367743824E+01  0.30171186448E+02 -0.10263731964E+02  0.59301959376E+02  0.50000027992E+02 0.  0.
        -12    1    1    2    0    0 -0.10367743824E+01 -0.30171186448E+02  0.10263731964E+02  0.31886040624E+02  0.00000000000E+00 0.  1.
         11    1    3    3    0    0 -0.63835115747E+01  0.74878167378E+01  0.13320822338E+02  0.16560825087E+02  0.51100000000E-03 0.  1.
        -11    1    3    3    0    0  0.13459003701E+02  0.12070543198E+02 -0.24554528168E+02  0.30492091557E+02  0.51100000000E-03 0. -1.
         12    1    3    3    0    0 -0.60387177435E+01  0.10612826512E+02  0.96997386577E+00  0.12249042733E+02  0.00000000000E+00 0. -1.
</event>
<event>
 7    1  0.6293596E-013  0.5930193E+02  0.7816164E-02  0.1266605E+00
        -11   -1    0    0    0    0  0.00000000000E+00  0.00000000000E+00  0.45593999997E+02  0.45594000000E+02  0.51100000000E-03 0. -1.
         11   -1    0    0    0    0 -0.00000000000E+00 -0.00000000000E+00 -0.45593999997E+02  0.45594000000E+02  0.51100000000E-03 0.  1.
    9900012    2    1    2    0    0 -0.71609550023E+01  0.22267397495E+02  0.21670374999E+02  0.59301930622E+02  0.49999975551E+02 0.  0.
        -12    1    1    2    0    0  0.71609550023E+01 -0.22267397495E+02 -0.21670374999E+02  0.31886069378E+02  0.00000000000E+00 0.  1.
         11    1    3    3    0    0 -0.13811600057E+02 -0.99115999082E-01  0.13675829409E+01  0.13879495793E+02  0.51100000000E-03 0. -1.
        -11    1    3    3    0    0  0.73212340620E+01  0.65354467369E+00  0.22421939579E+02  0.23595994651E+02  0.51100000000E-03 0.  1.
        -12    1    3    3    0    0 -0.67058900759E+00  0.21712968821E+02 -0.21191475207E+01  0.21826440178E+02  0.00000000000E+00 0.  1.
</event>
<event>
 7    1  0.6293596E-013  0.5930195E+02  0.7816164E-02  0.1266605E+00
        -11   -1    0    0    0    0  0.00000000000E+00  0.00000000000E+00  0.45593999997E+02  0.45594000000E+02  0.51100000000E-03 0. -1.
         11   -1    0    0    0    0 -0.00000000000E+00 -0.00000000000E+00 -0.45593999997E+02  0.45594000000E+02  0.51100000000E-03 0.  1.
    9900012    2    1    2    0    0  0.29367305200E+02  0.82672095179E+01  0.92701072048E+01  0.59301948889E+02  0.50000008865E+02 0.  0.
        -12    1    1    2    0    0 -0.29367305200E+02 -0.82672095179E+01 -0.92701072048E+01  0.31886051111E+02  0.00000000000E+00 0.  1.
         11    1    3    3    0    0  0.25810328669E+02 -0.50654926015E+01 -0.94592303815E+01  0.27951910864E+02  0.51100000000E-03 0. -1.
        -11    1    3    3    0    0 -0.65160812212E+01 -0.54666754788E+00  0.88120124659E+00  0.65980812201E+01  0.51100000000E-03 0.  1.
         12    1    3    3    0    0  0.10073057752E+02  0.13879369667E+02  0.17848136340E+02  0.24751956804E+02  0.00000000000E+00 0. -1.
</event>
<event>
 7    1  0.6293596E-013  0.5930191E+02  0.7816164E-02  0.1266605E+00
        -11   -1    0    0    0    0  0.00000000000E+00  0.00000000000E+00  0.45593999997E+02  0.45594000000E+02  0.51100000000E-03 0.  1.
         11   -1    0    0    0    0 -0.00000000000E+00 -0.00000000000E+00 -0.45593999997E+02  0.45594000000E+02  0.51100000000E-03 0. -1.
    9900012    2    1    2    0    0  0.24848284424E+02  0.18691508421E+02 -0.70649289313E+01  0.59301906688E+02  0.49999931902E+02 0.  0.
        -12    1    1    2    0    0 -0.24848284424E+02 -0.18691508421E+02  0.70649289313E+01  0.31886093312E+02  0.00000000000E+00 0.  1.
         11    1    3    3    0    0  0.11312166401E+02 -0.95439192809E+01 -0.15270768334E+02  0.21266120231E+02  0.51100000000E-03 0. -1.
        -11    1    3    3    0    0  0.17592404986E+02  0.19486894185E+02  0.10241466510E+02  0.28180124108E+02  0.51100000000E-03 0.  1.
        -12    1    3    3    0    0 -0.40562869634E+01  0.87485335169E+01 -0.20356271075E+01  0.98556623494E+01  0.00000000000E+00 0.  1.
</event>
<event>
 7    1  0.6293596E-013  0.5930195E+02  0.7816164E-02  0.1266605E+00
        -11   -1    0    0    0    0  0.00000000000E+00  0.00000000000E+00  0.45593999997E+02  0.45594000000E+02  0.51100000000E-03 0. -1.
         11   -1    0    0    0    0 -0.00000000000E+00 -0.00000000000E+00 -0.45593999997E+02  0.45594000000E+02  0.51100000000E-03 0.  1.
    9900012    2    1    2    0    0 -0.69983251461E+01  0.20958953654E+02  0.22988383438E+02  0.59301951856E+02  0.50000014277E+02 0.  0.
        -12    1    1    2    0    0  0.69983251461E+01 -0.20958953654E+02 -0.22988383438E+02  0.31886048144E+02  0.00000000000E+00 0.  1.
         11    1    3    3    0    0 -0.11024546038E+02  0.24968705659E+02 -0.36403220190E+01  0.27535955082E+02  0.51100000000E-03 0. -1.
        -11    1    3    3    0    0  0.41102001521E+00 -0.10043694170E+02  0.18165560659E+02  0.20761317982E+02  0.51100000000E-03 0.  1.
         12    1    3    3    0    0  0.36152008763E+01  0.60339421648E+01  0.84631447981E+01  0.11004678791E+02  0.00000000000E+00 0. -1.
</event>
<event>
 7    1  0.6293596E-013  0.5930196E+02  0.7816164E-02  0.1266605E+00
        -11   -1    0    0    0    0  0.00000000000E+00  0.00000000000E+00  0.45593999997E+02  0.45594000000E+02  0.51100000000E-03 0. -1.
         11   -1    0    0    0    0 -0.00000000000E+00 -0.00000000000E+00 -0.45593999997E+02  0.45594000000E+02  0.51100000000E-03 0.  1.
    9900012    2    1    2    0    0  0.10047170019E+02 -0.28741158692E+02  0.94720575515E+01  0.59301957558E+02  0.50000024677E+02 0.  0.
        -12    1    1    2    0    0 -0.10047170019E+02  0.28741158692E+02 -0.94720575515E+01  0.31886042442E+02  0.00000000000E+00 0.  1.
         11    1    3    3    0    0 -0.26175097643E+01  0.75152000742E+00  0.10625988384E+02  0.10969401491E+02  0.51100000000E-03 0. -1.
        -11    1    3    3    0    0 -0.13285040303E+01 -0.33442106950E+02 -0.33179644340E+01  0.33632548646E+02  0.51100000000E-03 0.  1.
        -12    1    3    3    0    0  0.13993183813E+02  0.39494282505E+01  0.21640336018E+01  0.14700007421E+02  0.00000000000E+00 0.  1.
</event>
<event>
 7    1  0.6293596E-013  0.5930194E+02  0.7816164E-02  0.1266605E+00
        -11   -1    0    0    0    0  0.00000000000E+00  0.00000000000E+00  0.45593999997E+02  0.45594000000E+02  0.51100000000E-03 0. -1.
         11   -1    0    0    0    0 -0.00000000000E+00 -0.00000000000E+00 -0.45593999997E+02  0.45594000000E+02  0.51100000000E-03 0.  1.
    9900012    2    1    2    0    0 -0.20765974016E+02  0.13711578697E+02  0.19937088434E+02  0.59301944075E+02  0.50000000087E+02 0.  0.
        -12    1    1    2    0    0  0.20765974016E+02 -0.13711578697E+02 -0.19937088434E+02  0.31886055925E+02  0.00000000000E+00 0.  1.
         11    1    3    3    0    0 -0.14959448700E+02  0.18344801068E+02  0.12953417200E+01  0.23706428286E+02  0.51100000000E-03 0. -1.
        -11    1    3    3    0    0  0.77714473371E+01 -0.12377128703E+02  0.10284051378E+02  0.17870378330E+02  0.51100000000E-03 0.  1.
        -12    1    3    3    0    0 -0.13577972653E+02  0.77439063317E+01  0.83576953355E+01  0.17725137460E+02  0.00000000000E+00 0.  1.
</event>
<event>
 7    1  0.6293596E-013  0.5930194E+02  0.7816164E-02  0.1266605E+00
        -11   -1    0    0    0    0  0.00000000000E+00  0.00000000000E+00  0.45593999997E+02  0.45594000000E+02  0.51100000000E-03 0. -1.
         11   -1    0    0    0    0 -0.00000000000E+00 -0.00000000000E+00 -0.45593999997E+02  0.45594000000E+02  0.51100000000E-03 0.  1.
    9900012    2    1    2    0    0 -0.29410312834E+02  0.13627245126E+01  0.12243243962E+02  0.59301944399E+02  0.50000000677E+02 0.  0.
        -12    1    1    2    0    0  0.29410312834E+02 -0.13627245126E+01 -0.12243243962E+02  0.31886055601E+02  0.00000000000E+00 0.  1.
         11    1    3    3    0    0 -0.13900497747E+02 -0.17278295741E+01  0.25790915570E+02  0.29349285491E+02  0.51100000000E-03 0. -1.
        -11    1    3    3    0    0 -0.16377416858E+02  0.76426216857E+01 -0.16488498814E+02  0.24464260515E+02  0.51100000000E-03 0.  1.
        -12    1    3    3    0    0  0.86760177081E+00 -0.45520675990E+01  0.29408272063E+01  0.54883983926E+01  0.00000000000E+00 0.  1.
</event>
<event>
 7    1  0.6293596E-013  0.5930193E+02  0.7816164E-02  0.1266605E+00
        -11   -1    0    0    0    0  0.00000000000E+00  0.00000000000E+00  0.45593999997E+02  0.45594000000E+02  0.51100000000E-03 0. -1.
         11   -1    0    0    0    0 -0.00000000000E+00 -0.00000000000E+00 -0.45593999997E+02  0.45594000000E+02  0.51100000000E-03 0.  1.
    9900012    2    1    2    0    0 -0.18856063141E+02  0.12474797229E+02  0.22484428364E+02  0.59301934047E+02  0.49999981798E+02 0.  0.
        -12    1    1    2    0    0  0.18856063141E+02 -0.12474797229E+02 -0.22484428364E+02  0.31886065953E+02  0.00000000000E+00 0.  1.
         11    1    3    3    0    0  0.17136323708E+01 -0.94947782276E+01  0.56025513756E+01  0.11156878222E+02  0.51100000000E-03 0. -1.
        -11    1    3    3    0    0 -0.65798429146E+01  0.15813627225E+02 -0.80310254758E+01  0.18917254273E+02  0.51100000000E-03 0.  1.
         12    1    3    3    0    0 -0.13989852598E+02  0.61559482317E+01  0.24912902464E+02  0.29227801551E+02  0.00000000000E+00 0. -1.
</event>
<event>
 7    1  0.6293596E-013  0.5930194E+02  0.7816164E-02  0.1266605E+00
        -11   -1    0    0    0    0  0.00000000000E+00  0.00000000000E+00  0.45593999997E+02  0.45594000000E+02  0.51100000000E-03 0. -1.
         11   -1    0    0    0    0 -0.00000000000E+00 -0.00000000000E+00 -0.45593999997E+02  0.45594000000E+02  0.51100000000E-03 0.  1.
    9900012    2    1    2    0    0  0.52598734639E+01 -0.26751463712E+02 -0.16535227618E+02  0.59301939849E+02  0.49999992379E+02 0.  0.
        -12    1    1    2    0    0 -0.52598734639E+01  0.26751463712E+02  0.16535227618E+02  0.31886060151E+02  0.00000000000E+00 0.  1.
         11    1    3    3    0    0 -0.13078738825E+02 -0.10048357645E+02 -0.27423581552E+01  0.16719552300E+02  0.51100000000E-03 0. -1.
        -11    1    3    3    0    0  0.18087029554E+02 -0.12590888893E+02  0.56150262150E+01  0.22742023676E+02  0.51100000000E-03 0.  1.
        -12    1    3    3    0    0  0.25158273468E+00 -0.41122171742E+01 -0.19407895678E+02  0.19840363873E+02  0.00000000000E+00 0.  1.
</event>
<event>
 7    1  0.6293596E-013  0.5930194E+02  0.7816164E-02  0.1266605E+00
        -11   -1    0    0    0    0  0.00000000000E+00  0.00000000000E+00  0.45593999997E+02  0.45594000000E+02  0.51100000000E-03 0.  1.
         11   -1    0    0    0    0 -0.00000000000E+00 -0.00000000000E+00 -0.45593999997E+02  0.45594000000E+02  0.51100000000E-03 0. -1.
    9900012    2    1    2    0    0 -0.16336699710E+02  0.13455526485E+02 -0.23849147372E+02  0.59301940652E+02  0.49999993843E+02 0.  0.
        -12    1    1    2    0    0  0.16336699710E+02 -0.13455526485E+02  0.23849147372E+02  0.31886059348E+02  0.00000000000E+00 0.  1.
         11    1    3    3    0    0 -0.62617203282E+01  0.17280359304E+02 -0.22093390881E+02  0.28739134991E+02  0.51100000000E-03 0. -1.
        -11    1    3    3    0    0 -0.67764535238E+01 -0.14295047882E+02  0.62148026503E+01  0.16996837604E+02  0.51100000000E-03 0.  1.
        -12    1    3    3    0    0 -0.32985258579E+01  0.10470215062E+02 -0.79705591408E+01  0.13565968056E+02  0.00000000000E+00 0.  1.
</event>
<event>
 7    1  0.6293596E-013  0.5930195E+02  0.7816164E-02  0.1266605E+00
        -11   -1    0    0    0    0  0.00000000000E+00  0.00000000000E+00  0.45593999997E+02  0.45594000000E+02  0.51100000000E-03 0. -1.
         11   -1    0    0    0    0 -0.00000000000E+00 -0.00000000000E+00 -0.45593999997E+02  0.45594000000E+02  0.51100000000E-03 0.  1.
    9900012    2    1    2    0    0 -0.26566574563E+02 -0.70454442387E+01  0.16164753064E+02  0.59301946463E+02  0.50000004442E+02 0.  0.
        -12    1    1    2    0    0  0.26566574563E+02  0.70454442387E+01 -0.16164753064E+02  0.31886053537E+02  0.00000000000E+00 0.  1.
         11    1    3    3    0    0  0.96411401609E+01 -0.67543108284E+01  0.13919698510E+02  0.18229928832E+02  0.51100000000E-03 0. -1.
        -11    1    3    3    0    0 -0.22067452798E+02  0.18208742726E+01 -0.79345668423E+01  0.23521169344E+02  0.51100000000E-03 0.  1.
         12    1    3    3    0    0 -0.14140261926E+02 -0.21120076829E+01  0.10179621397E+02  0.17550848286E+02  0.00000000000E+00 0. -1.
</event>
<event>
 7    1  0.6293596E-013  0.5930195E+02  0.7816164E-02  0.1266605E+00
        -11   -1    0    0    0    0  0.00000000000E+00  0.00000000000E+00  0.45593999997E+02  0.45594000000E+02  0.51100000000E-03 0.  1.
         11   -1    0    0    0    0 -0.00000000000E+00 -0.00000000000E+00 -0.45593999997E+02  0.45594000000E+02  0.51100000000E-03 0. -1.
    9900012    2    1    2    0    0 -0.29100081078E+01  0.48766435340E+01 -0.31376266865E+02  0.59301954123E+02  0.50000018410E+02 0.  0.
        -12    1    1    2    0    0  0.29100081078E+01 -0.48766435340E+01  0.31376266865E+02  0.31886045877E+02  0.00000000000E+00 0.  1.
         11    1    3    3    0    0 -0.44355628924E+01 -0.66987161895E+01 -0.99266316479E+01  0.12770475046E+02  0.51100000000E-03 0. -1.
        -11    1    3    3    0    0  0.17710216526E+02  0.13039642720E+02 -0.20795190695E+02  0.30267540500E+02  0.51100000000E-03 0.  1.
        -12    1    3    3    0    0 -0.16184661742E+02 -0.14642829961E+01 -0.65444452198E+00  0.16263938576E+02  0.00000000000E+00 0.  1.
</event>
<event>
 7    1  0.6293596E-013  0.5930210E+02  0.7816164E-02  0.1266604E+00
        -11   -1    0    0    0    0  0.00000000000E+00  0.00000000000E+00  0.45593999997E+02  0.45594000000E+02  0.51100000000E-03 0.  1.
         11   -1    0    0    0    0 -0.00000000000E+00 -0.00000000000E+00 -0.45593999997E+02  0.45594000000E+02  0.51100000000E-03 0. -1.
    9900012    2    1    2    0    0  0.68011173670E+01 -0.30154931166E+02 -0.78189336524E+01  0.59302097244E+02  0.50000279430E+02 0.  0.
        -12    1    1    2    0    0 -0.68011173670E+01  0.30154931166E+02  0.78189336524E+01  0.31885902756E+02  0.00000000000E+00 0.  1.
         11    1    3    3    0    0 -0.98969338047E+00 -0.28535661273E+02  0.12210402979E+01  0.28578915251E+02  0.51100000000E-03 0. -1.
        -11    1    3    3    0    0 -0.69730870417E+01  0.12599142491E+01 -0.13317025962E+02  0.15084909928E+02  0.51100000000E-03 0.  1.
        -12    1    3    3    0    0  0.14763897789E+02 -0.28791841426E+01  0.42770520120E+01  0.15638272065E+02  0.00000000000E+00 0.  1.
</event>
<event>
 7    1  0.6293596E-013  0.5930186E+02  0.7816164E-02  0.1266605E+00
        -11   -1    0    0    0    0  0.00000000000E+00  0.00000000000E+00  0.45593999997E+02  0.45594000000E+02  0.51100000000E-03 0. -1.
         11   -1    0    0    0    0 -0.00000000000E+00 -0.00000000000E+00 -0.45593999997E+02  0.45594000000E+02  0.51100000000E-03 0.  1.
    9900012    2    1    2    0    0 -0.21368908842E+02  0.21511118082E+02 -0.98675012696E+01  0.59301858064E+02  0.49999843223E+02 0.  0.
        -12    1    1    2    0    0  0.21368908842E+02 -0.21511118082E+02  0.98675012696E+01  0.31886141936E+02  0.00000000000E+00 0.  1.
         11    1    3    3    0    0 -0.73374650494E+01  0.13734312847E+01  0.13037478711E+02  0.15023333793E+02  0.51100000000E-03 0. -1.
        -11    1    3    3    0    0  0.65175044899E-01  0.13497827076E+02 -0.25142420405E+02  0.28536588577E+02  0.51100000000E-03 0.  1.
         12    1    3    3    0    0 -0.14096618837E+02  0.66398597219E+01  0.22374404244E+01  0.15741935695E+02  0.00000000000E+00 0. -1.
</event>
<event>
 7    1  0.6293596E-013  0.5930194E+02  0.7816164E-02  0.1266605E+00
        -11   -1    0    0    0    0  0.00000000000E+00  0.00000000000E+00  0.45593999997E+02  0.45594000000E+02  0.51100000000E-03 0. -1.
         11   -1    0    0    0    0 -0.00000000000E+00 -0.00000000000E+00 -0.45593999997E+02  0.45594000000E+02  0.51100000000E-03 0.  1.
    9900012    2    1    2    0    0 -0.36510514729E+01  0.27006064229E+02  0.16554858825E+02  0.59301936701E+02  0.49999986638E+02 0.  0.
        -12    1    1    2    0    0  0.36510514729E+01 -0.27006064229E+02 -0.16554858825E+02  0.31886063299E+02  0.00000000000E+00 0.  1.
         11    1    3    3    0    0  0.10945459593E+02  0.17624114086E+02  0.12113527622E+02  0.24023947109E+02  0.51100000000E-03 0. -1.
        -11    1    3    3    0    0  0.65268698652E+00  0.74813347025E+01 -0.11113179152E+02  0.13412647776E+02  0.51100000000E-03 0.  1.
         12    1    3    3    0    0 -0.15249198053E+02  0.19006154406E+01  0.15554510356E+02  0.21865341816E+02  0.00000000000E+00 0. -1.
</event>
<event>
 7    1  0.6293596E-013  0.5930192E+02  0.7816164E-02  0.1266605E+00
        -11   -1    0    0    0    0  0.00000000000E+00  0.00000000000E+00  0.45593999997E+02  0.45594000000E+02  0.51100000000E-03 0.  1.
         11   -1    0    0    0    0 -0.00000000000E+00 -0.00000000000E+00 -0.45593999997E+02  0.45594000000E+02  0.51100000000E-03 0. -1.
    9900012    2    1    2    0    0 -0.15267416347E+02 -0.21705089507E+02  0.17678164288E+02  0.59301915182E+02  0.49999947393E+02 0.  0.
        -12    1    1    2    0    0  0.15267416347E+02  0.21705089507E+02 -0.17678164288E+02  0.31886084818E+02  0.00000000000E+00 0.  1.
         11    1    3    3    0    0 -0.21774537334E+02 -0.15618869063E+01  0.49990270572E+01  0.22395540597E+02  0.51100000000E-03 0. -1.
        -11    1    3    3    0    0  0.93688593414E+01 -0.16607650137E+02 -0.41151402597E+01  0.19507023044E+02  0.51100000000E-03 0.  1.
        -12    1    3    3    0    0 -0.28617383537E+01 -0.35355524634E+01  0.16794277491E+02  0.17399351541E+02  0.00000000000E+00 0.  1.
</event>
<event>
 7    1  0.6293596E-013  0.5930195E+02  0.7816164E-02  0.1266605E+00
        -11   -1    0    0    0    0  0.00000000000E+00  0.00000000000E+00  0.45593999997E+02  0.45594000000E+02  0.51100000000E-03 0.  1.
         11   -1    0    0    0    0 -0.00000000000E+00 -0.00000000000E+00 -0.45593999997E+02  0.45594000000E+02  0.51100000000E-03 0. -1.
    9900012    2    1    2    0    0 -0.20529658510E+02  0.18600892911E+01 -0.24326807188E+02  0.59301947271E+02  0.50000005914E+02 0.  0.
        -12    1    1    2    0    0  0.20529658510E+02 -0.18600892911E+01  0.24326807188E+02  0.31886052729E+02  0.00000000000E+00 0.  1.
         11    1    3    3    0    0 -0.25595616878E+02  0.42137459504E+01 -0.20197410080E+02  0.32875927858E+02  0.51100000000E-03 0. -1.
        -11    1    3    3    0    0  0.14114241014E+02 -0.47030274024E+01  0.23363938578E+01  0.15059515353E+02  0.51100000000E-03 0.  1.
        -12    1    3    3    0    0 -0.90482826467E+01  0.23493707431E+01 -0.64657909649E+01  0.11366504060E+02  0.00000000000E+00 0.  1.
</event>
<event>
 7    1  0.6293596E-013  0.5930190E+02  0.7816164E-02  0.1266605E+00
        -11   -1    0    0    0    0  0.00000000000E+00  0.00000000000E+00  0.45593999997E+02  0.45594000000E+02  0.51100000000E-03 0.  1.
         11   -1    0    0    0    0 -0.00000000000E+00 -0.00000000000E+00 -0.45593999997E+02  0.45594000000E+02  0.51100000000E-03 0. -1.
    9900012    2    1    2    0    0  0.69369769845E+01  0.46754107463E+01 -0.30769181295E+02  0.59301895928E+02  0.49999912278E+02 0.  0.
        -12    1    1    2    0    0 -0.69369769845E+01 -0.46754107463E+01  0.30769181295E+02  0.31886104072E+02  0.00000000000E+00 0.  1.
         11    1    3    3    0    0 -0.11892508082E+02  0.78577354836E+01 -0.13328040274E+02  0.19514415523E+02  0.51100000000E-03 0. -1.
        -11    1    3    3    0    0  0.26660870682E+02 -0.23027674686E+00 -0.16526238091E+02  0.31368321577E+02  0.51100000000E-03 0.  1.
        -12    1    3    3    0    0 -0.78313856154E+01 -0.29520479904E+01 -0.91490292994E+00  0.84191588277E+01  0.00000000000E+00 0.  1.
</event>
<event>
 7    1  0.6293596E-013  0.5930195E+02  0.7816164E-02  0.1266605E+00
        -11   -1    0    0    0    0  0.00000000000E+00  0.00000000000E+00  0.45593999997E+02  0.45594000000E+02  0.51100000000E-03 0. -1.
         11   -1    0    0    0    0 -0.00000000000E+00 -0.00000000000E+00 -0.45593999997E+02  0.45594000000E+02  0.51100000000E-03 0.  1.
    9900012    2    1    2    0    0 -0.30282425566E+02 -0.13308086067E+01  0.98956547907E+01  0.59301947666E+02  0.50000006635E+02 0.  0.
        -12    1    1    2    0    0  0.30282425566E+02  0.13308086067E+01 -0.98956547907E+01  0.31886052334E+02  0.00000000000E+00 0.  1.
         11    1    3    3    0    0 -0.22802962902E+02  0.14523389163E+02  0.20966147277E+02  0.34212326459E+02  0.51100000000E-03 0. -1.
        -11    1    3    3    0    0 -0.53605613788E+00 -0.19009236513E+01 -0.91799048855E+01  0.93899691628E+01  0.51100000000E-03 0.  1.
        -12    1    3    3    0    0 -0.69434065267E+01 -0.13953274118E+02 -0.18905876007E+01  0.15699652043E+02  0.00000000000E+00 0.  1.
</event>
<event>
 7    1  0.6293596E-013  0.5930193E+02  0.7816164E-02  0.1266605E+00
        -11   -1    0    0    0    0  0.00000000000E+00  0.00000000000E+00  0.45593999997E+02  0.45594000000E+02  0.51100000000E-03 0. -1.
         11   -1    0    0    0    0 -0.00000000000E+00 -0.00000000000E+00 -0.45593999997E+02  0.45594000000E+02  0.51100000000E-03 0.  1.
    9900012    2    1    2    0    0  0.30479929486E+01  0.31515433259E+02 -0.37694433811E+01  0.59301929406E+02  0.49999973333E+02 0.  0.
        -12    1    1    2    0    0 -0.30479929486E+01 -0.31515433259E+02  0.37694433811E+01  0.31886070594E+02  0.00000000000E+00 0.  1.
         11    1    3    3    0    0 -0.12927690404E+02  0.13471954183E+02  0.13482806168E+02  0.23030518690E+02  0.51100000000E-03 0. -1.
        -11    1    3    3    0    0 -0.25081747129E+01 -0.28088070518E+00 -0.84136383397E+01  0.87840278194E+01  0.51100000000E-03 0.  1.
         12    1    3    3    0    0  0.18483858065E+02  0.18324359782E+02 -0.88386112098E+01  0.27487382896E+02  0.00000000000E+00 0. -1.
</event>
<event>
 7    1  0.6293596E-013  0.5930195E+02  0.7816164E-02  0.1266605E+00
        -11   -1    0    0    0    0  0.00000000000E+00  0.00000000000E+00  0.45593999997E+02  0.45594000000E+02  0.51100000000E-03 0. -1.
         11   -1    0    0    0    0 -0.00000000000E+00 -0.00000000000E+00 -0.45593999997E+02  0.45594000000E+02  0.51100000000E-03 0.  1.
    9900012    2    1    2    0    0  0.27445038290E+02  0.48884690039E+01  0.15478790634E+02  0.59301949517E+02  0.50000010011E+02 0.  0.
        -12    1    1    2    0    0 -0.27445038290E+02 -0.48884690039E+01 -0.15478790634E+02  0.31886050483E+02  0.00000000000E+00 0.  1.
         11    1    3    3    0    0  0.18267343120E+02  0.12538332239E+01  0.21923158848E+02  0.28563837567E+02  0.51100000000E-03 0. -1.
        -11    1    3    3    0    0 -0.63013584713E+01 -0.60319788401E+01  0.41246204917E+01  0.96490611861E+01  0.51100000000E-03 0.  1.
         12    1    3    3    0    0  0.15479053642E+02  0.96666146202E+01 -0.10568988706E+02  0.21089050764E+02  0.00000000000E+00 0. -1.
</event>
<event>
 7    1  0.6293596E-013  0.5930194E+02  0.7816164E-02  0.1266605E+00
        -11   -1    0    0    0    0  0.00000000000E+00  0.00000000000E+00  0.45593999997E+02  0.45594000000E+02  0.51100000000E-03 0.  1.
         11   -1    0    0    0    0 -0.00000000000E+00 -0.00000000000E+00 -0.45593999997E+02  0.45594000000E+02  0.51100000000E-03 0. -1.
    9900012    2    1    2    0    0 -0.31098268888E+02  0.41837175122E+01 -0.56669824623E+01  0.59301944893E+02  0.50000001577E+02 0.  0.
        -12    1    1    2    0    0  0.31098268888E+02 -0.41837175122E+01  0.56669824623E+01  0.31886055107E+02  0.00000000000E+00 0.  1.
         11    1    3    3    0    0 -0.17772473128E+02  0.11913464683E+02 -0.18843876060E+02  0.28511104978E+02  0.51100000000E-03 0. -1.
        -11    1    3    3    0    0  0.46823521636E+01  0.14284862837E+01  0.88737500437E+01  0.10134517006E+02  0.51100000000E-03 0.  1.
         12    1    3    3    0    0 -0.18008147924E+02 -0.91582334544E+01  0.43031435539E+01  0.20656322909E+02  0.00000000000E+00 0. -1.
</event>
<event>
 7    1  0.6293596E-013  0.5930195E+02  0.7816164E-02  0.1266605E+00
        -11   -1    0    0    0    0  0.00000000000E+00  0.00000000000E+00  0.45593999997E+02  0.45594000000E+02  0.51100000000E-03 0. -1.
         11   -1    0    0    0    0 -0.00000000000E+00 -0.00000000000E+00 -0.45593999997E+02  0.45594000000E+02  0.51100000000E-03 0.  1.
    9900012    2    1    2    0    0  0.84528065081E+01  0.22103973790E+02  0.21370178992E+02  0.59301950616E+02  0.50000012015E+02 0.  0.
        -12    1    1    2    0    0 -0.84528065081E+01 -0.22103973790E+02 -0.21370178992E+02  0.31886049384E+02  0.00000000000E+00 0.  1.
         11    1    3    3    0    0  0.71536372611E+01  0.62340368392E+01  0.31433614918E+01  0.99959223238E+01  0.51100000000E-03 0. -1.
        -11    1    3    3    0    0 -0.19636698250E+02  0.14574992543E+02  0.66282791122E+01  0.25337016597E+02  0.51100000000E-03 0.  1.
        -12    1    3    3    0    0  0.20935867497E+02  0.12949444076E+01  0.11598538388E+02  0.23969011695E+02  0.00000000000E+00 0.  1.
</event>
<event>
 7    1  0.6293596E-013  0.5930193E+02  0.7816164E-02  0.1266605E+00
        -11   -1    0    0    0    0  0.00000000000E+00  0.00000000000E+00  0.45593999997E+02  0.45594000000E+02  0.51100000000E-03 0. -1.
         11   -1    0    0    0    0 -0.00000000000E+00 -0.00000000000E+00 -0.45593999997E+02  0.45594000000E+02  0.51100000000E-03 0.  1.
    9900012    2    1    2    0    0 -0.13548402008E+02 -0.17287020087E+01  0.28812732265E+02  0.59301934890E+02  0.49999983336E+02 0.  0.
        -12    1    1    2    0    0  0.13548402008E+02  0.17287020087E+01 -0.28812732265E+02  0.31886065110E+02  0.00000000000E+00 0.  1.
         11    1    3    3    0    0 -0.11009161995E+02  0.19576039010E+02  0.16648593273E+02  0.27957085138E+02  0.51100000000E-03 0. -1.
        -11    1    3    3    0    0  0.69123301434E+01 -0.56726760702E+01 -0.75043152574E+00  0.89734446867E+01  0.51100000000E-03 0.  1.
         12    1    3    3    0    0 -0.94515701565E+01 -0.15632064949E+02  0.12914570518E+02  0.22371405066E+02  0.00000000000E+00 0. -1.
</event>
<event>
 7    1  0.6293596E-013  0.5930194E+02  0.7816164E-02  0.1266605E+00
        -11   -1    0    0    0    0  0.00000000000E+00  0.00000000000E+00  0.45593999997E+02  0.45594000000E+02  0.51100000000E-03 0. -1.
         11   -1    0    0    0    0 -0.00000000000E+00 -0.00000000000E+00 -0.45593999997E+02  0.45594000000E+02  0.51100000000E-03 0.  1.
    9900012    2    1    2    0    0  0.12672889781E+02 -0.24874743503E+02  0.15406686878E+02  0.59301937210E+02  0.49999987565E+02 0.  0.
        -12    1    1    2    0    0 -0.12672889781E+02  0.24874743503E+02 -0.15406686878E+02  0.31886062790E+02  0.00000000000E+00 0.  1.
         11    1    3    3    0    0  0.52938879010E+01  0.10462241907E+02  0.85625889875E+01  0.14519011166E+02  0.51100000000E-03 0. -1.
        -11    1    3    3    0    0  0.12857158554E+02 -0.33117149364E+02  0.11411344080E+02  0.37313146236E+02  0.51100000000E-03 0.  1.
         12    1    3    3    0    0 -0.54781566732E+01 -0.22198360450E+01 -0.45672461900E+01  0.74697798069E+01  0.00000000000E+00 0. -1.
</event>
<event>
 7    1  0.6293596E-013  0.5930196E+02  0.7816164E-02  0.1266605E+00
        -11   -1    0    0    0    0  0.00000000000E+00  0.00000000000E+00  0.45593999997E+02  0.45594000000E+02  0.51100000000E-03 0.  1.
         11   -1    0    0    0    0 -0.00000000000E+00 -0.00000000000E+00 -0.45593999997E+02  0.45594000000E+02  0.51100000000E-03 0. -1.
    9900012    2    1    2    0    0 -0.71522166527E+01 -0.71256013783E+01 -0.30245511047E+02  0.59301963298E+02  0.50000035144E+02 0.  0.
        -12    1    1    2    0    0  0.71522166527E+01  0.71256013783E+01  0.30245511047E+02  0.31886036702E+02  0.00000000000E+00 0.  1.
         11    1    3    3    0    0 -0.31266499684E+00 -0.20043486711E+00 -0.17813008191E+02  0.17816879485E+02  0.51100000000E-03 0. -1.
        -11    1    3    3    0    0 -0.19968127949E+02  0.11348764228E+01  0.23457845054E+01  0.20137447294E+02  0.51100000000E-03 0.  1.
        -12    1    3    3    0    0  0.13128576293E+02 -0.80600429340E+01 -0.14778287362E+02  0.21347636519E+02  0.00000000000E+00 0.  1.
</event>
<event>
 7    1  0.6293596E-013  0.5930189E+02  0.7816164E-02  0.1266605E+00
        -11   -1    0    0    0    0  0.00000000000E+00  0.00000000000E+00  0.45593999997E+02  0.45594000000E+02  0.51100000000E-03 0. -1.
         11   -1    0    0    0    0 -0.00000000000E+00 -0.00000000000E+00 -0.45593999997E+02  0.45594000000E+02  0.51100000000E-03 0.  1.
    9900012    2    1    2    0    0 -0.17918080452E+02  0.14607567942E+01  0.26335009929E+02  0.59301887577E+02  0.49999897048E+02 0.  0.
        -12    1    1    2    0    0  0.17918080452E+02 -0.14607567942E+01 -0.26335009929E+02  0.31886112423E+02  0.00000000000E+00 0.  1.
         11    1    3    3    0    0 -0.15922459186E+01  0.88223844956E+01  0.27818488427E+02  0.29227350442E+02  0.51100000000E-03 0. -1.
        -11    1    3    3    0    0  0.62006553098E+01 -0.16123529119E+01 -0.23118330476E+01  0.68111952317E+01  0.51100000000E-03 0.  1.
         12    1    3    3    0    0 -0.22526489843E+02 -0.57492747895E+01  0.82835454967E+00  0.23263341904E+02  0.00000000000E+00 0. -1.
</event>
<event>
 7    1  0.6293596E-013  0.5930196E+02  0.7816164E-02  0.1266605E+00
        -11   -1    0    0    0    0  0.00000000000E+00  0.00000000000E+00  0.45593999997E+02  0.45594000000E+02  0.51100000000E-03 0. -1.
         11   -1    0    0    0    0 -0.00000000000E+00 -0.00000000000E+00 -0.45593999997E+02  0.45594000000E+02  0.51100000000E-03 0.  1.
    9900012    2    1    2    0    0  0.21348403248E+02  0.21949925182E+02 -0.88975383632E+01  0.59301957197E+02  0.50000024017E+02 0.  0.
        -12    1    1    2    0    0 -0.21348403248E+02 -0.21949925182E+02  0.88975383632E+01  0.31886042803E+02  0.00000000000E+00 0.  1.
         11    1    3    3    0    0  0.17659341835E+02  0.28828285794E+02 -0.12336080859E+02  0.35987515989E+02  0.51100000000E-03 0. -1.
        -11    1    3    3    0    0 -0.15435892371E+01 -0.12602479599E+02 -0.32135002428E+01  0.13097012783E+02  0.51100000000E-03 0.  1.
         12    1    3    3    0    0  0.52326506502E+01  0.57241189874E+01  0.66520427384E+01  0.10217428424E+02  0.00000000000E+00 0. -1.
</event>
<event>
 7    1  0.6293596E-013  0.5930197E+02  0.7816164E-02  0.1266605E+00
        -11   -1    0    0    0    0  0.00000000000E+00  0.00000000000E+00  0.45593999997E+02  0.45594000000E+02  0.51100000000E-03 0. -1.
         11   -1    0    0    0    0 -0.00000000000E+00 -0.00000000000E+00 -0.45593999997E+02  0.45594000000E+02  0.51100000000E-03 0.  1.
    9900012    2    1    2    0    0 -0.16731989486E+02 -0.17207505938E+02  0.20991938505E+02  0.59301965205E+02  0.50000038622E+02 0.  0.
        -12    1    1    2    0    0  0.16731989486E+02  0.17207505938E+02 -0.20991938505E+02  0.31886034795E+02  0.00000000000E+00 0.  1.
         11    1    3    3    0    0 -0.24101394874E+02 -0.18151857735E+02  0.32357321036E+02  0.44242099848E+02  0.51100000000E-03 0. -1.
        -11    1    3    3    0    0  0.63236798680E+01 -0.12034223407E+01 -0.46746392954E+01  0.79554638587E+01  0.51100000000E-03 0.  1.
         12    1    3    3    0    0  0.10457255198E+01  0.21477741369E+01 -0.66907432353E+01  0.71044014982E+01  0.00000000000E+00 0. -1.
</event>
<event>
 7    1  0.6293596E-013  0.5930189E+02  0.7816164E-02  0.1266605E+00
        -11   -1    0    0    0    0  0.00000000000E+00  0.00000000000E+00  0.45593999997E+02  0.45594000000E+02  0.51100000000E-03 0.  1.
         11   -1    0    0    0    0 -0.00000000000E+00 -0.00000000000E+00 -0.45593999997E+02  0.45594000000E+02  0.51100000000E-03 0. -1.
    9900012    2    1    2    0    0 -0.15898014199E+02 -0.19721258630E+02 -0.19366179895E+02  0.59301892976E+02  0.49999906893E+02 0.  0.
        -12    1    1    2    0    0  0.15898014199E+02  0.19721258630E+02  0.19366179895E+02  0.31886107024E+02  0.00000000000E+00 0.  1.
         11    1    3    3    0    0 -0.17905952532E+02 -0.16272379818E+02 -0.77651520791E+01  0.25410845482E+02  0.51100000000E-03 0. -1.
        -11    1    3    3    0    0  0.11850328294E+02 -0.11062303117E+02 -0.13757742466E+02  0.21262180249E+02  0.51100000000E-03 0.  1.
         12    1    3    3    0    0 -0.98423899616E+01  0.76134243054E+01  0.21567146498E+01  0.12628867245E+02  0.00000000000E+00 0. -1.
</event>
<event>
 7    1  0.6293596E-013  0.5930194E+02  0.7816164E-02  0.1266605E+00
        -11   -1    0    0    0    0  0.00000000000E+00  0.00000000000E+00  0.45593999997E+02  0.45594000000E+02  0.51100000000E-03 0. -1.
         11   -1    0    0    0    0 -0.00000000000E+00 -0.00000000000E+00 -0.45593999997E+02  0.45594000000E+02  0.51100000000E-03 0.  1.
    9900012    2    1    2    0    0  0.31483869595E+02 -0.32210241599E+01  0.38873735763E+01  0.59301941689E+02  0.49999995734E+02 0.  0.
        -12    1    1    2    0    0 -0.31483869595E+02  0.32210241599E+01 -0.38873735763E+01  0.31886058311E+02  0.00000000000E+00 0.  1.
         11    1    3    3    0    0  0.68413170071E+01 -0.12149430769E+02  0.13114693941E+02  0.19141773268E+02  0.51100000000E-03 0. -1.
        -11    1    3    3    0    0  0.19547674786E+02  0.15154736734E+02 -0.16155640990E+02  0.29542890364E+02  0.51100000000E-03 0.  1.
        -12    1    3    3    0    0  0.50948778022E+01 -0.62263301257E+01  0.69283206246E+01  0.10617278057E+02  0.00000000000E+00 0.  1.
</event>
<event>
 7    1  0.6293596E-013  0.5930201E+02  0.7816164E-02  0.1266605E+00
        -11   -1    0    0    0    0  0.00000000000E+00  0.00000000000E+00  0.45593999997E+02  0.45594000000E+02  0.51100000000E-03 0.  1.
         11   -1    0    0    0    0 -0.00000000000E+00 -0.00000000000E+00 -0.45593999997E+02  0.45594000000E+02  0.51100000000E-03 0. -1.
    9900012    2    1    2    0    0 -0.29297728318E+02 -0.45556177769E+01 -0.11730549162E+02  0.59302010576E+02  0.50000121368E+02 0.  0.
        -12    1    1    2    0    0  0.29297728318E+02  0.45556177769E+01  0.11730549162E+02  0.31885989424E+02  0.00000000000E+00 0.  1.
         11    1    3    3    0    0 -0.15873846572E+02 -0.85213372729E+00 -0.28386997587E+02  0.32535008362E+02  0.51100000000E-03 0. -1.
        -11    1    3    3    0    0 -0.15447149794E+02 -0.64636535254E+01  0.16227520007E+02  0.23317925712E+02  0.51100000000E-03 0.  1.
         12    1    3    3    0    0  0.20232680476E+01  0.27601694757E+01  0.42892841769E+00  0.34490765017E+01  0.00000000000E+00 0. -1.
</event>
<event>
 7    1  0.6293596E-013  0.5930205E+02  0.7816164E-02  0.1266604E+00
        -11   -1    0    0    0    0  0.00000000000E+00  0.00000000000E+00  0.45593999997E+02  0.45594000000E+02  0.51100000000E-03 0. -1.
         11   -1    0    0    0    0 -0.00000000000E+00 -0.00000000000E+00 -0.45593999997E+02  0.45594000000E+02  0.51100000000E-03 0.  1.
    9900012    2    1    2    0    0  0.13831001211E+02 -0.12454062798E+02  0.25890418492E+02  0.59302046285E+02  0.50000186492E+02 0.  0.
        -12    1    1    2    0    0 -0.13831001211E+02  0.12454062798E+02 -0.25890418492E+02  0.31885953715E+02  0.00000000000E+00 0.  1.
         11    1    3    3    0    0  0.17849339840E+02 -0.12374916737E+02  0.53315502576E+01  0.22364322600E+02  0.51100000000E-03 0. -1.
        -11    1    3    3    0    0 -0.12111112527E+02  0.11027450286E+02  0.76288656571E+01  0.18068848827E+02  0.51100000000E-03 0.  1.
         12    1    3    3    0    0  0.80927738978E+01 -0.11106596347E+02  0.12930002577E+02  0.18868874858E+02  0.00000000000E+00 0. -1.
</event>
<event>
 7    1  0.6293596E-013  0.5930186E+02  0.7816164E-02  0.1266605E+00
        -11   -1    0    0    0    0  0.00000000000E+00  0.00000000000E+00  0.45593999997E+02  0.45594000000E+02  0.51100000000E-03 0. -1.
         11   -1    0    0    0    0 -0.00000000000E+00 -0.00000000000E+00 -0.45593999997E+02  0.45594000000E+02  0.51100000000E-03 0.  1.
    9900012    2    1    2    0    0 -0.10320128706E+02 -0.29901113948E+02  0.40179634460E+01  0.59301863481E+02  0.49999853102E+02 0.  0.
        -12    1    1    2    0    0  0.10320128706E+02  0.29901113948E+02 -0.40179634460E+01  0.31886136519E+02  0.00000000000E+00 0.  1.
         11    1    3    3    0    0 -0.21364245119E+01  0.39276770521E+01  0.15990399801E+02  0.16603729785E+02  0.51100000000E-03 0. -1.
        -11    1    3    3    0    0  0.15877730236E+01 -0.94295163048E+01 -0.13300867381E+02  0.16381388045E+02  0.51100000000E-03 0.  1.
         12    1    3    3    0    0 -0.97714772180E+01 -0.24399274695E+02  0.13284310263E+01  0.26316745651E+02  0.00000000000E+00 0. -1.
</event>
<event>
 7    1  0.6293596E-013  0.5930194E+02  0.7816164E-02  0.1266605E+00
        -11   -1    0    0    0    0  0.00000000000E+00  0.00000000000E+00  0.45593999997E+02  0.45594000000E+02  0.51100000000E-03 0. -1.
         11   -1    0    0    0    0 -0.00000000000E+00 -0.00000000000E+00 -0.45593999997E+02  0.45594000000E+02  0.51100000000E-03 0.  1.
    9900012    2    1    2    0    0  0.11766826373E+02  0.29566371765E+02 -0.20228759375E+01  0.59301943968E+02  0.49999999891E+02 0.  0.
        -12    1    1    2    0    0 -0.11766826373E+02 -0.29566371765E+02  0.20228759375E+01  0.31886056032E+02  0.00000000000E+00 0.  1.
         11    1    3    3    0    0  0.20360341050E+02  0.16035687593E+01  0.20434682883E+01  0.20525366826E+02  0.51100000000E-03 0. -1.
        -11    1    3    3    0    0 -0.78262241076E+01  0.29017703590E+02 -0.10786057656E+02  0.31931425672E+02  0.51100000000E-03 0.  1.
         12    1    3    3    0    0 -0.76729056977E+00 -0.10549005840E+01  0.67197134305E+01  0.68451514701E+01  0.00000000000E+00 0. -1.
</event>
<event>
 7    1  0.6293596E-013  0.5930195E+02  0.7816164E-02  0.1266605E+00
        -11   -1    0    0    0    0  0.00000000000E+00  0.00000000000E+00  0.45593999997E+02  0.45594000000E+02  0.51100000000E-03 0.  1.
         11   -1    0    0    0    0 -0.00000000000E+00 -0.00000000000E+00 -0.45593999997E+02  0.45594000000E+02  0.51100000000E-03 0. -1.
    9900012    2    1    2    0    0 -0.25371856799E+02 -0.17853819859E+02 -0.73640968426E+01  0.59301954097E+02  0.50000018364E+02 0.  0.
        -12    1    1    2    0    0  0.25371856799E+02  0.17853819859E+02  0.73640968426E+01  0.31886045903E+02  0.00000000000E+00 0.  1.
         11    1    3    3    0    0 -0.33091561670E+02 -0.15793683275E+02 -0.21644455629E+02  0.42579036449E+02  0.51100000000E-03 0. -1.
        -11    1    3    3    0    0  0.65281790292E+01 -0.26650888529E+01  0.13339982104E+02  0.15088901313E+02  0.51100000000E-03 0.  1.
         12    1    3    3    0    0  0.11915258419E+01  0.60495226880E+00  0.94037668206E+00  0.16340163352E+01  0.00000000000E+00 0. -1.
</event>
<event>
 7    1  0.6293596E-013  0.5930193E+02  0.7816164E-02  0.1266605E+00
        -11   -1    0    0    0    0  0.00000000000E+00  0.00000000000E+00  0.45593999997E+02  0.45594000000E+02  0.51100000000E-03 0.  1.
         11   -1    0    0    0    0 -0.00000000000E+00 -0.00000000000E+00 -0.45593999997E+02  0.45594000000E+02  0.51100000000E-03 0. -1.
    9900012    2    1    2    0    0  0.15942553306E+02  0.28301025644E+00 -0.27612979075E+02  0.59301926016E+02  0.49999967152E+02 0.  0.
        -12    1    1    2    0    0 -0.15942553306E+02 -0.28301025644E+00  0.27612979075E+02  0.31886073984E+02  0.00000000000E+00 0.  1.
         11    1    3    3    0    0  0.11312072967E+02  0.59081874912E+01 -0.35911106998E+02  0.38111379932E+02  0.51100000000E-03 0. -1.
        -11    1    3    3    0    0 -0.20456437030E+01  0.51561963875E+01  0.62304717990E+01  0.83420500146E+01  0.51100000000E-03 0.  1.
         12    1    3    3    0    0  0.66761240423E+01 -0.10781373622E+02  0.20676561242E+01  0.12848496070E+02  0.00000000000E+00 0. -1.
</event>
<event>
 7    1  0.6293596E-013  0.5930196E+02  0.7816164E-02  0.1266605E+00
        -11   -1    0    0    0    0  0.00000000000E+00  0.00000000000E+00  0.45593999997E+02  0.45594000000E+02  0.51100000000E-03 0. -1.
         11   -1    0    0    0    0 -0.00000000000E+00 -0.00000000000E+00 -0.45593999997E+02  0.45594000000E+02  0.51100000000E-03 0.  1.
    9900012    2    1    2    0    0  0.57177414195E+01  0.26328765676E+02  0.17053543490E+02  0.59301955803E+02  0.50000021476E+02 0.  0.
        -12    1    1    2    0    0 -0.57177414195E+01 -0.26328765676E+02 -0.17053543490E+02  0.31886044197E+02  0.00000000000E+00 0.  1.
         11    1    3    3    0    0 -0.80805203584E+01  0.15988037244E+02  0.73254039886E+01  0.19353906274E+02  0.51100000000E-03 0. -1.
        -11    1    3    3    0    0  0.13480359494E+02  0.65025054330E+00 -0.10773861023E+02  0.17269018486E+02  0.51100000000E-03 0.  1.
        -12    1    3    3    0    0  0.31790228365E+00  0.96904778882E+01  0.20502000525E+02  0.22679031044E+02  0.00000000000E+00 0.  1.
</event>
<event>
 7    1  0.6293596E-013  0.5930193E+02  0.7816164E-02  0.1266605E+00
        -11   -1    0    0    0    0  0.00000000000E+00  0.00000000000E+00  0.45593999997E+02  0.45594000000E+02  0.51100000000E-03 0.  1.
         11   -1    0    0    0    0 -0.00000000000E+00 -0.00000000000E+00 -0.45593999997E+02  0.45594000000E+02  0.51100000000E-03 0. -1.
    9900012    2    1    2    0    0  0.43226409697E+01  0.27013661083E+01 -0.31476003085E+02  0.59301931349E+02  0.49999976877E+02 0.  0.
        -12    1    1    2    0    0 -0.43226409697E+01 -0.27013661083E+01  0.31476003085E+02  0.31886068651E+02  0.00000000000E+00 0.  1.
         11    1    3    3    0    0 -0.54579751743E+01  0.13752163353E+02 -0.83868809362E+01  0.17007388453E+02  0.51100000000E-03 0.  1.
        -11    1    3    3    0    0  0.18270950080E+02 -0.88869759105E+01 -0.26058632462E+02  0.33043278949E+02  0.51100000000E-03 0. -1.
        -12    1    3    3    0    0 -0.84903339360E+01 -0.21638213343E+01  0.29695103132E+01  0.92512639467E+01  0.00000000000E+00 0.  1.
</event>
<event>
 7    1  0.6293596E-013  0.5930192E+02  0.7816164E-02  0.1266605E+00
        -11   -1    0    0    0    0  0.00000000000E+00  0.00000000000E+00  0.45593999997E+02  0.45594000000E+02  0.51100000000E-03 0.  1.
         11   -1    0    0    0    0 -0.00000000000E+00 -0.00000000000E+00 -0.45593999997E+02  0.45594000000E+02  0.51100000000E-03 0. -1.
    9900012    2    1    2    0    0 -0.27608191614E+02 -0.12538027428E+02 -0.98644784883E+01  0.59301916643E+02  0.49999950057E+02 0.  0.
        -12    1    1    2    0    0  0.27608191614E+02  0.12538027428E+02  0.98644784883E+01  0.31886083357E+02  0.00000000000E+00 0.  1.
         11    1    3    3    0    0 -0.78081667184E+01  0.12799323377E+02 -0.17252266045E+02  0.22856745839E+02  0.51100000000E-03 0. -1.
        -11    1    3    3    0    0 -0.64635557845E+00 -0.32728156520E+01  0.63917204260E+01  0.72099367605E+01  0.51100000000E-03 0.  1.
         12    1    3    3    0    0 -0.19153669317E+02 -0.22064535153E+02  0.99606713085E+00  0.29235234043E+02  0.00000000000E+00 0. -1.
</event>
<event>
 7    1  0.6293596E-013  0.5930194E+02  0.7816164E-02  0.1266605E+00
        -11   -1    0    0    0    0  0.00000000000E+00  0.00000000000E+00  0.45593999997E+02  0.45594000000E+02  0.51100000000E-03 0. -1.
         11   -1    0    0    0    0 -0.00000000000E+00 -0.00000000000E+00 -0.45593999997E+02  0.45594000000E+02  0.51100000000E-03 0.  1.
    9900012    2    1    2    0    0 -0.75535447851E+01  0.36241357282E+01  0.30765733390E+02  0.59301941140E+02  0.49999994734E+02 0.  0.
        -12    1    1    2    0    0  0.75535447851E+01 -0.36241357282E+01 -0.30765733390E+02  0.31886058860E+02  0.00000000000E+00 0.  1.
         11    1    3    3    0    0 -0.17633661531E+02 -0.54174966364E+01  0.13940833924E+02  0.23122329890E+02  0.51100000000E-03 0. -1.
        -11    1    3    3    0    0  0.13556918355E+02  0.13723233501E+02  0.10019977088E+01  0.19316344703E+02  0.51100000000E-03 0.  1.
        -12    1    3    3    0    0 -0.34768016088E+01 -0.46816011367E+01  0.15822901757E+02  0.16863266547E+02  0.00000000000E+00 0.  1.
</event>
<event>
 7    1  0.6293596E-013  0.5930193E+02  0.7816164E-02  0.1266605E+00
        -11   -1    0    0    0    0  0.00000000000E+00  0.00000000000E+00  0.45593999997E+02  0.45594000000E+02  0.51100000000E-03 0.  1.
         11   -1    0    0    0    0 -0.00000000000E+00 -0.00000000000E+00 -0.45593999997E+02  0.45594000000E+02  0.51100000000E-03 0. -1.
    9900012    2    1    2    0    0 -0.54319183342E+01  0.44157698438E+01 -0.31108145033E+02  0.59301930197E+02  0.49999974776E+02 0.  0.
        -12    1    1    2    0    0  0.54319183342E+01 -0.44157698438E+01  0.31108145033E+02  0.31886069803E+02  0.00000000000E+00 0.  1.
         11    1    3    3    0    0 -0.15577432203E+02  0.38572309308E+01 -0.35492492752E+02  0.38951914799E+02  0.51100000000E-03 0. -1.
        -11    1    3    3    0    0 -0.17077667807E+01 -0.54535904152E+01  0.41403472247E+01  0.70569533934E+01  0.51100000000E-03 0.  1.
         12    1    3    3    0    0  0.11853280650E+02  0.60121293282E+01  0.24400049442E+00  0.13293062005E+02  0.00000000000E+00 0. -1.
</event>
<event>
 7    1  0.6293596E-013  0.5930201E+02  0.7816164E-02  0.1266605E+00
        -11   -1    0    0    0    0  0.00000000000E+00  0.00000000000E+00  0.45593999997E+02  0.45594000000E+02  0.51100000000E-03 0.  1.
         11   -1    0    0    0    0 -0.00000000000E+00 -0.00000000000E+00 -0.45593999997E+02  0.45594000000E+02  0.51100000000E-03 0. -1.
    9900012    2    1    2    0    0 -0.24022362924E+01 -0.13939309342E+02 -0.28576934405E+02  0.59302011477E+02  0.50000123010E+02 0.  0.
        -12    1    1    2    0    0  0.24022362924E+01  0.13939309342E+02  0.28576934405E+02  0.31885988523E+02  0.00000000000E+00 0.  1.
         11    1    3    3    0    0  0.56474161855E+01 -0.27961503252E+02 -0.16743052755E+02  0.33076710682E+02  0.51100000000E-03 0. -1.
        -11    1    3    3    0    0  0.24160376086E+01  0.11295300688E+02 -0.99539396096E+01  0.15248015260E+02  0.51100000000E-03 0.  1.
         12    1    3    3    0    0 -0.10465690087E+02  0.27268932231E+01 -0.18799420409E+01  0.10977285535E+02  0.00000000000E+00 0. -1.
</event>
<event>
 7    1  0.6293596E-013  0.5930176E+02  0.7816164E-02  0.1266605E+00
        -11   -1    0    0    0    0  0.00000000000E+00  0.00000000000E+00  0.45593999997E+02  0.45594000000E+02  0.51100000000E-03 0.  1.
         11   -1    0    0    0    0 -0.00000000000E+00 -0.00000000000E+00 -0.45593999997E+02  0.45594000000E+02  0.51100000000E-03 0. -1.
    9900012    2    1    2    0    0  0.13052585198E+02 -0.14652966051E+02 -0.25132711404E+02  0.59301755678E+02  0.49999656494E+02 0.  0.
        -12    1    1    2    0    0 -0.13052585198E+02  0.14652966051E+02  0.25132711404E+02  0.31886244322E+02  0.00000000000E+00 0.  1.
         11    1    3    3    0    0  0.82392281458E+01 -0.80290152460E+01  0.10216916359E+02  0.15386206368E+02  0.51100000000E-03 0. -1.
        -11    1    3    3    0    0 -0.62360739805E+01 -0.79000161267E+01 -0.29862255508E+02  0.31512746275E+02  0.51100000000E-03 0.  1.
         12    1    3    3    0    0  0.11049431033E+02  0.12760653214E+01 -0.54873722547E+01  0.12402803034E+02  0.00000000000E+00 0. -1.
</event>
<event>
 7    1  0.6293596E-013  0.5930193E+02  0.7816164E-02  0.1266605E+00
        -11   -1    0    0    0    0  0.00000000000E+00  0.00000000000E+00  0.45593999997E+02  0.45594000000E+02  0.51100000000E-03 0. -1.
         11   -1    0    0    0    0 -0.00000000000E+00 -0.00000000000E+00 -0.45593999997E+02  0.45594000000E+02  0.51100000000E-03 0.  1.
    9900012    2    1    2    0    0 -0.17018526967E+02 -0.66515613438E+01  0.26131356881E+02  0.59301931869E+02  0.49999977825E+02 0.  0.
        -12    1    1    2    0    0  0.17018526967E+02  0.66515613438E+01 -0.26131356881E+02  0.31886068131E+02  0.00000000000E+00 0.  1.
         11    1    3    3    0    0 -0.13123847959E+02  0.84612119433E+00  0.38316556873E+02  0.40510613883E+02  0.51100000000E-03 0. -1.
        -11    1    3    3    0    0 -0.68999051904E+01 -0.48712611124E+01 -0.33312617550E+01  0.90793822258E+01  0.51100000000E-03 0.  1.
         12    1    3    3    0    0  0.30052261820E+01 -0.26264214257E+01 -0.88539382366E+01  0.97119357600E+01  0.00000000000E+00 0. -1.
</event>
<event>
 7    1  0.6293596E-013  0.5930162E+02  0.7816164E-02  0.1266606E+00
        -11   -1    0    0    0    0  0.00000000000E+00  0.00000000000E+00  0.45593999997E+02  0.45594000000E+02  0.51100000000E-03 0.  1.
         11   -1    0    0    0    0 -0.00000000000E+00 -0.00000000000E+00 -0.45593999997E+02  0.45594000000E+02  0.51100000000E-03 0. -1.
    9900012    2    1    2    0    0 -0.19366428519E+02  0.18837957733E+02 -0.16935583959E+02  0.59301620319E+02  0.49999409630E+02 0.  0.
        -12    1    1    2    0    0  0.19366428519E+02 -0.18837957733E+02  0.16935583959E+02  0.31886379681E+02  0.00000000000E+00 0.  1.
         11    1    3    3    0    0 -0.24733343892E+02  0.26139194390E+01 -0.25155817555E+02  0.35374935082E+02  0.51100000000E-03 0.  1.
        -11    1    3    3    0    0  0.99630207867E+01  0.74270820350E+01  0.57837301027E+01  0.13706745234E+02  0.51100000000E-03 0. -1.
        -12    1    3    3    0    0 -0.45961054134E+01  0.87969562590E+01  0.24365034939E+01  0.10219940003E+02  0.00000000000E+00 0.  1.
</event>
<event>
 7    1  0.6293596E-013  0.5930195E+02  0.7816164E-02  0.1266605E+00
        -11   -1    0    0    0    0  0.00000000000E+00  0.00000000000E+00  0.45593999997E+02  0.45594000000E+02  0.51100000000E-03 0. -1.
         11   -1    0    0    0    0 -0.00000000000E+00 -0.00000000000E+00 -0.45593999997E+02  0.45594000000E+02  0.51100000000E-03 0.  1.
    9900012    2    1    2    0    0  0.81492921005E+01  0.21778709938E+02  0.21817353691E+02  0.59301951478E+02  0.50000013587E+02 0.  0.
        -12    1    1    2    0    0 -0.81492921005E+01 -0.21778709938E+02 -0.21817353691E+02  0.31886048522E+02  0.00000000000E+00 0.  1.
         11    1    3    3    0    0 -0.71167299942E+01  0.18199126860E+02  0.30965534418E+02  0.36615848841E+02  0.51100000000E-03 0. -1.
        -11    1    3    3    0    0  0.16380892546E+01 -0.38672783883E+01 -0.51583887361E+01  0.66519285289E+01  0.51100000000E-03 0.  1.
         12    1    3    3    0    0  0.13627932840E+02  0.74468614658E+01 -0.39897919913E+01  0.16034174108E+02  0.00000000000E+00 0. -1.
</event>
<event>
 7    1  0.6293596E-013  0.5930185E+02  0.7816164E-02  0.1266605E+00
        -11   -1    0    0    0    0  0.00000000000E+00  0.00000000000E+00  0.45593999997E+02  0.45594000000E+02  0.51100000000E-03 0.  1.
         11   -1    0    0    0    0 -0.00000000000E+00 -0.00000000000E+00 -0.45593999997E+02  0.45594000000E+02  0.51100000000E-03 0. -1.
    9900012    2    1    2    0    0 -0.13229870044E+02  0.29002805981E+02 -0.73119179282E+00  0.59301845362E+02  0.49999820057E+02 0.  0.
        -12    1    1    2    0    0  0.13229870044E+02 -0.29002805981E+02  0.73119179282E+00  0.31886154638E+02  0.00000000000E+00 0.  1.
         11    1    3    3    0    0 -0.18782818599E+02  0.22770413739E+02  0.92802924290E+01  0.30942040078E+02  0.51100000000E-03 0. -1.
        -11    1    3    3    0    0  0.11542827791E+01 -0.47639727633E+01  0.64371121211E+01  0.80909961034E+01  0.51100000000E-03 0.  1.
         12    1    3    3    0    0  0.43986657761E+01  0.10996365006E+02 -0.16448596343E+02  0.20268809180E+02  0.00000000000E+00 0. -1.
</event>
<event>
 7    1  0.7023023E-013  0.5930193E+02  0.7816164E-02  0.1266605E+00
        -11   -1    0    0    0    0  0.00000000000E+00  0.00000000000E+00  0.45593999997E+02  0.45594000000E+02  0.51100000000E-03 0. -1.
         11   -1    0    0    0    0 -0.00000000000E+00 -0.00000000000E+00 -0.45593999997E+02  0.45594000000E+02  0.51100000000E-03 0.  1.
    9900012    2    1    2    0    0  0.25589383430E+01  0.22222262167E+02  0.22723208661E+02  0.59301932304E+02  0.49999978618E+02 0.  0.
        -12    1    1    2    0    0 -0.25589383430E+01 -0.22222262167E+02 -0.22723208661E+02  0.31886067696E+02  0.00000000000E+00 0.  1.
         11    1    3    3    0    0 -0.92797205671E+01  0.21971871756E+02  0.21898051615E+02  0.32379021404E+02  0.51100000000E-03 0. -1.
        -11    1    3    3    0    0  0.35725341062E+01  0.29578901905E+01 -0.11176492506E+02  0.12100665243E+02  0.51100000000E-03 0.  1.
         12    1    3    3    0    0  0.82661248039E+01 -0.27074997795E+01  0.12001649553E+02  0.14822245657E+02  0.00000000000E+00 0. -1.
</event>
<event>
 7    1  0.6293596E-013  0.5930193E+02  0.7816164E-02  0.1266605E+00
        -11   -1    0    0    0    0  0.00000000000E+00  0.00000000000E+00  0.45593999997E+02  0.45594000000E+02  0.51100000000E-03 0.  1.
         11   -1    0    0    0    0 -0.00000000000E+00 -0.00000000000E+00 -0.45593999997E+02  0.45594000000E+02  0.51100000000E-03 0. -1.
    9900012    2    1    2    0    0 -0.31817797141E+02 -0.19025923908E+01 -0.85397423256E+00  0.59301931809E+02  0.49999977715E+02 0.  0.
        -12    1    1    2    0    0  0.31817797141E+02  0.19025923908E+01  0.85397423256E+00  0.31886068191E+02  0.00000000000E+00 0.  1.
         11    1    3    3    0    0 -0.17229326698E+02  0.16434653283E+02  0.14715906155E+02  0.27991166843E+02  0.51100000000E-03 0. -1.
        -11    1    3    3    0    0 -0.28143390626E+01 -0.26142287091E+01  0.25306317433E+01  0.45998688442E+01  0.51100000000E-03 0.  1.
         12    1    3    3    0    0 -0.11774131381E+02 -0.15723016964E+02 -0.18100512131E+02  0.26710896122E+02  0.00000000000E+00 0. -1.
</event>
<event>
 7    1  0.6293596E-013  0.5930195E+02  0.7816164E-02  0.1266605E+00
        -11   -1    0    0    0    0  0.00000000000E+00  0.00000000000E+00  0.45593999997E+02  0.45594000000E+02  0.51100000000E-03 0. -1.
         11   -1    0    0    0    0 -0.00000000000E+00 -0.00000000000E+00 -0.45593999997E+02  0.45594000000E+02  0.51100000000E-03 0.  1.
    9900012    2    1    2    0    0 -0.79994316233E+01  0.62186404457E+01  0.30233388553E+02  0.59301950092E+02  0.50000011060E+02 0.  0.
        -12    1    1    2    0    0  0.79994316233E+01 -0.62186404457E+01 -0.30233388553E+02  0.31886049908E+02  0.00000000000E+00 0.  1.
         11    1    3    3    0    0 -0.39872161115E+01  0.17836684350E+01  0.11696975616E+02  0.12485936258E+02  0.51100000000E-03 0. -1.
        -11    1    3    3    0    0 -0.86855439016E+00  0.19735041916E+02 -0.32388874764E+01  0.20017908445E+02  0.51100000000E-03 0.  1.
        -12    1    3    3    0    0 -0.31436611217E+01 -0.15300069906E+02  0.21775300414E+02  0.26798105390E+02  0.00000000000E+00 0.  1.
</event>
<event>
 7    1  0.6293596E-013  0.5930196E+02  0.7816164E-02  0.1266605E+00
        -11   -1    0    0    0    0  0.00000000000E+00  0.00000000000E+00  0.45593999997E+02  0.45594000000E+02  0.51100000000E-03 0.  1.
         11   -1    0    0    0    0 -0.00000000000E+00 -0.00000000000E+00 -0.45593999997E+02  0.45594000000E+02  0.51100000000E-03 0. -1.
    9900012    2    1    2    0    0  0.41872730289E+00 -0.29778966050E+02 -0.11391119489E+02  0.59301956740E+02  0.50000023184E+02 0.  0.
        -12    1    1    2    0    0 -0.41872730289E+00  0.29778966050E+02  0.11391119489E+02  0.31886043260E+02  0.00000000000E+00 0.  1.
         11    1    3    3    0    0  0.10673868028E+02 -0.23932725508E+01 -0.11424997703E+02  0.15817388689E+02  0.51100000000E-03 0. -1.
        -11    1    3    3    0    0 -0.19070667173E+02 -0.57753491712E+01 -0.21585879155E+01  0.20042567363E+02  0.51100000000E-03 0.  1.
        -12    1    3    3    0    0  0.88155264480E+01 -0.21610344328E+02  0.21924661290E+01  0.23442000688E+02  0.00000000000E+00 0.  1.
</event>
<event>
 7    1  0.6293596E-013  0.5930205E+02  0.7816164E-02  0.1266604E+00
        -11   -1    0    0    0    0  0.00000000000E+00  0.00000000000E+00  0.45593999997E+02  0.45594000000E+02  0.51100000000E-03 0.  1.
         11   -1    0    0    0    0 -0.00000000000E+00 -0.00000000000E+00 -0.45593999997E+02  0.45594000000E+02  0.51100000000E-03 0. -1.
    9900012    2    1    2    0    0  0.67640896780E+01  0.15204016258E+02 -0.27199243887E+02  0.59302048743E+02  0.50000190975E+02 0.  0.
        -12    1    1    2    0    0 -0.67640896780E+01 -0.15204016258E+02  0.27199243887E+02  0.31885951257E+02  0.00000000000E+00 0.  1.
         11    1    3    3    0    0  0.79043157258E+01  0.13669892153E+02 -0.41549811414E+02  0.44449195576E+02  0.51100000000E-03 0. -1.
        -11    1    3    3    0    0  0.10591859976E+01  0.10916013809E+01  0.45023960725E+01  0.47523719559E+01  0.51100000000E-03 0.  1.
         12    1    3    3    0    0 -0.21994120454E+01  0.44252272460E+00  0.98481714545E+01  0.10100481212E+02  0.00000000000E+00 0. -1.
</event>
<event>
 7    1  0.6293596E-013  0.5930192E+02  0.7816164E-02  0.1266605E+00
        -11   -1    0    0    0    0  0.00000000000E+00  0.00000000000E+00  0.45593999997E+02  0.45594000000E+02  0.51100000000E-03 0.  1.
         11   -1    0    0    0    0 -0.00000000000E+00 -0.00000000000E+00 -0.45593999997E+02  0.45594000000E+02  0.51100000000E-03 0. -1.
    9900012    2    1    2    0    0  0.24147605235E+02 -0.20683668408E+02  0.24085655165E+01  0.59301918942E+02  0.49999954250E+02 0.  0.
        -12    1    1    2    0    0 -0.24147605235E+02  0.20683668408E+02 -0.24085655165E+01  0.31886081058E+02  0.00000000000E+00 0.  1.
         11    1    3    3    0    0  0.34045081789E+02 -0.23068833048E+02  0.88393438609E+01  0.42063911520E+02  0.51100000000E-03 0. -1.
        -11    1    3    3    0    0 -0.50788924947E+01  0.29328507245E+01  0.30339624256E+01  0.66031576238E+01  0.51100000000E-03 0.  1.
         12    1    3    3    0    0 -0.48185840596E+01 -0.54768608441E+00 -0.94647407700E+01  0.10634849798E+02  0.00000000000E+00 0. -1.
</event>
<event>
 7    1  0.6713592E-013  0.5930192E+02  0.7816164E-02  0.1266605E+00
        -11   -1    0    0    0    0  0.00000000000E+00  0.00000000000E+00  0.45593999997E+02  0.45594000000E+02  0.51100000000E-03 0.  1.
         11   -1    0    0    0    0 -0.00000000000E+00 -0.00000000000E+00 -0.45593999997E+02  0.45594000000E+02  0.51100000000E-03 0. -1.
    9900012    2    1    2    0    0 -0.21822880968E+02 -0.22484756979E+02 -0.59092737296E+01  0.59301922377E+02  0.49999960515E+02 0.  0.
        -12    1    1    2    0    0  0.21822880968E+02  0.22484756979E+02  0.59092737296E+01  0.31886077623E+02  0.00000000000E+00 0.  1.
         11    1    3    3    0    0 -0.23426382269E+02 -0.18270724786E+02 -0.14131837536E+02  0.32898686947E+02  0.51100000000E-03 0. -1.
        -11    1    3    3    0    0  0.60501906462E+01  0.59771805336E+01 -0.44050938347E+01  0.95779092677E+01  0.51100000000E-03 0.  1.
         12    1    3    3    0    0 -0.44466893457E+01 -0.10191212726E+02  0.12627657641E+02  0.16825326163E+02  0.00000000000E+00 0. -1.
</event>
<event>
 7    1  0.6293596E-013  0.5930195E+02  0.7816164E-02  0.1266605E+00
        -11   -1    0    0    0    0  0.00000000000E+00  0.00000000000E+00  0.45593999997E+02  0.45594000000E+02  0.51100000000E-03 0. -1.
         11   -1    0    0    0    0 -0.00000000000E+00 -0.00000000000E+00 -0.45593999997E+02  0.45594000000E+02  0.51100000000E-03 0.  1.
    9900012    2    1    2    0    0 -0.13755898511E+02 -0.13256490988E+02  0.25529607602E+02  0.59301950362E+02  0.50000011553E+02 0.  0.
        -12    1    1    2    0    0  0.13755898511E+02  0.13256490988E+02 -0.25529607602E+02  0.31886049638E+02  0.00000000000E+00 0.  1.
         11    1    3    3    0    0  0.13272072930E+02 -0.36381656655E+01  0.14062701770E+02  0.19675968861E+02  0.51100000000E-03 0. -1.
        -11    1    3    3    0    0 -0.26643885868E+02  0.11999180815E+01  0.53839440048E+01  0.27208882941E+02  0.51100000000E-03 0.  1.
         12    1    3    3    0    0 -0.38408557253E+00 -0.10818243404E+02  0.60829618275E+01  0.12417098561E+02  0.00000000000E+00 0. -1.
</event>
<event>
 7    1  0.6293596E-013  0.5930194E+02  0.7816164E-02  0.1266605E+00
        -11   -1    0    0    0    0  0.00000000000E+00  0.00000000000E+00  0.45593999997E+02  0.45594000000E+02  0.51100000000E-03 0. -1.
         11   -1    0    0    0    0 -0.00000000000E+00 -0.00000000000E+00 -0.45593999997E+02  0.45594000000E+02  0.51100000000E-03 0.  1.
    9900012    2    1    2    0    0  0.11608918787E+02 -0.14714614579E+01  0.29661227325E+02  0.59301943476E+02  0.49999998994E+02 0.  0.
        -12    1    1    2    0    0 -0.11608918787E+02  0.14714614579E+01 -0.29661227325E+02  0.31886056524E+02  0.00000000000E+00 0.  1.
         11    1    3    3    0    0  0.10687707508E+01 -0.18142708038E+02  0.19188538221E+02  0.26429152941E+02  0.51100000000E-03 0. -1.
        -11    1    3    3    0    0  0.55334164568E+01  0.13915553560E+02 -0.54650360747E+01  0.15941391035E+02  0.51100000000E-03 0.  1.
        -12    1    3    3    0    0  0.50067315793E+01  0.27556930202E+01  0.15937725179E+02  0.16931399499E+02  0.00000000000E+00 0.  1.
</event>
<event>
 7    1  0.6293596E-013  0.5930180E+02  0.7816164E-02  0.1266605E+00
        -11   -1    0    0    0    0  0.00000000000E+00  0.00000000000E+00  0.45593999997E+02  0.45594000000E+02  0.51100000000E-03 0.  1.
         11   -1    0    0    0    0 -0.00000000000E+00 -0.00000000000E+00 -0.45593999997E+02  0.45594000000E+02  0.51100000000E-03 0. -1.
    9900012    2    1    2    0    0 -0.12977652646E+02 -0.22742852084E+02 -0.18195406477E+02  0.59301802266E+02  0.49999741459E+02 0.  0.
        -12    1    1    2    0    0  0.12977652646E+02  0.22742852084E+02  0.18195406477E+02  0.31886197734E+02  0.00000000000E+00 0.  1.
         11    1    3    3    0    0 -0.81091818942E+01 -0.98961608991E+01 -0.25586293111E+00  0.12796808103E+02  0.51100000000E-03 0. -1.
        -11    1    3    3    0    0  0.16931770518E+02  0.69359517786E+00 -0.98323733889E+01  0.19591873159E+02  0.51100000000E-03 0.  1.
        -12    1    3    3    0    0 -0.21800241269E+02 -0.13540286363E+02 -0.81071701565E+01  0.26913121003E+02  0.00000000000E+00 0.  1.
</event>
<event>
 7    1  0.6293596E-013  0.5930195E+02  0.7816164E-02  0.1266605E+00
        -11   -1    0    0    0    0  0.00000000000E+00  0.00000000000E+00  0.45593999997E+02  0.45594000000E+02  0.51100000000E-03 0. -1.
         11   -1    0    0    0    0 -0.00000000000E+00 -0.00000000000E+00 -0.45593999997E+02  0.45594000000E+02  0.51100000000E-03 0.  1.
    9900012    2    1    2    0    0 -0.28554619336E+02 -0.46271143750E+01  0.13414313012E+02  0.59301948716E+02  0.50000008551E+02 0.  0.
        -12    1    1    2    0    0  0.28554619336E+02  0.46271143750E+01 -0.13414313012E+02  0.31886051284E+02  0.00000000000E+00 0.  1.
         11    1    3    3    0    0 -0.22181552455E+02 -0.11453979588E+02  0.21506466804E+02  0.32950615053E+02  0.51100000000E-03 0. -1.
        -11    1    3    3    0    0  0.17912016439E+01  0.13383865222E+02 -0.67662200848E+00  0.13520135695E+02  0.51100000000E-03 0.  1.
        -12    1    3    3    0    0 -0.81642685249E+01 -0.65570000094E+01 -0.74155317833E+01  0.12831197968E+02  0.00000000000E+00 0.  1.
</event>
<event>
 7    1  0.6293596E-013  0.5930196E+02  0.7816164E-02  0.1266605E+00
        -11   -1    0    0    0    0  0.00000000000E+00  0.00000000000E+00  0.45593999997E+02  0.45594000000E+02  0.51100000000E-03 0.  1.
         11   -1    0    0    0    0 -0.00000000000E+00 -0.00000000000E+00 -0.45593999997E+02  0.45594000000E+02  0.51100000000E-03 0. -1.
    9900012    2    1    2    0    0 -0.19712164569E+01 -0.15505188580E+02 -0.27792496463E+02  0.59301961882E+02  0.50000032562E+02 0.  0.
        -12    1    1    2    0    0  0.19712164569E+01  0.15505188580E+02  0.27792496463E+02  0.31886038118E+02  0.00000000000E+00 0.  1.
         11    1    3    3    0    0  0.53337386801E+01 -0.25880322416E+02 -0.26972715766E+02  0.37759333320E+02  0.51100000000E-03 0. -1.
        -11    1    3    3    0    0 -0.41914298579E+01  0.10734551899E+02 -0.77834507646E+01  0.13906142340E+02  0.51100000000E-03 0.  1.
         12    1    3    3    0    0 -0.31135252791E+01 -0.35941806224E+00  0.69636700682E+01  0.76364862225E+01  0.00000000000E+00 0. -1.
</event>
<event>
 7    1  0.6293596E-013  0.5930199E+02  0.7816164E-02  0.1266605E+00
        -11   -1    0    0    0    0  0.00000000000E+00  0.00000000000E+00  0.45593999997E+02  0.45594000000E+02  0.51100000000E-03 0. -1.
         11   -1    0    0    0    0 -0.00000000000E+00 -0.00000000000E+00 -0.45593999997E+02  0.45594000000E+02  0.51100000000E-03 0.  1.
    9900012    2    1    2    0    0  0.15900205577E+02 -0.11992884447E+01  0.27612727870E+02  0.59301990990E+02  0.50000085647E+02 0.  0.
        -12    1    1    2    0    0 -0.15900205577E+02  0.11992884447E+01 -0.27612727870E+02  0.31886009010E+02  0.00000000000E+00 0.  1.
         11    1    3    3    0    0  0.29449479741E+02 -0.72108347244E+00  0.20739260903E+02  0.36026500822E+02  0.51100000000E-03 0. -1.
        -11    1    3    3    0    0 -0.86204657592E+01  0.43705991807E+01 -0.39426450029E+01  0.10438343594E+02  0.51100000000E-03 0.  1.
         12    1    3    3    0    0 -0.49288084053E+01 -0.48488041529E+01  0.10816111970E+02  0.12837146574E+02  0.00000000000E+00 0. -1.
</event>
<event>
 7    1  0.6293596E-013  0.5930199E+02  0.7816164E-02  0.1266605E+00
        -11   -1    0    0    0    0  0.00000000000E+00  0.00000000000E+00  0.45593999997E+02  0.45594000000E+02  0.51100000000E-03 0.  1.
         11   -1    0    0    0    0 -0.00000000000E+00 -0.00000000000E+00 -0.45593999997E+02  0.45594000000E+02  0.51100000000E-03 0. -1.
    9900012    2    1    2    0    0  0.10582887201E+01 -0.15079031220E+02 -0.28075260692E+02  0.59301993343E+02  0.50000089940E+02 0.  0.
        -12    1    1    2    0    0 -0.10582887201E+01  0.15079031220E+02  0.28075260692E+02  0.31886006657E+02  0.00000000000E+00 0.  1.
         11    1    3    3    0    0 -0.11635278392E+02  0.10013424499E+02 -0.85504748719E+01  0.17571539325E+02  0.51100000000E-03 0. -1.
        -11    1    3    3    0    0  0.15841355407E+02 -0.61356502975E+01 -0.13154515534E+02  0.21485716765E+02  0.51100000000E-03 0.  1.
         12    1    3    3    0    0 -0.31477882954E+01 -0.18956805421E+02 -0.63702702867E+01  0.20244737253E+02  0.00000000000E+00 0. -1.
</event>
<event>
 7    1  0.6293596E-013  0.5930195E+02  0.7816164E-02  0.1266605E+00
        -11   -1    0    0    0    0  0.00000000000E+00  0.00000000000E+00  0.45593999997E+02  0.45594000000E+02  0.51100000000E-03 0. -1.
         11   -1    0    0    0    0 -0.00000000000E+00 -0.00000000000E+00 -0.45593999997E+02  0.45594000000E+02  0.51100000000E-03 0.  1.
    9900012    2    1    2    0    0 -0.18698479775E+01  0.21827512396E+02  0.23168591342E+02  0.59301948918E+02  0.50000008918E+02 0.  0.
        -12    1    1    2    0    0  0.18698479775E+01 -0.21827512396E+02 -0.23168591342E+02  0.31886051082E+02  0.00000000000E+00 0.  1.
         11    1    3    3    0    0 -0.17970598187E+02  0.24155717301E+02  0.18791485648E+02  0.35490294597E+02  0.51100000000E-03 0. -1.
        -11    1    3    3    0    0  0.73719654282E+01 -0.91668987067E+01  0.48235819581E+01  0.12713962771E+02  0.51100000000E-03 0.  1.
         12    1    3    3    0    0  0.87287847810E+01  0.68386938020E+01 -0.44647626389E+00  0.11097691549E+02  0.00000000000E+00 0. -1.
</event>
<event>
 7    1  0.6293596E-013  0.5930196E+02  0.7816164E-02  0.1266605E+00
        -11   -1    0    0    0    0  0.00000000000E+00  0.00000000000E+00  0.45593999997E+02  0.45594000000E+02  0.51100000000E-03 0.  1.
         11   -1    0    0    0    0 -0.00000000000E+00 -0.00000000000E+00 -0.45593999997E+02  0.45594000000E+02  0.51100000000E-03 0. -1.
    9900012    2    1    2    0    0 -0.20827067491E+02  0.11125471259E+02 -0.21428404555E+02  0.59301962730E+02  0.50000034108E+02 0.  0.
        -12    1    1    2    0    0  0.20827067491E+02 -0.11125471259E+02  0.21428404555E+02  0.31886037270E+02  0.00000000000E+00 0.  1.
         11    1    3    3    0    0 -0.82951704958E+01  0.14580556664E+02 -0.43145175930E+00  0.16780603001E+02  0.51100000000E-03 0. -1.
        -11    1    3    3    0    0  0.15727106210E+01 -0.15897352489E+02 -0.25508807115E+01  0.16177336849E+02  0.51100000000E-03 0.  1.
         12    1    3    3    0    0 -0.14104607616E+02  0.12442267084E+02 -0.18446072084E+02  0.26344022881E+02  0.00000000000E+00 0. -1.
</event>
<event>
 7    1  0.6293596E-013  0.5930194E+02  0.7816164E-02  0.1266605E+00
        -11   -1    0    0    0    0  0.00000000000E+00  0.00000000000E+00  0.45593999997E+02  0.45594000000E+02  0.51100000000E-03 0. -1.
         11   -1    0    0    0    0 -0.00000000000E+00 -0.00000000000E+00 -0.45593999997E+02  0.45594000000E+02  0.51100000000E-03 0.  1.
    9900012    2    1    2    0    0  0.18115992221E+02  0.44928922467E+01  0.25852386431E+02  0.59301935033E+02  0.49999983595E+02 0.  0.
        -12    1    1    2    0    0 -0.18115992221E+02 -0.44928922467E+01 -0.25852386431E+02  0.31886064967E+02  0.00000000000E+00 0.  1.
         11    1    3    3    0    0  0.86626149481E+01 -0.11682537969E+02  0.18102998744E+02  0.23221566591E+02  0.51100000000E-03 0. -1.
        -11    1    3    3    0    0  0.75413780213E+01  0.23676413433E+02 -0.38502957235E+00  0.24851422164E+02  0.51100000000E-03 0.  1.
        -12    1    3    3    0    0  0.19119992519E+01 -0.75009832177E+01  0.81344172592E+01  0.11228946278E+02  0.00000000000E+00 0.  1.
</event>
<event>
 7    1  0.6293596E-013  0.5930195E+02  0.7816164E-02  0.1266605E+00
        -11   -1    0    0    0    0  0.00000000000E+00  0.00000000000E+00  0.45593999997E+02  0.45594000000E+02  0.51100000000E-03 0. -1.
         11   -1    0    0    0    0 -0.00000000000E+00 -0.00000000000E+00 -0.45593999997E+02  0.45594000000E+02  0.51100000000E-03 0.  1.
    9900012    2    1    2    0    0 -0.15216085579E+02 -0.13671976171E+02  0.24459515262E+02  0.59301951647E+02  0.50000013895E+02 0.  0.
        -12    1    1    2    0    0  0.15216085579E+02  0.13671976171E+02 -0.24459515262E+02  0.31886048353E+02  0.00000000000E+00 0.  1.
         11    1    3    3    0    0  0.35118448630E+01 -0.11253433517E+02  0.12044883589E+02  0.16853843514E+02  0.51100000000E-03 0. -1.
        -11    1    3    3    0    0 -0.68207908588E+01  0.11529268563E+02 -0.75190164229E+01  0.15361732642E+02  0.51100000000E-03 0.  1.
        -12    1    3    3    0    0 -0.11907139583E+02 -0.13947811217E+02  0.19933648096E+02  0.27086375491E+02  0.00000000000E+00 0.  1.
</event>
<event>
 7    1  0.6293596E-013  0.5930195E+02  0.7816164E-02  0.1266605E+00
        -11   -1    0    0    0    0  0.00000000000E+00  0.00000000000E+00  0.45593999997E+02  0.45594000000E+02  0.51100000000E-03 0. -1.
         11   -1    0    0    0    0 -0.00000000000E+00 -0.00000000000E+00 -0.45593999997E+02  0.45594000000E+02  0.51100000000E-03 0.  1.
    9900012    2    1    2    0    0 -0.19584335078E+02  0.26153979842E+00  0.25161590948E+02  0.59301949092E+02  0.50000009235E+02 0.  0.
        -12    1    1    2    0    0  0.19584335078E+02 -0.26153979842E+00 -0.25161590948E+02  0.31886050908E+02  0.00000000000E+00 0.  1.
         11    1    3    3    0    0  0.30913693443E+00 -0.10047630643E+02  0.10495382874E+02  0.14532842431E+02  0.51100000000E-03 0. -1.
        -11    1    3    3    0    0 -0.10035774040E+02  0.21360762134E+02 -0.45331573475E+00  0.23605177714E+02  0.51100000000E-03 0.  1.
        -12    1    3    3    0    0 -0.98576979727E+01 -0.11051591692E+02  0.15119523808E+02  0.21163928946E+02  0.00000000000E+00 0.  1.
</event>
<event>
 7    1  0.6293596E-013  0.5930190E+02  0.7816164E-02  0.1266605E+00
        -11   -1    0    0    0    0  0.00000000000E+00  0.00000000000E+00  0.45593999997E+02  0.45594000000E+02  0.51100000000E-03 0. -1.
         11   -1    0    0    0    0 -0.00000000000E+00 -0.00000000000E+00 -0.45593999997E+02  0.45594000000E+02  0.51100000000E-03 0.  1.
    9900012    2    1    2    0    0  0.71901614925E+01 -0.19278418737E+02 -0.24359138050E+02  0.59301898673E+02  0.49999917283E+02 0.  0.
        -12    1    1    2    0    0 -0.71901614925E+01  0.19278418737E+02  0.24359138050E+02  0.31886101327E+02  0.00000000000E+00 0.  1.
         11    1    3    3    0    0  0.22956488055E+02 -0.54229903774E+01 -0.10739086428E+01  0.23612760289E+02  0.51100000000E-03 0. -1.
        -11    1    3    3    0    0 -0.12634719756E+02 -0.15951192697E+02 -0.24388465751E+02  0.31762776228E+02  0.51100000000E-03 0.  1.
        -12    1    3    3    0    0 -0.31316068059E+01  0.20957643373E+01  0.11032363438E+01  0.39263621553E+01  0.00000000000E+00 0.  1.
</event>
<event>
 7    1  0.6293596E-013  0.5930169E+02  0.7816164E-02  0.1266606E+00
        -11   -1    0    0    0    0  0.00000000000E+00  0.00000000000E+00  0.45593999997E+02  0.45594000000E+02  0.51100000000E-03 0.  1.
         11   -1    0    0    0    0 -0.00000000000E+00 -0.00000000000E+00 -0.45593999997E+02  0.45594000000E+02  0.51100000000E-03 0. -1.
    9900012    2    1    2    0    0  0.87328446493E+01 -0.11007688777E+02 -0.28623501286E+02  0.59301692378E+02  0.49999541050E+02 0.  0.
        -12    1    1    2    0    0 -0.87328446493E+01  0.11007688777E+02  0.28623501286E+02  0.31886307622E+02  0.00000000000E+00 0.  1.
         11    1    3    3    0    0  0.18463492274E+02 -0.14360453161E+02 -0.19263361806E+01  0.23469851582E+02  0.51100000000E-03 0. -1.
        -11    1    3    3    0    0 -0.97349784642E+01  0.10192588505E+02 -0.86627606675E+01  0.16543944172E+02  0.51100000000E-03 0.  1.
         12    1    3    3    0    0  0.43308397240E-02 -0.68398241211E+01 -0.18034404438E+02  0.19287896624E+02  0.00000000000E+00 0. -1.
</event>
<event>
 7    1  0.6293596E-013  0.5930196E+02  0.7816164E-02  0.1266605E+00
        -11   -1    0    0    0    0  0.00000000000E+00  0.00000000000E+00  0.45593999997E+02  0.45594000000E+02  0.51100000000E-03 0.  1.
         11   -1    0    0    0    0 -0.00000000000E+00 -0.00000000000E+00 -0.45593999997E+02  0.45594000000E+02  0.51100000000E-03 0. -1.
    9900012    2    1    2    0    0 -0.17219715952E+02 -0.15470858140E+02 -0.21928366603E+02  0.59301963386E+02  0.50000035305E+02 0.  0.
        -12    1    1    2    0    0  0.17219715952E+02  0.15470858140E+02  0.21928366603E+02  0.31886036614E+02  0.00000000000E+00 0.  1.
         11    1    3    3    0    0 -0.21531968887E+02 -0.22653290434E+02 -0.24884272576E+02  0.39950272508E+02  0.51100000000E-03 0. -1.
        -11    1    3    3    0    0 -0.39061551980E+01  0.50887450299E+01 -0.46791773778E+01  0.79402818341E+01  0.51100000000E-03 0.  1.
         12    1    3    3    0    0  0.82184081331E+01  0.20936872637E+01  0.76350833500E+01  0.11411409044E+02  0.00000000000E+00 0. -1.
</event>
<event>
 7    1  0.6293596E-013  0.5930200E+02  0.7816164E-02  0.1266605E+00
        -11   -1    0    0    0    0  0.00000000000E+00  0.00000000000E+00  0.45593999997E+02  0.45594000000E+02  0.51100000000E-03 0.  1.
         11   -1    0    0    0    0 -0.00000000000E+00 -0.00000000000E+00 -0.45593999997E+02  0.45594000000E+02  0.51100000000E-03 0. -1.
    9900012    2    1    2    0    0  0.12700392550E+02 -0.25836668482E+02 -0.13707063615E+02  0.59301999904E+02  0.50000101905E+02 0.  0.
        -12    1    1    2    0    0 -0.12700392550E+02  0.25836668482E+02  0.13707063615E+02  0.31886000096E+02  0.00000000000E+00 0.  1.
         11    1    3    3    0    0  0.21842523026E+02 -0.11657475063E+02 -0.17607723348E+02  0.30381317594E+02  0.51100000000E-03 0. -1.
        -11    1    3    3    0    0 -0.14232736823E+02 -0.32198537323E+01 -0.31523667817E+01  0.14929021137E+02  0.51100000000E-03 0.  1.
        -12    1    3    3    0    0  0.50906063471E+01 -0.10959339687E+02  0.70530265146E+01  0.13991661173E+02  0.00000000000E+00 0.  1.
</event>
<event>
 7    1  0.6293596E-013  0.5930227E+02  0.7816164E-02  0.1266604E+00
        -11   -1    0    0    0    0  0.00000000000E+00  0.00000000000E+00  0.45593999997E+02  0.45594000000E+02  0.51100000000E-03 0.  1.
         11   -1    0    0    0    0 -0.00000000000E+00 -0.00000000000E+00 -0.45593999997E+02  0.45594000000E+02  0.51100000000E-03 0. -1.
    9900012    2    1    2    0    0  0.14479632175E+02 -0.28274669167E+02  0.27537900729E+01  0.59302266134E+02  0.50000587441E+02 0.  0.
        -12    1    1    2    0    0 -0.14479632175E+02  0.28274669167E+02 -0.27537900729E+01  0.31885733866E+02  0.00000000000E+00 0.  1.
         11    1    3    3    0    0 -0.64950358108E+01 -0.21229159299E+02  0.66329979860E+01  0.23170225663E+02  0.51100000000E-03 0. -1.
        -11    1    3    3    0    0  0.85701723552E+01  0.97664282011E+01  0.43127551504E+01  0.13690538019E+02  0.51100000000E-03 0.  1.
         12    1    3    3    0    0  0.12404495630E+02 -0.16811938069E+02 -0.81919630634E+01  0.22441502452E+02  0.00000000000E+00 0. -1.
</event>
<event>
 7    1  0.6293596E-013  0.5930195E+02  0.7816164E-02  0.1266605E+00
        -11   -1    0    0    0    0  0.00000000000E+00  0.00000000000E+00  0.45593999997E+02  0.45594000000E+02  0.51100000000E-03 0.  1.
         11   -1    0    0    0    0 -0.00000000000E+00 -0.00000000000E+00 -0.45593999997E+02  0.45594000000E+02  0.51100000000E-03 0. -1.
    9900012    2    1    2    0    0  0.19428557366E+02 -0.89969821325E+01 -0.23628497326E+02  0.59301946392E+02  0.50000004311E+02 0.  0.
        -12    1    1    2    0    0 -0.19428557366E+02  0.89969821325E+01  0.23628497326E+02  0.31886053608E+02  0.00000000000E+00 0.  1.
         11    1    3    3    0    0 -0.69164217604E+01 -0.16837028726E+02  0.31102009717E+01  0.18466070958E+02  0.51100000000E-03 0.  1.
        -11    1    3    3    0    0  0.19374375194E+02 -0.12265875453E+01 -0.17432517435E+02  0.26091446789E+02  0.51100000000E-03 0. -1.
        -12    1    3    3    0    0  0.69706039320E+01  0.90666341391E+01 -0.93061808629E+01  0.14744428644E+02  0.00000000000E+00 0.  1.
</event>
<event>
 7    1  0.6293596E-013  0.5930195E+02  0.7816164E-02  0.1266605E+00
        -11   -1    0    0    0    0  0.00000000000E+00  0.00000000000E+00  0.45593999997E+02  0.45594000000E+02  0.51100000000E-03 0.  1.
         11   -1    0    0    0    0 -0.00000000000E+00 -0.00000000000E+00 -0.45593999997E+02  0.45594000000E+02  0.51100000000E-03 0. -1.
    9900012    2    1    2    0    0 -0.23311643881E+02  0.85474180619E+01 -0.20005721774E+02  0.59301952901E+02  0.50000016182E+02 0.  0.
        -12    1    1    2    0    0  0.23311643881E+02 -0.85474180619E+01  0.20005721774E+02  0.31886047099E+02  0.00000000000E+00 0.  1.
         11    1    3    3    0    0 -0.14076276330E+02  0.33234709308E+01 -0.19289705763E+02  0.24109744151E+02  0.51100000000E-03 0. -1.
        -11    1    3    3    0    0 -0.68097070469E+01  0.13027732528E+02  0.12737679979E+02  0.19451026101E+02  0.51100000000E-03 0.  1.
        -12    1    3    3    0    0 -0.24256605036E+01 -0.78037853966E+01 -0.13453695989E+02  0.15741182648E+02  0.00000000000E+00 0.  1.
</event>
<event>
 7    1  0.6293596E-013  0.5930195E+02  0.7816164E-02  0.1266605E+00
        -11   -1    0    0    0    0  0.00000000000E+00  0.00000000000E+00  0.45593999997E+02  0.45594000000E+02  0.51100000000E-03 0. -1.
         11   -1    0    0    0    0 -0.00000000000E+00 -0.00000000000E+00 -0.45593999997E+02  0.45594000000E+02  0.51100000000E-03 0.  1.
    9900012    2    1    2    0    0  0.20142077504E+02  0.22466640976E+02  0.10308589296E+02  0.59301948878E+02  0.50000008845E+02 0.  0.
        -12    1    1    2    0    0 -0.20142077504E+02 -0.22466640976E+02 -0.10308589296E+02  0.31886051122E+02  0.00000000000E+00 0.  1.
         11    1    3    3    0    0  0.80086401773E+01 -0.68078110698E+01  0.13582860132E+02  0.17174943920E+02  0.51100000000E-03 0.  1.
        -11    1    3    3    0    0  0.19073406907E+02  0.25935598681E+02  0.28041988524E+01  0.32315842268E+02  0.51100000000E-03 0. -1.
         12    1    3    3    0    0 -0.69399695807E+01  0.33388533642E+01 -0.60784696884E+01  0.98111626896E+01  0.00000000000E+00 0. -1.
</event>
<event>
 7    1  0.6293596E-013  0.5930194E+02  0.7816164E-02  0.1266605E+00
        -11   -1    0    0    0    0  0.00000000000E+00  0.00000000000E+00  0.45593999997E+02  0.45594000000E+02  0.51100000000E-03 0. -1.
         11   -1    0    0    0    0 -0.00000000000E+00 -0.00000000000E+00 -0.45593999997E+02  0.45594000000E+02  0.51100000000E-03 0.  1.
    9900012    2    1    2    0    0  0.23929872295E+02  0.17054295668E+02  0.12378725259E+02  0.59301943050E+02  0.49999998217E+02 0.  0.
        -12    1    1    2    0    0 -0.23929872295E+02 -0.17054295668E+02 -0.12378725259E+02  0.31886056950E+02  0.00000000000E+00 0.  1.
         11    1    3    3    0    0  0.22448471527E+02  0.24364204355E+02  0.20385533368E+02  0.38898821302E+02  0.51100000000E-03 0. -1.
        -11    1    3    3    0    0  0.77485428461E+01 -0.93415332502E+01 -0.58307581854E+01  0.13464839434E+02  0.51100000000E-03 0.  1.
        -12    1    3    3    0    0 -0.62671420782E+01  0.20316245633E+01 -0.21760499241E+01  0.69382823138E+01  0.00000000000E+00 0.  1.
</event>
<event>
 7    1  0.6293596E-013  0.5930195E+02  0.7816164E-02  0.1266605E+00
        -11   -1    0    0    0    0  0.00000000000E+00  0.00000000000E+00  0.45593999997E+02  0.45594000000E+02  0.51100000000E-03 0. -1.
         11   -1    0    0    0    0 -0.00000000000E+00 -0.00000000000E+00 -0.45593999997E+02  0.45594000000E+02  0.51100000000E-03 0.  1.
    9900012    2    1    2    0    0 -0.17679889381E+02  0.23831058986E+02  0.11671443657E+02  0.59301945713E+02  0.50000003074E+02 0.  0.
        -12    1    1    2    0    0  0.17679889381E+02 -0.23831058986E+02 -0.11671443657E+02  0.31886054287E+02  0.00000000000E+00 0.  1.
         11    1    3    3    0    0  0.10129959044E+02 -0.10478190098E+01 -0.39939318858E+01  0.10939172138E+02  0.51100000000E-03 0. -1.
        -11    1    3    3    0    0 -0.10277885698E+02  0.25682890468E+02  0.59244776646E+01  0.28290373505E+02  0.51100000000E-03 0.  1.
         12    1    3    3    0    0 -0.17531962726E+02 -0.80401247140E+00  0.97408978785E+01  0.20072400070E+02  0.00000000000E+00 0. -1.
</event>
<event>
 7    1  0.6293596E-013  0.5930197E+02  0.7816164E-02  0.1266605E+00
        -11   -1    0    0    0    0  0.00000000000E+00  0.00000000000E+00  0.45593999997E+02  0.45594000000E+02  0.51100000000E-03 0. -1.
         11   -1    0    0    0    0 -0.00000000000E+00 -0.00000000000E+00 -0.45593999997E+02  0.45594000000E+02  0.51100000000E-03 0.  1.
    9900012    2    1    2    0    0  0.23174717499E+02 -0.16780953877E+02  0.14073057960E+02  0.59301970073E+02  0.50000047500E+02 0.  0.
        -12    1    1    2    0    0 -0.23174717499E+02  0.16780953877E+02 -0.14073057960E+02  0.31886029927E+02  0.00000000000E+00 0.  1.
         11    1    3    3    0    0  0.21905144609E+02  0.47113639633E+01  0.14234733243E+02  0.26545431650E+02  0.51100000000E-03 0. -1.
        -11    1    3    3    0    0 -0.82024277599E+01 -0.11666227491E+00 -0.38934239886E+01  0.90803183787E+01  0.51100000000E-03 0.  1.
         12    1    3    3    0    0  0.94720006499E+01 -0.21375655565E+02  0.37317487055E+01  0.23676220044E+02  0.00000000000E+00 0. -1.
</event>
<event>
 7    1  0.6293596E-013  0.5930194E+02  0.7816164E-02  0.1266605E+00
        -11   -1    0    0    0    0  0.00000000000E+00  0.00000000000E+00  0.45593999997E+02  0.45594000000E+02  0.51100000000E-03 0.  1.
         11   -1    0    0    0    0 -0.00000000000E+00 -0.00000000000E+00 -0.45593999997E+02  0.45594000000E+02  0.51100000000E-03 0. -1.
    9900012    2    1    2    0    0 -0.21024158340E+02  0.21951266547E+02  0.96357363590E+01  0.59301941101E+02  0.49999994663E+02 0.  0.
        -12    1    1    2    0    0  0.21024158340E+02 -0.21951266547E+02 -0.96357363590E+01  0.31886058899E+02  0.00000000000E+00 0.  1.
         11    1    3    3    0    0 -0.14193080659E+02 -0.14819524078E+01 -0.73158596689E+01  0.16036256561E+02  0.51100000000E-03 0. -1.
        -11    1    3    3    0    0 -0.40583282115E+01  0.12717403166E+02  0.25830354337E+02  0.29075927786E+02  0.51100000000E-03 0.  1.
         12    1    3    3    0    0 -0.27727494695E+01  0.10715815789E+02 -0.88787583092E+01  0.14189756755E+02  0.00000000000E+00 0. -1.
</event>
<event>
 7    1  0.6293596E-013  0.5930194E+02  0.7816164E-02  0.1266605E+00
        -11   -1    0    0    0    0  0.00000000000E+00  0.00000000000E+00  0.45593999997E+02  0.45594000000E+02  0.51100000000E-03 0. -1.
         11   -1    0    0    0    0 -0.00000000000E+00 -0.00000000000E+00 -0.45593999997E+02  0.45594000000E+02  0.51100000000E-03 0.  1.
    9900012    2    1    2    0    0  0.23828046624E+02 -0.15746234628E+02 -0.14177496799E+02  0.59301935233E+02  0.49999983960E+02 0.  0.
        -12    1    1    2    0    0 -0.23828046624E+02  0.15746234628E+02  0.14177496799E+02  0.31886064767E+02  0.00000000000E+00 0.  1.
         11    1    3    3    0    0  0.27702064079E+02 -0.14854905177E+02 -0.46254431480E+01  0.31772114922E+02  0.51100000000E-03 0. -1.
        -11    1    3    3    0    0  0.27050156938E+01  0.28469256613E+01  0.77263624386E+01  0.86671086539E+01  0.51100000000E-03 0.  1.
         12    1    3    3    0    0 -0.65790331492E+01 -0.37382551128E+01 -0.17278416090E+02  0.18862711656E+02  0.00000000000E+00 0. -1.
</event>
<event>
 7    1  0.6293596E-013  0.5930192E+02  0.7816164E-02  0.1266605E+00
        -11   -1    0    0    0    0  0.00000000000E+00  0.00000000000E+00  0.45593999997E+02  0.45594000000E+02  0.51100000000E-03 0. -1.
         11   -1    0    0    0    0 -0.00000000000E+00 -0.00000000000E+00 -0.45593999997E+02  0.45594000000E+02  0.51100000000E-03 0.  1.
    9900012    2    1    2    0    0 -0.15594687648E+02 -0.19847544308E+02  0.19483404807E+02  0.59301915876E+02  0.49999948657E+02 0.  0.
        -12    1    1    2    0    0  0.15594687648E+02  0.19847544308E+02 -0.19483404807E+02  0.31886084124E+02  0.00000000000E+00 0.  1.
         11    1    3    3    0    0 -0.59846015839E+01  0.53039826474E+01  0.25796398860E+01  0.84025133290E+01  0.51100000000E-03 0. -1.
        -11    1    3    3    0    0 -0.79118035392E+01 -0.29665815964E+02 -0.25957348859E+01  0.30812255872E+02  0.51100000000E-03 0.  1.
        -12    1    3    3    0    0 -0.16982825245E+01  0.45142890085E+01  0.19499499807E+02  0.20087146674E+02  0.00000000000E+00 0.  1.
</event>
<event>
 7    1  0.6293596E-013  0.5930194E+02  0.7816164E-02  0.1266605E+00
        -11   -1    0    0    0    0  0.00000000000E+00  0.00000000000E+00  0.45593999997E+02  0.45594000000E+02  0.51100000000E-03 0.  1.
         11   -1    0    0    0    0 -0.00000000000E+00 -0.00000000000E+00 -0.45593999997E+02  0.45594000000E+02  0.51100000000E-03 0. -1.
    9900012    2    1    2    0    0 -0.38828385566E+01 -0.28876354018E+02 -0.12953780684E+02  0.59301942065E+02  0.49999996420E+02 0.  0.
        -12    1    1    2    0    0  0.38828385566E+01  0.28876354018E+02  0.12953780684E+02  0.31886057935E+02  0.00000000000E+00 0.  1.
         11    1    3    3    0    0  0.11403060317E+02  0.47150923444E+01 -0.16304633569E+02  0.20447566028E+02  0.51100000000E-03 0. -1.
        -11    1    3    3    0    0 -0.61135375142E+01 -0.24857432015E+02 -0.54258705717E+00  0.25603938530E+02  0.51100000000E-03 0.  1.
        -12    1    3    3    0    0 -0.91723613593E+01 -0.87340143477E+01  0.38934399416E+01  0.13250437506E+02  0.00000000000E+00 0.  1.
</event>
<event>
 7    1  0.6293596E-013  0.5930193E+02  0.7816164E-02  0.1266605E+00
        -11   -1    0    0    0    0  0.00000000000E+00  0.00000000000E+00  0.45593999997E+02  0.45594000000E+02  0.51100000000E-03 0. -1.
         11   -1    0    0    0    0 -0.00000000000E+00 -0.00000000000E+00 -0.45593999997E+02  0.45594000000E+02  0.51100000000E-03 0.  1.
    9900012    2    1    2    0    0  0.15707179894E+02 -0.26763260044E+02 -0.73303184271E+01  0.59301934758E+02  0.49999983094E+02 0.  0.
        -12    1    1    2    0    0 -0.15707179894E+02  0.26763260044E+02  0.73303184271E+01  0.31886065242E+02  0.00000000000E+00 0.  1.
         11    1    3    3    0    0  0.13428268710E+02 -0.19627038241E+02  0.53433797280E+01  0.24373976652E+02  0.51100000000E-03 0. -1.
        -11    1    3    3    0    0 -0.11731874330E+02  0.39840550100E+01  0.97465661560E+00  0.12428174661E+02  0.51100000000E-03 0.  1.
         12    1    3    3    0    0  0.14010785514E+02 -0.11120276813E+02 -0.13648354771E+02  0.22499783445E+02  0.00000000000E+00 0. -1.
</event>
<event>
 7    1  0.6293596E-013  0.5930199E+02  0.7816164E-02  0.1266605E+00
        -11   -1    0    0    0    0  0.00000000000E+00  0.00000000000E+00  0.45593999997E+02  0.45594000000E+02  0.51100000000E-03 0. -1.
         11   -1    0    0    0    0 -0.00000000000E+00 -0.00000000000E+00 -0.45593999997E+02  0.45594000000E+02  0.51100000000E-03 0.  1.
    9900012    2    1    2    0    0 -0.11200205929E+02  0.29654431165E+02  0.34478350291E+01  0.59301992615E+02  0.50000088612E+02 0.  0.
        -12    1    1    2    0    0  0.11200205929E+02 -0.29654431165E+02 -0.34478350291E+01  0.31886007385E+02  0.00000000000E+00 0.  1.
         11    1    3    3    0    0 -0.12595598863E+02  0.19636386299E+02 -0.54712163942E+01  0.23961865259E+02  0.51100000000E-03 0. -1.
        -11    1    3    3    0    0  0.71742325633E+00 -0.38391525850E+01 -0.10654822447E+02  0.11348084876E+02  0.51100000000E-03 0.  1.
        -12    1    3    3    0    0  0.67796967703E+00  0.13857197451E+02  0.19573873871E+02  0.23992042481E+02  0.00000000000E+00 0.  1.
</event>
<event>
 7    1  0.6293596E-013  0.5930193E+02  0.7816164E-02  0.1266605E+00
        -11   -1    0    0    0    0  0.00000000000E+00  0.00000000000E+00  0.45593999997E+02  0.45594000000E+02  0.51100000000E-03 0.  1.
         11   -1    0    0    0    0 -0.00000000000E+00 -0.00000000000E+00 -0.45593999997E+02  0.45594000000E+02  0.51100000000E-03 0. -1.
    9900012    2    1    2    0    0 -0.13826691345E+01  0.11501530793E+02 -0.29707310180E+02  0.59301933095E+02  0.49999980062E+02 0.  0.
        -12    1    1    2    0    0  0.13826691345E+01 -0.11501530793E+02  0.29707310180E+02  0.31886066905E+02  0.00000000000E+00 0.  1.
         11    1    3    3    0    0 -0.43873291286E+01 -0.58897274249E+00 -0.30614274494E+02  0.30932658289E+02  0.51100000000E-03 0. -1.
        -11    1    3    3    0    0 -0.59532603467E+01  0.73267018649E+01  0.10699230061E+02  0.14268685753E+02  0.51100000000E-03 0.  1.
        -12    1    3    3    0    0  0.89579203408E+01  0.47638016701E+01 -0.97922657467E+01  0.14100589053E+02  0.00000000000E+00 0.  1.
</event>
<event>
 7    1  0.6293596E-013  0.5930194E+02  0.7816164E-02  0.1266605E+00
        -11   -1    0    0    0    0  0.00000000000E+00  0.00000000000E+00  0.45593999997E+02  0.45594000000E+02  0.51100000000E-03 0. -1.
         11   -1    0    0    0    0 -0.00000000000E+00 -0.00000000000E+00 -0.45593999997E+02  0.45594000000E+02  0.51100000000E-03 0.  1.
    9900012    2    1    2    0    0  0.13791393895E+02  0.12135216476E+02  0.26062516212E+02  0.59301940730E+02  0.49999993985E+02 0.  0.
        -12    1    1    2    0    0 -0.13791393895E+02 -0.12135216476E+02 -0.26062516212E+02  0.31886059270E+02  0.00000000000E+00 0.  1.
         11    1    3    3    0    0  0.94755150105E+01 -0.20126836970E+01  0.13683747219E+02  0.16765476987E+02  0.51100000000E-03 0. -1.
        -11    1    3    3    0    0 -0.72577147315E+01  0.14704290472E+01 -0.11166066939E+02  0.13398419155E+02  0.51100000000E-03 0.  1.
        -12    1    3    3    0    0  0.11573593616E+02  0.12677471126E+02  0.23544835932E+02  0.29138044588E+02  0.00000000000E+00 0.  1.
</event>
<event>
 7    1  0.6293596E-013  0.5930193E+02  0.7816164E-02  0.1266605E+00
        -11   -1    0    0    0    0  0.00000000000E+00  0.00000000000E+00  0.45593999997E+02  0.45594000000E+02  0.51100000000E-03 0. -1.
         11   -1    0    0    0    0 -0.00000000000E+00 -0.00000000000E+00 -0.45593999997E+02  0.45594000000E+02  0.51100000000E-03 0.  1.
    9900012    2    1    2    0    0  0.21732549167E+02  0.19209063351E+02  0.13244983584E+02  0.59301930969E+02  0.49999976184E+02 0.  0.
        -12    1    1    2    0    0 -0.21732549167E+02 -0.19209063351E+02 -0.13244983584E+02  0.31886069031E+02  0.00000000000E+00 0.  1.
         11    1    3    3    0    0 -0.99773058995E+01 -0.34357191478E+01  0.27856588327E+01  0.10913784608E+02  0.51100000000E-03 0. -1.
        -11    1    3    3    0    0  0.21585153187E+02  0.27631924815E+02  0.37628387568E+01  0.35264728311E+02  0.51100000000E-03 0.  1.
         12    1    3    3    0    0  0.10124701879E+02 -0.49871423167E+01  0.66964859945E+01  0.13123418050E+02  0.00000000000E+00 0. -1.
</event>
<event>
 7    1  0.6293596E-013  0.5930194E+02  0.7816164E-02  0.1266605E+00
        -11   -1    0    0    0    0  0.00000000000E+00  0.00000000000E+00  0.45593999997E+02  0.45594000000E+02  0.51100000000E-03 0. -1.
         11   -1    0    0    0    0 -0.00000000000E+00 -0.00000000000E+00 -0.45593999997E+02  0.45594000000E+02  0.51100000000E-03 0.  1.
    9900012    2    1    2    0    0  0.78909569251E+01  0.16864015920E+02  0.25885495957E+02  0.59301935096E+02  0.49999983710E+02 0.  0.
        -12    1    1    2    0    0 -0.78909569251E+01 -0.16864015920E+02 -0.25885495957E+02  0.31886064904E+02  0.00000000000E+00 0.  1.
         11    1    3    3    0    0  0.56739162566E+01  0.21859436411E+02  0.77395146823E+01  0.23873172677E+02  0.51100000000E-03 0.  1.
        -11    1    3    3    0    0  0.30758642146E+01 -0.67173671998E+01  0.26161917153E+02  0.27185103865E+02  0.51100000000E-03 0. -1.
        -12    1    3    3    0    0 -0.85882354619E+00  0.17219467090E+01 -0.80159358783E+01  0.82436585541E+01  0.00000000000E+00 0.  1.
</event>
<event>
 7    1  0.6293596E-013  0.5930195E+02  0.7816164E-02  0.1266605E+00
        -11   -1    0    0    0    0  0.00000000000E+00  0.00000000000E+00  0.45593999997E+02  0.45594000000E+02  0.51100000000E-03 0. -1.
         11   -1    0    0    0    0 -0.00000000000E+00 -0.00000000000E+00 -0.45593999997E+02  0.45594000000E+02  0.51100000000E-03 0.  1.
    9900012    2    1    2    0    0 -0.25500839535E+02 -0.66160090852E+01  0.17962613283E+02  0.59301954947E+02  0.50000019913E+02 0.  0.
        -12    1    1    2    0    0  0.25500839535E+02  0.66160090852E+01 -0.17962613283E+02  0.31886045053E+02  0.00000000000E+00 0.  1.
         11    1    3    3    0    0 -0.21027735519E+02  0.17368601381E+02 -0.17335294026E+01  0.27328357057E+02  0.51100000000E-03 0. -1.
        -11    1    3    3    0    0 -0.49704199543E+01 -0.14343328704E+02  0.93780234369E+01  0.17843303413E+02  0.51100000000E-03 0.  1.
         12    1    3    3    0    0  0.49731593835E+00 -0.96412817627E+01  0.10318119249E+02  0.14130294477E+02  0.00000000000E+00 0. -1.
</event>
<event>
 7    1  0.6293596E-013  0.5930202E+02  0.7816164E-02  0.1266605E+00
        -11   -1    0    0    0    0  0.00000000000E+00  0.00000000000E+00  0.45593999997E+02  0.45594000000E+02  0.51100000000E-03 0.  1.
         11   -1    0    0    0    0 -0.00000000000E+00 -0.00000000000E+00 -0.45593999997E+02  0.45594000000E+02  0.51100000000E-03 0. -1.
    9900012    2    1    2    0    0  0.26800618559E+02 -0.76017640415E+01 -0.15513087560E+02  0.59302017855E+02  0.50000134644E+02 0.  0.
        -12    1    1    2    0    0 -0.26800618559E+02  0.76017640415E+01  0.15513087560E+02  0.31885982145E+02  0.00000000000E+00 0.  1.
         11    1    3    3    0    0  0.33483416788E+02 -0.19658922941E+02 -0.20083192726E+02  0.43714380715E+02  0.51100000000E-03 0. -1.
        -11    1    3    3    0    0 -0.38802369355E+01  0.36656962116E+01 -0.54930033505E+00  0.53661250927E+01  0.51100000000E-03 0.  1.
         12    1    3    3    0    0 -0.28025612935E+01  0.83914626882E+01  0.51194055006E+01  0.10221512047E+02  0.00000000000E+00 0. -1.
</event>
<event>
 7    1  0.6293596E-013  0.5930193E+02  0.7816164E-02  0.1266605E+00
        -11   -1    0    0    0    0  0.00000000000E+00  0.00000000000E+00  0.45593999997E+02  0.45594000000E+02  0.51100000000E-03 0.  1.
         11   -1    0    0    0    0 -0.00000000000E+00 -0.00000000000E+00 -0.45593999997E+02  0.45594000000E+02  0.51100000000E-03 0. -1.
    9900012    2    1    2    0    0  0.29180194096E+02 -0.10555057172E+02 -0.73367735605E+01  0.59301933989E+02  0.49999981692E+02 0.  0.
        -12    1    1    2    0    0 -0.29180194096E+02  0.10555057172E+02  0.73367735605E+01  0.31886066011E+02  0.00000000000E+00 0.  1.
         11    1    3    3    0    0  0.10407847159E+02  0.53545816923E+00 -0.19783143211E+02  0.22360294128E+02  0.51100000000E-03 0.  1.
        -11    1    3    3    0    0  0.13857426638E+02 -0.19266670659E+02  0.37383510736E+01  0.24025156406E+02  0.51100000000E-03 0. -1.
        -12    1    3    3    0    0  0.49149202983E+01  0.81761553176E+01  0.87080185767E+01  0.12916483455E+02  0.00000000000E+00 0.  1.
</event>
<event>
 7    1  0.6293596E-013  0.5930193E+02  0.7816164E-02  0.1266605E+00
        -11   -1    0    0    0    0  0.00000000000E+00  0.00000000000E+00  0.45593999997E+02  0.45594000000E+02  0.51100000000E-03 0.  1.
         11   -1    0    0    0    0 -0.00000000000E+00 -0.00000000000E+00 -0.45593999997E+02  0.45594000000E+02  0.51100000000E-03 0. -1.
    9900012    2    1    2    0    0  0.22610263643E+02 -0.25377352647E+01 -0.22339590139E+02  0.59301930787E+02  0.49999975853E+02 0.  0.
        -12    1    1    2    0    0 -0.22610263643E+02  0.25377352647E+01  0.22339590139E+02  0.31886069213E+02  0.00000000000E+00 0.  1.
         11    1    3    3    0    0  0.18895294797E+02 -0.58834309126E+01 -0.22672737979E+02  0.30094849601E+02  0.51100000000E-03 0. -1.
        -11    1    3    3    0    0  0.17930226769E+01  0.16153248758E+02  0.25822910808E-01  0.16252478052E+02  0.51100000000E-03 0.  1.
         12    1    3    3    0    0  0.19219461685E+01 -0.12807553110E+02  0.30732492987E+00  0.12954603134E+02  0.00000000000E+00 0. -1.
</event>
<event>
 7    1  0.6293596E-013  0.5930197E+02  0.7816164E-02  0.1266605E+00
        -11   -1    0    0    0    0  0.00000000000E+00  0.00000000000E+00  0.45593999997E+02  0.45594000000E+02  0.51100000000E-03 0.  1.
         11   -1    0    0    0    0 -0.00000000000E+00 -0.00000000000E+00 -0.45593999997E+02  0.45594000000E+02  0.51100000000E-03 0. -1.
    9900012    2    1    2    0    0  0.15637313686E+02 -0.20498219349E+02 -0.18762102357E+02  0.59301967625E+02  0.50000043036E+02 0.  0.
        -12    1    1    2    0    0 -0.15637313686E+02  0.20498219349E+02  0.18762102357E+02  0.31886032375E+02  0.00000000000E+00 0.  1.
         11    1    3    3    0    0  0.10253470882E+02  0.68541958829E+01  0.41573053141E+01  0.13015254668E+02  0.51100000000E-03 0. -1.
        -11    1    3    3    0    0 -0.97790187720E+01 -0.19838497516E+02 -0.73929732599E+01  0.23320618468E+02  0.51100000000E-03 0.  1.
         12    1    3    3    0    0  0.15162861576E+02 -0.75139177154E+01 -0.15526434411E+02  0.22966094490E+02  0.00000000000E+00 0. -1.
</event>
<event>
 7    1  0.6293596E-013  0.5930212E+02  0.7816164E-02  0.1266604E+00
        -11   -1    0    0    0    0  0.00000000000E+00  0.00000000000E+00  0.45593999997E+02  0.45594000000E+02  0.51100000000E-03 0.  1.
         11   -1    0    0    0    0 -0.00000000000E+00 -0.00000000000E+00 -0.45593999997E+02  0.45594000000E+02  0.51100000000E-03 0. -1.
    9900012    2    1    2    0    0  0.17158246291E+02 -0.24096471213E+02  0.11902262135E+02  0.59302122490E+02  0.50000325471E+02 0.  0.
        -12    1    1    2    0    0 -0.17158246291E+02  0.24096471213E+02 -0.11902262135E+02  0.31885877510E+02  0.00000000000E+00 0.  1.
         11    1    3    3    0    0  0.15373991560E+02 -0.76955752692E+01  0.10768804854E+02  0.20286661959E+02  0.51100000000E-03 0. -1.
        -11    1    3    3    0    0 -0.17847452574E+00 -0.27446398460E+02  0.31153363462E+01  0.27623214193E+02  0.51100000000E-03 0.  1.
        -12    1    3    3    0    0  0.19627292570E+01  0.11045502516E+02 -0.19818790659E+01  0.11392246337E+02  0.00000000000E+00 0.  1.
</event>
<event>
 7    1  0.6293596E-013  0.5930194E+02  0.7816164E-02  0.1266605E+00
        -11   -1    0    0    0    0  0.00000000000E+00  0.00000000000E+00  0.45593999997E+02  0.45594000000E+02  0.51100000000E-03 0.  1.
         11   -1    0    0    0    0 -0.00000000000E+00 -0.00000000000E+00 -0.45593999997E+02  0.45594000000E+02  0.51100000000E-03 0. -1.
    9900012    2    1    2    0    0  0.91500955436E+01  0.47793683231E+01 -0.30168757495E+02  0.59301944446E+02  0.50000000762E+02 0.  0.
        -12    1    1    2    0    0 -0.91500955436E+01 -0.47793683231E+01  0.30168757495E+02  0.31886055554E+02  0.00000000000E+00 0.  1.
         11    1    3    3    0    0 -0.87214491576E+01 -0.97642809308E+01  0.23725537594E+00  0.13094317389E+02  0.51100000000E-03 0.  1.
        -11    1    3    3    0    0  0.22153009913E+02  0.18458927525E+02 -0.26863574967E+02  0.39409891066E+02  0.51100000000E-03 0. -1.
         12    1    3    3    0    0 -0.42814652118E+01 -0.39152782707E+01 -0.35424379044E+01  0.67977359911E+01  0.00000000000E+00 0. -1.
</event>
<event>
 7    1  0.6293596E-013  0.5930192E+02  0.7816164E-02  0.1266605E+00
        -11   -1    0    0    0    0  0.00000000000E+00  0.00000000000E+00  0.45593999997E+02  0.45594000000E+02  0.51100000000E-03 0. -1.
         11   -1    0    0    0    0 -0.00000000000E+00 -0.00000000000E+00 -0.45593999997E+02  0.45594000000E+02  0.51100000000E-03 0.  1.
    9900012    2    1    2    0    0  0.24668361330E+02 -0.17823692208E+02 -0.95136834390E+01  0.59301917970E+02  0.49999952477E+02 0.  0.
        -12    1    1    2    0    0 -0.24668361330E+02  0.17823692208E+02  0.95136834390E+01  0.31886082030E+02  0.00000000000E+00 0.  1.
         11    1    3    3    0    0  0.35781219221E+02 -0.60850498154E+01 -0.13839384731E+02  0.38843944833E+02  0.51100000000E-03 0. -1.
        -11    1    3    3    0    0 -0.89900786844E+01 -0.12772388525E+02  0.10232661682E+00  0.15619407619E+02  0.51100000000E-03 0.  1.
         12    1    3    3    0    0 -0.21227792065E+01  0.10337461318E+01  0.42233746755E+01  0.48385655182E+01  0.00000000000E+00 0. -1.
</event>
<event>
 7    1  0.6293596E-013  0.5930195E+02  0.7816164E-02  0.1266605E+00
        -11   -1    0    0    0    0  0.00000000000E+00  0.00000000000E+00  0.45593999997E+02  0.45594000000E+02  0.51100000000E-03 0.  1.
         11   -1    0    0    0    0 -0.00000000000E+00 -0.00000000000E+00 -0.45593999997E+02  0.45594000000E+02  0.51100000000E-03 0. -1.
    9900012    2    1    2    0    0  0.84503808140E+01  0.38846173042E+00 -0.30743462178E+02  0.59301948110E+02  0.50000007446E+02 0.  0.
        -12    1    1    2    0    0 -0.84503808140E+01 -0.38846173042E+00  0.30743462178E+02  0.31886051890E+02  0.00000000000E+00 0.  1.
         11    1    3    3    0    0  0.10352561579E+02  0.20445837083E+00 -0.42751141424E+02  0.43987241647E+02  0.51100000000E-03 0. -1.
        -11    1    3    3    0    0  0.68557155728E+00 -0.40641980615E+01  0.32737144541E+01  0.52635464120E+01  0.51100000000E-03 0.  1.
         12    1    3    3    0    0 -0.25877523219E+01  0.42482014211E+01  0.87339647914E+01  0.10051160051E+02  0.00000000000E+00 0. -1.
</event>
<event>
 7    1  0.6293596E-013  0.5930195E+02  0.7816164E-02  0.1266605E+00
        -11   -1    0    0    0    0  0.00000000000E+00  0.00000000000E+00  0.45593999997E+02  0.45594000000E+02  0.51100000000E-03 0.  1.
         11   -1    0    0    0    0 -0.00000000000E+00 -0.00000000000E+00 -0.45593999997E+02  0.45594000000E+02  0.51100000000E-03 0. -1.
    9900012    2    1    2    0    0  0.23347485473E+02 -0.39417568265E+01 -0.21355974929E+02  0.59301949916E+02  0.50000010739E+02 0.  0.
        -12    1    1    2    0    0 -0.23347485473E+02  0.39417568265E+01  0.21355974929E+02  0.31886050084E+02  0.00000000000E+00 0.  1.
         11    1    3    3    0    0  0.17178069383E+02 -0.23608198303E+02 -0.12450434623E+02  0.31740296429E+02  0.51100000000E-03 0. -1.
        -11    1    3    3    0    0 -0.30505092343E+01  0.11991698359E+02  0.39889329768E+00  0.12380046537E+02  0.51100000000E-03 0.  1.
        -12    1    3    3    0    0  0.92199253243E+01  0.76747431170E+01 -0.93044336040E+01  0.15181606950E+02  0.00000000000E+00 0.  1.
</event>
<event>
 7    1  0.6293596E-013  0.5930190E+02  0.7816164E-02  0.1266605E+00
        -11   -1    0    0    0    0  0.00000000000E+00  0.00000000000E+00  0.45593999997E+02  0.45594000000E+02  0.51100000000E-03 0.  1.
         11   -1    0    0    0    0 -0.00000000000E+00 -0.00000000000E+00 -0.45593999997E+02  0.45594000000E+02  0.51100000000E-03 0. -1.
    9900012    2    1    2    0    0  0.30579030717E+02  0.72400267992E+01 -0.54062882317E+01  0.59301904910E+02  0.49999928659E+02 0.  0.
        -12    1    1    2    0    0 -0.30579030717E+02 -0.72400267992E+01  0.54062882317E+01  0.31886095090E+02  0.00000000000E+00 0.  1.
         11    1    3    3    0    0  0.60219532086E+01  0.93785385085E+01  0.43465909016E+01  0.11963016247E+02  0.51100000000E-03 0. -1.
        -11    1    3    3    0    0  0.35279665564E+02 -0.20729744276E+00 -0.58281233601E+01  0.35758422738E+02  0.51100000000E-03 0.  1.
        -12    1    3    3    0    0 -0.10722588056E+02 -0.19312142665E+01 -0.39247557731E+01  0.11580465925E+02  0.00000000000E+00 0.  1.
</event>
<event>
 7    1  0.6293596E-013  0.5930191E+02  0.7816164E-02  0.1266605E+00
        -11   -1    0    0    0    0  0.00000000000E+00  0.00000000000E+00  0.45593999997E+02  0.45594000000E+02  0.51100000000E-03 0. -1.
         11   -1    0    0    0    0 -0.00000000000E+00 -0.00000000000E+00 -0.45593999997E+02  0.45594000000E+02  0.51100000000E-03 0.  1.
    9900012    2    1    2    0    0  0.36152936948E+01 -0.30520997070E+02 -0.84924055474E+01  0.59301912711E+02  0.49999942886E+02 0.  0.
        -12    1    1    2    0    0 -0.36152936948E+01  0.30520997070E+02  0.84924055474E+01  0.31886087289E+02  0.00000000000E+00 0.  1.
         11    1    3    3    0    0  0.92687859144E+01 -0.85519704762E+01 -0.90035566630E+00  0.12643465978E+02  0.51100000000E-03 0. -1.
        -11    1    3    3    0    0 -0.17268073753E+02 -0.11350547116E+02  0.10082731624E+02  0.22993102623E+02  0.51100000000E-03 0.  1.
        -12    1    3    3    0    0  0.11614581533E+02 -0.10618479478E+02 -0.17674781505E+02  0.23665344110E+02  0.00000000000E+00 0.  1.
</event>
<event>
 7    1  0.6293596E-013  0.5930195E+02  0.7816164E-02  0.1266605E+00
        -11   -1    0    0    0    0  0.00000000000E+00  0.00000000000E+00  0.45593999997E+02  0.45594000000E+02  0.51100000000E-03 0.  1.
         11   -1    0    0    0    0 -0.00000000000E+00 -0.00000000000E+00 -0.45593999997E+02  0.45594000000E+02  0.51100000000E-03 0. -1.
    9900012    2    1    2    0    0  0.11360600255E+02 -0.29682257598E+02  0.25730305108E+01  0.59301950695E+02  0.50000012160E+02 0.  0.
        -12    1    1    2    0    0 -0.11360600255E+02  0.29682257598E+02 -0.25730305108E+01  0.31886049305E+02  0.00000000000E+00 0.  1.
         11    1    3    3    0    0  0.25387101740E+02 -0.18352996497E+02 -0.35145204798E+01  0.31522837272E+02  0.51100000000E-03 0. -1.
        -11    1    3    3    0    0 -0.15393228555E+01 -0.73630730565E+01  0.11385958633E+02  0.13646406631E+02  0.51100000000E-03 0.  1.
         12    1    3    3    0    0 -0.12487178630E+02 -0.39661880438E+01 -0.52984076425E+01  0.14132706792E+02  0.00000000000E+00 0. -1.
</event>
<event>
 7    1  0.6293596E-013  0.5930189E+02  0.7816164E-02  0.1266605E+00
        -11   -1    0    0    0    0  0.00000000000E+00  0.00000000000E+00  0.45593999997E+02  0.45594000000E+02  0.51100000000E-03 0.  1.
         11   -1    0    0    0    0 -0.00000000000E+00 -0.00000000000E+00 -0.45593999997E+02  0.45594000000E+02  0.51100000000E-03 0. -1.
    9900012    2    1    2    0    0 -0.43035142520E+01  0.23617577812E+02 -0.20986036795E+02  0.59301890846E+02  0.49999903009E+02 0.  0.
        -12    1    1    2    0    0  0.43035142520E+01 -0.23617577812E+02  0.20986036795E+02  0.31886109154E+02  0.00000000000E+00 0.  1.
         11    1    3    3    0    0 -0.75500191725E+01  0.18356601679E+02 -0.36967189212E+02  0.41958797567E+02  0.51100000000E-03 0. -1.
        -11    1    3    3    0    0  0.11584321234E+01  0.40351600566E+01  0.85063519389E+01  0.94859108807E+01  0.51100000000E-03 0.  1.
         12    1    3    3    0    0  0.20880727971E+01  0.12258160758E+01  0.74748004783E+01  0.78571823989E+01  0.00000000000E+00 0. -1.
</event>
<event>
 7    1  0.6293596E-013  0.5930186E+02  0.7816164E-02  0.1266605E+00
        -11   -1    0    0    0    0  0.00000000000E+00  0.00000000000E+00  0.45593999997E+02  0.45594000000E+02  0.51100000000E-03 0.  1.
         11   -1    0    0    0    0 -0.00000000000E+00 -0.00000000000E+00 -0.45593999997E+02  0.45594000000E+02  0.51100000000E-03 0. -1.
    9900012    2    1    2    0    0 -0.15817000440E+02  0.22617309076E+02 -0.15968899548E+02  0.59301859978E+02  0.49999846713E+02 0.  0.
        -12    1    1    2    0    0  0.15817000440E+02 -0.22617309076E+02  0.15968899548E+02  0.31886140022E+02  0.00000000000E+00 0.  1.
         11    1    3    3    0    0  0.13634010566E+01  0.24891323285E+02  0.10676656903E+02  0.27118772838E+02  0.51100000000E-03 0. -1.
        -11    1    3    3    0    0 -0.96246805895E+01 -0.52333122721E+00 -0.18931957049E+02  0.21244466338E+02  0.51100000000E-03 0.  1.
         12    1    3    3    0    0 -0.75557209067E+01 -0.17506829827E+01 -0.77135994024E+01  0.10938620803E+02  0.00000000000E+00 0. -1.
</event>
<event>
 7    1  0.6293596E-013  0.5930198E+02  0.7816164E-02  0.1266605E+00
        -11   -1    0    0    0    0  0.00000000000E+00  0.00000000000E+00  0.45593999997E+02  0.45594000000E+02  0.51100000000E-03 0.  1.
         11   -1    0    0    0    0 -0.00000000000E+00 -0.00000000000E+00 -0.45593999997E+02  0.45594000000E+02  0.51100000000E-03 0. -1.
    9900012    2    1    2    0    0 -0.39743233854E+01  0.22618612341E+02 -0.22120612728E+02  0.59301978328E+02  0.50000062555E+02 0.  0.
        -12    1    1    2    0    0  0.39743233854E+01 -0.22618612341E+02  0.22120612728E+02  0.31886021672E+02  0.00000000000E+00 0.  1.
         11    1    3    3    0    0  0.61173445010E+01  0.23760275869E+02 -0.17205821784E+02  0.29966863643E+02  0.51100000000E-03 0. -1.
        -11    1    3    3    0    0 -0.79777411557E+01 -0.13503701394E+02 -0.58948444112E+01  0.16755402000E+02  0.51100000000E-03 0.  1.
         12    1    3    3    0    0 -0.21139267307E+01  0.12362037867E+02  0.98005346695E+00  0.12579712685E+02  0.00000000000E+00 0. -1.
</event>
<event>
 7    1  0.6293596E-013  0.5930213E+02  0.7816164E-02  0.1266604E+00
        -11   -1    0    0    0    0  0.00000000000E+00  0.00000000000E+00  0.45593999997E+02  0.45594000000E+02  0.51100000000E-03 0.  1.
         11   -1    0    0    0    0 -0.00000000000E+00 -0.00000000000E+00 -0.45593999997E+02  0.45594000000E+02  0.51100000000E-03 0. -1.
    9900012    2    1    2    0    0  0.91564708091E+01 -0.30070483093E+02  0.53510293615E+01  0.59302134380E+02  0.50000347155E+02 0.  0.
        -12    1    1    2    0    0 -0.91564708091E+01  0.30070483093E+02 -0.53510293615E+01  0.31885865620E+02  0.00000000000E+00 0.  1.
         11    1    3    3    0    0  0.58509623998E+00 -0.61707324109E+00 -0.75680618406E+01  0.76156862645E+01  0.51100000000E-03 0. -1.
        -11    1    3    3    0    0  0.13405512418E+02 -0.28512776707E+02  0.23969585497E+02  0.39588220822E+02  0.51100000000E-03 0.  1.
        -12    1    3    3    0    0 -0.48341378488E+01 -0.94063314542E+00 -0.11050494295E+02  0.12098227293E+02  0.00000000000E+00 0.  1.
</event>
<event>
 7    1  0.6293596E-013  0.5930195E+02  0.7816164E-02  0.1266605E+00
        -11   -1    0    0    0    0  0.00000000000E+00  0.00000000000E+00  0.45593999997E+02  0.45594000000E+02  0.51100000000E-03 0.  1.
         11   -1    0    0    0    0 -0.00000000000E+00 -0.00000000000E+00 -0.45593999997E+02  0.45594000000E+02  0.51100000000E-03 0. -1.
    9900012    2    1    2    0    0 -0.15557219432E+02 -0.45976411142E+01 -0.27450949116E+02  0.59301953088E+02  0.50000016524E+02 0.  0.
        -12    1    1    2    0    0  0.15557219432E+02  0.45976411142E+01  0.27450949116E+02  0.31886046912E+02  0.00000000000E+00 0.  1.
         11    1    3    3    0    0 -0.13920741293E+02  0.13159798484E+02  0.12371726932E+01  0.19196299925E+02  0.51100000000E-03 0. -1.
        -11    1    3    3    0    0  0.96195194993E+01 -0.45076680870E+01 -0.10202887929E+02  0.14729329562E+02  0.51100000000E-03 0.  1.
         12    1    3    3    0    0 -0.11255997638E+02 -0.13249771511E+02 -0.18485233880E+02  0.25376323601E+02  0.00000000000E+00 0. -1.
</event>
<event>
 7    1  0.6293596E-013  0.5930193E+02  0.7816164E-02  0.1266605E+00
        -11   -1    0    0    0    0  0.00000000000E+00  0.00000000000E+00  0.45593999997E+02  0.45594000000E+02  0.51100000000E-03 0. -1.
         11   -1    0    0    0    0 -0.00000000000E+00 -0.00000000000E+00 -0.45593999997E+02  0.45594000000E+02  0.51100000000E-03 0.  1.
    9900012    2    1    2    0    0  0.24894861791E+02  0.17433320724E+01  0.19847618796E+02  0.59301932162E+02  0.49999978359E+02 0.  0.
        -12    1    1    2    0    0 -0.24894861791E+02 -0.17433320724E+01 -0.19847618796E+02  0.31886067838E+02  0.00000000000E+00 0.  1.
         11    1    3    3    0    0  0.17449498592E+02  0.81199396434E+01  0.21235761253E+02  0.28659657660E+02  0.51100000000E-03 0. -1.
        -11    1    3    3    0    0  0.13282880926E+02 -0.53484468848E+01 -0.11870763486E+02  0.18599888058E+02  0.51100000000E-03 0.  1.
        -12    1    3    3    0    0 -0.58375177274E+01 -0.10281606862E+01  0.10482621029E+02  0.12042386443E+02  0.00000000000E+00 0.  1.
</event>
<event>
 7    1  0.6293596E-013  0.5930195E+02  0.7816164E-02  0.1266605E+00
        -11   -1    0    0    0    0  0.00000000000E+00  0.00000000000E+00  0.45593999997E+02  0.45594000000E+02  0.51100000000E-03 0.  1.
         11   -1    0    0    0    0 -0.00000000000E+00 -0.00000000000E+00 -0.45593999997E+02  0.45594000000E+02  0.51100000000E-03 0. -1.
    9900012    2    1    2    0    0 -0.11266271870E+02  0.18857996919E+02 -0.23112059267E+02  0.59301949552E+02  0.50000010074E+02 0.  0.
        -12    1    1    2    0    0  0.11266271870E+02 -0.18857996919E+02  0.23112059267E+02  0.31886050448E+02  0.00000000000E+00 0.  1.
         11    1    3    3    0    0  0.49980960339E+01  0.23267700648E+01 -0.23043714866E+02  0.23694041825E+02  0.51100000000E-03 0. -1.
        -11    1    3    3    0    0 -0.79220831451E+01 -0.10795337525E+01  0.10689578442E+02  0.13348853209E+02  0.51100000000E-03 0.  1.
         12    1    3    3    0    0 -0.83422847587E+01  0.17610760606E+02 -0.10757922843E+02  0.22259054518E+02  0.00000000000E+00 0. -1.
</event>
<event>
 7    1  0.6293596E-013  0.5930194E+02  0.7816164E-02  0.1266605E+00
        -11   -1    0    0    0    0  0.00000000000E+00  0.00000000000E+00  0.45593999997E+02  0.45594000000E+02  0.51100000000E-03 0.  1.
         11   -1    0    0    0    0 -0.00000000000E+00 -0.00000000000E+00 -0.45593999997E+02  0.45594000000E+02  0.51100000000E-03 0. -1.
    9900012    2    1    2    0    0 -0.37760230677E+01  0.25765896424E+02 -0.18400565377E+02  0.59301943879E+02  0.49999999729E+02 0.  0.
        -12    1    1    2    0    0  0.37760230677E+01 -0.25765896424E+02  0.18400565377E+02  0.31886056121E+02  0.00000000000E+00 0.  1.
         11    1    3    3    0    0  0.73469425659E+01  0.16758426990E+02 -0.55840543817E+01  0.19131233725E+02  0.51100000000E-03 0. -1.
        -11    1    3    3    0    0  0.78538055125E+01 -0.89515264702E+01 -0.48198961156E+01  0.12846925157E+02  0.51100000000E-03 0.  1.
        -12    1    3    3    0    0 -0.18976771146E+02  0.17958995905E+02 -0.79966148793E+01  0.27323784997E+02  0.00000000000E+00 0.  1.
</event>
<event>
 7    1  0.6293596E-013  0.5930194E+02  0.7816164E-02  0.1266605E+00
        -11   -1    0    0    0    0  0.00000000000E+00  0.00000000000E+00  0.45593999997E+02  0.45594000000E+02  0.51100000000E-03 0.  1.
         11   -1    0    0    0    0 -0.00000000000E+00 -0.00000000000E+00 -0.45593999997E+02  0.45594000000E+02  0.51100000000E-03 0. -1.
    9900012    2    1    2    0    0 -0.22736300717E+02  0.19930277145E+02 -0.10127471250E+02  0.59301937351E+02  0.49999987822E+02 0.  0.
        -12    1    1    2    0    0  0.22736300717E+02 -0.19930277145E+02  0.10127471250E+02  0.31886062649E+02  0.00000000000E+00 0.  1.
         11    1    3    3    0    0  0.11142037625E+02  0.65709453685E+01 -0.13287068215E+02  0.18543691851E+02  0.51100000000E-03 0. -1.
        -11    1    3    3    0    0 -0.14819797260E+02 -0.34542585910E+01  0.14424137691E+01  0.15285249458E+02  0.51100000000E-03 0.  1.
         12    1    3    3    0    0 -0.19058541082E+02  0.16813590367E+02  0.17171831960E+01  0.25472996041E+02  0.00000000000E+00 0. -1.
</event>
<event>
 7    1  0.6293596E-013  0.5930195E+02  0.7816164E-02  0.1266605E+00
        -11   -1    0    0    0    0  0.00000000000E+00  0.00000000000E+00  0.45593999997E+02  0.45594000000E+02  0.51100000000E-03 0. -1.
         11   -1    0    0    0    0 -0.00000000000E+00 -0.00000000000E+00 -0.45593999997E+02  0.45594000000E+02  0.51100000000E-03 0.  1.
    9900012    2    1    2    0    0 -0.17515606903E+02  0.63325840742E+01 -0.25880921291E+02  0.59301949867E+02  0.50000010649E+02 0.  0.
        -12    1    1    2    0    0  0.17515606903E+02 -0.63325840742E+01  0.25880921291E+02  0.31886050133E+02  0.00000000000E+00 0.  1.
         11    1    3    3    0    0  0.11216556559E+01  0.14195104567E+02 -0.42700490962E+01  0.14865813958E+02  0.51100000000E-03 0. -1.
        -11    1    3    3    0    0 -0.96564811155E+01 -0.19898036656E+02 -0.63159876803E+01  0.23001547577E+02  0.51100000000E-03 0.  1.
        -12    1    3    3    0    0 -0.89807814430E+01  0.12035516163E+02 -0.15294884515E+02  0.21434588332E+02  0.00000000000E+00 0.  1.
</event>
<event>
 7    1  0.6293596E-013  0.5930194E+02  0.7816164E-02  0.1266605E+00
        -11   -1    0    0    0    0  0.00000000000E+00  0.00000000000E+00  0.45593999997E+02  0.45594000000E+02  0.51100000000E-03 0.  1.
         11   -1    0    0    0    0 -0.00000000000E+00 -0.00000000000E+00 -0.45593999997E+02  0.45594000000E+02  0.51100000000E-03 0. -1.
    9900012    2    1    2    0    0  0.53444429154E+01 -0.30973372491E+02  0.53673295248E+01  0.59301935650E+02  0.49999984721E+02 0.  0.
        -12    1    1    2    0    0 -0.53444429154E+01  0.30973372491E+02 -0.53673295248E+01  0.31886064350E+02  0.00000000000E+00 0.  1.
         11    1    3    3    0    0 -0.10066408636E+02 -0.31914726214E+02  0.88410256256E+01  0.34612802061E+02  0.51100000000E-03 0. -1.
        -11    1    3    3    0    0  0.84950582465E+01 -0.81502138075E+01  0.21332865853E+01  0.11964234687E+02  0.51100000000E-03 0.  1.
         12    1    3    3    0    0  0.69157933053E+01  0.90915675312E+01 -0.56069826861E+01  0.12724898902E+02  0.00000000000E+00 0. -1.
</event>
<event>
 7    1  0.6293596E-013  0.5930193E+02  0.7816164E-02  0.1266605E+00
        -11   -1    0    0    0    0  0.00000000000E+00  0.00000000000E+00  0.45593999997E+02  0.45594000000E+02  0.51100000000E-03 0. -1.
         11   -1    0    0    0    0 -0.00000000000E+00 -0.00000000000E+00 -0.45593999997E+02  0.45594000000E+02  0.51100000000E-03 0.  1.
    9900012    2    1    2    0    0 -0.33246940391E+01 -0.13031229062E+02  0.28911159365E+02  0.59301926910E+02  0.49999968781E+02 0.  0.
        -12    1    1    2    0    0  0.33246940391E+01  0.13031229062E+02 -0.28911159365E+02  0.31886073090E+02  0.00000000000E+00 0.  1.
         11    1    3    3    0    0 -0.91572581326E+01  0.54147675694E+01  0.12357599957E+02  0.16305991577E+02  0.51100000000E-03 0.  1.
        -11    1    3    3    0    0 -0.27459902203E+01 -0.20052588274E+02 -0.40312883762E+01  0.20637297425E+02  0.51100000000E-03 0. -1.
        -12    1    3    3    0    0  0.85785543138E+01  0.16065916427E+01  0.20584847784E+02  0.22358637908E+02  0.00000000000E+00 0.  1.
</event>
<event>
 7    1  0.6293596E-013  0.5930193E+02  0.7816164E-02  0.1266605E+00
        -11   -1    0    0    0    0  0.00000000000E+00  0.00000000000E+00  0.45593999997E+02  0.45594000000E+02  0.51100000000E-03 0.  1.
         11   -1    0    0    0    0 -0.00000000000E+00 -0.00000000000E+00 -0.45593999997E+02  0.45594000000E+02  0.51100000000E-03 0. -1.
    9900012    2    1    2    0    0  0.23959791615E+00 -0.81758058442E+01 -0.30819153905E+02  0.59301930067E+02  0.49999974539E+02 0.  0.
        -12    1    1    2    0    0 -0.23959791615E+00  0.81758058442E+01  0.30819153905E+02  0.31886069933E+02  0.00000000000E+00 0.  1.
         11    1    3    3    0    0 -0.14988854698E+02  0.84272142475E+01 -0.23270475255E+02  0.28934386532E+02  0.51100000000E-03 0.  1.
        -11    1    3    3    0    0  0.19507415807E+02 -0.13601940215E+02 -0.80744026362E+01  0.25114697436E+02  0.51100000000E-03 0. -1.
         12    1    3    3    0    0 -0.42789631932E+01 -0.30010798767E+01  0.52572398630E+00  0.52528460995E+01  0.00000000000E+00 0. -1.
</event>
<event>
 7    1  0.6293596E-013  0.5930196E+02  0.7816164E-02  0.1266605E+00
        -11   -1    0    0    0    0  0.00000000000E+00  0.00000000000E+00  0.45593999997E+02  0.45594000000E+02  0.51100000000E-03 0.  1.
         11   -1    0    0    0    0 -0.00000000000E+00 -0.00000000000E+00 -0.45593999997E+02  0.45594000000E+02  0.51100000000E-03 0. -1.
    9900012    2    1    2    0    0  0.21943630629E+02  0.28271072329E+00 -0.23132593508E+02  0.59301957082E+02  0.50000023809E+02 0.  0.
        -12    1    1    2    0    0 -0.21943630629E+02 -0.28271072329E+00  0.23132593508E+02  0.31886042918E+02  0.00000000000E+00 0.  1.
         11    1    3    3    0    0  0.24362152675E+02 -0.85726476202E+01 -0.22888623265E+02  0.34509329832E+02  0.51100000000E-03 0. -1.
        -11    1    3    3    0    0  0.77795410586E+00  0.15493268484E+02  0.43488621592E+01  0.16110840551E+02  0.51100000000E-03 0.  1.
         12    1    3    3    0    0 -0.31964761527E+01 -0.66379101405E+01 -0.45928324025E+01  0.86817867001E+01  0.00000000000E+00 0. -1.
</event>
<event>
 7    1  0.6293596E-013  0.5930194E+02  0.7816164E-02  0.1266605E+00
        -11   -1    0    0    0    0  0.00000000000E+00  0.00000000000E+00  0.45593999997E+02  0.45594000000E+02  0.51100000000E-03 0.  1.
         11   -1    0    0    0    0 -0.00000000000E+00 -0.00000000000E+00 -0.45593999997E+02  0.45594000000E+02  0.51100000000E-03 0. -1.
    9900012    2    1    2    0    0 -0.31076895425E+02 -0.63117071928E-01 -0.71374532369E+01  0.59301942675E+02  0.49999997533E+02 0.  0.
        -12    1    1    2    0    0  0.31076895425E+02  0.63117071928E-01  0.71374532369E+01  0.31886057325E+02  0.00000000000E+00 0.  1.
         11    1    3    3    0    0 -0.20253191197E+02 -0.52045888390E+01 -0.31864468576E+01  0.21152610773E+02  0.51100000000E-03 0. -1.
        -11    1    3    3    0    0  0.12356999049E+02 -0.18172522341E+01 -0.60072679797E+01  0.13859476903E+02  0.51100000000E-03 0.  1.
        -12    1    3    3    0    0 -0.23180703277E+02  0.69587240012E+01  0.20562616004E+01  0.24289854999E+02  0.00000000000E+00 0.  1.
</event>
<event>
 7    1  0.6293596E-013  0.5930195E+02  0.7816164E-02  0.1266605E+00
        -11   -1    0    0    0    0  0.00000000000E+00  0.00000000000E+00  0.45593999997E+02  0.45594000000E+02  0.51100000000E-03 0.  1.
         11   -1    0    0    0    0 -0.00000000000E+00 -0.00000000000E+00 -0.45593999997E+02  0.45594000000E+02  0.51100000000E-03 0. -1.
    9900012    2    1    2    0    0  0.22381532976E+02 -0.68014598310E+01 -0.21668582578E+02  0.59301947483E+02  0.50000006302E+02 0.  0.
        -12    1    1    2    0    0 -0.22381532976E+02  0.68014598310E+01  0.21668582578E+02  0.31886052517E+02  0.00000000000E+00 0.  1.
         11    1    3    3    0    0  0.95617157096E+01 -0.23224791823E+02 -0.15955316300E+02  0.29755494971E+02  0.51100000000E-03 0. -1.
        -11    1    3    3    0    0  0.69626065533E+01  0.75908052801E+01  0.74021389889E+01  0.12684237332E+02  0.51100000000E-03 0.  1.
         12    1    3    3    0    0  0.58572107128E+01  0.88325267115E+01 -0.13115405267E+02  0.16862215180E+02  0.00000000000E+00 0. -1.
</event>
<event>
 7    1  0.6293596E-013  0.5930191E+02  0.7816164E-02  0.1266605E+00
        -11   -1    0    0    0    0  0.00000000000E+00  0.00000000000E+00  0.45593999997E+02  0.45594000000E+02  0.51100000000E-03 0.  1.
         11   -1    0    0    0    0 -0.00000000000E+00 -0.00000000000E+00 -0.45593999997E+02  0.45594000000E+02  0.51100000000E-03 0. -1.
    9900012    2    1    2    0    0  0.15466995181E+02 -0.27039485947E+02  0.68088715118E+01  0.59301914140E+02  0.49999945492E+02 0.  0.
        -12    1    1    2    0    0 -0.15466995181E+02  0.27039485947E+02 -0.68088715118E+01  0.31886085860E+02  0.00000000000E+00 0.  1.
         11    1    3    3    0    0  0.27213642876E+02 -0.14154059814E+02  0.21166654603E+01  0.30747358272E+02  0.51100000000E-03 0. -1.
        -11    1    3    3    0    0 -0.94496444477E+01 -0.16511584769E+02  0.10188378451E+02  0.21580807851E+02  0.51100000000E-03 0.  1.
        -12    1    3    3    0    0 -0.22970032467E+01  0.36261586357E+01 -0.54961723993E+01  0.69737480173E+01  0.00000000000E+00 0.  1.
</event>
<event>
 7    1  0.6293596E-013  0.5930193E+02  0.7816164E-02  0.1266605E+00
        -11   -1    0    0    0    0  0.00000000000E+00  0.00000000000E+00  0.45593999997E+02  0.45594000000E+02  0.51100000000E-03 0. -1.
         11   -1    0    0    0    0 -0.00000000000E+00 -0.00000000000E+00 -0.45593999997E+02  0.45594000000E+02  0.51100000000E-03 0.  1.
    9900012    2    1    2    0    0  0.25302228745E+02 -0.17045268402E+02  0.92724054621E+01  0.59301930042E+02  0.49999974493E+02 0.  0.
        -12    1    1    2    0    0 -0.25302228745E+02  0.17045268402E+02 -0.92724054621E+01  0.31886069958E+02  0.00000000000E+00 0.  1.
         11    1    3    3    0    0  0.11627469226E+02  0.25346048213E+01  0.14079778387E+02  0.18435357927E+02  0.51100000000E-03 0. -1.
        -11    1    3    3    0    0 -0.12832108121E+01 -0.23362865975E+02 -0.86848032391E+01  0.24957883406E+02  0.51100000000E-03 0.  1.
        -12    1    3    3    0    0  0.14957970331E+02  0.37829927519E+01  0.38774303142E+01  0.15908688708E+02  0.00000000000E+00 0.  1.
</event>
<event>
 7    1  0.6293596E-013  0.5930210E+02  0.7816164E-02  0.1266604E+00
        -11   -1    0    0    0    0  0.00000000000E+00  0.00000000000E+00  0.45593999997E+02  0.45594000000E+02  0.51100000000E-03 0. -1.
         11   -1    0    0    0    0 -0.00000000000E+00 -0.00000000000E+00 -0.45593999997E+02  0.45594000000E+02  0.51100000000E-03 0.  1.
    9900012    2    1    2    0    0  0.57105766827E+00 -0.26391559392E+02 -0.17884905622E+02  0.59302104009E+02  0.50000291767E+02 0.  0.
        -12    1    1    2    0    0 -0.57105766827E+00  0.26391559392E+02  0.17884905622E+02  0.31885895991E+02  0.00000000000E+00 0.  1.
         11    1    3    3    0    0 -0.19413292351E+02 -0.84035776144E+01  0.52667627165E+00  0.21160657475E+02  0.51100000000E-03 0. -1.
        -11    1    3    3    0    0  0.19332957229E+01 -0.39771738836E+01 -0.14243211151E+02  0.14913906551E+02  0.51100000000E-03 0.  1.
         12    1    3    3    0    0  0.18051054296E+02 -0.14010807894E+02 -0.41683707430E+01  0.23227539984E+02  0.00000000000E+00 0. -1.
</event>
<event>
 7    1  0.6293596E-013  0.5930194E+02  0.7816164E-02  0.1266605E+00
        -11   -1    0    0    0    0  0.00000000000E+00  0.00000000000E+00  0.45593999997E+02  0.45594000000E+02  0.51100000000E-03 0.  1.
         11   -1    0    0    0    0 -0.00000000000E+00 -0.00000000000E+00 -0.45593999997E+02  0.45594000000E+02  0.51100000000E-03 0. -1.
    9900012    2    1    2    0    0 -0.19471709568E+02 -0.13593651613E+02 -0.21278762512E+02  0.59301943930E+02  0.49999999822E+02 0.  0.
        -12    1    1    2    0    0  0.19471709568E+02  0.13593651613E+02  0.21278762512E+02  0.31886056070E+02  0.00000000000E+00 0.  1.
         11    1    3    3    0    0 -0.12172722688E+02 -0.14576742051E+02 -0.71178636961E+01  0.20281039675E+02  0.51100000000E-03 0. -1.
        -11    1    3    3    0    0  0.83211422031E+01 -0.34918193403E+00  0.82159866700E+01  0.11698964604E+02  0.51100000000E-03 0.  1.
        -12    1    3    3    0    0 -0.15620129083E+02  0.13322723715E+01 -0.22376885486E+02  0.27321939651E+02  0.00000000000E+00 0.  1.
</event>
<event>
 7    1  0.6293596E-013  0.5930191E+02  0.7816164E-02  0.1266605E+00
        -11   -1    0    0    0    0  0.00000000000E+00  0.00000000000E+00  0.45593999997E+02  0.45594000000E+02  0.51100000000E-03 0. -1.
         11   -1    0    0    0    0 -0.00000000000E+00 -0.00000000000E+00 -0.45593999997E+02  0.45594000000E+02  0.51100000000E-03 0.  1.
    9900012    2    1    2    0    0 -0.81529049936E+01 -0.68300818319E+01  0.30059985138E+02  0.59301912373E+02  0.49999942269E+02 0.  0.
        -12    1    1    2    0    0  0.81529049936E+01  0.68300818319E+01 -0.30059985138E+02  0.31886087627E+02  0.00000000000E+00 0.  1.
         11    1    3    3    0    0 -0.14509339565E+02 -0.19094100776E+02  0.28011368452E+02  0.36874684838E+02  0.51100000000E-03 0. -1.
        -11    1    3    3    0    0 -0.48666368711E+01  0.90789206460E+01 -0.10557430970E+01  0.10354976981E+02  0.51100000000E-03 0.  1.
         12    1    3    3    0    0  0.11223071443E+02  0.31850982983E+01  0.31043597832E+01  0.12072250554E+02  0.00000000000E+00 0. -1.
</event>
<event>
 7    1  0.6293596E-013  0.5930187E+02  0.7816164E-02  0.1266605E+00
        -11   -1    0    0    0    0  0.00000000000E+00  0.00000000000E+00  0.45593999997E+02  0.45594000000E+02  0.51100000000E-03 0. -1.
         11   -1    0    0    0    0 -0.00000000000E+00 -0.00000000000E+00 -0.45593999997E+02  0.45594000000E+02  0.51100000000E-03 0.  1.
    9900012    2    1    2    0    0  0.31641158800E+02 -0.32740091556E+01 -0.22007831099E+01  0.59301866455E+02  0.49999858525E+02 0.  0.
        -12    1    1    2    0    0 -0.31641158800E+02  0.32740091556E+01  0.22007831099E+01  0.31886133545E+02  0.00000000000E+00 0.  1.
         11    1    3    3    0    0  0.10620536647E+02 -0.69994684551E+01  0.18212588100E+02  0.22214561055E+02  0.51100000000E-03 0. -1.
        -11    1    3    3    0    0 -0.15940142788E+01  0.68773371775E+01 -0.93476280807E+01  0.11713957451E+02  0.51100000000E-03 0.  1.
         12    1    3    3    0    0  0.22614636432E+02 -0.31518778780E+01 -0.11065743129E+02  0.25373347948E+02  0.00000000000E+00 0. -1.
</event>
<event>
 7    1  0.8135687E-013  0.5930195E+02  0.7816164E-02  0.1266605E+00
        -11   -1    0    0    0    0  0.00000000000E+00  0.00000000000E+00  0.45593999997E+02  0.45594000000E+02  0.51100000000E-03 0. -1.
         11   -1    0    0    0    0 -0.00000000000E+00 -0.00000000000E+00 -0.45593999997E+02  0.45594000000E+02  0.51100000000E-03 0.  1.
    9900012    2    1    2    0    0 -0.10690652418E+02 -0.17682568865E+02  0.24284913679E+02  0.59301947827E+02  0.50000006930E+02 0.  0.
        -12    1    1    2    0    0  0.10690652418E+02  0.17682568865E+02 -0.24284913679E+02  0.31886052173E+02  0.00000000000E+00 0.  1.
         11    1    3    3    0    0 -0.18099089265E+02 -0.14367303442E+02  0.24655925572E+02  0.33792175225E+02  0.51100000000E-03 0. -1.
        -11    1    3    3    0    0 -0.20643329551E+01  0.48054174328E+01 -0.89512227802E+01  0.10367154710E+02  0.51100000000E-03 0.  1.
         12    1    3    3    0    0  0.94727698018E+01 -0.81206828554E+01  0.85802108873E+01  0.15142617892E+02  0.00000000000E+00 0. -1.
</event>
<event>
 7    1  0.6293596E-013  0.5930195E+02  0.7816164E-02  0.1266605E+00
        -11   -1    0    0    0    0  0.00000000000E+00  0.00000000000E+00  0.45593999997E+02  0.45594000000E+02  0.51100000000E-03 0. -1.
         11   -1    0    0    0    0 -0.00000000000E+00 -0.00000000000E+00 -0.45593999997E+02  0.45594000000E+02  0.51100000000E-03 0.  1.
    9900012    2    1    2    0    0 -0.24762628953E+02 -0.25033705749E+01  0.19931525641E+02  0.59301947073E+02  0.50000005554E+02 0.  0.
        -12    1    1    2    0    0  0.24762628953E+02  0.25033705749E+01 -0.19931525641E+02  0.31886052927E+02  0.00000000000E+00 0.  1.
         11    1    3    3    0    0 -0.69660954913E+01 -0.25777729615E+01  0.29572136610E+01  0.79947803430E+01  0.51100000000E-03 0. -1.
        -11    1    3    3    0    0  0.15301003319E+02 -0.23974009209E+00  0.47545923744E+01  0.16024491468E+02  0.51100000000E-03 0.  1.
        -12    1    3    3    0    0 -0.33097536781E+02  0.31414247870E+00  0.12219719605E+02  0.35282675263E+02  0.00000000000E+00 0.  1.
</event>
<event>
 7    1  0.6293596E-013  0.5930183E+02  0.7816164E-02  0.1266605E+00
        -11   -1    0    0    0    0  0.00000000000E+00  0.00000000000E+00  0.45593999997E+02  0.45594000000E+02  0.51100000000E-03 0.  1.
         11   -1    0    0    0    0 -0.00000000000E+00 -0.00000000000E+00 -0.45593999997E+02  0.45594000000E+02  0.51100000000E-03 0. -1.
    9900012    2    1    2    0    0  0.31821146014E+02 -0.14980458117E+01  0.13778913215E+01  0.59301826517E+02  0.49999785688E+02 0.  0.
        -12    1    1    2    0    0 -0.31821146014E+02  0.14980458117E+01 -0.13778913215E+01  0.31886173483E+02  0.00000000000E+00 0.  1.
         11    1    3    3    0    0  0.99392514649E+01  0.45537685465E+01 -0.89574875679E+01  0.14133722491E+02  0.51100000000E-03 0. -1.
        -11    1    3    3    0    0 -0.10043314172E+02 -0.32396813976E+01 -0.21561772799E+01  0.10770923630E+02  0.51100000000E-03 0.  1.
        -12    1    3    3    0    0  0.31925208721E+02 -0.28121329606E+01  0.12491556169E+02  0.34397180396E+02  0.00000000000E+00 0.  1.
</event>
<event>
 7    1  0.6293596E-013  0.5930165E+02  0.7816164E-02  0.1266606E+00
        -11   -1    0    0    0    0  0.00000000000E+00  0.00000000000E+00  0.45593999997E+02  0.45594000000E+02  0.51100000000E-03 0.  1.
         11   -1    0    0    0    0 -0.00000000000E+00 -0.00000000000E+00 -0.45593999997E+02  0.45594000000E+02  0.51100000000E-03 0. -1.
    9900012    2    1    2    0    0  0.23433265753E+02 -0.29952381591E+01 -0.21416116841E+02  0.59301647809E+02  0.49999459766E+02 0.  0.
        -12    1    1    2    0    0 -0.23433265753E+02  0.29952381591E+01  0.21416116841E+02  0.31886352191E+02  0.00000000000E+00 0.  1.
         11    1    3    3    0    0  0.12915049615E+02 -0.12964807184E+02 -0.74178904878E+01  0.19746134595E+02  0.51100000000E-03 0. -1.
        -11    1    3    3    0    0  0.20331736088E+02  0.15621116107E+02 -0.89531164034E+01  0.27158001664E+02  0.51100000000E-03 0.  1.
         12    1    3    3    0    0 -0.98135199506E+01 -0.56515470815E+01 -0.50451099500E+01  0.12397511550E+02  0.00000000000E+00 0. -1.
</event>
<event>
 7    1  0.6293596E-013  0.5930200E+02  0.7816164E-02  0.1266605E+00
        -11   -1    0    0    0    0  0.00000000000E+00  0.00000000000E+00  0.45593999997E+02  0.45594000000E+02  0.51100000000E-03 0. -1.
         11   -1    0    0    0    0 -0.00000000000E+00 -0.00000000000E+00 -0.45593999997E+02  0.45594000000E+02  0.51100000000E-03 0.  1.
    9900012    2    1    2    0    0  0.30188009743E+02 -0.61367488490E+01 -0.82305128085E+01  0.59302000568E+02  0.50000103116E+02 0.  0.
        -12    1    1    2    0    0 -0.30188009743E+02  0.61367488490E+01  0.82305128085E+01  0.31885999432E+02  0.00000000000E+00 0.  1.
         11    1    3    3    0    0  0.22241343222E+02  0.19359909938E+02 -0.12271657585E+01  0.29512529495E+02  0.51100000000E-03 0. -1.
        -11    1    3    3    0    0  0.13305925899E+01 -0.13521093922E+02  0.15183339274E+01  0.13670983712E+02  0.51100000000E-03 0.  1.
         12    1    3    3    0    0  0.66160739310E+01 -0.11975564865E+02 -0.85216809774E+01  0.16118487360E+02  0.00000000000E+00 0. -1.
</event>
<event>
 7    1  0.6293596E-013  0.5930194E+02  0.7816164E-02  0.1266605E+00
        -11   -1    0    0    0    0  0.00000000000E+00  0.00000000000E+00  0.45593999997E+02  0.45594000000E+02  0.51100000000E-03 0. -1.
         11   -1    0    0    0    0 -0.00000000000E+00 -0.00000000000E+00 -0.45593999997E+02  0.45594000000E+02  0.51100000000E-03 0.  1.
    9900012    2    1    2    0    0  0.27423829117E+02 -0.11297257145E+02  0.11705814865E+02  0.59301944677E+02  0.50000001184E+02 0.  0.
        -12    1    1    2    0    0 -0.27423829117E+02  0.11297257145E+02 -0.11705814865E+02  0.31886055323E+02  0.00000000000E+00 0.  1.
         11    1    3    3    0    0 -0.61717209415E+01  0.69474009364E+01  0.78795222963E+01  0.12183734691E+02  0.51100000000E-03 0. -1.
        -11    1    3    3    0    0  0.24807358774E+02  0.43788476726E+00  0.79706120566E+01  0.26060073853E+02  0.51100000000E-03 0.  1.
         12    1    3    3    0    0  0.87881912842E+01 -0.18682542849E+02 -0.41443194883E+01  0.21058136132E+02  0.00000000000E+00 0. -1.
</event>
<event>
 7    1  0.6293596E-013  0.5930194E+02  0.7816164E-02  0.1266605E+00
        -11   -1    0    0    0    0  0.00000000000E+00  0.00000000000E+00  0.45593999997E+02  0.45594000000E+02  0.51100000000E-03 0.  1.
         11   -1    0    0    0    0 -0.00000000000E+00 -0.00000000000E+00 -0.45593999997E+02  0.45594000000E+02  0.51100000000E-03 0. -1.
    9900012    2    1    2    0    0 -0.36352613534E+01 -0.11175296835E+02 -0.29641501728E+02  0.59301937071E+02  0.49999987312E+02 0.  0.
        -12    1    1    2    0    0  0.36352613534E+01  0.11175296835E+02  0.29641501728E+02  0.31886062929E+02  0.00000000000E+00 0.  1.
         11    1    3    3    0    0 -0.95917544867E+01 -0.45781233394E+01 -0.40411131786E+02  0.41785410611E+02  0.51100000000E-03 0. -1.
        -11    1    3    3    0    0 -0.24790801149E+01 -0.33536231351E+01  0.11688722686E+01  0.43311533094E+01  0.51100000000E-03 0.  1.
         12    1    3    3    0    0  0.84355732481E+01 -0.32435503602E+01  0.96007577900E+01  0.13185373150E+02  0.00000000000E+00 0. -1.
</event>
<event>
 7    1  0.6293596E-013  0.5930191E+02  0.7816164E-02  0.1266605E+00
        -11   -1    0    0    0    0  0.00000000000E+00  0.00000000000E+00  0.45593999997E+02  0.45594000000E+02  0.51100000000E-03 0. -1.
         11   -1    0    0    0    0 -0.00000000000E+00 -0.00000000000E+00 -0.45593999997E+02  0.45594000000E+02  0.51100000000E-03 0.  1.
    9900012    2    1    2    0    0  0.14975915994E+01  0.58232398961E+01  0.31314055752E+02  0.59301905992E+02  0.49999930632E+02 0.  0.
        -12    1    1    2    0    0 -0.14975915994E+01 -0.58232398961E+01 -0.31314055752E+02  0.31886094008E+02  0.00000000000E+00 0.  1.
         11    1    3    3    0    0 -0.17319165587E+02  0.12155098743E+02  0.45503808647E+01  0.21642686718E+02  0.51100000000E-03 0. -1.
        -11    1    3    3    0    0  0.85056739651E+01 -0.33951138815E+01  0.36383813720E+00  0.91654605078E+01  0.51100000000E-03 0.  1.
         12    1    3    3    0    0  0.10311083222E+02 -0.29367449657E+01  0.26399836750E+02  0.28493758766E+02  0.00000000000E+00 0. -1.
</event>
<event>
 7    1  0.6293596E-013  0.5930198E+02  0.7816164E-02  0.1266605E+00
        -11   -1    0    0    0    0  0.00000000000E+00  0.00000000000E+00  0.45593999997E+02  0.45594000000E+02  0.51100000000E-03 0.  1.
         11   -1    0    0    0    0 -0.00000000000E+00 -0.00000000000E+00 -0.45593999997E+02  0.45594000000E+02  0.51100000000E-03 0. -1.
    9900012    2    1    2    0    0  0.47856117333E+01  0.21736410281E+01 -0.31449823442E+02  0.59301981285E+02  0.50000067947E+02 0.  0.
        -12    1    1    2    0    0 -0.47856117333E+01 -0.21736410281E+01  0.31449823442E+02  0.31886018715E+02  0.00000000000E+00 0.  1.
         11    1    3    3    0    0 -0.11634994513E+02  0.10953188338E+02 -0.32237573766E+02  0.35980641944E+02  0.51100000000E-03 0. -1.
        -11    1    3    3    0    0  0.79582104020E+01  0.31891492652E+01  0.12022111262E+01  0.86573146928E+01  0.51100000000E-03 0.  1.
         12    1    3    3    0    0  0.84623958445E+01 -0.11968696575E+02 -0.41446080228E+00  0.14664024648E+02  0.00000000000E+00 0. -1.
</event>
<event>
 7    1  0.6293596E-013  0.5930194E+02  0.7816164E-02  0.1266605E+00
        -11   -1    0    0    0    0  0.00000000000E+00  0.00000000000E+00  0.45593999997E+02  0.45594000000E+02  0.51100000000E-03 0.  1.
         11   -1    0    0    0    0 -0.00000000000E+00 -0.00000000000E+00 -0.45593999997E+02  0.45594000000E+02  0.51100000000E-03 0. -1.
    9900012    2    1    2    0    0 -0.88296302350E+01  0.11845052698E+02 -0.28256912381E+02  0.59301941278E+02  0.49999994986E+02 0.  0.
        -12    1    1    2    0    0  0.88296302350E+01 -0.11845052698E+02  0.28256912381E+02  0.31886058722E+02  0.00000000000E+00 0.  1.
         11    1    3    3    0    0 -0.12979785259E+02 -0.11975670010E+02 -0.16900145303E+02  0.24443944221E+02  0.51100000000E-03 0.  1.
        -11    1    3    3    0    0 -0.69758219507E+01  0.17191039339E+02 -0.15586437553E+01  0.18617822001E+02  0.51100000000E-03 0. -1.
        -12    1    3    3    0    0  0.11125976975E+02  0.66296833694E+01 -0.97981233221E+01  0.16240175056E+02  0.00000000000E+00 0.  1.
</event>
<event>
 7    1  0.6293596E-013  0.5930196E+02  0.7816164E-02  0.1266605E+00
        -11   -1    0    0    0    0  0.00000000000E+00  0.00000000000E+00  0.45593999997E+02  0.45594000000E+02  0.51100000000E-03 0. -1.
         11   -1    0    0    0    0 -0.00000000000E+00 -0.00000000000E+00 -0.45593999997E+02  0.45594000000E+02  0.51100000000E-03 0.  1.
    9900012    2    1    2    0    0 -0.28586096965E+02  0.10609963243E+02  0.93264867951E+01  0.59301958921E+02  0.50000027162E+02 0.  0.
        -12    1    1    2    0    0  0.28586096965E+02 -0.10609963243E+02 -0.93264867951E+01  0.31886041079E+02  0.00000000000E+00 0.  1.
         11    1    3    3    0    0 -0.16813880784E+02  0.81489067455E+01  0.30918127744E+01  0.18938600124E+02  0.51100000000E-03 0. -1.
        -11    1    3    3    0    0  0.20172382237E+01  0.17711671007E+02  0.83680709933E+01  0.19692565916E+02  0.51100000000E-03 0.  1.
        -12    1    3    3    0    0 -0.13789454405E+02 -0.15250614510E+02 -0.21333969726E+01  0.20670792882E+02  0.00000000000E+00 0.  1.
</event>
<event>
 7    1  0.6293596E-013  0.5930194E+02  0.7816164E-02  0.1266605E+00
        -11   -1    0    0    0    0  0.00000000000E+00  0.00000000000E+00  0.45593999997E+02  0.45594000000E+02  0.51100000000E-03 0.  1.
         11   -1    0    0    0    0 -0.00000000000E+00 -0.00000000000E+00 -0.45593999997E+02  0.45594000000E+02  0.51100000000E-03 0. -1.
    9900012    2    1    2    0    0  0.10244752944E+00 -0.29065860216E+02 -0.13110523224E+02  0.59301944352E+02  0.50000000591E+02 0.  0.
        -12    1    1    2    0    0 -0.10244752944E+00  0.29065860216E+02  0.13110523224E+02  0.31886055648E+02  0.00000000000E+00 0.  1.
         11    1    3    3    0    0  0.22964288223E+00  0.21823657759E+01  0.12318511229E+01  0.25165281010E+01  0.51100000000E-03 0. -1.
        -11    1    3    3    0    0 -0.30431414041E+01 -0.41645618390E+02 -0.41942920037E+01  0.41966776459E+02  0.51100000000E-03 0.  1.
        -12    1    3    3    0    0  0.29159460513E+01  0.10397392398E+02 -0.10148082343E+02  0.14818639792E+02  0.00000000000E+00 0.  1.
</event>
<event>
 7    1  0.6293596E-013  0.5930193E+02  0.7816164E-02  0.1266605E+00
        -11   -1    0    0    0    0  0.00000000000E+00  0.00000000000E+00  0.45593999997E+02  0.45594000000E+02  0.51100000000E-03 0.  1.
         11   -1    0    0    0    0 -0.00000000000E+00 -0.00000000000E+00 -0.45593999997E+02  0.45594000000E+02  0.51100000000E-03 0. -1.
    9900012    2    1    2    0    0  0.26061387106E+02  0.47171002279E+01 -0.17755964147E+02  0.59301934152E+02  0.49999981990E+02 0.  0.
        -12    1    1    2    0    0 -0.26061387106E+02 -0.47171002279E+01  0.17755964147E+02  0.31886065848E+02  0.00000000000E+00 0.  1.
         11    1    3    3    0    0  0.93273929450E+01  0.14455240621E+02 -0.64281548206E+01  0.18365059630E+02  0.51100000000E-03 0. -1.
        -11    1    3    3    0    0  0.62429227333E+01 -0.16606282646E+02 -0.19191863495E+02  0.26135614250E+02  0.51100000000E-03 0.  1.
        -12    1    3    3    0    0  0.10491071428E+02  0.68681422528E+01  0.78640541678E+01  0.14801260273E+02  0.00000000000E+00 0.  1.
</event>
<event>
 7    1  0.6293596E-013  0.5930194E+02  0.7816164E-02  0.1266605E+00
        -11   -1    0    0    0    0  0.00000000000E+00  0.00000000000E+00  0.45593999997E+02  0.45594000000E+02  0.51100000000E-03 0.  1.
         11   -1    0    0    0    0 -0.00000000000E+00 -0.00000000000E+00 -0.45593999997E+02  0.45594000000E+02  0.51100000000E-03 0. -1.
    9900012    2    1    2    0    0  0.26719952058E+01  0.48823384393E+01 -0.31396561305E+02  0.59301939585E+02  0.49999991898E+02 0.  0.
        -12    1    1    2    0    0 -0.26719952058E+01 -0.48823384393E+01  0.31396561305E+02  0.31886060415E+02  0.00000000000E+00 0.  1.
         11    1    3    3    0    0  0.17154051031E+02 -0.62890846942E+01 -0.23190951921E+01  0.18417172851E+02  0.51100000000E-03 0. -1.
        -11    1    3    3    0    0 -0.14675337670E+02  0.91365873986E+01 -0.68998954357E+01  0.18613202903E+02  0.51100000000E-03 0.  1.
        -12    1    3    3    0    0  0.19328184512E+00  0.20348357349E+01 -0.22177570677E+02  0.22271563831E+02  0.00000000000E+00 0.  1.
</event>
<event>
 7    1  0.6293596E-013  0.5930192E+02  0.7816164E-02  0.1266605E+00
        -11   -1    0    0    0    0  0.00000000000E+00  0.00000000000E+00  0.45593999997E+02  0.45594000000E+02  0.51100000000E-03 0. -1.
         11   -1    0    0    0    0 -0.00000000000E+00 -0.00000000000E+00 -0.45593999997E+02  0.45594000000E+02  0.51100000000E-03 0.  1.
    9900012    2    1    2    0    0 -0.24092405246E+02 -0.22069886322E+01  0.20770354246E+02  0.59301915184E+02  0.49999947397E+02 0.  0.
        -12    1    1    2    0    0  0.24092405246E+02  0.22069886322E+01 -0.20770354246E+02  0.31886084816E+02  0.00000000000E+00 0.  1.
         11    1    3    3    0    0 -0.24045262991E+01 -0.18505425284E+01  0.16053319669E+02  0.16337543482E+02  0.51100000000E-03 0. -1.
        -11    1    3    3    0    0 -0.29382315445E+02 -0.83188948096E+01 -0.89561957280E+00  0.30550394538E+02  0.51100000000E-03 0.  1.
        -12    1    3    3    0    0  0.76944364985E+01  0.79624487058E+01  0.56126541505E+01  0.12413977164E+02  0.00000000000E+00 0.  1.
</event>
<event>
 7    1  0.6293596E-013  0.5930196E+02  0.7816164E-02  0.1266605E+00
        -11   -1    0    0    0    0  0.00000000000E+00  0.00000000000E+00  0.45593999997E+02  0.45594000000E+02  0.51100000000E-03 0. -1.
         11   -1    0    0    0    0 -0.00000000000E+00 -0.00000000000E+00 -0.45593999997E+02  0.45594000000E+02  0.51100000000E-03 0.  1.
    9900012    2    1    2    0    0 -0.19372862543E+02  0.18255292394E+02  0.17554369162E+02  0.59301962614E+02  0.50000033897E+02 0.  0.
        -12    1    1    2    0    0  0.19372862543E+02 -0.18255292394E+02 -0.17554369162E+02  0.31886037386E+02  0.00000000000E+00 0.  1.
         11    1    3    3    0    0 -0.41502661373E+00 -0.10474567652E+02  0.17146223004E+02  0.20096810148E+02  0.51100000000E-03 0. -1.
        -11    1    3    3    0    0 -0.13629869419E+02  0.21864552092E+02 -0.81351872089E+01  0.27018757368E+02  0.51100000000E-03 0.  1.
         12    1    3    3    0    0 -0.53279665098E+01  0.68653079550E+01  0.85433333670E+01  0.12186395097E+02  0.00000000000E+00 0. -1.
</event>
<event>
 7    1  0.6293596E-013  0.5930194E+02  0.7816164E-02  0.1266605E+00
        -11   -1    0    0    0    0  0.00000000000E+00  0.00000000000E+00  0.45593999997E+02  0.45594000000E+02  0.51100000000E-03 0. -1.
         11   -1    0    0    0    0 -0.00000000000E+00 -0.00000000000E+00 -0.45593999997E+02  0.45594000000E+02  0.51100000000E-03 0.  1.
    9900012    2    1    2    0    0  0.85392341827E+01  0.30134344053E+02  0.59769096105E+01  0.59301942538E+02  0.49999997284E+02 0.  0.
        -12    1    1    2    0    0 -0.85392341827E+01 -0.30134344053E+02 -0.59769096105E+01  0.31886057462E+02  0.00000000000E+00 0.  1.
         11    1    3    3    0    0  0.50330184228E+01 -0.81133456011E+01 -0.87649253953E+01  0.12960770376E+02  0.51100000000E-03 0. -1.
        -11    1    3    3    0    0 -0.88945089043E+01  0.15099612533E+02  0.77776977551E+01  0.19172980204E+02  0.51100000000E-03 0.  1.
         12    1    3    3    0    0  0.12400724664E+02  0.23148077122E+02  0.69641372506E+01  0.27168191958E+02  0.00000000000E+00 0. -1.
</event>
<event>
 7    1  0.6293596E-013  0.5930191E+02  0.7816164E-02  0.1266605E+00
        -11   -1    0    0    0    0  0.00000000000E+00  0.00000000000E+00  0.45593999997E+02  0.45594000000E+02  0.51100000000E-03 0.  1.
         11   -1    0    0    0    0 -0.00000000000E+00 -0.00000000000E+00 -0.45593999997E+02  0.45594000000E+02  0.51100000000E-03 0. -1.
    9900012    2    1    2    0    0  0.35638166795E+01  0.27317686897E+02 -0.16055090257E+02  0.59301910087E+02  0.49999938101E+02 0.  0.
        -12    1    1    2    0    0 -0.35638166795E+01 -0.27317686897E+02  0.16055090257E+02  0.31886089913E+02  0.00000000000E+00 0.  1.
         11    1    3    3    0    0  0.15502029672E+02  0.82633328431E+01 -0.63314150997E+01  0.18673039684E+02  0.51100000000E-03 0. -1.
        -11    1    3    3    0    0 -0.13201905282E+02  0.18669042931E+02 -0.19933291076E+02  0.30334131938E+02  0.51100000000E-03 0.  1.
        -12    1    3    3    0    0  0.12636922894E+01  0.38531112312E+00  0.10209615918E+02  0.10294738465E+02  0.00000000000E+00 0.  1.
</event>
<event>
 7    1  0.6293596E-013  0.5930191E+02  0.7816164E-02  0.1266605E+00
        -11   -1    0    0    0    0  0.00000000000E+00  0.00000000000E+00  0.45593999997E+02  0.45594000000E+02  0.51100000000E-03 0. -1.
         11   -1    0    0    0    0 -0.00000000000E+00 -0.00000000000E+00 -0.45593999997E+02  0.45594000000E+02  0.51100000000E-03 0.  1.
    9900012    2    1    2    0    0 -0.19695327716E+02 -0.22205023569E+02 -0.11651335591E+02  0.59301911708E+02  0.49999941056E+02 0.  0.
        -12    1    1    2    0    0  0.19695327716E+02  0.22205023569E+02  0.11651335591E+02  0.31886088292E+02  0.00000000000E+00 0.  1.
         11    1    3    3    0    0  0.80068418908E+01 -0.58226624215E+01  0.86830462188E+01  0.13168454983E+02  0.51100000000E-03 0. -1.
        -11    1    3    3    0    0 -0.97788938733E+01 -0.28670246701E+01 -0.21355558930E+02  0.23662343361E+02  0.51100000000E-03 0.  1.
        -12    1    3    3    0    0 -0.17923275733E+02 -0.13515336478E+02  0.10211771200E+01  0.22471113364E+02  0.00000000000E+00 0.  1.
</event>
<event>
 7    1  0.6293596E-013  0.5930194E+02  0.7816164E-02  0.1266605E+00
        -11   -1    0    0    0    0  0.00000000000E+00  0.00000000000E+00  0.45593999997E+02  0.45594000000E+02  0.51100000000E-03 0.  1.
         11   -1    0    0    0    0 -0.00000000000E+00 -0.00000000000E+00 -0.45593999997E+02  0.45594000000E+02  0.51100000000E-03 0. -1.
    9900012    2    1    2    0    0  0.24255242428E+02  0.89070527212E+01  0.18683371175E+02  0.59301941418E+02  0.49999995240E+02 0.  0.
        -12    1    1    2    0    0 -0.24255242428E+02 -0.89070527212E+01 -0.18683371175E+02  0.31886058582E+02  0.00000000000E+00 0.  1.
         11    1    3    3    0    0  0.31384349191E+02 -0.24678891628E+01  0.94167158435E+01  0.32859433784E+02  0.51100000000E-03 0. -1.
        -11    1    3    3    0    0 -0.26780086644E+01  0.15144006661E+02  0.12459993304E+02  0.19793031641E+02  0.51100000000E-03 0.  1.
         12    1    3    3    0    0 -0.44510980987E+01 -0.37690647770E+01 -0.31933379718E+01  0.66494759928E+01  0.00000000000E+00 0. -1.
</event>
<event>
 7    1  0.6293596E-013  0.5930195E+02  0.7816164E-02  0.1266605E+00
        -11   -1    0    0    0    0  0.00000000000E+00  0.00000000000E+00  0.45593999997E+02  0.45594000000E+02  0.51100000000E-03 0. -1.
         11   -1    0    0    0    0 -0.00000000000E+00 -0.00000000000E+00 -0.45593999997E+02  0.45594000000E+02  0.51100000000E-03 0.  1.
    9900012    2    1    2    0    0  0.15382652342E+02  0.24323042622E+02  0.13728950649E+02  0.59301945346E+02  0.50000002405E+02 0.  0.
        -12    1    1    2    0    0 -0.15382652342E+02 -0.24323042622E+02 -0.13728950649E+02  0.31886054654E+02  0.00000000000E+00 0.  1.
         11    1    3    3    0    0  0.18861930449E+02  0.33913684814E+01  0.27594757210E+02  0.33596791903E+02  0.51100000000E-03 0. -1.
        -11    1    3    3    0    0 -0.44281031526E+01  0.16116496521E+02 -0.11209054237E+02  0.20124424335E+02  0.51100000000E-03 0.  1.
         12    1    3    3    0    0  0.94882504507E+00  0.48151776195E+01 -0.26567523236E+01  0.55807291085E+01  0.00000000000E+00 0. -1.
</event>
<event>
 7    1  0.6293596E-013  0.5930194E+02  0.7816164E-02  0.1266605E+00
        -11   -1    0    0    0    0  0.00000000000E+00  0.00000000000E+00  0.45593999997E+02  0.45594000000E+02  0.51100000000E-03 0.  1.
         11   -1    0    0    0    0 -0.00000000000E+00 -0.00000000000E+00 -0.45593999997E+02  0.45594000000E+02  0.51100000000E-03 0. -1.
    9900012    2    1    2    0    0  0.80812588837E+01 -0.29315195488E+02 -0.95933989520E+01  0.59301941368E+02  0.49999995149E+02 0.  0.
        -12    1    1    2    0    0 -0.80812588837E+01  0.29315195488E+02  0.95933989520E+01  0.31886058632E+02  0.00000000000E+00 0.  1.
         11    1    3    3    0    0  0.73434113967E+00  0.54696502930E+01 -0.16366346202E+02  0.17271757857E+02  0.51100000000E-03 0. -1.
        -11    1    3    3    0    0 -0.19732305939E+01 -0.25474456458E+02 -0.28597976333E+01  0.25710309480E+02  0.51100000000E-03 0.  1.
         12    1    3    3    0    0  0.93201483379E+01 -0.93103893226E+01  0.96327448829E+01  0.16319874030E+02  0.00000000000E+00 0. -1.
</event>
<event>
 7    1  0.6293596E-013  0.5930196E+02  0.7816164E-02  0.1266605E+00
        -11   -1    0    0    0    0  0.00000000000E+00  0.00000000000E+00  0.45593999997E+02  0.45594000000E+02  0.51100000000E-03 0. -1.
         11   -1    0    0    0    0 -0.00000000000E+00 -0.00000000000E+00 -0.45593999997E+02  0.45594000000E+02  0.51100000000E-03 0.  1.
    9900012    2    1    2    0    0 -0.19641429946E+01  0.30988934284E+02  0.72489741751E+01  0.59301960228E+02  0.50000029546E+02 0.  0.
        -12    1    1    2    0    0  0.19641429946E+01 -0.30988934284E+02 -0.72489741751E+01  0.31886039772E+02  0.00000000000E+00 0.  1.
         11    1    3    3    0    0  0.42542965271E+01 -0.23987804168E+01  0.10593135954E+01  0.49975325895E+01  0.51100000000E-03 0. -1.
        -11    1    3    3    0    0 -0.18136912314E+02  0.26450257209E+02  0.17440539514E+02  0.36506658482E+02  0.51100000000E-03 0.  1.
        -12    1    3    3    0    0  0.11918472793E+02  0.69374574916E+01 -0.11250878934E+02  0.17797769157E+02  0.00000000000E+00 0.  1.
</event>
<event>
 7    1  0.6293596E-013  0.5930191E+02  0.7816164E-02  0.1266605E+00
        -11   -1    0    0    0    0  0.00000000000E+00  0.00000000000E+00  0.45593999997E+02  0.45594000000E+02  0.51100000000E-03 0.  1.
         11   -1    0    0    0    0 -0.00000000000E+00 -0.00000000000E+00 -0.45593999997E+02  0.45594000000E+02  0.51100000000E-03 0. -1.
    9900012    2    1    2    0    0 -0.17647827596E+02 -0.20969814197E+02 -0.16295507482E+02  0.59301913843E+02  0.49999944951E+02 0.  0.
        -12    1    1    2    0    0  0.17647827596E+02  0.20969814197E+02  0.16295507482E+02  0.31886086157E+02  0.00000000000E+00 0.  1.
         11    1    3    3    0    0 -0.21532461095E+02 -0.18901838236E+02 -0.56428006827E+01  0.29202184324E+02  0.51100000000E-03 0. -1.
        -11    1    3    3    0    0  0.44091396268E+01  0.11739275751E+02 -0.10381853484E+02  0.16279864540E+02  0.51100000000E-03 0.  1.
        -12    1    3    3    0    0 -0.52450612763E+00 -0.13807251713E+02 -0.27085331592E+00  0.13819864979E+02  0.00000000000E+00 0.  1.
</event>
<event>
 7    1  0.6293596E-013  0.5930218E+02  0.7816164E-02  0.1266604E+00
        -11   -1    0    0    0    0  0.00000000000E+00  0.00000000000E+00  0.45593999997E+02  0.45594000000E+02  0.51100000000E-03 0.  1.
         11   -1    0    0    0    0 -0.00000000000E+00 -0.00000000000E+00 -0.45593999997E+02  0.45594000000E+02  0.51100000000E-03 0. -1.
    9900012    2    1    2    0    0 -0.26572003869E+02  0.12062018146E+02 -0.12850742852E+02  0.59302183981E+02  0.50000437615E+02 0.  0.
        -12    1    1    2    0    0  0.26572003869E+02 -0.12062018146E+02  0.12850742852E+02  0.31885816019E+02  0.00000000000E+00 0.  1.
         11    1    3    3    0    0 -0.30269701844E+02  0.12416540560E+02 -0.44571979843E+01  0.33019569097E+02  0.51100000000E-03 0. -1.
        -11    1    3    3    0    0  0.90954610047E+01 -0.10206745910E+02 -0.44894886271E+01  0.14389599763E+02  0.51100000000E-03 0.  1.
         12    1    3    3    0    0 -0.53977630301E+01  0.98522234953E+01 -0.39040562404E+01  0.11893015121E+02  0.00000000000E+00 0. -1.
</event>
<event>
 7    1  0.6293596E-013  0.5930191E+02  0.7816164E-02  0.1266605E+00
        -11   -1    0    0    0    0  0.00000000000E+00  0.00000000000E+00  0.45593999997E+02  0.45594000000E+02  0.51100000000E-03 0. -1.
         11   -1    0    0    0    0 -0.00000000000E+00 -0.00000000000E+00 -0.45593999997E+02  0.45594000000E+02  0.51100000000E-03 0.  1.
    9900012    2    1    2    0    0 -0.27133280384E+02  0.10408500418E+02  0.13121383762E+02  0.59301913738E+02  0.49999944758E+02 0.  0.
        -12    1    1    2    0    0  0.27133280384E+02 -0.10408500418E+02 -0.13121383762E+02  0.31886086262E+02  0.00000000000E+00 0.  1.
         11    1    3    3    0    0 -0.10062070256E+02  0.28402175153E+01  0.29050203906E+02  0.30874365429E+02  0.51100000000E-03 0. -1.
        -11    1    3    3    0    0  0.21584122336E+01  0.29632320969E+01 -0.15564555520E+01  0.39827179133E+01  0.51100000000E-03 0.  1.
         12    1    3    3    0    0 -0.19229622361E+02  0.46050508053E+01 -0.14372364593E+02  0.24444830395E+02  0.00000000000E+00 0. -1.
</event>
<event>
 7    1  0.6293596E-013  0.5930193E+02  0.7816164E-02  0.1266605E+00
        -11   -1    0    0    0    0  0.00000000000E+00  0.00000000000E+00  0.45593999997E+02  0.45594000000E+02  0.51100000000E-03 0. -1.
         11   -1    0    0    0    0 -0.00000000000E+00 -0.00000000000E+00 -0.45593999997E+02  0.45594000000E+02  0.51100000000E-03 0.  1.
    9900012    2    1    2    0    0 -0.15157671053E+02  0.27952313764E+02 -0.23737452854E+01  0.59301929323E+02  0.49999973183E+02 0.  0.
        -12    1    1    2    0    0  0.15157671053E+02 -0.27952313764E+02  0.23737452854E+01  0.31886070677E+02  0.00000000000E+00 0.  1.
         11    1    3    3    0    0  0.47326195954E+01  0.29161369163E+01 -0.84975209329E+01  0.10154280133E+02  0.51100000000E-03 0.  1.
        -11    1    3    3    0    0 -0.28734624374E+02  0.98607313648E+01 -0.47823957283E+00  0.30383241669E+02  0.51100000000E-03 0. -1.
        -12    1    3    3    0    0  0.88443337256E+01  0.15175445483E+02  0.66020152203E+01  0.18764407521E+02  0.00000000000E+00 0.  1.
</event>
<event>
 7    1  0.6293596E-013  0.5930194E+02  0.7816164E-02  0.1266605E+00
        -11   -1    0    0    0    0  0.00000000000E+00  0.00000000000E+00  0.45593999997E+02  0.45594000000E+02  0.51100000000E-03 0.  1.
         11   -1    0    0    0    0 -0.00000000000E+00 -0.00000000000E+00 -0.45593999997E+02  0.45594000000E+02  0.51100000000E-03 0. -1.
    9900012    2    1    2    0    0 -0.10280534337E+02 -0.28280652642E+02  0.10546839820E+02  0.59301944579E+02  0.50000001005E+02 0.  0.
        -12    1    1    2    0    0  0.10280534337E+02  0.28280652642E+02 -0.10546839820E+02  0.31886055421E+02  0.00000000000E+00 0.  1.
         11    1    3    3    0    0 -0.35331906485E+00 -0.13344534258E+02 -0.96707277020E+01  0.16484065138E+02  0.51100000000E-03 0. -1.
        -11    1    3    3    0    0  0.37787121094E+01 -0.17733781701E+02  0.22228270324E+02  0.28685565717E+02  0.51100000000E-03 0.  1.
         12    1    3    3    0    0 -0.13705927382E+02  0.27976633171E+01 -0.20107028025E+01  0.14132313724E+02  0.00000000000E+00 0. -1.
</event>
<event>
 7    1  0.6293596E-013  0.5930195E+02  0.7816164E-02  0.1266605E+00
        -11   -1    0    0    0    0  0.00000000000E+00  0.00000000000E+00  0.45593999997E+02  0.45594000000E+02  0.51100000000E-03 0.  1.
         11   -1    0    0    0    0 -0.00000000000E+00 -0.00000000000E+00 -0.45593999997E+02  0.45594000000E+02  0.51100000000E-03 0. -1.
    9900012    2    1    2    0    0  0.31179644014E+02  0.27978875260E+00  0.66687031228E+01  0.59301951578E+02  0.50000013771E+02 0.  0.
        -12    1    1    2    0    0 -0.31179644014E+02 -0.27978875260E+00 -0.66687031228E+01  0.31886048422E+02  0.00000000000E+00 0.  1.
         11    1    3    3    0    0  0.13808644044E+02  0.92127197347E+01  0.11826375437E+02  0.20381756830E+02  0.51100000000E-03 0. -1.
        -11    1    3    3    0    0  0.22442467099E+02 -0.16680594144E+02  0.68519633238E+00  0.27970985766E+02  0.51100000000E-03 0.  1.
         12    1    3    3    0    0 -0.50714671290E+01  0.77476631614E+01 -0.58428686466E+01  0.10949208982E+02  0.00000000000E+00 0. -1.
</event>
<event>
 7    1  0.6293596E-013  0.5930196E+02  0.7816164E-02  0.1266605E+00
        -11   -1    0    0    0    0  0.00000000000E+00  0.00000000000E+00  0.45593999997E+02  0.45594000000E+02  0.51100000000E-03 0. -1.
         11   -1    0    0    0    0 -0.00000000000E+00 -0.00000000000E+00 -0.45593999997E+02  0.45594000000E+02  0.51100000000E-03 0.  1.
    9900012    2    1    2    0    0  0.19833531955E+02 -0.17484299590E+02  0.17822725697E+02  0.59301964291E+02  0.50000036956E+02 0.  0.
        -12    1    1    2    0    0 -0.19833531955E+02  0.17484299590E+02 -0.17822725697E+02  0.31886035709E+02  0.00000000000E+00 0.  1.
         11    1    3    3    0    0  0.82652981737E+01 -0.89735206345E+01  0.70013733569E+01  0.14066216820E+02  0.51100000000E-03 0. -1.
        -11    1    3    3    0    0  0.17188707638E+02  0.11827964296E+02  0.12057614639E+02  0.24098516151E+02  0.51100000000E-03 0.  1.
        -12    1    3    3    0    0 -0.56204738573E+01 -0.20338743251E+02 -0.12362622986E+01  0.21137231320E+02  0.00000000000E+00 0.  1.
</event>
<event>
 7    1  0.6293596E-013  0.5930195E+02  0.7816164E-02  0.1266605E+00
        -11   -1    0    0    0    0  0.00000000000E+00  0.00000000000E+00  0.45593999997E+02  0.45594000000E+02  0.51100000000E-03 0.  1.
         11   -1    0    0    0    0 -0.00000000000E+00 -0.00000000000E+00 -0.45593999997E+02  0.45594000000E+02  0.51100000000E-03 0. -1.
    9900012    2    1    2    0    0  0.21559559166E+02  0.37987103802E+00 -0.23489601305E+02  0.59301948772E+02  0.50000008653E+02 0.  0.
        -12    1    1    2    0    0 -0.21559559166E+02 -0.37987103802E+00  0.23489601305E+02  0.31886051228E+02  0.00000000000E+00 0.  1.
         11    1    3    3    0    0  0.41524419973E+00 -0.83725156225E+01 -0.28488221973E+02  0.29695963312E+02  0.51100000000E-03 0. -1.
        -11    1    3    3    0    0  0.10353850136E+02  0.13637701745E+02  0.11907995457E+01  0.17164123203E+02  0.51100000000E-03 0.  1.
         12    1    3    3    0    0  0.10790464830E+02 -0.48853150842E+01  0.38078211218E+01  0.12441862257E+02  0.00000000000E+00 0. -1.
</event>
<event>
 7    1  0.6293596E-013  0.5930196E+02  0.7816164E-02  0.1266605E+00
        -11   -1    0    0    0    0  0.00000000000E+00  0.00000000000E+00  0.45593999997E+02  0.45594000000E+02  0.51100000000E-03 0.  1.
         11   -1    0    0    0    0 -0.00000000000E+00 -0.00000000000E+00 -0.45593999997E+02  0.45594000000E+02  0.51100000000E-03 0. -1.
    9900012    2    1    2    0    0 -0.74951805585E+01 -0.19024952291E+02 -0.24466162239E+02  0.59301958603E+02  0.50000026582E+02 0.  0.
        -12    1    1    2    0    0  0.74951805585E+01  0.19024952291E+02  0.24466162239E+02  0.31886041397E+02  0.00000000000E+00 0.  1.
         11    1    3    3    0    0  0.48696878694E+01  0.33298523944E+01 -0.23484112057E+02  0.24213741889E+02  0.51100000000E-03 0. -1.
        -11    1    3    3    0    0 -0.18625541000E+02 -0.12495014063E+02 -0.45306443583E+01  0.22881496728E+02  0.51100000000E-03 0.  1.
        -12    1    3    3    0    0  0.62606725721E+01 -0.98597906226E+01  0.35485941766E+01  0.12206719986E+02  0.00000000000E+00 0.  1.
</event>
<event>
 7    1  0.6293596E-013  0.5930198E+02  0.7816164E-02  0.1266605E+00
        -11   -1    0    0    0    0  0.00000000000E+00  0.00000000000E+00  0.45593999997E+02  0.45594000000E+02  0.51100000000E-03 0.  1.
         11   -1    0    0    0    0 -0.00000000000E+00 -0.00000000000E+00 -0.45593999997E+02  0.45594000000E+02  0.51100000000E-03 0. -1.
    9900012    2    1    2    0    0 -0.54584856651E+01 -0.11746105989E+02 -0.29136782071E+02  0.59301982043E+02  0.50000069331E+02 0.  0.
        -12    1    1    2    0    0  0.54584856651E+01  0.11746105989E+02  0.29136782071E+02  0.31886017957E+02  0.00000000000E+00 0.  1.
         11    1    3    3    0    0  0.67324808084E+01  0.77876962805E+01 -0.15654251549E+02  0.18735797368E+02  0.51100000000E-03 0. -1.
        -11    1    3    3    0    0 -0.11947422519E+02 -0.17016366098E+02 -0.22832164797E+02  0.30880501447E+02  0.51100000000E-03 0.  1.
        -12    1    3    3    0    0 -0.24354395411E+00 -0.25174361710E+01  0.93496342744E+01  0.96856832282E+01  0.00000000000E+00 0.  1.
</event>
<event>
 7    1  0.6293596E-013  0.5930194E+02  0.7816164E-02  0.1266605E+00
        -11   -1    0    0    0    0  0.00000000000E+00  0.00000000000E+00  0.45593999997E+02  0.45594000000E+02  0.51100000000E-03 0. -1.
         11   -1    0    0    0    0 -0.00000000000E+00 -0.00000000000E+00 -0.45593999997E+02  0.45594000000E+02  0.51100000000E-03 0.  1.
    9900012    2    1    2    0    0 -0.19146172086E+02 -0.23723865463E+02 -0.93446682028E+01  0.59301944711E+02  0.50000001247E+02 0.  0.
        -12    1    1    2    0    0  0.19146172086E+02  0.23723865463E+02  0.93446682028E+01  0.31886055289E+02  0.00000000000E+00 0.  1.
         11    1    3    3    0    0 -0.11396189008E+02 -0.31851091154E+02 -0.15611072523E+02  0.37256821083E+02  0.51100000000E-03 0. -1.
        -11    1    3    3    0    0 -0.82691584370E+01  0.13404306100E+02  0.55263912136E+01  0.16691177412E+02  0.51100000000E-03 0.  1.
        -12    1    3    3    0    0  0.51917535826E+00 -0.52770804085E+01  0.74001310667E+00  0.53539462165E+01  0.00000000000E+00 0.  1.
</event>
<event>
 7    1  0.6293596E-013  0.5930194E+02  0.7816164E-02  0.1266605E+00
        -11   -1    0    0    0    0  0.00000000000E+00  0.00000000000E+00  0.45593999997E+02  0.45594000000E+02  0.51100000000E-03 0.  1.
         11   -1    0    0    0    0 -0.00000000000E+00 -0.00000000000E+00 -0.45593999997E+02  0.45594000000E+02  0.51100000000E-03 0. -1.
    9900012    2    1    2    0    0 -0.28650009791E+02  0.29824726247E+01 -0.13674899812E+02  0.59301935821E+02  0.49999985033E+02 0.  0.
        -12    1    1    2    0    0  0.28650009791E+02 -0.29824726247E+01  0.13674899812E+02  0.31886064179E+02  0.00000000000E+00 0.  1.
         11    1    3    3    0    0 -0.19708109622E+02  0.18315366948E+02  0.55940522548E+01  0.27480095928E+02  0.51100000000E-03 0. -1.
        -11    1    3    3    0    0  0.19709932727E+01 -0.10508953375E+01 -0.12368722855E+02  0.12568790746E+02  0.51100000000E-03 0.  1.
         12    1    3    3    0    0 -0.10912893441E+02 -0.14281998986E+02 -0.69002292117E+01  0.19253049147E+02  0.00000000000E+00 0. -1.
</event>
<event>
 7    1  0.6293596E-013  0.5930195E+02  0.7816164E-02  0.1266605E+00
        -11   -1    0    0    0    0  0.00000000000E+00  0.00000000000E+00  0.45593999997E+02  0.45594000000E+02  0.51100000000E-03 0.  1.
         11   -1    0    0    0    0 -0.00000000000E+00 -0.00000000000E+00 -0.45593999997E+02  0.45594000000E+02  0.51100000000E-03 0. -1.
    9900012    2    1    2    0    0  0.17009064970E+02 -0.87909942939E+01 -0.25497653173E+02  0.59301949929E+02  0.50000010762E+02 0.  0.
        -12    1    1    2    0    0 -0.17009064970E+02  0.87909942939E+01  0.25497653173E+02  0.31886050071E+02  0.00000000000E+00 0.  1.
         11    1    3    3    0    0  0.51043444611E+01  0.69391037097E+01 -0.80721153081E+01  0.11805275875E+02  0.51100000000E-03 0. -1.
        -11    1    3    3    0    0  0.21768763927E+00 -0.24730821570E+02 -0.86745236453E-01  0.24731931757E+02  0.51100000000E-03 0.  1.
        -12    1    3    3    0    0  0.11687032870E+02  0.90007235668E+01 -0.17338792628E+02  0.22764742297E+02  0.00000000000E+00 0.  1.
</event>
<event>
 7    1  0.6293596E-013  0.5930194E+02  0.7816164E-02  0.1266605E+00
        -11   -1    0    0    0    0  0.00000000000E+00  0.00000000000E+00  0.45593999997E+02  0.45594000000E+02  0.51100000000E-03 0.  1.
         11   -1    0    0    0    0 -0.00000000000E+00 -0.00000000000E+00 -0.45593999997E+02  0.45594000000E+02  0.51100000000E-03 0. -1.
    9900012    2    1    2    0    0 -0.21029312049E+02  0.51904804673E+01 -0.23399735119E+02  0.59301942602E+02  0.49999997400E+02 0.  0.
        -12    1    1    2    0    0  0.21029312049E+02 -0.51904804673E+01  0.23399735119E+02  0.31886057398E+02  0.00000000000E+00 0.  1.
         11    1    3    3    0    0  0.28441495035E+01  0.17049816058E+01 -0.13511559715E+02  0.13912526545E+02  0.51100000000E-03 0. -1.
        -11    1    3    3    0    0 -0.31521019231E+02  0.10926077154E+02 -0.53190323164E+01  0.33782331482E+02  0.51100000000E-03 0.  1.
        -12    1    3    3    0    0  0.76475576782E+01 -0.74405782930E+01 -0.45691430886E+01  0.11607084575E+02  0.00000000000E+00 0.  1.
</event>
<event>
 7    1  0.7274352E-013  0.5930197E+02  0.7816164E-02  0.1266605E+00
        -11   -1    0    0    0    0  0.00000000000E+00  0.00000000000E+00  0.45593999997E+02  0.45594000000E+02  0.51100000000E-03 0. -1.
         11   -1    0    0    0    0 -0.00000000000E+00 -0.00000000000E+00 -0.45593999997E+02  0.45594000000E+02  0.51100000000E-03 0.  1.
    9900012    2    1    2    0    0 -0.78048771063E+01 -0.19466724799E+02  0.24017691715E+02  0.59301968632E+02  0.50000044873E+02 0.  0.
        -12    1    1    2    0    0  0.78048771063E+01  0.19466724799E+02 -0.24017691715E+02  0.31886031368E+02  0.00000000000E+00 0.  1.
         11    1    3    3    0    0 -0.61628943949E+01  0.18982653507E+00  0.28399869797E+02  0.29061484928E+02  0.51100000000E-03 0. -1.
        -11    1    3    3    0    0 -0.19109902160E+01 -0.18901759497E+01 -0.10966693490E+02  0.11291280490E+02  0.51100000000E-03 0.  1.
         12    1    3    3    0    0  0.26900750460E+00 -0.17766375384E+02  0.65845154085E+01  0.18949203215E+02  0.00000000000E+00 0. -1.
</event>
<event>
 7    1  0.6293596E-013  0.5930199E+02  0.7816164E-02  0.1266605E+00
        -11   -1    0    0    0    0  0.00000000000E+00  0.00000000000E+00  0.45593999997E+02  0.45594000000E+02  0.51100000000E-03 0.  1.
         11   -1    0    0    0    0 -0.00000000000E+00 -0.00000000000E+00 -0.45593999997E+02  0.45594000000E+02  0.51100000000E-03 0. -1.
    9900012    2    1    2    0    0 -0.31263607895E+02 -0.62327626569E+01  0.67594035671E+00  0.59301993597E+02  0.50000090403E+02 0.  0.
        -12    1    1    2    0    0  0.31263607895E+02  0.62327626569E+01 -0.67594035671E+00  0.31886006403E+02  0.00000000000E+00 0.  1.
         11    1    3    3    0    0 -0.36547965868E+02  0.21871483397E+01 -0.55302266086E+01  0.37028648821E+02  0.51100000000E-03 0. -1.
        -11    1    3    3    0    0  0.61433372837E+01 -0.12569039632E+02  0.94964823519E+01  0.16908711589E+02  0.51100000000E-03 0.  1.
         12    1    3    3    0    0 -0.85897931108E+00  0.41491286358E+01 -0.32903153866E+01  0.53646331875E+01  0.00000000000E+00 0. -1.
</event>
<event>
 7    1  0.6293596E-013  0.5930208E+02  0.7816164E-02  0.1266604E+00
        -11   -1    0    0    0    0  0.00000000000E+00  0.00000000000E+00  0.45593999997E+02  0.45594000000E+02  0.51100000000E-03 0.  1.
         11   -1    0    0    0    0 -0.00000000000E+00 -0.00000000000E+00 -0.45593999997E+02  0.45594000000E+02  0.51100000000E-03 0. -1.
    9900012    2    1    2    0    0 -0.11007553967E+02  0.28456617855E+02 -0.92610403459E+01  0.59302075011E+02  0.50000238882E+02 0.  0.
        -12    1    1    2    0    0  0.11007553967E+02 -0.28456617855E+02  0.92610403459E+01  0.31885924989E+02  0.00000000000E+00 0.  1.
         11    1    3    3    0    0 -0.50266458127E+01  0.23926066962E+02 -0.84744966063E+01  0.25875489201E+02  0.51100000000E-03 0. -1.
        -11    1    3    3    0    0 -0.13699449612E+02 -0.96119396035E+01  0.26741712710E+01  0.16947433282E+02  0.51100000000E-03 0.  1.
        -12    1    3    3    0    0  0.77185414570E+01  0.14142490497E+02 -0.34607150106E+01  0.16479152528E+02  0.00000000000E+00 0.  1.
</event>
<event>
 7    1  0.6293596E-013  0.5930195E+02  0.7816164E-02  0.1266605E+00
        -11   -1    0    0    0    0  0.00000000000E+00  0.00000000000E+00  0.45593999997E+02  0.45594000000E+02  0.51100000000E-03 0. -1.
         11   -1    0    0    0    0 -0.00000000000E+00 -0.00000000000E+00 -0.45593999997E+02  0.45594000000E+02  0.51100000000E-03 0.  1.
    9900012    2    1    2    0    0  0.49965269320E+01  0.30343296579E+02  0.84284816543E+01  0.59301949263E+02  0.50000009547E+02 0.  0.
        -12    1    1    2    0    0 -0.49965269320E+01 -0.30343296579E+02 -0.84284816543E+01  0.31886050737E+02  0.00000000000E+00 0.  1.
         11    1    3    3    0    0 -0.13643555919E+02  0.59491613924E+01  0.15272816590E+02  0.21325995082E+02  0.51100000000E-03 0. -1.
        -11    1    3    3    0    0  0.22668603125E+02  0.16216254217E+02 -0.74169520962E+01  0.28841699796E+02  0.51100000000E-03 0.  1.
        -12    1    3    3    0    0 -0.40285202739E+01  0.81778809692E+01  0.57261716041E+00  0.91342543842E+01  0.00000000000E+00 0.  1.
</event>
<event>
 7    1  0.6293596E-013  0.5930191E+02  0.7816164E-02  0.1266605E+00
        -11   -1    0    0    0    0  0.00000000000E+00  0.00000000000E+00  0.45593999997E+02  0.45594000000E+02  0.51100000000E-03 0. -1.
         11   -1    0    0    0    0 -0.00000000000E+00 -0.00000000000E+00 -0.45593999997E+02  0.45594000000E+02  0.51100000000E-03 0.  1.
    9900012    2    1    2    0    0  0.23824462154E+02 -0.15469103214E+02  0.14485321442E+02  0.59301910738E+02  0.49999939287E+02 0.  0.
        -12    1    1    2    0    0 -0.23824462154E+02  0.15469103214E+02 -0.14485321442E+02  0.31886089262E+02  0.00000000000E+00 0.  1.
         11    1    3    3    0    0  0.38253442850E+00 -0.16792610314E+02 -0.11077207836E+02  0.20120701465E+02  0.51100000000E-03 0. -1.
        -11    1    3    3    0    0  0.42382642237E+01  0.82533024398E+01  0.80485875867E+01  0.12282493525E+02  0.51100000000E-03 0.  1.
         12    1    3    3    0    0  0.19203663502E+02 -0.69297953394E+01  0.17513941691E+02  0.26898715748E+02  0.00000000000E+00 0. -1.
</event>
<event>
 7    1  0.6293596E-013  0.5930194E+02  0.7816164E-02  0.1266605E+00
        -11   -1    0    0    0    0  0.00000000000E+00  0.00000000000E+00  0.45593999997E+02  0.45594000000E+02  0.51100000000E-03 0. -1.
         11   -1    0    0    0    0 -0.00000000000E+00 -0.00000000000E+00 -0.45593999997E+02  0.45594000000E+02  0.51100000000E-03 0.  1.
    9900012    2    1    2    0    0  0.15771468554E+02  0.26812418659E+02  0.70054249936E+01  0.59301937308E+02  0.49999987744E+02 0.  0.
        -12    1    1    2    0    0 -0.15771468554E+02 -0.26812418659E+02 -0.70054249936E+01  0.31886062692E+02  0.00000000000E+00 0.  1.
         11    1    3    3    0    0  0.15171419745E+02 -0.32394903544E+01  0.16585138295E+02  0.22709757536E+02  0.51100000000E-03 0. -1.
        -11    1    3    3    0    0  0.45960614014E+01  0.90571828471E+01 -0.11248657198E+02  0.15155481864E+02  0.51100000000E-03 0.  1.
         12    1    3    3    0    0 -0.39960125927E+01  0.20994726166E+02  0.16689438966E+01  0.21436697907E+02  0.00000000000E+00 0. -1.
</event>
<event>
 7    1  0.6293596E-013  0.5930191E+02  0.7816164E-02  0.1266605E+00
        -11   -1    0    0    0    0  0.00000000000E+00  0.00000000000E+00  0.45593999997E+02  0.45594000000E+02  0.51100000000E-03 0. -1.
         11   -1    0    0    0    0 -0.00000000000E+00 -0.00000000000E+00 -0.45593999997E+02  0.45594000000E+02  0.51100000000E-03 0.  1.
    9900012    2    1    2    0    0 -0.38475233912E+01  0.83902969098E+01  0.30520846539E+02  0.59301912251E+02  0.49999942047E+02 0.  0.
        -12    1    1    2    0    0  0.38475233912E+01 -0.83902969098E+01 -0.30520846539E+02  0.31886087749E+02  0.00000000000E+00 0.  1.
         11    1    3    3    0    0 -0.83953811587E+00  0.80889173662E+01  0.27962070512E+02  0.29120659264E+02  0.51100000000E-03 0. -1.
        -11    1    3    3    0    0 -0.14939699078E+02 -0.29105927859E+00 -0.53305732268E+01  0.15864877410E+02  0.51100000000E-03 0.  1.
        -12    1    3    3    0    0  0.11931713802E+02  0.59243882223E+00  0.78893492537E+01  0.14316375577E+02  0.00000000000E+00 0.  1.
</event>
<event>
 7    1  0.6293596E-013  0.5930195E+02  0.7816164E-02  0.1266605E+00
        -11   -1    0    0    0    0  0.00000000000E+00  0.00000000000E+00  0.45593999997E+02  0.45594000000E+02  0.51100000000E-03 0. -1.
         11   -1    0    0    0    0 -0.00000000000E+00 -0.00000000000E+00 -0.45593999997E+02  0.45594000000E+02  0.51100000000E-03 0.  1.
    9900012    2    1    2    0    0  0.37735065818E+01 -0.22780394983E+02  0.21989422662E+02  0.59301945736E+02  0.50000003116E+02 0.  0.
        -12    1    1    2    0    0 -0.37735065818E+01  0.22780394983E+02 -0.21989422662E+02  0.31886054264E+02  0.00000000000E+00 0.  1.
         11    1    3    3    0    0  0.17725516149E+02 -0.30976809482E+02  0.10471552456E+02  0.37194220781E+02  0.51100000000E-03 0. -1.
        -11    1    3    3    0    0 -0.10880437752E+02  0.98700205913E+01  0.66797172004E+01  0.16137529374E+02  0.51100000000E-03 0.  1.
         12    1    3    3    0    0 -0.30715718151E+01 -0.16736060919E+01  0.48381530060E+01  0.59701955810E+01  0.00000000000E+00 0. -1.
</event>
<event>
 7    1  0.6293596E-013  0.5930195E+02  0.7816164E-02  0.1266605E+00
        -11   -1    0    0    0    0  0.00000000000E+00  0.00000000000E+00  0.45593999997E+02  0.45594000000E+02  0.51100000000E-03 0.  1.
         11   -1    0    0    0    0 -0.00000000000E+00 -0.00000000000E+00 -0.45593999997E+02  0.45594000000E+02  0.51100000000E-03 0. -1.
    9900012    2    1    2    0    0  0.70796409457E+01  0.18672373522E+02 -0.24858428175E+02  0.59301948187E+02  0.50000007585E+02 0.  0.
        -12    1    1    2    0    0 -0.70796409457E+01 -0.18672373522E+02  0.24858428175E+02  0.31886051813E+02  0.00000000000E+00 0.  1.
         11    1    3    3    0    0 -0.29776989929E+01 -0.63255583075E+01 -0.19675214063E+02  0.20880455643E+02  0.51100000000E-03 0.  1.
        -11    1    3    3    0    0  0.22162625277E+01  0.23291513260E+01  0.96822056026E+01  0.10202052298E+02  0.51100000000E-03 0. -1.
         12    1    3    3    0    0  0.78410774109E+01  0.22668780504E+02 -0.14865419715E+02  0.28219440246E+02  0.00000000000E+00 0. -1.
</event>
<event>
 7    1  0.6293596E-013  0.5930192E+02  0.7816164E-02  0.1266605E+00
        -11   -1    0    0    0    0  0.00000000000E+00  0.00000000000E+00  0.45593999997E+02  0.45594000000E+02  0.51100000000E-03 0.  1.
         11   -1    0    0    0    0 -0.00000000000E+00 -0.00000000000E+00 -0.45593999997E+02  0.45594000000E+02  0.51100000000E-03 0. -1.
    9900012    2    1    2    0    0  0.58703719854E+01 -0.28524850639E+02 -0.12984372638E+02  0.59301916765E+02  0.49999950280E+02 0.  0.
        -12    1    1    2    0    0 -0.58703719854E+01  0.28524850639E+02  0.12984372638E+02  0.31886083235E+02  0.00000000000E+00 0.  1.
         11    1    3    3    0    0  0.14939338016E+02  0.56902162564E+01 -0.77854369526E+01  0.17781321948E+02  0.51100000000E-03 0. -1.
        -11    1    3    3    0    0 -0.47229308631E+01 -0.26497085236E+02 -0.12841937620E+02  0.29821417874E+02  0.51100000000E-03 0.  1.
        -12    1    3    3    0    0 -0.43460351677E+01 -0.77179816595E+01  0.76430019345E+01  0.11699176943E+02  0.00000000000E+00 0.  1.
</event>
<event>
 7    1  0.6293596E-013  0.5930194E+02  0.7816164E-02  0.1266605E+00
        -11   -1    0    0    0    0  0.00000000000E+00  0.00000000000E+00  0.45593999997E+02  0.45594000000E+02  0.51100000000E-03 0.  1.
         11   -1    0    0    0    0 -0.00000000000E+00 -0.00000000000E+00 -0.45593999997E+02  0.45594000000E+02  0.51100000000E-03 0. -1.
    9900012    2    1    2    0    0  0.89030752293E+01  0.27910835525E+02 -0.12587355954E+02  0.59301936929E+02  0.49999987053E+02 0.  0.
        -12    1    1    2    0    0 -0.89030752293E+01 -0.27910835525E+02  0.12587355954E+02  0.31886063071E+02  0.00000000000E+00 0.  1.
         11    1    3    3    0    0  0.77277846367E+01  0.14898830593E+02  0.86066475338E+01  0.18861818323E+02  0.51100000000E-03 0.  1.
        -11    1    3    3    0    0 -0.14467545902E+02  0.27719377837E+01 -0.14251484635E+02  0.20496300595E+02  0.51100000000E-03 0. -1.
         12    1    3    3    0    0  0.15642836495E+02  0.10240067149E+02 -0.69425188534E+01  0.19943818011E+02  0.00000000000E+00 0. -1.
</event>
<event>
 7    1  0.6293596E-013  0.5930197E+02  0.7816164E-02  0.1266605E+00
        -11   -1    0    0    0    0  0.00000000000E+00  0.00000000000E+00  0.45593999997E+02  0.45594000000E+02  0.51100000000E-03 0.  1.
         11   -1    0    0    0    0 -0.00000000000E+00 -0.00000000000E+00 -0.45593999997E+02  0.45594000000E+02  0.51100000000E-03 0. -1.
    9900012    2    1    2    0    0  0.11069510132E+02  0.71158948360E+01 -0.29043914829E+02  0.59301968536E+02  0.50000044698E+02 0.  0.
        -12    1    1    2    0    0 -0.11069510132E+02 -0.71158948360E+01  0.29043914829E+02  0.31886031464E+02  0.00000000000E+00 0.  1.
         11    1    3    3    0    0 -0.90519140617E+01  0.13936407618E+02 -0.26870649868E+02  0.31594183485E+02  0.51100000000E-03 0. -1.
        -11    1    3    3    0    0  0.17407809472E+02 -0.45673234346E+01 -0.89263309942E+01  0.20089093042E+02  0.51100000000E-03 0.  1.
         12    1    3    3    0    0  0.27136147212E+01 -0.22531893470E+01  0.67530660330E+01  0.76186920094E+01  0.00000000000E+00 0. -1.
</event>
<event>
 7    1  0.6293596E-013  0.5930202E+02  0.7816164E-02  0.1266605E+00
        -11   -1    0    0    0    0  0.00000000000E+00  0.00000000000E+00  0.45593999997E+02  0.45594000000E+02  0.51100000000E-03 0.  1.
         11   -1    0    0    0    0 -0.00000000000E+00 -0.00000000000E+00 -0.45593999997E+02  0.45594000000E+02  0.51100000000E-03 0. -1.
    9900012    2    1    2    0    0  0.21604463870E+02  0.13764249624E+02 -0.18987058091E+02  0.59302018727E+02  0.50000136233E+02 0.  0.
        -12    1    1    2    0    0 -0.21604463870E+02 -0.13764249624E+02  0.18987058091E+02  0.31885981273E+02  0.00000000000E+00 0.  1.
         11    1    3    3    0    0  0.11108636998E+02 -0.18194830245E+01 -0.15393984680E+02  0.19070582031E+02  0.51100000000E-03 0. -1.
        -11    1    3    3    0    0 -0.78481947449E+01  0.19529838282E+02  0.38245007059E+00  0.21051247288E+02  0.51100000000E-03 0.  1.
         12    1    3    3    0    0  0.18344021617E+02 -0.39461056334E+01 -0.39755234815E+01  0.19180189407E+02  0.00000000000E+00 0. -1.
</event>
<event>
 7    1  0.6293596E-013  0.5930195E+02  0.7816164E-02  0.1266605E+00
        -11   -1    0    0    0    0  0.00000000000E+00  0.00000000000E+00  0.45593999997E+02  0.45594000000E+02  0.51100000000E-03 0. -1.
         11   -1    0    0    0    0 -0.00000000000E+00 -0.00000000000E+00 -0.45593999997E+02  0.45594000000E+02  0.51100000000E-03 0.  1.
    9900012    2    1    2    0    0 -0.25871338350E+02 -0.50123654481E+01  0.17951880935E+02  0.59301953138E+02  0.50000016614E+02 0.  0.
        -12    1    1    2    0    0  0.25871338350E+02  0.50123654481E+01 -0.17951880935E+02  0.31886046862E+02  0.00000000000E+00 0.  1.
         11    1    3    3    0    0 -0.33323821284E+00 -0.11094414691E+02 -0.50859272706E+01  0.12209166290E+02  0.51100000000E-03 0.  1.
        -11    1    3    3    0    0 -0.25448940427E+02  0.30670403317E+01  0.30027250680E+02  0.39480262017E+02  0.51100000000E-03 0. -1.
         12    1    3    3    0    0 -0.89159709718E-01  0.30150089110E+01 -0.69894424746E+01  0.76125248303E+01  0.00000000000E+00 0. -1.
</event>
<event>
 7    1  0.6293596E-013  0.5930193E+02  0.7816164E-02  0.1266605E+00
        -11   -1    0    0    0    0  0.00000000000E+00  0.00000000000E+00  0.45593999997E+02  0.45594000000E+02  0.51100000000E-03 0.  1.
         11   -1    0    0    0    0 -0.00000000000E+00 -0.00000000000E+00 -0.45593999997E+02  0.45594000000E+02  0.51100000000E-03 0. -1.
    9900012    2    1    2    0    0  0.98208736463E+01 -0.29770794836E+02 -0.58285360374E+01  0.59301927543E+02  0.49999969937E+02 0.  0.
        -12    1    1    2    0    0 -0.98208736463E+01  0.29770794836E+02  0.58285360374E+01  0.31886072457E+02  0.00000000000E+00 0.  1.
         11    1    3    3    0    0  0.77420829938E+01 -0.75878047250E+01 -0.22922793154E+02  0.25356834894E+02  0.51100000000E-03 0. -1.
        -11    1    3    3    0    0 -0.50151399803E+01 -0.21134470076E+02  0.10198140007E+02  0.23996239586E+02  0.51100000000E-03 0.  1.
         12    1    3    3    0    0  0.70939306328E+01 -0.10485200353E+01  0.68961171090E+01  0.99488530629E+01  0.00000000000E+00 0. -1.
</event>
<event>
 7    1  0.6293596E-013  0.5930187E+02  0.7816164E-02  0.1266605E+00
        -11   -1    0    0    0    0  0.00000000000E+00  0.00000000000E+00  0.45593999997E+02  0.45594000000E+02  0.51100000000E-03 0. -1.
         11   -1    0    0    0    0 -0.00000000000E+00 -0.00000000000E+00 -0.45593999997E+02  0.45594000000E+02  0.51100000000E-03 0.  1.
    9900012    2    1    2    0    0  0.24558270528E+02 -0.19402509993E+02  0.60958386064E+01  0.59301869886E+02  0.49999864782E+02 0.  0.
        -12    1    1    2    0    0 -0.24558270528E+02  0.19402509993E+02 -0.60958386064E+01  0.31886130114E+02  0.00000000000E+00 0.  1.
         11    1    3    3    0    0  0.16045526143E+01 -0.30060337174E+02  0.98019586250E+01  0.31658756344E+02  0.51100000000E-03 0. -1.
        -11    1    3    3    0    0  0.11999022752E+02  0.41570642466E+01 -0.69802328299E+01  0.14490734307E+02  0.51100000000E-03 0.  1.
         12    1    3    3    0    0  0.10954695162E+02  0.65007629341E+01  0.32741128114E+01  0.13152379234E+02  0.00000000000E+00 0. -1.
</event>
<event>
 7    1  0.6293596E-013  0.5930196E+02  0.7816164E-02  0.1266605E+00
        -11   -1    0    0    0    0  0.00000000000E+00  0.00000000000E+00  0.45593999997E+02  0.45594000000E+02  0.51100000000E-03 0. -1.
         11   -1    0    0    0    0 -0.00000000000E+00 -0.00000000000E+00 -0.45593999997E+02  0.45594000000E+02  0.51100000000E-03 0.  1.
    9900012    2    1    2    0    0 -0.14258669085E+02  0.99180294101E+00  0.28503095719E+02  0.59301956302E+02  0.50000022386E+02 0.  0.
        -12    1    1    2    0    0  0.14258669085E+02 -0.99180294101E+00 -0.28503095719E+02  0.31886043698E+02  0.00000000000E+00 0.  1.
         11    1    3    3    0    0 -0.12251458716E+02  0.12961666275E+02  0.16037717531E+02  0.23985650234E+02  0.51100000000E-03 0. -1.
        -11    1    3    3    0    0 -0.19583320219E+01 -0.41617805575E+01 -0.10283201374E+02  0.11264977252E+02  0.51100000000E-03 0.  1.
        -12    1    3    3    0    0 -0.48878346862E-01 -0.78080827765E+01  0.22748579562E+02  0.24051328817E+02  0.00000000000E+00 0.  1.
</event>
<event>
 7    1  0.6293596E-013  0.5930195E+02  0.7816164E-02  0.1266605E+00
        -11   -1    0    0    0    0  0.00000000000E+00  0.00000000000E+00  0.45593999997E+02  0.45594000000E+02  0.51100000000E-03 0.  1.
         11   -1    0    0    0    0 -0.00000000000E+00 -0.00000000000E+00 -0.45593999997E+02  0.45594000000E+02  0.51100000000E-03 0. -1.
    9900012    2    1    2    0    0  0.13749660655E+02 -0.14300541575E+01 -0.28733641821E+02  0.59301946695E+02  0.50000004865E+02 0.  0.
        -12    1    1    2    0    0 -0.13749660655E+02  0.14300541575E+01  0.28733641821E+02  0.31886053305E+02  0.00000000000E+00 0.  1.
         11    1    3    3    0    0  0.64368394366E+01 -0.80850436602E+01 -0.21332196339E+02  0.23703658659E+02  0.51100000000E-03 0. -1.
        -11    1    3    3    0    0  0.18031683461E+01  0.20024189071E+02 -0.21740437882E+01  0.20222414066E+02  0.51100000000E-03 0.  1.
        -12    1    3    3    0    0  0.55096528727E+01 -0.13369199568E+02 -0.52274016947E+01  0.15375873970E+02  0.00000000000E+00 0.  1.
</event>
<event>
 7    1  0.6293596E-013  0.5930195E+02  0.7816164E-02  0.1266605E+00
        -11   -1    0    0    0    0  0.00000000000E+00  0.00000000000E+00  0.45593999997E+02  0.45594000000E+02  0.51100000000E-03 0. -1.
         11   -1    0    0    0    0 -0.00000000000E+00 -0.00000000000E+00 -0.45593999997E+02  0.45594000000E+02  0.51100000000E-03 0.  1.
    9900012    2    1    2    0    0 -0.11284351091E+02 -0.24817863757E+02  0.16536533837E+02  0.59301954583E+02  0.50000019250E+02 0.  0.
        -12    1    1    2    0    0  0.11284351091E+02  0.24817863757E+02 -0.16536533837E+02  0.31886045417E+02  0.00000000000E+00 0.  1.
         11    1    3    3    0    0  0.47748138291E+01  0.30052073253E+01 -0.32567351947E+01  0.65143259482E+01  0.51100000000E-03 0.  1.
        -11    1    3    3    0    0 -0.21704926393E+02 -0.19317110825E+02 -0.15824086153E+01  0.29099117129E+02  0.51100000000E-03 0. -1.
        -12    1    3    3    0    0  0.56457614729E+01 -0.85059602571E+01  0.21375677647E+02  0.23688511506E+02  0.00000000000E+00 0.  1.
</event>
<event>
 7    1  0.6293596E-013  0.5930195E+02  0.7816164E-02  0.1266605E+00
        -11   -1    0    0    0    0  0.00000000000E+00  0.00000000000E+00  0.45593999997E+02  0.45594000000E+02  0.51100000000E-03 0.  1.
         11   -1    0    0    0    0 -0.00000000000E+00 -0.00000000000E+00 -0.45593999997E+02  0.45594000000E+02  0.51100000000E-03 0. -1.
    9900012    2    1    2    0    0 -0.15182249173E+02 -0.25922784460E+02 -0.10687788844E+02  0.59301948591E+02  0.50000008321E+02 0.  0.
        -12    1    1    2    0    0  0.15182249173E+02  0.25922784460E+02  0.10687788844E+02  0.31886051409E+02  0.00000000000E+00 0.  1.
         11    1    3    3    0    0  0.10553409175E+02 -0.15760940289E+02 -0.75192969620E+01  0.20403958221E+02  0.51100000000E-03 0. -1.
        -11    1    3    3    0    0 -0.17822428937E+02 -0.13584398147E+02  0.88613185178E+01  0.24097672343E+02  0.51100000000E-03 0.  1.
        -12    1    3    3    0    0 -0.79132294110E+01  0.34225539758E+01 -0.12029810400E+02  0.14800318026E+02  0.00000000000E+00 0.  1.
</event>
<event>
 7    1  0.6293596E-013  0.5930194E+02  0.7816164E-02  0.1266605E+00
        -11   -1    0    0    0    0  0.00000000000E+00  0.00000000000E+00  0.45593999997E+02  0.45594000000E+02  0.51100000000E-03 0.  1.
         11   -1    0    0    0    0 -0.00000000000E+00 -0.00000000000E+00 -0.45593999997E+02  0.45594000000E+02  0.51100000000E-03 0. -1.
    9900012    2    1    2    0    0  0.14794716522E+02 -0.25401807157E+02 -0.12352550718E+02  0.59301937949E+02  0.49999988915E+02 0.  0.
        -12    1    1    2    0    0 -0.14794716522E+02  0.25401807157E+02  0.12352550718E+02  0.31886062051E+02  0.00000000000E+00 0.  1.
         11    1    3    3    0    0  0.17471289337E+00 -0.53442025462E+01 -0.22835525000E+02  0.23453192272E+02  0.51100000000E-03 0. -1.
        -11    1    3    3    0    0  0.34194194116E+01  0.94532878151E+00  0.11489357644E+02  0.12024617039E+02  0.51100000000E-03 0.  1.
         12    1    3    3    0    0  0.11200584217E+02 -0.21002933393E+02 -0.10063833620E+01  0.23824128639E+02  0.00000000000E+00 0. -1.
</event>
<event>
 7    1  0.6293596E-013  0.5930195E+02  0.7816164E-02  0.1266605E+00
        -11   -1    0    0    0    0  0.00000000000E+00  0.00000000000E+00  0.45593999997E+02  0.45594000000E+02  0.51100000000E-03 0.  1.
         11   -1    0    0    0    0 -0.00000000000E+00 -0.00000000000E+00 -0.45593999997E+02  0.45594000000E+02  0.51100000000E-03 0. -1.
    9900012    2    1    2    0    0 -0.24039319940E+02  0.20125281712E+02 -0.58141676905E+01  0.59301946417E+02  0.50000004357E+02 0.  0.
        -12    1    1    2    0    0  0.24039319940E+02 -0.20125281712E+02  0.58141676905E+01  0.31886053583E+02  0.00000000000E+00 0.  1.
         11    1    3    3    0    0 -0.20956727686E+02  0.42980527021E+01 -0.24770696023E+02  0.32729880446E+02  0.51100000000E-03 0. -1.
        -11    1    3    3    0    0 -0.64257990211E+01  0.10030280149E+02  0.11595228057E+02  0.16623679703E+02  0.51100000000E-03 0.  1.
         12    1    3    3    0    0  0.33432067665E+01  0.57969488611E+01  0.73613002753E+01  0.99483862674E+01  0.00000000000E+00 0. -1.
</event>
<event>
 7    1  0.6293596E-013  0.5930196E+02  0.7816164E-02  0.1266605E+00
        -11   -1    0    0    0    0  0.00000000000E+00  0.00000000000E+00  0.45593999997E+02  0.45594000000E+02  0.51100000000E-03 0.  1.
         11   -1    0    0    0    0 -0.00000000000E+00 -0.00000000000E+00 -0.45593999997E+02  0.45594000000E+02  0.51100000000E-03 0. -1.
    9900012    2    1    2    0    0 -0.30355700230E+02  0.41847380719E+01  0.88169600580E+01  0.59301963027E+02  0.50000034650E+02 0.  0.
        -12    1    1    2    0    0  0.30355700230E+02 -0.41847380719E+01 -0.88169600580E+01  0.31886036973E+02  0.00000000000E+00 0.  1.
         11    1    3    3    0    0  0.56585366868E+01  0.92814864625E+01 -0.24850156057E+01  0.11150799577E+02  0.51100000000E-03 0. -1.
        -11    1    3    3    0    0 -0.41099272339E+01 -0.10190899726E+02  0.11412272023E+02  0.15842534270E+02  0.51100000000E-03 0.  1.
         12    1    3    3    0    0 -0.31904309683E+02  0.50941513358E+01 -0.11029635920E+00  0.32308629180E+02  0.00000000000E+00 0. -1.
</event>
<event>
 7    1  0.6293596E-013  0.5930196E+02  0.7816164E-02  0.1266605E+00
        -11   -1    0    0    0    0  0.00000000000E+00  0.00000000000E+00  0.45593999997E+02  0.45594000000E+02  0.51100000000E-03 0.  1.
         11   -1    0    0    0    0 -0.00000000000E+00 -0.00000000000E+00 -0.45593999997E+02  0.45594000000E+02  0.51100000000E-03 0. -1.
    9900012    2    1    2    0    0  0.17076250235E+02 -0.19600068877E+02 -0.18465055690E+02  0.59301963813E+02  0.50000036084E+02 0.  0.
        -12    1    1    2    0    0 -0.17076250235E+02  0.19600068877E+02  0.18465055690E+02  0.31886036187E+02  0.00000000000E+00 0.  1.
         11    1    3    3    0    0 -0.76925822787E+01 -0.20764035224E+02  0.28009981199E+00  0.22144964146E+02  0.51100000000E-03 0. -1.
        -11    1    3    3    0    0  0.83855983753E+00  0.48333832504E+01 -0.10486446781E+02  0.11577147429E+02  0.51100000000E-03 0.  1.
         12    1    3    3    0    0  0.23930272676E+02 -0.36694169039E+01 -0.82587087207E+01  0.25579852238E+02  0.00000000000E+00 0. -1.
</event>
<event>
 7    1  0.6293596E-013  0.5930193E+02  0.7816164E-02  0.1266605E+00
        -11   -1    0    0    0    0  0.00000000000E+00  0.00000000000E+00  0.45593999997E+02  0.45594000000E+02  0.51100000000E-03 0.  1.
         11   -1    0    0    0    0 -0.00000000000E+00 -0.00000000000E+00 -0.45593999997E+02  0.45594000000E+02  0.51100000000E-03 0. -1.
    9900012    2    1    2    0    0 -0.26353565219E+02 -0.62717744361E+01 -0.16818906739E+02  0.59301934419E+02  0.49999982476E+02 0.  0.
        -12    1    1    2    0    0  0.26353565219E+02  0.62717744361E+01  0.16818906739E+02  0.31886065581E+02  0.00000000000E+00 0.  1.
         11    1    3    3    0    0  0.76610417857E+01  0.49240215611E+01 -0.58092452701E+01  0.10802077599E+02  0.51100000000E-03 0. -1.
        -11    1    3    3    0    0 -0.29666559522E+02 -0.37584026578E+01  0.50005472222E+01  0.30318901979E+02  0.51100000000E-03 0.  1.
        -12    1    3    3    0    0 -0.43480474825E+01 -0.74373933395E+01 -0.16010208691E+02  0.18180954841E+02  0.00000000000E+00 0.  1.
</event>
<event>
 7    1  0.6293596E-013  0.5930196E+02  0.7816164E-02  0.1266605E+00
        -11   -1    0    0    0    0  0.00000000000E+00  0.00000000000E+00  0.45593999997E+02  0.45594000000E+02  0.51100000000E-03 0. -1.
         11   -1    0    0    0    0 -0.00000000000E+00 -0.00000000000E+00 -0.45593999997E+02  0.45594000000E+02  0.51100000000E-03 0.  1.
    9900012    2    1    2    0    0 -0.26426712070E+02 -0.13963872542E+02  0.11106703410E+02  0.59301957476E+02  0.50000024526E+02 0.  0.
        -12    1    1    2    0    0  0.26426712070E+02  0.13963872542E+02 -0.11106703410E+02  0.31886042524E+02  0.00000000000E+00 0.  1.
         11    1    3    3    0    0 -0.21792408130E+01 -0.17958217834E+02 -0.11742353652E+02  0.21566862262E+02  0.51100000000E-03 0. -1.
        -11    1    3    3    0    0 -0.77588536926E+01  0.98383854130E+01  0.99553279620E+01  0.16003193220E+02  0.51100000000E-03 0.  1.
         12    1    3    3    0    0 -0.16488617565E+02 -0.58440401213E+01  0.12893729100E+02  0.21731901993E+02  0.00000000000E+00 0. -1.
</event>
<event>
 7    1  0.6293596E-013  0.5930192E+02  0.7816164E-02  0.1266605E+00
        -11   -1    0    0    0    0  0.00000000000E+00  0.00000000000E+00  0.45593999997E+02  0.45594000000E+02  0.51100000000E-03 0.  1.
         11   -1    0    0    0    0 -0.00000000000E+00 -0.00000000000E+00 -0.45593999997E+02  0.45594000000E+02  0.51100000000E-03 0. -1.
    9900012    2    1    2    0    0  0.22788403757E+02 -0.21683650123E+02 -0.52182571570E+01  0.59301917829E+02  0.49999952220E+02 0.  0.
        -12    1    1    2    0    0 -0.22788403757E+02  0.21683650123E+02  0.52182571570E+01  0.31886082171E+02  0.00000000000E+00 0.  1.
         11    1    3    3    0    0 -0.95089709691E+01 -0.11789610287E+02  0.27369635861E+01  0.15391764341E+02  0.51100000000E-03 0. -1.
        -11    1    3    3    0    0  0.11778588867E+02 -0.42226581779E+01 -0.16723971289E+02  0.20886771261E+02  0.51100000000E-03 0.  1.
        -12    1    3    3    0    0  0.20518785859E+02 -0.56713816581E+01  0.87687505456E+01  0.23023382227E+02  0.00000000000E+00 0.  1.
</event>
<event>
 7    1  0.6293596E-013  0.5930194E+02  0.7816164E-02  0.1266605E+00
        -11   -1    0    0    0    0  0.00000000000E+00  0.00000000000E+00  0.45593999997E+02  0.45594000000E+02  0.51100000000E-03 0.  1.
         11   -1    0    0    0    0 -0.00000000000E+00 -0.00000000000E+00 -0.45593999997E+02  0.45594000000E+02  0.51100000000E-03 0. -1.
    9900012    2    1    2    0    0 -0.19556741256E+02 -0.23089208683E+02 -0.10056982284E+02  0.59301943818E+02  0.49999999618E+02 0.  0.
        -12    1    1    2    0    0  0.19556741256E+02  0.23089208683E+02  0.10056982284E+02  0.31886056182E+02  0.00000000000E+00 0.  1.
         11    1    3    3    0    0  0.22125473705E+01  0.40772956723E+01  0.10731694597E+02  0.11691406034E+02  0.51100000000E-03 0. -1.
        -11    1    3    3    0    0 -0.77746467864E+01 -0.11603071974E+02  0.46016876552E+01  0.14705507180E+02  0.51100000000E-03 0.  1.
         12    1    3    3    0    0 -0.13994641840E+02 -0.15563432381E+02 -0.25390364537E+02  0.32905030604E+02  0.00000000000E+00 0. -1.
</event>
<event>
 7    1  0.6293596E-013  0.5930195E+02  0.7816164E-02  0.1266605E+00
        -11   -1    0    0    0    0  0.00000000000E+00  0.00000000000E+00  0.45593999997E+02  0.45594000000E+02  0.51100000000E-03 0.  1.
         11   -1    0    0    0    0 -0.00000000000E+00 -0.00000000000E+00 -0.45593999997E+02  0.45594000000E+02  0.51100000000E-03 0. -1.
    9900012    2    1    2    0    0 -0.11565071495E+02 -0.26036009045E+01 -0.29600511101E+02  0.59301954874E+02  0.50000019781E+02 0.  0.
        -12    1    1    2    0    0  0.11565071495E+02  0.26036009045E+01  0.29600511101E+02  0.31886045126E+02  0.00000000000E+00 0.  1.
         11    1    3    3    0    0 -0.18763893618E+02  0.11272039707E+02 -0.14290931586E+02  0.26141409846E+02  0.51100000000E-03 0. -1.
        -11    1    3    3    0    0  0.10423798383E+02 -0.42419586697E+01  0.34976295842E+01  0.11784871618E+02  0.51100000000E-03 0.  1.
         12    1    3    3    0    0 -0.32249762595E+01 -0.96336819419E+01 -0.18807209099E+02  0.21375673410E+02  0.00000000000E+00 0. -1.
</event>
<event>
 7    1  0.6293596E-013  0.5930197E+02  0.7816164E-02  0.1266605E+00
        -11   -1    0    0    0    0  0.00000000000E+00  0.00000000000E+00  0.45593999997E+02  0.45594000000E+02  0.51100000000E-03 0. -1.
         11   -1    0    0    0    0 -0.00000000000E+00 -0.00000000000E+00 -0.45593999997E+02  0.45594000000E+02  0.51100000000E-03 0.  1.
    9900012    2    1    2    0    0 -0.23122975571E+02 -0.16932479367E+02  0.13976329526E+02  0.59301974161E+02  0.50000054956E+02 0.  0.
        -12    1    1    2    0    0  0.23122975571E+02  0.16932479367E+02 -0.13976329526E+02  0.31886025839E+02  0.00000000000E+00 0.  1.
         11    1    3    3    0    0  0.24109414957E+01 -0.19559368227E+02  0.13944296526E+02  0.24141767338E+02  0.51100000000E-03 0. -1.
        -11    1    3    3    0    0 -0.26807334704E+02  0.81948184356E+01  0.38426128921E+01  0.28294061518E+02  0.51100000000E-03 0.  1.
         12    1    3    3    0    0  0.12734176365E+01 -0.55679295753E+01 -0.38105798924E+01  0.68661453050E+01  0.00000000000E+00 0. -1.
</event>
<event>
 7    1  0.6293596E-013  0.5930195E+02  0.7816164E-02  0.1266605E+00
        -11   -1    0    0    0    0  0.00000000000E+00  0.00000000000E+00  0.45593999997E+02  0.45594000000E+02  0.51100000000E-03 0.  1.
         11   -1    0    0    0    0 -0.00000000000E+00 -0.00000000000E+00 -0.45593999997E+02  0.45594000000E+02  0.51100000000E-03 0. -1.
    9900012    2    1    2    0    0 -0.26433721715E+02  0.15276286461E+02  0.91985579074E+01  0.59301952278E+02  0.50000015047E+02 0.  0.
        -12    1    1    2    0    0  0.26433721715E+02 -0.15276286461E+02 -0.91985579074E+01  0.31886047722E+02  0.00000000000E+00 0.  1.
         11    1    3    3    0    0 -0.60223456264E+01 -0.69949081568E+01 -0.70815843197E+01  0.11633839594E+02  0.51100000000E-03 0. -1.
        -11    1    3    3    0    0  0.36613038283E+01  0.15250161285E+02  0.16261794396E+02  0.22592443918E+02  0.51100000000E-03 0.  1.
         12    1    3    3    0    0 -0.24072679917E+02  0.70210333326E+01  0.18347831367E-01  0.25075668766E+02  0.00000000000E+00 0. -1.
</event>
<event>
 7    1  0.6293596E-013  0.5930192E+02  0.7816164E-02  0.1266605E+00
        -11   -1    0    0    0    0  0.00000000000E+00  0.00000000000E+00  0.45593999997E+02  0.45594000000E+02  0.51100000000E-03 0. -1.
         11   -1    0    0    0    0 -0.00000000000E+00 -0.00000000000E+00 -0.45593999997E+02  0.45594000000E+02  0.51100000000E-03 0.  1.
    9900012    2    1    2    0    0 -0.54769596558E+01 -0.21764406243E+02  0.22650286293E+02  0.59301922547E+02  0.49999960825E+02 0.  0.
        -12    1    1    2    0    0  0.54769596558E+01  0.21764406243E+02 -0.22650286293E+02  0.31886077453E+02  0.00000000000E+00 0.  1.
         11    1    3    3    0    0  0.17740136444E+02 -0.29569662328E+00  0.93649532560E+01  0.20062458157E+02  0.51100000000E-03 0. -1.
        -11    1    3    3    0    0 -0.92728532697E+01 -0.82892190718E+01 -0.43525460111E+01  0.13177314507E+02  0.51100000000E-03 0.  1.
         12    1    3    3    0    0 -0.13944242830E+02 -0.13179490548E+02  0.17637879048E+02  0.26062149883E+02  0.00000000000E+00 0. -1.
</event>
<event>
 7    1  0.6293596E-013  0.5930195E+02  0.7816164E-02  0.1266605E+00
        -11   -1    0    0    0    0  0.00000000000E+00  0.00000000000E+00  0.45593999997E+02  0.45594000000E+02  0.51100000000E-03 0.  1.
         11   -1    0    0    0    0 -0.00000000000E+00 -0.00000000000E+00 -0.45593999997E+02  0.45594000000E+02  0.51100000000E-03 0. -1.
    9900012    2    1    2    0    0  0.24634026410E+02  0.61680608289E+01 -0.19283159189E+02  0.59301945683E+02  0.50000003020E+02 0.  0.
        -12    1    1    2    0    0 -0.24634026410E+02 -0.61680608289E+01  0.19283159189E+02  0.31886054317E+02  0.00000000000E+00 0.  1.
         11    1    3    3    0    0  0.25112333925E+02 -0.99453675538E+01 -0.11521384542E+02  0.29364637797E+02  0.51100000000E-03 0. -1.
        -11    1    3    3    0    0 -0.11622410979E+02  0.36612242687E+01 -0.27603349423E+01  0.12494176618E+02  0.51100000000E-03 0.  1.
        -12    1    3    3    0    0  0.11144103464E+02  0.12452204114E+02 -0.50014397044E+01  0.17443131268E+02  0.00000000000E+00 0.  1.
</event>
<event>
 7    1  0.6293596E-013  0.5930196E+02  0.7816164E-02  0.1266605E+00
        -11   -1    0    0    0    0  0.00000000000E+00  0.00000000000E+00  0.45593999997E+02  0.45594000000E+02  0.51100000000E-03 0.  1.
         11   -1    0    0    0    0 -0.00000000000E+00 -0.00000000000E+00 -0.45593999997E+02  0.45594000000E+02  0.51100000000E-03 0. -1.
    9900012    2    1    2    0    0  0.15439616519E+02 -0.73086792080E+01 -0.26924359098E+02  0.59301958181E+02  0.50000025812E+02 0.  0.
        -12    1    1    2    0    0 -0.15439616519E+02  0.73086792080E+01  0.26924359098E+02  0.31886041819E+02  0.00000000000E+00 0.  1.
         11    1    3    3    0    0  0.20127159152E+02 -0.66759048147E+00 -0.33882534488E+02  0.39415407598E+02  0.51100000000E-03 0. -1.
        -11    1    3    3    0    0  0.56511399254E+01 -0.59858190677E+01  0.24510801190E+01  0.85891330400E+01  0.51100000000E-03 0.  1.
         12    1    3    3    0    0 -0.10338682558E+02 -0.65526965883E+00  0.45070952709E+01  0.11297417543E+02  0.00000000000E+00 0. -1.
</event>
<event>
 7    1  0.6293596E-013  0.5930195E+02  0.7816164E-02  0.1266605E+00
        -11   -1    0    0    0    0  0.00000000000E+00  0.00000000000E+00  0.45593999997E+02  0.45594000000E+02  0.51100000000E-03 0. -1.
         11   -1    0    0    0    0 -0.00000000000E+00 -0.00000000000E+00 -0.45593999997E+02  0.45594000000E+02  0.51100000000E-03 0.  1.
    9900012    2    1    2    0    0 -0.27279304770E+02  0.38452853239E+01  0.16055327673E+02  0.59301949216E+02  0.50000009461E+02 0.  0.
        -12    1    1    2    0    0  0.27279304770E+02 -0.38452853239E+01 -0.16055327673E+02  0.31886050784E+02  0.00000000000E+00 0.  1.
         11    1    3    3    0    0 -0.11044764585E+02 -0.17868111299E+01  0.19467656180E+02  0.22453711412E+02  0.51100000000E-03 0. -1.
        -11    1    3    3    0    0 -0.86095022203E+01 -0.17846406167E+01 -0.17269589432E+02  0.19379039967E+02  0.51100000000E-03 0.  1.
        -12    1    3    3    0    0 -0.76250379643E+01  0.74167370704E+01  0.13857260925E+02  0.17469197837E+02  0.00000000000E+00 0.  1.
</event>
<event>
 7    1  0.6293596E-013  0.5930201E+02  0.7816164E-02  0.1266605E+00
        -11   -1    0    0    0    0  0.00000000000E+00  0.00000000000E+00  0.45593999997E+02  0.45594000000E+02  0.51100000000E-03 0.  1.
         11   -1    0    0    0    0 -0.00000000000E+00 -0.00000000000E+00 -0.45593999997E+02  0.45594000000E+02  0.51100000000E-03 0. -1.
    9900012    2    1    2    0    0  0.12889684840E+02  0.23070829011E+02  0.17841223443E+02  0.59302009652E+02  0.50000119683E+02 0.  0.
        -12    1    1    2    0    0 -0.12889684840E+02 -0.23070829011E+02 -0.17841223443E+02  0.31885990348E+02  0.00000000000E+00 0.  1.
         11    1    3    3    0    0 -0.54875586989E+01  0.46549174058E+01 -0.13919585362E+02  0.15669601573E+02  0.51100000000E-03 0. -1.
        -11    1    3    3    0    0 -0.16355063957E+01  0.53112680847E+01  0.92122672065E+01  0.10758732136E+02  0.51100000000E-03 0.  1.
         12    1    3    3    0    0  0.20012749935E+02  0.13104643520E+02  0.22548541599E+02  0.32873675943E+02  0.00000000000E+00 0. -1.
</event>
<event>
 7    1  0.6293596E-013  0.5930194E+02  0.7816164E-02  0.1266605E+00
        -11   -1    0    0    0    0  0.00000000000E+00  0.00000000000E+00  0.45593999997E+02  0.45594000000E+02  0.51100000000E-03 0.  1.
         11   -1    0    0    0    0 -0.00000000000E+00 -0.00000000000E+00 -0.45593999997E+02  0.45594000000E+02  0.51100000000E-03 0. -1.
    9900012    2    1    2    0    0  0.97484934219E+01  0.30176133001E+02  0.33299562060E+01  0.59301941366E+02  0.49999995146E+02 0.  0.
        -12    1    1    2    0    0 -0.97484934219E+01 -0.30176133001E+02 -0.33299562060E+01  0.31886058634E+02  0.00000000000E+00 0.  1.
         11    1    3    3    0    0  0.11341962449E+02  0.42744317282E+02 -0.14737882846E+01  0.44248037519E+02  0.51100000000E-03 0. -1.
        -11    1    3    3    0    0 -0.20930151596E+00 -0.37234844816E+01  0.48291130885E+01  0.61015143441E+01  0.51100000000E-03 0.  1.
         12    1    3    3    0    0 -0.13841675116E+01 -0.88446997998E+01 -0.25368597801E-01  0.89523895031E+01  0.00000000000E+00 0. -1.
</event>
<event>
 7    1  0.6293596E-013  0.5930195E+02  0.7816164E-02  0.1266605E+00
        -11   -1    0    0    0    0  0.00000000000E+00  0.00000000000E+00  0.45593999997E+02  0.45594000000E+02  0.51100000000E-03 0.  1.
         11   -1    0    0    0    0 -0.00000000000E+00 -0.00000000000E+00 -0.45593999997E+02  0.45594000000E+02  0.51100000000E-03 0. -1.
    9900012    2    1    2    0    0 -0.39327251847E+01  0.24929421229E+02 -0.19487895370E+02  0.59301946056E+02  0.50000003699E+02 0.  0.
        -12    1    1    2    0    0  0.39327251847E+01 -0.24929421229E+02  0.19487895370E+02  0.31886053944E+02  0.00000000000E+00 0.  1.
         11    1    3    3    0    0  0.11915567717E+02  0.82135699443E+01 -0.21389650486E+02  0.25825580989E+02  0.51100000000E-03 0. -1.
        -11    1    3    3    0    0 -0.19114182163E+02  0.11206460738E+02 -0.63328032046E+01  0.23044329426E+02  0.51100000000E-03 0.  1.
        -12    1    3    3    0    0  0.32658892605E+01  0.55093905465E+01  0.82345583208E+01  0.10432035640E+02  0.00000000000E+00 0.  1.
</event>
<event>
 7    1  0.6293596E-013  0.5930192E+02  0.7816164E-02  0.1266605E+00
        -11   -1    0    0    0    0  0.00000000000E+00  0.00000000000E+00  0.45593999997E+02  0.45594000000E+02  0.51100000000E-03 0. -1.
         11   -1    0    0    0    0 -0.00000000000E+00 -0.00000000000E+00 -0.45593999997E+02  0.45594000000E+02  0.51100000000E-03 0.  1.
    9900012    2    1    2    0    0 -0.32324171728E+01  0.18610824442E+02  0.25688729748E+02  0.59301919286E+02  0.49999954877E+02 0.  0.
        -12    1    1    2    0    0  0.32324171728E+01 -0.18610824442E+02 -0.25688729748E+02  0.31886080714E+02  0.00000000000E+00 0.  1.
         11    1    3    3    0    0  0.57954703763E+01  0.78656852241E+00  0.12822203937E+02  0.14093086283E+02  0.51100000000E-03 0. -1.
        -11    1    3    3    0    0 -0.63494476639E+01  0.11218643445E+02 -0.13042042527E+02  0.18337620345E+02  0.51100000000E-03 0.  1.
        -12    1    3    3    0    0 -0.26784398852E+01  0.66056124747E+01  0.25908568338E+02  0.26871212658E+02  0.00000000000E+00 0.  1.
</event>
<event>
 7    1  0.6293596E-013  0.5930195E+02  0.7816164E-02  0.1266605E+00
        -11   -1    0    0    0    0  0.00000000000E+00  0.00000000000E+00  0.45593999997E+02  0.45594000000E+02  0.51100000000E-03 0.  1.
         11   -1    0    0    0    0 -0.00000000000E+00 -0.00000000000E+00 -0.45593999997E+02  0.45594000000E+02  0.51100000000E-03 0. -1.
    9900012    2    1    2    0    0  0.29352044751E+02 -0.37859674441E+01  0.11867786608E+02  0.59301946003E+02  0.50000003602E+02 0.  0.
        -12    1    1    2    0    0 -0.29352044751E+02  0.37859674441E+01 -0.11867786608E+02  0.31886053997E+02  0.00000000000E+00 0.  1.
         11    1    3    3    0    0  0.15044140822E+01  0.22829859432E+01 -0.97278459592E+01  0.10104764906E+02  0.51100000000E-03 0. -1.
        -11    1    3    3    0    0  0.34137691945E+02 -0.83197762886E+01  0.23474944235E+02  0.42257232469E+02  0.51100000000E-03 0.  1.
         12    1    3    3    0    0 -0.62900612768E+01  0.22508229012E+01 -0.18793116680E+01  0.69399486269E+01  0.00000000000E+00 0. -1.
</event>
<event>
 7    1  0.6293596E-013  0.5930195E+02  0.7816164E-02  0.1266605E+00
        -11   -1    0    0    0    0  0.00000000000E+00  0.00000000000E+00  0.45593999997E+02  0.45594000000E+02  0.51100000000E-03 0. -1.
         11   -1    0    0    0    0 -0.00000000000E+00 -0.00000000000E+00 -0.45593999997E+02  0.45594000000E+02  0.51100000000E-03 0.  1.
    9900012    2    1    2    0    0 -0.23227901041E+02 -0.16203325483E+02  0.14650494594E+02  0.59301950773E+02  0.50000012302E+02 0.  0.
        -12    1    1    2    0    0  0.23227901041E+02  0.16203325483E+02 -0.14650494594E+02  0.31886049227E+02  0.00000000000E+00 0.  1.
         11    1    3    3    0    0 -0.10401242808E+02  0.12408013879E+02  0.17762167012E+02  0.24034126520E+02  0.51100000000E-03 0. -1.
        -11    1    3    3    0    0 -0.10407277690E+02 -0.17890173005E+02 -0.92600777115E+01  0.22674187054E+02  0.51100000000E-03 0.  1.
         12    1    3    3    0    0 -0.24193805433E+01 -0.10721166356E+02  0.61484052935E+01  0.12593637199E+02  0.00000000000E+00 0. -1.
</event>
<event>
 7    1  0.6293596E-013  0.5930195E+02  0.7816164E-02  0.1266605E+00
        -11   -1    0    0    0    0  0.00000000000E+00  0.00000000000E+00  0.45593999997E+02  0.45594000000E+02  0.51100000000E-03 0. -1.
         11   -1    0    0    0    0 -0.00000000000E+00 -0.00000000000E+00 -0.45593999997E+02  0.45594000000E+02  0.51100000000E-03 0.  1.
    9900012    2    1    2    0    0 -0.48768725766E+01  0.14994714977E+02  0.27714519951E+02  0.59301953216E+02  0.50000016757E+02 0.  0.
        -12    1    1    2    0    0  0.48768725766E+01 -0.14994714977E+02 -0.27714519951E+02  0.31886046784E+02  0.00000000000E+00 0.  1.
         11    1    3    3    0    0 -0.93569917007E+01  0.18713085424E+02  0.35297940078E+02  0.41032638640E+02  0.51100000000E-03 0. -1.
        -11    1    3    3    0    0  0.60531986914E+01 -0.46350029138E+01  0.24995941308E+01  0.80232435765E+01  0.51100000000E-03 0.  1.
         12    1    3    3    0    0 -0.15730795673E+01  0.91663246677E+00 -0.10083014257E+02  0.10246070999E+02  0.00000000000E+00 0. -1.
</event>
<event>
 7    1  0.6293596E-013  0.5930194E+02  0.7816164E-02  0.1266605E+00
        -11   -1    0    0    0    0  0.00000000000E+00  0.00000000000E+00  0.45593999997E+02  0.45594000000E+02  0.51100000000E-03 0. -1.
         11   -1    0    0    0    0 -0.00000000000E+00 -0.00000000000E+00 -0.45593999997E+02  0.45594000000E+02  0.51100000000E-03 0.  1.
    9900012    2    1    2    0    0  0.21710171858E+02 -0.28447699669E+01  0.23179651254E+02  0.59301944889E+02  0.50000001571E+02 0.  0.
        -12    1    1    2    0    0 -0.21710171858E+02  0.28447699669E+01 -0.23179651254E+02  0.31886055111E+02  0.00000000000E+00 0.  1.
         11    1    3    3    0    0  0.14849272896E+02  0.37034134069E+01  0.64087011773E+01  0.16591793979E+02  0.51100000000E-03 0.  1.
        -11    1    3    3    0    0 -0.32903835547E+01 -0.95487595068E+01  0.26483526919E+02  0.28344005193E+02  0.51100000000E-03 0. -1.
        -12    1    3    3    0    0  0.10151282516E+02  0.30005761329E+01 -0.97125768415E+01  0.14366145717E+02  0.00000000000E+00 0.  1.
</event>
<event>
 7    1  0.6293596E-013  0.5930194E+02  0.7816164E-02  0.1266605E+00
        -11   -1    0    0    0    0  0.00000000000E+00  0.00000000000E+00  0.45593999997E+02  0.45594000000E+02  0.51100000000E-03 0. -1.
         11   -1    0    0    0    0 -0.00000000000E+00 -0.00000000000E+00 -0.45593999997E+02  0.45594000000E+02  0.51100000000E-03 0.  1.
    9900012    2    1    2    0    0  0.55383067305E+01 -0.29414588284E+02 -0.10992278697E+02  0.59301936645E+02  0.49999986535E+02 0.  0.
        -12    1    1    2    0    0 -0.55383067305E+01  0.29414588284E+02  0.10992278697E+02  0.31886063355E+02  0.00000000000E+00 0.  1.
         11    1    3    3    0    0 -0.12548746380E+02 -0.22287121119E+02 -0.12433042132E+02  0.28438835074E+02  0.51100000000E-03 0. -1.
        -11    1    3    3    0    0  0.55618634066E+01  0.60881673115E+01  0.80197830285E+01  0.11502913798E+02  0.51100000000E-03 0.  1.
        -12    1    3    3    0    0  0.12525189704E+02 -0.13215634477E+02 -0.65790195932E+01  0.19360187772E+02  0.00000000000E+00 0.  1.
</event>
<event>
 7    1  0.6293596E-013  0.5930196E+02  0.7816164E-02  0.1266605E+00
        -11   -1    0    0    0    0  0.00000000000E+00  0.00000000000E+00  0.45593999997E+02  0.45594000000E+02  0.51100000000E-03 0. -1.
         11   -1    0    0    0    0 -0.00000000000E+00 -0.00000000000E+00 -0.45593999997E+02  0.45594000000E+02  0.51100000000E-03 0.  1.
    9900012    2    1    2    0    0 -0.13345165657E+02  0.12047382329E+02  0.26334139061E+02  0.59301956854E+02  0.50000023392E+02 0.  0.
        -12    1    1    2    0    0  0.13345165657E+02 -0.12047382329E+02 -0.26334139061E+02  0.31886043146E+02  0.00000000000E+00 0.  1.
         11    1    3    3    0    0 -0.15346593248E+02  0.26108474293E+02  0.52090157916E+01  0.30729533026E+02  0.51100000000E-03 0. -1.
        -11    1    3    3    0    0 -0.38303298536E+01 -0.12185609199E+02  0.16653501582E+02  0.20988082656E+02  0.51100000000E-03 0.  1.
         12    1    3    3    0    0  0.58317574453E+01 -0.18754827644E+01  0.44716216874E+01  0.75843411722E+01  0.00000000000E+00 0. -1.
</event>
<event>
 7    1  0.6293596E-013  0.5930192E+02  0.7816164E-02  0.1266605E+00
        -11   -1    0    0    0    0  0.00000000000E+00  0.00000000000E+00  0.45593999997E+02  0.45594000000E+02  0.51100000000E-03 0. -1.
         11   -1    0    0    0    0 -0.00000000000E+00 -0.00000000000E+00 -0.45593999997E+02  0.45594000000E+02  0.51100000000E-03 0.  1.
    9900012    2    1    2    0    0  0.23411892101E+02 -0.17042632065E+02  0.13347448636E+02  0.59301915503E+02  0.49999947979E+02 0.  0.
        -12    1    1    2    0    0 -0.23411892101E+02  0.17042632065E+02 -0.13347448636E+02  0.31886084497E+02  0.00000000000E+00 0.  1.
         11    1    3    3    0    0  0.28527404500E+02 -0.99979229549E+01  0.14110530209E+01  0.30261565422E+02  0.51100000000E-03 0. -1.
        -11    1    3    3    0    0  0.30779817155E+01  0.72752323512E+01  0.95125699548E+01  0.12364949034E+02  0.51100000000E-03 0.  1.
         12    1    3    3    0    0 -0.81934941149E+01 -0.14319941461E+02  0.24238256605E+01  0.16675401047E+02  0.00000000000E+00 0. -1.
</event>
<event>
 7    1  0.6293596E-013  0.5930194E+02  0.7816164E-02  0.1266605E+00
        -11   -1    0    0    0    0  0.00000000000E+00  0.00000000000E+00  0.45593999997E+02  0.45594000000E+02  0.51100000000E-03 0.  1.
         11   -1    0    0    0    0 -0.00000000000E+00 -0.00000000000E+00 -0.45593999997E+02  0.45594000000E+02  0.51100000000E-03 0. -1.
    9900012    2    1    2    0    0  0.30174268582E+01  0.31643255077E+02 -0.25140417885E+01  0.59301939365E+02  0.49999991496E+02 0.  0.
        -12    1    1    2    0    0 -0.30174268582E+01 -0.31643255077E+02  0.25140417885E+01  0.31886060635E+02  0.00000000000E+00 0.  1.
         11    1    3    3    0    0  0.54772781192E+01 -0.10872223690E+02  0.18906890520E+01  0.12319924062E+02  0.51100000000E-03 0. -1.
        -11    1    3    3    0    0 -0.97876588604E+01  0.12864556835E+02 -0.27265542476E+01  0.16392961503E+02  0.51100000000E-03 0.  1.
         12    1    3    3    0    0  0.73278075993E+01  0.29650921932E+02 -0.16781765929E+01  0.30589053799E+02  0.00000000000E+00 0. -1.
</event>
<event>
 7    1  0.6293596E-013  0.5930196E+02  0.7816164E-02  0.1266605E+00
        -11   -1    0    0    0    0  0.00000000000E+00  0.00000000000E+00  0.45593999997E+02  0.45594000000E+02  0.51100000000E-03 0.  1.
         11   -1    0    0    0    0 -0.00000000000E+00 -0.00000000000E+00 -0.45593999997E+02  0.45594000000E+02  0.51100000000E-03 0. -1.
    9900012    2    1    2    0    0 -0.13415282907E+01 -0.21360694821E+02 -0.23635583229E+02  0.59301956407E+02  0.50000022577E+02 0.  0.
        -12    1    1    2    0    0  0.13415282907E+01  0.21360694821E+02  0.23635583229E+02  0.31886043593E+02  0.00000000000E+00 0.  1.
         11    1    3    3    0    0  0.62355528117E+01 -0.12173406490E+02 -0.33391889114E+02  0.36084514730E+02  0.51100000000E-03 0. -1.
        -11    1    3    3    0    0  0.13033300460E+01  0.74651388230E+00  0.97782469094E+01  0.98929300547E+01  0.51100000000E-03 0.  1.
        -12    1    3    3    0    0 -0.88804111484E+01 -0.99338022133E+01 -0.21941024999E-01  0.13324511623E+02  0.00000000000E+00 0.  1.
</event>
<event>
 7    1  0.6293596E-013  0.5930194E+02  0.7816164E-02  0.1266605E+00
        -11   -1    0    0    0    0  0.00000000000E+00  0.00000000000E+00  0.45593999997E+02  0.45594000000E+02  0.51100000000E-03 0.  1.
         11   -1    0    0    0    0 -0.00000000000E+00 -0.00000000000E+00 -0.45593999997E+02  0.45594000000E+02  0.51100000000E-03 0. -1.
    9900012    2    1    2    0    0  0.18057356447E+02 -0.25549127582E+02  0.61558932437E+01  0.59301936215E+02  0.49999985752E+02 0.  0.
        -12    1    1    2    0    0 -0.18057356447E+02  0.25549127582E+02 -0.61558932437E+01  0.31886063785E+02  0.00000000000E+00 0.  1.
         11    1    3    3    0    0  0.15281269792E+02 -0.11115641379E+02  0.18720039329E+02  0.26599145897E+02  0.51100000000E-03 0.  1.
        -11    1    3    3    0    0 -0.16929433030E+01 -0.20253445041E+02 -0.14673811014E+02  0.25067684835E+02  0.51100000000E-03 0. -1.
         12    1    3    3    0    0  0.44690299575E+01  0.58199588371E+01  0.21096649294E+01  0.76351054833E+01  0.00000000000E+00 0. -1.
</event>
<event>
 7    1  0.6293596E-013  0.5930194E+02  0.7816164E-02  0.1266605E+00
        -11   -1    0    0    0    0  0.00000000000E+00  0.00000000000E+00  0.45593999997E+02  0.45594000000E+02  0.51100000000E-03 0. -1.
         11   -1    0    0    0    0 -0.00000000000E+00 -0.00000000000E+00 -0.45593999997E+02  0.45594000000E+02  0.51100000000E-03 0.  1.
    9900012    2    1    2    0    0 -0.19525652629E+02  0.88133037956E+01  0.23617694716E+02  0.59301938184E+02  0.49999989343E+02 0.  0.
        -12    1    1    2    0    0  0.19525652629E+02 -0.88133037956E+01 -0.23617694716E+02  0.31886061816E+02  0.00000000000E+00 0.  1.
         11    1    3    3    0    0 -0.20063419045E+02  0.47408580708E+01  0.14526008331E+02  0.25219465445E+02  0.51100000000E-03 0. -1.
        -11    1    3    3    0    0  0.13788945822E+02  0.10549842129E+02  0.84751578707E+01  0.19320002511E+02  0.51100000000E-03 0.  1.
         12    1    3    3    0    0 -0.13251179406E+02 -0.64773964044E+01  0.61652851462E+00  0.14762470229E+02  0.00000000000E+00 0. -1.
</event>
<event>
 7    1  0.6293596E-013  0.5930198E+02  0.7816164E-02  0.1266605E+00
        -11   -1    0    0    0    0  0.00000000000E+00  0.00000000000E+00  0.45593999997E+02  0.45594000000E+02  0.51100000000E-03 0.  1.
         11   -1    0    0    0    0 -0.00000000000E+00 -0.00000000000E+00 -0.45593999997E+02  0.45594000000E+02  0.51100000000E-03 0. -1.
    9900012    2    1    2    0    0  0.59356212854E+01 -0.29166263849E+01 -0.31192628850E+02  0.59301977920E+02  0.50000061811E+02 0.  0.
        -12    1    1    2    0    0 -0.59356212854E+01  0.29166263849E+01  0.31192628850E+02  0.31886022080E+02  0.00000000000E+00 0.  1.
         11    1    3    3    0    0  0.14731213821E+02  0.11640290851E+02 -0.12889256166E+02  0.22773624141E+02  0.51100000000E-03 0. -1.
        -11    1    3    3    0    0 -0.11446746104E+02 -0.17800976759E+02 -0.22295930079E+02  0.30741035576E+02  0.51100000000E-03 0.  1.
         12    1    3    3    0    0  0.26511535682E+01  0.32440595224E+01  0.39925573948E+01  0.57873182026E+01  0.00000000000E+00 0. -1.
</event>
<event>
 7    1  0.6293596E-013  0.5930195E+02  0.7816164E-02  0.1266605E+00
        -11   -1    0    0    0    0  0.00000000000E+00  0.00000000000E+00  0.45593999997E+02  0.45594000000E+02  0.51100000000E-03 0.  1.
         11   -1    0    0    0    0 -0.00000000000E+00 -0.00000000000E+00 -0.45593999997E+02  0.45594000000E+02  0.51100000000E-03 0. -1.
    9900012    2    1    2    0    0  0.23092367660E+02  0.33353265701E+01 -0.21733346180E+02  0.59301950015E+02  0.50000010919E+02 0.  0.
        -12    1    1    2    0    0 -0.23092367660E+02 -0.33353265701E+01  0.21733346180E+02  0.31886049985E+02  0.00000000000E+00 0.  1.
         11    1    3    3    0    0  0.22930669572E+02  0.27900604634E+01 -0.31822647742E+02  0.39322779073E+02  0.51100000000E-03 0. -1.
        -11    1    3    3    0    0  0.48969229119E+01  0.69915677502E+01  0.80309769335E+01  0.11720002747E+02  0.51100000000E-03 0.  1.
         12    1    3    3    0    0 -0.47352248234E+01 -0.64463016435E+01  0.20583246289E+01  0.82591681958E+01  0.00000000000E+00 0. -1.
</event>
<event>
 7    1  0.6293596E-013  0.5930212E+02  0.7816164E-02  0.1266604E+00
        -11   -1    0    0    0    0  0.00000000000E+00  0.00000000000E+00  0.45593999997E+02  0.45594000000E+02  0.51100000000E-03 0.  1.
         11   -1    0    0    0    0 -0.00000000000E+00 -0.00000000000E+00 -0.45593999997E+02  0.45594000000E+02  0.51100000000E-03 0. -1.
    9900012    2    1    2    0    0 -0.12862260513E+02 -0.11761391432E+02 -0.26700963398E+02  0.59302117226E+02  0.50000315870E+02 0.  0.
        -12    1    1    2    0    0  0.12862260513E+02  0.11761391432E+02  0.26700963398E+02  0.31885882774E+02  0.00000000000E+00 0.  1.
         11    1    3    3    0    0  0.36416922116E+01 -0.12768456066E+02 -0.23044886071E+02  0.26596281070E+02  0.51100000000E-03 0. -1.
        -11    1    3    3    0    0 -0.24169594985E+02  0.35229600031E+01 -0.24363723303E+01  0.24546211099E+02  0.51100000000E-03 0.  1.
        -12    1    3    3    0    0  0.76656422605E+01 -0.25158953694E+01 -0.12197049962E+01  0.81596250560E+01  0.00000000000E+00 0.  1.
</event>
<event>
 7    1  0.6293596E-013  0.5930195E+02  0.7816164E-02  0.1266605E+00
        -11   -1    0    0    0    0  0.00000000000E+00  0.00000000000E+00  0.45593999997E+02  0.45594000000E+02  0.51100000000E-03 0.  1.
         11   -1    0    0    0    0 -0.00000000000E+00 -0.00000000000E+00 -0.45593999997E+02  0.45594000000E+02  0.51100000000E-03 0. -1.
    9900012    2    1    2    0    0  0.70976208048E+01  0.18535223755E+02 -0.24955753085E+02  0.59301947363E+02  0.50000006082E+02 0.  0.
        -12    1    1    2    0    0 -0.70976208048E+01 -0.18535223755E+02  0.24955753085E+02  0.31886052637E+02  0.00000000000E+00 0.  1.
         11    1    3    3    0    0  0.79575020695E+01  0.30560440635E+02 -0.13841435300E+02  0.34479670857E+02  0.51100000000E-03 0. -1.
        -11    1    3    3    0    0 -0.58095546840E+01 -0.39975263400E+01 -0.13378489435E+02  0.15123330397E+02  0.51100000000E-03 0.  1.
         12    1    3    3    0    0  0.49496734194E+01 -0.80276905400E+01  0.22641716495E+01  0.96989461088E+01  0.00000000000E+00 0. -1.
</event>
<event>
 7    1  0.6293596E-013  0.5930194E+02  0.7816164E-02  0.1266605E+00
        -11   -1    0    0    0    0  0.00000000000E+00  0.00000000000E+00  0.45593999997E+02  0.45594000000E+02  0.51100000000E-03 0.  1.
         11   -1    0    0    0    0 -0.00000000000E+00 -0.00000000000E+00 -0.45593999997E+02  0.45594000000E+02  0.51100000000E-03 0. -1.
    9900012    2    1    2    0    0  0.64014457657E+01  0.30169882314E+02 -0.80944925865E+01  0.59301935380E+02  0.49999984229E+02 0.  0.
        -12    1    1    2    0    0 -0.64014457657E+01 -0.30169882314E+02  0.80944925865E+01  0.31886064620E+02  0.00000000000E+00 0.  1.
         11    1    3    3    0    0  0.63111729044E+01 -0.11565315953E+01 -0.21942232305E+02  0.22861102939E+02  0.51100000000E-03 0. -1.
        -11    1    3    3    0    0 -0.30262587510E+00  0.50994761197E+01  0.81193676046E+01  0.95927248306E+01  0.51100000000E-03 0.  1.
         12    1    3    3    0    0  0.39289873645E+00  0.26226937789E+02  0.57283721143E+01  0.26848107611E+02  0.00000000000E+00 0. -1.
</event>
<event>
 7    1  0.6293596E-013  0.5930197E+02  0.7816164E-02  0.1266605E+00
        -11   -1    0    0    0    0  0.00000000000E+00  0.00000000000E+00  0.45593999997E+02  0.45594000000E+02  0.51100000000E-03 0. -1.
         11   -1    0    0    0    0 -0.00000000000E+00 -0.00000000000E+00 -0.45593999997E+02  0.45594000000E+02  0.51100000000E-03 0.  1.
    9900012    2    1    2    0    0 -0.28557115632E+01 -0.20494420499E+02  0.24259901175E+02  0.59301965986E+02  0.50000040046E+02 0.  0.
        -12    1    1    2    0    0  0.28557115632E+01  0.20494420499E+02 -0.24259901175E+02  0.31886034014E+02  0.00000000000E+00 0.  1.
         11    1    3    3    0    0 -0.77296128494E+01  0.15323747908E+01  0.29967905078E+02  0.30986616826E+02  0.51100000000E-03 0. -1.
        -11    1    3    3    0    0  0.10573561461E+02 -0.10660482686E+02 -0.33265202603E+01  0.15378941133E+02  0.51100000000E-03 0.  1.
         12    1    3    3    0    0 -0.56996601744E+01 -0.11366312604E+02 -0.23814836420E+01  0.12936408027E+02  0.00000000000E+00 0. -1.
</event>
<event>
 7    1  0.6293596E-013  0.5930195E+02  0.7816164E-02  0.1266605E+00
        -11   -1    0    0    0    0  0.00000000000E+00  0.00000000000E+00  0.45593999997E+02  0.45594000000E+02  0.51100000000E-03 0. -1.
         11   -1    0    0    0    0 -0.00000000000E+00 -0.00000000000E+00 -0.45593999997E+02  0.45594000000E+02  0.51100000000E-03 0.  1.
    9900012    2    1    2    0    0  0.20639585937E+01 -0.76134984433E+01  0.30894896718E+02  0.59301954042E+02  0.50000018263E+02 0.  0.
        -12    1    1    2    0    0 -0.20639585937E+01  0.76134984433E+01 -0.30894896718E+02  0.31886045958E+02  0.00000000000E+00 0.  1.
         11    1    3    3    0    0 -0.20730960235E+02 -0.32513396695E+00  0.15916980286E+02  0.26138643539E+02  0.51100000000E-03 0. -1.
        -11    1    3    3    0    0  0.13878272588E+02 -0.11493209969E+02  0.40945379923E+01  0.18478786947E+02  0.51100000000E-03 0.  1.
        -12    1    3    3    0    0  0.89166462405E+01  0.42048454921E+01  0.10883378440E+02  0.14684523555E+02  0.00000000000E+00 0.  1.
</event>
<event>
 7    1  0.6293596E-013  0.5930193E+02  0.7816164E-02  0.1266605E+00
        -11   -1    0    0    0    0  0.00000000000E+00  0.00000000000E+00  0.45593999997E+02  0.45594000000E+02  0.51100000000E-03 0. -1.
         11   -1    0    0    0    0 -0.00000000000E+00 -0.00000000000E+00 -0.45593999997E+02  0.45594000000E+02  0.51100000000E-03 0.  1.
    9900012    2    1    2    0    0 -0.14108563944E+02  0.26753471868E+02  0.10095617178E+02  0.59301932200E+02  0.49999978428E+02 0.  0.
        -12    1    1    2    0    0  0.14108563944E+02 -0.26753471868E+02 -0.10095617178E+02  0.31886067800E+02  0.00000000000E+00 0.  1.
         11    1    3    3    0    0 -0.22569197607E+02  0.23646722280E+02  0.17232815096E+02  0.36952754587E+02  0.51100000000E-03 0. -1.
        -11    1    3    3    0    0  0.11836770951E+02 -0.98267992580E+00  0.17443741347E+01  0.12004900989E+02  0.51100000000E-03 0.  1.
         12    1    3    3    0    0 -0.33761372881E+01  0.40894295141E+01 -0.88815720526E+01  0.10344276624E+02  0.00000000000E+00 0. -1.
</event>
<event>
 7    1  0.6293596E-013  0.5930196E+02  0.7816164E-02  0.1266605E+00
        -11   -1    0    0    0    0  0.00000000000E+00  0.00000000000E+00  0.45593999997E+02  0.45594000000E+02  0.51100000000E-03 0. -1.
         11   -1    0    0    0    0 -0.00000000000E+00 -0.00000000000E+00 -0.45593999997E+02  0.45594000000E+02  0.51100000000E-03 0.  1.
    9900012    2    1    2    0    0 -0.19295745074E+02  0.37317108465E+01 -0.25109123400E+02  0.59301960395E+02  0.50000029850E+02 0.  0.
        -12    1    1    2    0    0  0.19295745074E+02 -0.37317108465E+01  0.25109123400E+02  0.31886039605E+02  0.00000000000E+00 0.  1.
         11    1    3    3    0    0  0.65366599139E+01  0.33370049379E+00  0.53120505051E+01  0.84295408938E+01  0.51100000000E-03 0. -1.
        -11    1    3    3    0    0 -0.32192835860E+02  0.38689758066E+01 -0.30469709439E+02  0.44494391198E+02  0.51100000000E-03 0.  1.
        -12    1    3    3    0    0  0.63604308723E+01 -0.47096545396E+00  0.48535534369E-01  0.63780283033E+01  0.00000000000E+00 0.  1.
</event>
<event>
 7    1  0.6293596E-013  0.5930193E+02  0.7816164E-02  0.1266605E+00
        -11   -1    0    0    0    0  0.00000000000E+00  0.00000000000E+00  0.45593999997E+02  0.45594000000E+02  0.51100000000E-03 0. -1.
         11   -1    0    0    0    0 -0.00000000000E+00 -0.00000000000E+00 -0.45593999997E+02  0.45594000000E+02  0.51100000000E-03 0.  1.
    9900012    2    1    2    0    0  0.19116008628E+02  0.72170551267E+01  0.24478848340E+02  0.59301926447E+02  0.49999967937E+02 0.  0.
        -12    1    1    2    0    0 -0.19116008628E+02 -0.72170551267E+01 -0.24478848340E+02  0.31886073553E+02  0.00000000000E+00 0.  1.
         11    1    3    3    0    0  0.31610491829E+02  0.25118402864E+01  0.18551355775E+02  0.36738063867E+02  0.51100000000E-03 0. -1.
        -11    1    3    3    0    0 -0.13929700656E+02  0.85227185132E+01  0.12793957337E+01  0.16380175363E+02  0.51100000000E-03 0.  1.
        -12    1    3    3    0    0  0.14352174554E+01 -0.38175036730E+01  0.46480968317E+01  0.61836872168E+01  0.00000000000E+00 0.  1.
</event>
<event>
 7    1  0.6293596E-013  0.5930195E+02  0.7816164E-02  0.1266605E+00
        -11   -1    0    0    0    0  0.00000000000E+00  0.00000000000E+00  0.45593999997E+02  0.45594000000E+02  0.51100000000E-03 0.  1.
         11   -1    0    0    0    0 -0.00000000000E+00 -0.00000000000E+00 -0.45593999997E+02  0.45594000000E+02  0.51100000000E-03 0. -1.
    9900012    2    1    2    0    0 -0.10933964062E+02  0.59536308964E+01 -0.29355114258E+02  0.59301952518E+02  0.50000015483E+02 0.  0.
        -12    1    1    2    0    0  0.10933964062E+02 -0.59536308964E+01  0.29355114258E+02  0.31886047482E+02  0.00000000000E+00 0.  1.
         11    1    3    3    0    0  0.13044953282E+02  0.15709450015E+02 -0.94168830070E+01  0.22486336112E+02  0.51100000000E-03 0. -1.
        -11    1    3    3    0    0 -0.12276712269E+02 -0.90785606947E+01 -0.20172134140E+01  0.15401528452E+02  0.51100000000E-03 0.  1.
         12    1    3    3    0    0 -0.11702205075E+02 -0.67725842425E+00 -0.17921017837E+02  0.21414087954E+02  0.00000000000E+00 0. -1.
</event>
<event>
 7    1  0.6293596E-013  0.5930196E+02  0.7816164E-02  0.1266605E+00
        -11   -1    0    0    0    0  0.00000000000E+00  0.00000000000E+00  0.45593999997E+02  0.45594000000E+02  0.51100000000E-03 0.  1.
         11   -1    0    0    0    0 -0.00000000000E+00 -0.00000000000E+00 -0.45593999997E+02  0.45594000000E+02  0.51100000000E-03 0. -1.
    9900012    2    1    2    0    0 -0.14794293508E+02  0.18663214791E+02 -0.21202194875E+02  0.59301956435E+02  0.50000022627E+02 0.  0.
        -12    1    1    2    0    0  0.14794293508E+02 -0.18663214791E+02  0.21202194875E+02  0.31886043565E+02  0.00000000000E+00 0.  1.
         11    1    3    3    0    0  0.10506060858E+02  0.82428489251E+01 -0.84313613191E+01  0.15792711202E+02  0.51100000000E-03 0. -1.
        -11    1    3    3    0    0 -0.12666142279E+02  0.21223157528E+02 -0.99764990420E+01  0.26653031893E+02  0.51100000000E-03 0.  1.
        -12    1    3    3    0    0 -0.12634212088E+02 -0.10802791662E+02 -0.27943345141E+01  0.16856213340E+02  0.00000000000E+00 0.  1.
</event>
<event>
 7    1  0.6293596E-013  0.5930192E+02  0.7816164E-02  0.1266605E+00
        -11   -1    0    0    0    0  0.00000000000E+00  0.00000000000E+00  0.45593999997E+02  0.45594000000E+02  0.51100000000E-03 0. -1.
         11   -1    0    0    0    0 -0.00000000000E+00 -0.00000000000E+00 -0.45593999997E+02  0.45594000000E+02  0.51100000000E-03 0.  1.
    9900012    2    1    2    0    0  0.11060102787E+02 -0.22059371164E+02  0.20193577283E+02  0.59301916934E+02  0.49999950588E+02 0.  0.
        -12    1    1    2    0    0 -0.11060102787E+02  0.22059371164E+02 -0.20193577283E+02  0.31886083066E+02  0.00000000000E+00 0.  1.
         11    1    3    3    0    0 -0.15580638572E+02 -0.26308800647E+01  0.20934385158E+01  0.15939269535E+02  0.51100000000E-03 0. -1.
        -11    1    3    3    0    0  0.10766886341E+02 -0.18844185667E+02  0.38890403908E+01  0.22048895898E+02  0.51100000000E-03 0.  1.
         12    1    3    3    0    0  0.15873855019E+02 -0.58430543229E+00  0.14211098376E+02  0.21313751501E+02  0.00000000000E+00 0. -1.
</event>
<event>
 7    1  0.6293596E-013  0.5930195E+02  0.7816164E-02  0.1266605E+00
        -11   -1    0    0    0    0  0.00000000000E+00  0.00000000000E+00  0.45593999997E+02  0.45594000000E+02  0.51100000000E-03 0.  1.
         11   -1    0    0    0    0 -0.00000000000E+00 -0.00000000000E+00 -0.45593999997E+02  0.45594000000E+02  0.51100000000E-03 0. -1.
    9900012    2    1    2    0    0  0.12583285707E+02 -0.24192982138E+01 -0.29198079574E+02  0.59301953932E+02  0.50000018063E+02 0.  0.
        -12    1    1    2    0    0 -0.12583285707E+02  0.24192982138E+01  0.29198079574E+02  0.31886046068E+02  0.00000000000E+00 0.  1.
         11    1    3    3    0    0  0.18955900142E+02  0.14564883996E+02 -0.16360987211E+02  0.28967980578E+02  0.51100000000E-03 0. -1.
        -11    1    3    3    0    0 -0.77374427268E+01 -0.99061143219E+01 -0.17648545010E+02  0.21667262452E+02  0.51100000000E-03 0.  1.
         12    1    3    3    0    0  0.13648282913E+01 -0.70780678875E+01  0.48114526466E+01  0.86667109018E+01  0.00000000000E+00 0. -1.
</event>
<event>
 7    1  0.6293596E-013  0.5930234E+02  0.7816164E-02  0.1266603E+00
        -11   -1    0    0    0    0  0.00000000000E+00  0.00000000000E+00  0.45593999997E+02  0.45594000000E+02  0.51100000000E-03 0.  1.
         11   -1    0    0    0    0 -0.00000000000E+00 -0.00000000000E+00 -0.45593999997E+02  0.45594000000E+02  0.51100000000E-03 0. -1.
    9900012    2    1    2    0    0  0.20135008630E+02  0.11589779476E+02 -0.21839266378E+02  0.59302343087E+02  0.50000727783E+02 0.  0.
        -12    1    1    2    0    0 -0.20135008630E+02 -0.11589779476E+02  0.21839266378E+02  0.31885656913E+02  0.00000000000E+00 0.  1.
         11    1    3    3    0    0  0.33004912981E+02  0.17832649568E+02 -0.20677188122E+02  0.42835426698E+02  0.51100000000E-03 0. -1.
        -11    1    3    3    0    0 -0.15738530336E+01 -0.46968418257E+01 -0.10571901413E+01  0.50650752969E+01  0.51100000000E-03 0.  1.
         12    1    3    3    0    0 -0.11296051318E+02 -0.15460282660E+01 -0.10488811478E+00  0.11401841092E+02  0.00000000000E+00 0. -1.
</event>
<event>
 7    1  0.6293596E-013  0.5930192E+02  0.7816164E-02  0.1266605E+00
        -11   -1    0    0    0    0  0.00000000000E+00  0.00000000000E+00  0.45593999997E+02  0.45594000000E+02  0.51100000000E-03 0. -1.
         11   -1    0    0    0    0 -0.00000000000E+00 -0.00000000000E+00 -0.45593999997E+02  0.45594000000E+02  0.51100000000E-03 0.  1.
    9900012    2    1    2    0    0  0.41352594072E+01 -0.29129899212E+00  0.31615453235E+02  0.59301919828E+02  0.49999955866E+02 0.  0.
        -12    1    1    2    0    0 -0.41352594072E+01  0.29129899212E+00 -0.31615453235E+02  0.31886080172E+02  0.00000000000E+00 0.  1.
         11    1    3    3    0    0  0.12531215176E+02  0.87144769904E+01  0.11277594964E+02  0.18977818933E+02  0.51100000000E-03 0. -1.
        -11    1    3    3    0    0 -0.20453139209E+02 -0.26227686100E+01  0.86569655587E+01  0.22364097828E+02  0.51100000000E-03 0.  1.
        -12    1    3    3    0    0  0.12057183441E+02 -0.63830073726E+01  0.11680892712E+02  0.17960003068E+02  0.00000000000E+00 0.  1.
</event>
<event>
 7    1  0.6293596E-013  0.5930197E+02  0.7816164E-02  0.1266605E+00
        -11   -1    0    0    0    0  0.00000000000E+00  0.00000000000E+00  0.45593999997E+02  0.45594000000E+02  0.51100000000E-03 0.  1.
         11   -1    0    0    0    0 -0.00000000000E+00 -0.00000000000E+00 -0.45593999997E+02  0.45594000000E+02  0.51100000000E-03 0. -1.
    9900012    2    1    2    0    0  0.16099324658E+01 -0.29085913888E+02 -0.12966760399E+02  0.59301966310E+02  0.50000040638E+02 0.  0.
        -12    1    1    2    0    0 -0.16099324658E+01  0.29085913888E+02  0.12966760399E+02  0.31886033690E+02  0.00000000000E+00 0.  1.
         11    1    3    3    0    0 -0.15781080440E+02 -0.30394668004E+02 -0.19082511585E+02  0.39204854183E+02  0.51100000000E-03 0. -1.
        -11    1    3    3    0    0  0.17011703971E+02  0.29301085691E+00  0.72799072886E+01  0.18506241589E+02  0.51100000000E-03 0.  1.
         12    1    3    3    0    0  0.37930893448E+00  0.10157432589E+01 -0.11641561028E+01  0.15908705376E+01  0.00000000000E+00 0. -1.
</event>
<event>
 7    1  0.6293596E-013  0.5930231E+02  0.7816164E-02  0.1266604E+00
        -11   -1    0    0    0    0  0.00000000000E+00  0.00000000000E+00  0.45593999997E+02  0.45594000000E+02  0.51100000000E-03 0.  1.
         11   -1    0    0    0    0 -0.00000000000E+00 -0.00000000000E+00 -0.45593999997E+02  0.45594000000E+02  0.51100000000E-03 0. -1.
    9900012    2    1    2    0    0  0.25185109249E+01  0.18980101842E+02 -0.25497262190E+02  0.59302305051E+02  0.50000658415E+02 0.  0.
        -12    1    1    2    0    0 -0.25185109249E+01 -0.18980101842E+02  0.25497262190E+02  0.31885694949E+02  0.00000000000E+00 0.  1.
         11    1    3    3    0    0  0.60681194924E+01  0.31913364310E+02 -0.53596051066E+01  0.32924311123E+02  0.51100000000E-03 0. -1.
        -11    1    3    3    0    0 -0.36825393052E+01 -0.14014563226E+02 -0.20607113694E+02  0.25191709216E+02  0.51100000000E-03 0.  1.
        -12    1    3    3    0    0  0.13293073776E+00  0.10813007579E+01  0.46945661035E+00  0.11862847125E+01  0.00000000000E+00 0.  1.
</event>
<event>
 7    1  0.6293596E-013  0.5930195E+02  0.7816164E-02  0.1266605E+00
        -11   -1    0    0    0    0  0.00000000000E+00  0.00000000000E+00  0.45593999997E+02  0.45594000000E+02  0.51100000000E-03 0.  1.
         11   -1    0    0    0    0 -0.00000000000E+00 -0.00000000000E+00 -0.45593999997E+02  0.45594000000E+02  0.51100000000E-03 0. -1.
    9900012    2    1    2    0    0  0.23151668529E+02  0.13041168267E+02 -0.17625222745E+02  0.59301948155E+02  0.50000007526E+02 0.  0.
        -12    1    1    2    0    0 -0.23151668529E+02 -0.13041168267E+02  0.17625222745E+02  0.31886051845E+02  0.00000000000E+00 0.  1.
         11    1    3    3    0    0  0.21867477621E+02 -0.30791224526E+01 -0.18414768892E+02  0.28753630835E+02  0.51100000000E-03 0. -1.
        -11    1    3    3    0    0  0.91890230954E+01  0.10240455936E+02  0.10041367575E+02  0.17033324581E+02  0.51100000000E-03 0.  1.
        -12    1    3    3    0    0 -0.79048321868E+01  0.58798347833E+01 -0.92518214289E+01  0.13514992739E+02  0.00000000000E+00 0.  1.
</event>
<event>
 7    1  0.6293596E-013  0.5930193E+02  0.7816164E-02  0.1266605E+00
        -11   -1    0    0    0    0  0.00000000000E+00  0.00000000000E+00  0.45593999997E+02  0.45594000000E+02  0.51100000000E-03 0.  1.
         11   -1    0    0    0    0 -0.00000000000E+00 -0.00000000000E+00 -0.45593999997E+02  0.45594000000E+02  0.51100000000E-03 0. -1.
    9900012    2    1    2    0    0  0.24610145347E+02 -0.62967244118E+01 -0.19272091913E+02  0.59301929075E+02  0.49999972730E+02 0.  0.
        -12    1    1    2    0    0 -0.24610145347E+02  0.62967244118E+01  0.19272091913E+02  0.31886070925E+02  0.00000000000E+00 0.  1.
         11    1    3    3    0    0  0.17296258462E+02 -0.13216600206E+02 -0.34367982658E+02  0.40681658152E+02  0.51100000000E-03 0. -1.
        -11    1    3    3    0    0  0.23328056625E+01  0.57905469065E+00  0.60077179948E+01  0.64707002991E+01  0.51100000000E-03 0.  1.
         12    1    3    3    0    0  0.49810812229E+01  0.63408211031E+01  0.90881727502E+01  0.12149570624E+02  0.00000000000E+00 0. -1.
</event>
<event>
 7    1  0.6293596E-013  0.5930195E+02  0.7816164E-02  0.1266605E+00
        -11   -1    0    0    0    0  0.00000000000E+00  0.00000000000E+00  0.45593999997E+02  0.45594000000E+02  0.51100000000E-03 0.  1.
         11   -1    0    0    0    0 -0.00000000000E+00 -0.00000000000E+00 -0.45593999997E+02  0.45594000000E+02  0.51100000000E-03 0. -1.
    9900012    2    1    2    0    0 -0.64655069945E+01  0.40434462421E+01 -0.30960749621E+02  0.59301948891E+02  0.50000008870E+02 0.  0.
        -12    1    1    2    0    0  0.64655069945E+01 -0.40434462421E+01  0.30960749621E+02  0.31886051109E+02  0.00000000000E+00 0.  1.
         11    1    3    3    0    0 -0.13270315955E+02 -0.18992806841E+02 -0.15174663626E+02  0.27696541547E+02  0.51100000000E-03 0. -1.
        -11    1    3    3    0    0  0.70857650782E+01  0.11260700849E+02 -0.19697437821E+01  0.13449585168E+02  0.51100000000E-03 0.  1.
        -12    1    3    3    0    0 -0.28095611738E+00  0.11775552234E+02 -0.13816342213E+02  0.18155822176E+02  0.00000000000E+00 0.  1.
</event>
<event>
 7    1  0.6293596E-013  0.5930194E+02  0.7816164E-02  0.1266605E+00
        -11   -1    0    0    0    0  0.00000000000E+00  0.00000000000E+00  0.45593999997E+02  0.45594000000E+02  0.51100000000E-03 0. -1.
         11   -1    0    0    0    0 -0.00000000000E+00 -0.00000000000E+00 -0.45593999997E+02  0.45594000000E+02  0.51100000000E-03 0.  1.
    9900012    2    1    2    0    0  0.29639136005E+02 -0.11333423297E+02 -0.31298867068E+01  0.59301936312E+02  0.49999985928E+02 0.  0.
        -12    1    1    2    0    0 -0.29639136005E+02  0.11333423297E+02  0.31298867068E+01  0.31886063688E+02  0.00000000000E+00 0.  1.
         11    1    3    3    0    0  0.23882462478E+02 -0.12200467012E+02  0.12134744307E+02  0.29435954698E+02  0.51100000000E-03 0. -1.
        -11    1    3    3    0    0  0.11098432594E+02  0.56788927524E+01 -0.18233100016E+02  0.22087801280E+02  0.51100000000E-03 0.  1.
         12    1    3    3    0    0 -0.53417590670E+01 -0.48118490372E+01  0.29684690022E+01  0.77781803337E+01  0.00000000000E+00 0. -1.
</event>
<event>
 7    1  0.6293596E-013  0.5930194E+02  0.7816164E-02  0.1266605E+00
        -11   -1    0    0    0    0  0.00000000000E+00  0.00000000000E+00  0.45593999997E+02  0.45594000000E+02  0.51100000000E-03 0. -1.
         11   -1    0    0    0    0 -0.00000000000E+00 -0.00000000000E+00 -0.45593999997E+02  0.45594000000E+02  0.51100000000E-03 0.  1.
    9900012    2    1    2    0    0 -0.49146085450E+01  0.45262383618E+01  0.31178208944E+02  0.59301938409E+02  0.49999989752E+02 0.  0.
        -12    1    1    2    0    0  0.49146085450E+01 -0.45262383618E+01 -0.31178208944E+02  0.31886061591E+02  0.00000000000E+00 0.  1.
         11    1    3    3    0    0  0.19504469617E+01  0.22067303623E+02  0.26324873374E+02  0.34405945576E+02  0.51100000000E-03 0. -1.
        -11    1    3    3    0    0 -0.86961938388E+01 -0.71618578218E+01 -0.31091008743E+01  0.11686851725E+02  0.51100000000E-03 0.  1.
         12    1    3    3    0    0  0.18311383321E+01 -0.10379207440E+02  0.79624364437E+01  0.13209141107E+02  0.00000000000E+00 0. -1.
</event>
<event>
 7    1  0.6293596E-013  0.5930192E+02  0.7816164E-02  0.1266605E+00
        -11   -1    0    0    0    0  0.00000000000E+00  0.00000000000E+00  0.45593999997E+02  0.45594000000E+02  0.51100000000E-03 0.  1.
         11   -1    0    0    0    0 -0.00000000000E+00 -0.00000000000E+00 -0.45593999997E+02  0.45594000000E+02  0.51100000000E-03 0. -1.
    9900012    2    1    2    0    0  0.83774485634E+01  0.21173989409E+02 -0.22320452422E+02  0.59301920463E+02  0.49999957023E+02 0.  0.
        -12    1    1    2    0    0 -0.83774485634E+01 -0.21173989409E+02  0.22320452422E+02  0.31886079537E+02  0.00000000000E+00 0.  1.
         11    1    3    3    0    0  0.72377407031E+01  0.75701151199E+01 -0.18987669568E+02  0.21684628871E+02  0.51100000000E-03 0. -1.
        -11    1    3    3    0    0 -0.59148438611E+01  0.24030152603E+02 -0.70573779771E+00  0.24757457020E+02  0.51100000000E-03 0.  1.
        -12    1    3    3    0    0  0.70545517214E+01 -0.10426278314E+02 -0.26270450567E+01  0.12859834571E+02  0.00000000000E+00 0.  1.
</event>
<event>
 7    1  0.6293596E-013  0.5930193E+02  0.7816164E-02  0.1266605E+00
        -11   -1    0    0    0    0  0.00000000000E+00  0.00000000000E+00  0.45593999997E+02  0.45594000000E+02  0.51100000000E-03 0.  1.
         11   -1    0    0    0    0 -0.00000000000E+00 -0.00000000000E+00 -0.45593999997E+02  0.45594000000E+02  0.51100000000E-03 0. -1.
    9900012    2    1    2    0    0 -0.36650882970E+01  0.10380389124E+02 -0.29925507839E+02  0.59301931412E+02  0.49999976992E+02 0.  0.
        -12    1    1    2    0    0  0.36650882970E+01 -0.10380389124E+02  0.29925507839E+02  0.31886068588E+02  0.00000000000E+00 0.  1.
         11    1    3    3    0    0 -0.14488480206E+01  0.43637949648E+00 -0.18172205185E+02  0.18235093342E+02  0.51100000000E-03 0. -1.
        -11    1    3    3    0    0 -0.15947658382E+02  0.79492927996E+01  0.57564412397E+01  0.18725802516E+02  0.51100000000E-03 0.  1.
        -12    1    3    3    0    0  0.13731418105E+02  0.19947168283E+01 -0.17509743894E+02  0.22341035554E+02  0.00000000000E+00 0.  1.
</event>
<event>
 7    1  0.6293596E-013  0.5930190E+02  0.7816164E-02  0.1266605E+00
        -11   -1    0    0    0    0  0.00000000000E+00  0.00000000000E+00  0.45593999997E+02  0.45594000000E+02  0.51100000000E-03 0.  1.
         11   -1    0    0    0    0 -0.00000000000E+00 -0.00000000000E+00 -0.45593999997E+02  0.45594000000E+02  0.51100000000E-03 0. -1.
    9900012    2    1    2    0    0 -0.17578273372E+02 -0.56668185688E+01 -0.25992598144E+02  0.59301895099E+02  0.49999910767E+02 0.  0.
        -12    1    1    2    0    0  0.17578273372E+02  0.56668185688E+01  0.25992598144E+02  0.31886104901E+02  0.00000000000E+00 0.  1.
         11    1    3    3    0    0 -0.13390292578E+02  0.52375145330E+01 -0.33554284795E+02  0.36505088990E+02  0.51100000000E-03 0. -1.
        -11    1    3    3    0    0 -0.17295998064E+01 -0.15870540905E+02  0.55622611084E+01  0.16905748520E+02  0.51100000000E-03 0.  1.
         12    1    3    3    0    0 -0.24583809878E+01  0.49662078032E+01  0.19994255424E+01  0.58910575897E+01  0.00000000000E+00 0. -1.
</event>
<event>
 7    1  0.6293596E-013  0.5930215E+02  0.7816164E-02  0.1266604E+00
        -11   -1    0    0    0    0  0.00000000000E+00  0.00000000000E+00  0.45593999997E+02  0.45594000000E+02  0.51100000000E-03 0.  1.
         11   -1    0    0    0    0 -0.00000000000E+00 -0.00000000000E+00 -0.45593999997E+02  0.45594000000E+02  0.51100000000E-03 0. -1.
    9900012    2    1    2    0    0 -0.20290518451E+02  0.79872244607E+01 -0.23263841490E+02  0.59302153383E+02  0.50000381812E+02 0.  0.
        -12    1    1    2    0    0  0.20290518451E+02 -0.79872244607E+01  0.23263841490E+02  0.31885846617E+02  0.00000000000E+00 0.  1.
         11    1    3    3    0    0 -0.14406042629E+02 -0.16373110130E+02 -0.74441818823E+01  0.23044058751E+02  0.51100000000E-03 0. -1.
        -11    1    3    3    0    0  0.54229882097E+01  0.19593493520E+02 -0.91932202748E+01  0.22312083917E+02  0.51100000000E-03 0.  1.
         12    1    3    3    0    0 -0.11307464032E+02  0.47668410710E+01 -0.66264393333E+01  0.13946010715E+02  0.00000000000E+00 0. -1.
</event>
<event>
 7    1  0.6293596E-013  0.5930195E+02  0.7816164E-02  0.1266605E+00
        -11   -1    0    0    0    0  0.00000000000E+00  0.00000000000E+00  0.45593999997E+02  0.45594000000E+02  0.51100000000E-03 0.  1.
         11   -1    0    0    0    0 -0.00000000000E+00 -0.00000000000E+00 -0.45593999997E+02  0.45594000000E+02  0.51100000000E-03 0. -1.
    9900012    2    1    2    0    0 -0.24811796496E+01  0.49648592643E+01 -0.31399268349E+02  0.59301950812E+02  0.50000012372E+02 0.  0.
        -12    1    1    2    0    0  0.24811796496E+01 -0.49648592643E+01  0.31399268349E+02  0.31886049188E+02  0.00000000000E+00 0.  1.
         11    1    3    3    0    0  0.16012596546E+02  0.18173182845E+02 -0.73416743561E+01  0.25309444985E+02  0.51100000000E-03 0. -1.
        -11    1    3    3    0    0 -0.14310417991E+02 -0.13677112807E+02 -0.20210206264E+02  0.28289643252E+02  0.51100000000E-03 0.  1.
        -12    1    3    3    0    0 -0.41833582043E+01  0.46878922680E+00 -0.38473877292E+01  0.57028625744E+01  0.00000000000E+00 0.  1.
</event>
<event>
 7    1  0.6293596E-013  0.5930195E+02  0.7816164E-02  0.1266605E+00
        -11   -1    0    0    0    0  0.00000000000E+00  0.00000000000E+00  0.45593999997E+02  0.45594000000E+02  0.51100000000E-03 0.  1.
         11   -1    0    0    0    0 -0.00000000000E+00 -0.00000000000E+00 -0.45593999997E+02  0.45594000000E+02  0.51100000000E-03 0. -1.
    9900012    2    1    2    0    0  0.16251471702E+02  0.15058069166E+02 -0.22931733554E+02  0.59301950020E+02  0.50000010929E+02 0.  0.
        -12    1    1    2    0    0 -0.16251471702E+02 -0.15058069166E+02  0.22931733554E+02  0.31886049980E+02  0.00000000000E+00 0.  1.
         11    1    3    3    0    0  0.37756099818E+01 -0.16113855608E+02 -0.86350435966E+00  0.16572785322E+02  0.51100000000E-03 0. -1.
        -11    1    3    3    0    0  0.14244247082E+02  0.16444660135E+02 -0.13057278612E+02  0.25373567879E+02  0.51100000000E-03 0.  1.
        -12    1    3    3    0    0 -0.17683853622E+01  0.14727264639E+02 -0.90109505828E+01  0.17355596819E+02  0.00000000000E+00 0.  1.
</event>
<event>
 7    1  0.6293596E-013  0.5930195E+02  0.7816164E-02  0.1266605E+00
        -11   -1    0    0    0    0  0.00000000000E+00  0.00000000000E+00  0.45593999997E+02  0.45594000000E+02  0.51100000000E-03 0.  1.
         11   -1    0    0    0    0 -0.00000000000E+00 -0.00000000000E+00 -0.45593999997E+02  0.45594000000E+02  0.51100000000E-03 0. -1.
    9900012    2    1    2    0    0  0.75028343992E+01 -0.11398894212E+02 -0.28818276761E+02  0.59301946799E+02  0.50000005053E+02 0.  0.
        -12    1    1    2    0    0 -0.75028343992E+01  0.11398894212E+02  0.28818276761E+02  0.31886053201E+02  0.00000000000E+00 0.  1.
         11    1    3    3    0    0 -0.75021276063E+00  0.38458703595E+01  0.12210934601E+02  0.12824213898E+02  0.51100000000E-03 0. -1.
        -11    1    3    3    0    0 -0.67077774677E+00 -0.11687900006E+02 -0.17414951678E+02  0.20984220060E+02  0.51100000000E-03 0.  1.
         12    1    3    3    0    0  0.89238249066E+01 -0.35568645656E+01 -0.23614259684E+02  0.25493512840E+02  0.00000000000E+00 0. -1.
</event>
<event>
 7    1  0.6293596E-013  0.5930189E+02  0.7816164E-02  0.1266605E+00
        -11   -1    0    0    0    0  0.00000000000E+00  0.00000000000E+00  0.45593999997E+02  0.45594000000E+02  0.51100000000E-03 0. -1.
         11   -1    0    0    0    0 -0.00000000000E+00 -0.00000000000E+00 -0.45593999997E+02  0.45594000000E+02  0.51100000000E-03 0.  1.
    9900012    2    1    2    0    0 -0.89091176984E+01  0.29360206264E+02  0.86792823314E+01  0.59301889672E+02  0.49999900869E+02 0.  0.
        -12    1    1    2    0    0  0.89091176984E+01 -0.29360206264E+02 -0.86792823314E+01  0.31886110328E+02  0.00000000000E+00 0.  1.
         11    1    3    3    0    0 -0.17077390055E+02  0.22772282794E+02  0.10279397646E+02  0.30263511544E+02  0.51100000000E-03 0. -1.
        -11    1    3    3    0    0  0.68064456893E+01 -0.10134532675E+02 -0.10189721197E+01  0.12250500394E+02  0.51100000000E-03 0.  1.
        -12    1    3    3    0    0  0.13618266677E+01  0.16722456145E+02 -0.58114319509E+00  0.16787877734E+02  0.00000000000E+00 0.  1.
</event>
<event>
 7    1  0.6293596E-013  0.5930195E+02  0.7816164E-02  0.1266605E+00
        -11   -1    0    0    0    0  0.00000000000E+00  0.00000000000E+00  0.45593999997E+02  0.45594000000E+02  0.51100000000E-03 0.  1.
         11   -1    0    0    0    0 -0.00000000000E+00 -0.00000000000E+00 -0.45593999997E+02  0.45594000000E+02  0.51100000000E-03 0. -1.
    9900012    2    1    2    0    0  0.31693141537E+01  0.13901263662E+02 -0.28520698778E+02  0.59301953798E+02  0.50000017818E+02 0.  0.
        -12    1    1    2    0    0 -0.31693141537E+01 -0.13901263662E+02  0.28520698778E+02  0.31886046202E+02  0.00000000000E+00 0.  1.
         11    1    3    3    0    0  0.10528774185E+02 -0.47231452429E+01  0.81292894919E+00  0.11568234116E+02  0.51100000000E-03 0. -1.
        -11    1    3    3    0    0 -0.17211388762E+01  0.67340400130E+01 -0.33277785834E+02  0.33995891578E+02  0.51100000000E-03 0.  1.
        -12    1    3    3    0    0 -0.56383211549E+01  0.11890368892E+02  0.39441581063E+01  0.13737828104E+02  0.00000000000E+00 0.  1.
</event>
<event>
 7    1  0.6293596E-013  0.5930191E+02  0.7816164E-02  0.1266605E+00
        -11   -1    0    0    0    0  0.00000000000E+00  0.00000000000E+00  0.45593999997E+02  0.45594000000E+02  0.51100000000E-03 0. -1.
         11   -1    0    0    0    0 -0.00000000000E+00 -0.00000000000E+00 -0.45593999997E+02  0.45594000000E+02  0.51100000000E-03 0.  1.
    9900012    2    1    2    0    0 -0.12276354710E+02  0.25053007518E+02  0.15438923722E+02  0.59301914691E+02  0.49999946497E+02 0.  0.
        -12    1    1    2    0    0  0.12276354710E+02 -0.25053007518E+02 -0.15438923722E+02  0.31886085309E+02  0.00000000000E+00 0.  1.
         11    1    3    3    0    0  0.81783922971E+00  0.26967391554E+02 -0.84550685641E+01  0.28273614076E+02  0.51100000000E-03 0. -1.
        -11    1    3    3    0    0 -0.15719672415E+02  0.83185561021E+00  0.17087547452E+02  0.23233259840E+02  0.51100000000E-03 0.  1.
        -12    1    3    3    0    0  0.26254784750E+01 -0.27462396463E+01  0.68064448334E+01  0.77950407752E+01  0.00000000000E+00 0.  1.
</event>
<event>
 7    1  0.6293596E-013  0.5930194E+02  0.7816164E-02  0.1266605E+00
        -11   -1    0    0    0    0  0.00000000000E+00  0.00000000000E+00  0.45593999997E+02  0.45594000000E+02  0.51100000000E-03 0.  1.
         11   -1    0    0    0    0 -0.00000000000E+00 -0.00000000000E+00 -0.45593999997E+02  0.45594000000E+02  0.51100000000E-03 0. -1.
    9900012    2    1    2    0    0 -0.29599161820E+01  0.24922278909E+02 -0.19668240771E+02  0.59301940588E+02  0.49999993726E+02 0.  0.
        -12    1    1    2    0    0  0.29599161820E+01 -0.24922278909E+02  0.19668240771E+02  0.31886059412E+02  0.00000000000E+00 0.  1.
         11    1    3    3    0    0 -0.21920039693E+02  0.24728034304E+02 -0.12261935019E+02  0.35246544105E+02  0.51100000000E-03 0. -1.
        -11    1    3    3    0    0  0.19089502282E+02 -0.31414777538E+01 -0.74109953405E+01  0.20717162741E+02  0.51100000000E-03 0.  1.
        -12    1    3    3    0    0 -0.12937877059E+00  0.33357223585E+01  0.46895878963E-02  0.33382337413E+01  0.00000000000E+00 0.  1.
</event>
<event>
 7    1  0.6293596E-013  0.5930194E+02  0.7816164E-02  0.1266605E+00
        -11   -1    0    0    0    0  0.00000000000E+00  0.00000000000E+00  0.45593999997E+02  0.45594000000E+02  0.51100000000E-03 0.  1.
         11   -1    0    0    0    0 -0.00000000000E+00 -0.00000000000E+00 -0.45593999997E+02  0.45594000000E+02  0.51100000000E-03 0. -1.
    9900012    2    1    2    0    0 -0.29046398137E+02  0.27698922095E+01 -0.12859041860E+02  0.59301944974E+02  0.50000001725E+02 0.  0.
        -12    1    1    2    0    0  0.29046398137E+02 -0.27698922095E+01  0.12859041860E+02  0.31886055026E+02  0.00000000000E+00 0.  1.
         11    1    3    3    0    0 -0.15253127706E+02 -0.36538826260E+00 -0.10770078251E+02  0.18675813213E+02  0.51100000000E-03 0. -1.
        -11    1    3    3    0    0 -0.80230777278E+01  0.15094146231E+02  0.12290508981E+02  0.21053732162E+02  0.51100000000E-03 0.  1.
        -12    1    3    3    0    0 -0.57701927032E+01 -0.11958865759E+02 -0.14379472591E+02  0.19572399599E+02  0.00000000000E+00 0.  1.
</event>
<event>
 7    1  0.6293596E-013  0.5930194E+02  0.7816164E-02  0.1266605E+00
        -11   -1    0    0    0    0  0.00000000000E+00  0.00000000000E+00  0.45593999997E+02  0.45594000000E+02  0.51100000000E-03 0.  1.
         11   -1    0    0    0    0 -0.00000000000E+00 -0.00000000000E+00 -0.45593999997E+02  0.45594000000E+02  0.51100000000E-03 0. -1.
    9900012    2    1    2    0    0  0.21197943274E+02  0.19436856835E+02 -0.13768678758E+02  0.59301941646E+02  0.49999995655E+02 0.  0.
        -12    1    1    2    0    0 -0.21197943274E+02 -0.19436856835E+02  0.13768678758E+02  0.31886058354E+02  0.00000000000E+00 0.  1.
         11    1    3    3    0    0 -0.10863736856E+02  0.15992245241E+02 -0.14992511827E+02  0.24465242641E+02  0.51100000000E-03 0. -1.
        -11    1    3    3    0    0  0.16119274027E+02  0.10619493687E+01  0.71454243992E+01  0.17663969592E+02  0.51100000000E-03 0.  1.
         12    1    3    3    0    0  0.15942406103E+02  0.23826622253E+01 -0.59215913298E+01  0.17172729413E+02  0.00000000000E+00 0. -1.
</event>
<event>
 7    1  0.6293596E-013  0.5930193E+02  0.7816164E-02  0.1266605E+00
        -11   -1    0    0    0    0  0.00000000000E+00  0.00000000000E+00  0.45593999997E+02  0.45594000000E+02  0.51100000000E-03 0.  1.
         11   -1    0    0    0    0 -0.00000000000E+00 -0.00000000000E+00 -0.45593999997E+02  0.45594000000E+02  0.51100000000E-03 0. -1.
    9900012    2    1    2    0    0 -0.11251243591E+02  0.15810111334E+02  0.25301607664E+02  0.59301930108E+02  0.49999974614E+02 0.  0.
        -12    1    1    2    0    0  0.11251243591E+02 -0.15810111334E+02 -0.25301607664E+02  0.31886069892E+02  0.00000000000E+00 0.  1.
         11    1    3    3    0    0  0.50988492454E+01  0.14283283951E+01 -0.10928848693E+02  0.12144056968E+02  0.51100000000E-03 0. -1.
        -11    1    3    3    0    0 -0.12605997882E+02  0.19608650493E+02  0.31443277498E+02  0.39141921987E+02  0.51100000000E-03 0.  1.
        -12    1    3    3    0    0 -0.37440949543E+01 -0.52268675538E+01  0.47871788596E+01  0.80159511529E+01  0.00000000000E+00 0.  1.
</event>
<event>
 7    1  0.6293596E-013  0.5930193E+02  0.7816164E-02  0.1266605E+00
        -11   -1    0    0    0    0  0.00000000000E+00  0.00000000000E+00  0.45593999997E+02  0.45594000000E+02  0.51100000000E-03 0. -1.
         11   -1    0    0    0    0 -0.00000000000E+00 -0.00000000000E+00 -0.45593999997E+02  0.45594000000E+02  0.51100000000E-03 0.  1.
    9900012    2    1    2    0    0 -0.34291756963E+01 -0.26365220140E+02  0.17602192083E+02  0.59301933370E+02  0.49999980564E+02 0.  0.
        -12    1    1    2    0    0  0.34291756963E+01  0.26365220140E+02 -0.17602192083E+02  0.31886066630E+02  0.00000000000E+00 0.  1.
         11    1    3    3    0    0  0.56760433826E+01 -0.84558823150E+01  0.81009617728E+01  0.13013262316E+02  0.51100000000E-03 0. -1.
        -11    1    3    3    0    0  0.23848610705E+01 -0.92464198410E+01 -0.15054325002E+02  0.17827409899E+02  0.51100000000E-03 0.  1.
        -12    1    3    3    0    0 -0.11490080149E+02 -0.86629179839E+01  0.24555555312E+02  0.28461261155E+02  0.00000000000E+00 0.  1.
</event>
<event>
 7    1  0.6293596E-013  0.5930191E+02  0.7816164E-02  0.1266605E+00
        -11   -1    0    0    0    0  0.00000000000E+00  0.00000000000E+00  0.45593999997E+02  0.45594000000E+02  0.51100000000E-03 0. -1.
         11   -1    0    0    0    0 -0.00000000000E+00 -0.00000000000E+00 -0.45593999997E+02  0.45594000000E+02  0.51100000000E-03 0.  1.
    9900012    2    1    2    0    0 -0.32912864352E+01 -0.31218446353E+02 -0.55945084275E+01  0.59301913949E+02  0.49999945144E+02 0.  0.
        -12    1    1    2    0    0  0.32912864352E+01  0.31218446353E+02  0.55945084275E+01  0.31886086051E+02  0.00000000000E+00 0.  1.
         11    1    3    3    0    0 -0.61259623157E+01 -0.43643618945E+02 -0.31216018752E+01  0.44181866048E+02  0.51100000000E-03 0. -1.
        -11    1    3    3    0    0 -0.13119870521E+01  0.88117307550E+01  0.39395870872E+00  0.89175732489E+01  0.51100000000E-03 0.  1.
         12    1    3    3    0    0  0.41466629326E+01  0.36134418376E+01 -0.28668652611E+01  0.62024746525E+01  0.00000000000E+00 0. -1.
</event>
<event>
 7    1  0.6293596E-013  0.5930194E+02  0.7816164E-02  0.1266605E+00
        -11   -1    0    0    0    0  0.00000000000E+00  0.00000000000E+00  0.45593999997E+02  0.45594000000E+02  0.51100000000E-03 0. -1.
         11   -1    0    0    0    0 -0.00000000000E+00 -0.00000000000E+00 -0.45593999997E+02  0.45594000000E+02  0.51100000000E-03 0.  1.
    9900012    2    1    2    0    0 -0.16240161557E+02 -0.22958742255E+02 -0.15029112824E+02  0.59301938380E+02  0.49999989700E+02 0.  0.
        -12    1    1    2    0    0  0.16240161557E+02  0.22958742255E+02  0.15029112824E+02  0.31886061620E+02  0.00000000000E+00 0.  1.
         11    1    3    3    0    0 -0.99401830787E+01  0.30130829651E+01  0.85890474854E+01  0.13478043091E+02  0.51100000000E-03 0. -1.
        -11    1    3    3    0    0 -0.16167189840E+02 -0.22331834202E+02 -0.11758182940E+02  0.29972382496E+02  0.51100000000E-03 0.  1.
         12    1    3    3    0    0  0.98672113610E+01 -0.36399910183E+01 -0.11859977369E+02  0.15851512793E+02  0.00000000000E+00 0. -1.
</event>
<event>
 7    1  0.6293596E-013  0.5930199E+02  0.7816164E-02  0.1266605E+00
        -11   -1    0    0    0    0  0.00000000000E+00  0.00000000000E+00  0.45593999997E+02  0.45594000000E+02  0.51100000000E-03 0.  1.
         11   -1    0    0    0    0 -0.00000000000E+00 -0.00000000000E+00 -0.45593999997E+02  0.45594000000E+02  0.51100000000E-03 0. -1.
    9900012    2    1    2    0    0 -0.12870774185E+02 -0.28838234324E+02 -0.44065086584E+01  0.59301985737E+02  0.50000076068E+02 0.  0.
        -12    1    1    2    0    0  0.12870774185E+02  0.28838234324E+02  0.44065086584E+01  0.31886014263E+02  0.00000000000E+00 0.  1.
         11    1    3    3    0    0  0.16218783223E+02 -0.11265648260E+02 -0.11839132891E+02  0.23024526657E+02  0.51100000000E-03 0. -1.
        -11    1    3    3    0    0 -0.16379787227E+02 -0.62879407224E+01 -0.42976853423E+00  0.17550507952E+02  0.51100000000E-03 0.  1.
         12    1    3    3    0    0 -0.12709770181E+02 -0.11284645342E+02  0.78623927664E+01  0.18726951128E+02  0.00000000000E+00 0. -1.
</event>
<event>
 7    1  0.6293596E-013  0.5930193E+02  0.7816164E-02  0.1266605E+00
        -11   -1    0    0    0    0  0.00000000000E+00  0.00000000000E+00  0.45593999997E+02  0.45594000000E+02  0.51100000000E-03 0. -1.
         11   -1    0    0    0    0 -0.00000000000E+00 -0.00000000000E+00 -0.45593999997E+02  0.45594000000E+02  0.51100000000E-03 0.  1.
    9900012    2    1    2    0    0  0.23872419564E+02  0.18351869976E+02  0.10489903075E+02  0.59301927586E+02  0.49999970014E+02 0.  0.
        -12    1    1    2    0    0 -0.23872419564E+02 -0.18351869976E+02 -0.10489903075E+02  0.31886072414E+02  0.00000000000E+00 0.  1.
         11    1    3    3    0    0 -0.68668394625E+01  0.20367400709E+02  0.35839684411E+01  0.21790578833E+02  0.51100000000E-03 0.  1.
        -11    1    3    3    0    0  0.23348739704E+02  0.41203830323E+01  0.12070574879E+02  0.26605262267E+02  0.51100000000E-03 0. -1.
        -12    1    3    3    0    0  0.73905193222E+01 -0.61359137650E+01 -0.51646402446E+01  0.10906086486E+02  0.00000000000E+00 0.  1.
</event>
<event>
 7    1  0.6293596E-013  0.5930192E+02  0.7816164E-02  0.1266605E+00
        -11   -1    0    0    0    0  0.00000000000E+00  0.00000000000E+00  0.45593999997E+02  0.45594000000E+02  0.51100000000E-03 0.  1.
         11   -1    0    0    0    0 -0.00000000000E+00 -0.00000000000E+00 -0.45593999997E+02  0.45594000000E+02  0.51100000000E-03 0. -1.
    9900012    2    1    2    0    0  0.14771566070E+02  0.27692663427E+02 -0.56248719301E+01  0.59301922222E+02  0.49999960232E+02 0.  0.
        -12    1    1    2    0    0 -0.14771566070E+02 -0.27692663427E+02  0.56248719301E+01  0.31886077778E+02  0.00000000000E+00 0.  1.
         11    1    3    3    0    0  0.23733093700E+02  0.16653172253E+02 -0.16279759858E+02  0.33250841552E+02  0.51100000000E-03 0. -1.
        -11    1    3    3    0    0  0.38355970669E+01 -0.12499218844E+01  0.67815381691E+01  0.78907141487E+01  0.51100000000E-03 0.  1.
         12    1    3    3    0    0 -0.12797124697E+02  0.12289413058E+02  0.38733497589E+01  0.18160366521E+02  0.00000000000E+00 0. -1.
</event>
<event>
 7    1  0.6293596E-013  0.5930192E+02  0.7816164E-02  0.1266605E+00
        -11   -1    0    0    0    0  0.00000000000E+00  0.00000000000E+00  0.45593999997E+02  0.45594000000E+02  0.51100000000E-03 0. -1.
         11   -1    0    0    0    0 -0.00000000000E+00 -0.00000000000E+00 -0.45593999997E+02  0.45594000000E+02  0.51100000000E-03 0.  1.
    9900012    2    1    2    0    0  0.18931344544E+02 -0.10537581992E+02  0.23394134612E+02  0.59301921929E+02  0.49999959698E+02 0.  0.
        -12    1    1    2    0    0 -0.18931344544E+02  0.10537581992E+02 -0.23394134612E+02  0.31886078071E+02  0.00000000000E+00 0.  1.
         11    1    3    3    0    0  0.94957529015E+01  0.16046168200E+02 -0.81457698366E+00  0.18663128703E+02  0.51100000000E-03 0. -1.
        -11    1    3    3    0    0  0.12826573235E+02 -0.22004572772E+02  0.14303272244E+02  0.29211398477E+02  0.51100000000E-03 0.  1.
         12    1    3    3    0    0 -0.33909815930E+01 -0.45791774202E+01  0.99054393520E+01  0.11427394750E+02  0.00000000000E+00 0. -1.
</event>
<event>
 7    1  0.6293596E-013  0.5930193E+02  0.7816164E-02  0.1266605E+00
        -11   -1    0    0    0    0  0.00000000000E+00  0.00000000000E+00  0.45593999997E+02  0.45594000000E+02  0.51100000000E-03 0.  1.
         11   -1    0    0    0    0 -0.00000000000E+00 -0.00000000000E+00 -0.45593999997E+02  0.45594000000E+02  0.51100000000E-03 0. -1.
    9900012    2    1    2    0    0 -0.25345632383E+02  0.61120458203E+01 -0.18356559850E+02  0.59301929773E+02  0.49999974003E+02 0.  0.
        -12    1    1    2    0    0  0.25345632383E+02 -0.61120458203E+01  0.18356559850E+02  0.31886070227E+02  0.00000000000E+00 0.  1.
         11    1    3    3    0    0 -0.33439579933E+02  0.10438218591E+02 -0.10974657146E+02  0.36709740031E+02  0.51100000000E-03 0. -1.
        -11    1    3    3    0    0  0.13949336552E+02  0.16425853320E+00 -0.53228412462E+01  0.14931296337E+02  0.51100000000E-03 0.  1.
        -12    1    3    3    0    0 -0.58553890024E+01 -0.44904313042E+01 -0.20590614578E+01  0.76608934044E+01  0.00000000000E+00 0.  1.
</event>
<event>
 7    1  0.6293596E-013  0.5930193E+02  0.7816164E-02  0.1266605E+00
        -11   -1    0    0    0    0  0.00000000000E+00  0.00000000000E+00  0.45593999997E+02  0.45594000000E+02  0.51100000000E-03 0. -1.
         11   -1    0    0    0    0 -0.00000000000E+00 -0.00000000000E+00 -0.45593999997E+02  0.45594000000E+02  0.51100000000E-03 0.  1.
    9900012    2    1    2    0    0 -0.23775258147E+02 -0.20629841159E+02  0.50861035848E+01  0.59301926302E+02  0.49999967672E+02 0.  0.
        -12    1    1    2    0    0  0.23775258147E+02  0.20629841159E+02 -0.50861035848E+01  0.31886073698E+02  0.00000000000E+00 0.  1.
         11    1    3    3    0    0  0.60116985260E+00 -0.23266355421E+02  0.37444376825E+00  0.23277132731E+02  0.51100000000E-03 0. -1.
        -11    1    3    3    0    0 -0.26351954380E+02 -0.28529920611E+01  0.98237104646E+01  0.28267832441E+02  0.51100000000E-03 0.  1.
         12    1    3    3    0    0  0.19755263806E+01  0.54895063229E+01 -0.51120506480E+01  0.77569611303E+01  0.00000000000E+00 0. -1.
</event>
<event>
 7    1  0.6293596E-013  0.5930195E+02  0.7816164E-02  0.1266605E+00
        -11   -1    0    0    0    0  0.00000000000E+00  0.00000000000E+00  0.45593999997E+02  0.45594000000E+02  0.51100000000E-03 0. -1.
         11   -1    0    0    0    0 -0.00000000000E+00 -0.00000000000E+00 -0.45593999997E+02  0.45594000000E+02  0.51100000000E-03 0.  1.
    9900012    2    1    2    0    0  0.48348162936E+01 -0.78527783467E+01  0.30523407203E+02  0.59301953465E+02  0.50000017211E+02 0.  0.
        -12    1    1    2    0    0 -0.48348162936E+01  0.78527783467E+01 -0.30523407203E+02  0.31886046535E+02  0.00000000000E+00 0.  1.
         11    1    3    3    0    0  0.92047185465E+00  0.14949686376E+01  0.15164029866E+01  0.23198443787E+01  0.51100000000E-03 0. -1.
        -11    1    3    3    0    0 -0.10618087647E+02  0.25363523081E+01 -0.92879181500E+01  0.14333258253E+02  0.51100000000E-03 0.  1.
        -12    1    3    3    0    0  0.14532432086E+02 -0.11884099292E+02  0.38294922367E+02  0.42648850833E+02  0.00000000000E+00 0.  1.
</event>
<event>
 7    1  0.6293596E-013  0.5930198E+02  0.7816164E-02  0.1266605E+00
        -11   -1    0    0    0    0  0.00000000000E+00  0.00000000000E+00  0.45593999997E+02  0.45594000000E+02  0.51100000000E-03 0.  1.
         11   -1    0    0    0    0 -0.00000000000E+00 -0.00000000000E+00 -0.45593999997E+02  0.45594000000E+02  0.51100000000E-03 0. -1.
    9900012    2    1    2    0    0 -0.11894758490E+02 -0.26030863820E+02 -0.14057990155E+02  0.59301980526E+02  0.50000066563E+02 0.  0.
        -12    1    1    2    0    0  0.11894758490E+02  0.26030863820E+02  0.14057990155E+02  0.31886019474E+02  0.00000000000E+00 0.  1.
         11    1    3    3    0    0 -0.11121905893E+02 -0.86087785743E+01 -0.12681930239E+02  0.18937772152E+02  0.51100000000E-03 0. -1.
        -11    1    3    3    0    0  0.13730752976E+02  0.29876947441E+01  0.42910785597E+01  0.14692625791E+02  0.51100000000E-03 0.  1.
        -12    1    3    3    0    0 -0.14503605572E+02 -0.20409779989E+02 -0.56671384762E+01  0.25671582583E+02  0.00000000000E+00 0.  1.
</event>
<event>
 7    1  0.6293596E-013  0.5930201E+02  0.7816164E-02  0.1266605E+00
        -11   -1    0    0    0    0  0.00000000000E+00  0.00000000000E+00  0.45593999997E+02  0.45594000000E+02  0.51100000000E-03 0.  1.
         11   -1    0    0    0    0 -0.00000000000E+00 -0.00000000000E+00 -0.45593999997E+02  0.45594000000E+02  0.51100000000E-03 0. -1.
    9900012    2    1    2    0    0  0.21461391212E+02 -0.22525907340E+02  0.69791541053E+01  0.59302009247E+02  0.50000118945E+02 0.  0.
        -12    1    1    2    0    0 -0.21461391212E+02  0.22525907340E+02 -0.69791541053E+01  0.31885990753E+02  0.00000000000E+00 0.  1.
         11    1    3    3    0    0 -0.68627651772E+01 -0.77430114484E+01 -0.26155809207E+01  0.10672068027E+02  0.51100000000E-03 0. -1.
        -11    1    3    3    0    0  0.32113412811E+02 -0.22125357839E+02  0.54191330307E+01  0.39372195074E+02  0.51100000000E-03 0.  1.
        -12    1    3    3    0    0 -0.37892564216E+01  0.73424619474E+01  0.41756019953E+01  0.92577461458E+01  0.00000000000E+00 0.  1.
</event>
<event>
 7    1  0.6293596E-013  0.5930195E+02  0.7816164E-02  0.1266605E+00
        -11   -1    0    0    0    0  0.00000000000E+00  0.00000000000E+00  0.45593999997E+02  0.45594000000E+02  0.51100000000E-03 0. -1.
         11   -1    0    0    0    0 -0.00000000000E+00 -0.00000000000E+00 -0.45593999997E+02  0.45594000000E+02  0.51100000000E-03 0.  1.
    9900012    2    1    2    0    0  0.29808943792E+02  0.11301330174E+02 -0.65355226284E+00  0.59301947810E+02  0.50000006898E+02 0.  0.
        -12    1    1    2    0    0 -0.29808943792E+02 -0.11301330174E+02  0.65355226284E+00  0.31886052190E+02  0.00000000000E+00 0.  1.
         11    1    3    3    0    0  0.27713492047E+02  0.28488856399E+01  0.11777585246E+01  0.27884420493E+02  0.51100000000E-03 0. -1.
        -11    1    3    3    0    0 -0.33690320530E+01 -0.76262997973E+01  0.82000361341E+01  0.11694076211E+02  0.51100000000E-03 0.  1.
        -12    1    3    3    0    0  0.54644837974E+01  0.16078744332E+02 -0.10031346922E+02  0.19723451106E+02  0.00000000000E+00 0.  1.
</event>
<event>
 7    1  0.6293596E-013  0.5930196E+02  0.7816164E-02  0.1266605E+00
        -11   -1    0    0    0    0  0.00000000000E+00  0.00000000000E+00  0.45593999997E+02  0.45594000000E+02  0.51100000000E-03 0.  1.
         11   -1    0    0    0    0 -0.00000000000E+00 -0.00000000000E+00 -0.45593999997E+02  0.45594000000E+02  0.51100000000E-03 0. -1.
    9900012    2    1    2    0    0  0.14092862704E+02 -0.14039522528E+02 -0.24919924103E+02  0.59301959335E+02  0.50000027916E+02 0.  0.
        -12    1    1    2    0    0 -0.14092862704E+02  0.14039522528E+02  0.24919924103E+02  0.31886040665E+02  0.00000000000E+00 0.  1.
         11    1    3    3    0    0  0.27249443967E+02  0.64736765664E+01 -0.13368162423E+02  0.31034633099E+02  0.51100000000E-03 0. -1.
        -11    1    3    3    0    0 -0.10028056090E+02 -0.78065650095E+01 -0.59596963607E+01  0.14036464909E+02  0.51100000000E-03 0.  1.
         12    1    3    3    0    0 -0.31285251737E+01 -0.12706634085E+02 -0.55920653197E+01  0.14230861326E+02  0.00000000000E+00 0. -1.
</event>
<event>
 7    1  0.6293596E-013  0.5930195E+02  0.7816164E-02  0.1266605E+00
        -11   -1    0    0    0    0  0.00000000000E+00  0.00000000000E+00  0.45593999997E+02  0.45594000000E+02  0.51100000000E-03 0.  1.
         11   -1    0    0    0    0 -0.00000000000E+00 -0.00000000000E+00 -0.45593999997E+02  0.45594000000E+02  0.51100000000E-03 0. -1.
    9900012    2    1    2    0    0 -0.16990199606E+02 -0.18236021239E+01 -0.26920770330E+02  0.59301948465E+02  0.50000008093E+02 0.  0.
        -12    1    1    2    0    0  0.16990199606E+02  0.18236021239E+01  0.26920770330E+02  0.31886051535E+02  0.00000000000E+00 0.  1.
         11    1    3    3    0    0  0.23403560884E+01 -0.66460740948E+01 -0.36435922587E+01  0.79324228520E+01  0.51100000000E-03 0. -1.
        -11    1    3    3    0    0 -0.30799242290E+02  0.10973873345E+02 -0.18026771054E+02  0.37336091075E+02  0.51100000000E-03 0.  1.
        -12    1    3    3    0    0  0.11468686596E+02 -0.61514013745E+01 -0.52504070168E+01  0.14033434539E+02  0.00000000000E+00 0.  1.
</event>
<event>
 7    1  0.6293596E-013  0.5930204E+02  0.7816164E-02  0.1266604E+00
        -11   -1    0    0    0    0  0.00000000000E+00  0.00000000000E+00  0.45593999997E+02  0.45594000000E+02  0.51100000000E-03 0.  1.
         11   -1    0    0    0    0 -0.00000000000E+00 -0.00000000000E+00 -0.45593999997E+02  0.45594000000E+02  0.51100000000E-03 0. -1.
    9900012    2    1    2    0    0  0.26808422855E+02  0.76304526480E+01 -0.15485457928E+02  0.59302035206E+02  0.50000166287E+02 0.  0.
        -12    1    1    2    0    0 -0.26808422855E+02 -0.76304526480E+01  0.15485457928E+02  0.31885964794E+02  0.00000000000E+00 0.  1.
         11    1    3    3    0    0  0.17111801279E+02  0.95738966151E+01 -0.19950765938E+02  0.27973314090E+02  0.51100000000E-03 0. -1.
        -11    1    3    3    0    0  0.48515656833E+01  0.75579862761E+01  0.14257091871E+02  0.16850089466E+02  0.51100000000E-03 0.  1.
        -12    1    3    3    0    0  0.48450558929E+01 -0.95014302433E+01 -0.97917838609E+01  0.14478631650E+02  0.00000000000E+00 0.  1.
</event>
<event>
 7    1  0.6293596E-013  0.5930194E+02  0.7816164E-02  0.1266605E+00
        -11   -1    0    0    0    0  0.00000000000E+00  0.00000000000E+00  0.45593999997E+02  0.45594000000E+02  0.51100000000E-03 0.  1.
         11   -1    0    0    0    0 -0.00000000000E+00 -0.00000000000E+00 -0.45593999997E+02  0.45594000000E+02  0.51100000000E-03 0. -1.
    9900012    2    1    2    0    0  0.22892458370E+02 -0.14304567671E+02 -0.16971610253E+02  0.59301939392E+02  0.49999991546E+02 0.  0.
        -12    1    1    2    0    0 -0.22892458370E+02  0.14304567671E+02  0.16971610253E+02  0.31886060608E+02  0.00000000000E+00 0.  1.
         11    1    3    3    0    0  0.24847046789E+02 -0.90409593932E+01 -0.10608686891E+02  0.28489628265E+02  0.51100000000E-03 0. -1.
        -11    1    3    3    0    0 -0.24790247802E+01 -0.61324584196E+01  0.11314314723E+02  0.13105965361E+02  0.51100000000E-03 0.  1.
         12    1    3    3    0    0  0.52443636152E+00  0.86885014138E+00 -0.17677238085E+02  0.17706345766E+02  0.00000000000E+00 0. -1.
</event>
<event>
 7    1  0.6293596E-013  0.5930193E+02  0.7816164E-02  0.1266605E+00
        -11   -1    0    0    0    0  0.00000000000E+00  0.00000000000E+00  0.45593999997E+02  0.45594000000E+02  0.51100000000E-03 0. -1.
         11   -1    0    0    0    0 -0.00000000000E+00 -0.00000000000E+00 -0.45593999997E+02  0.45594000000E+02  0.51100000000E-03 0.  1.
    9900012    2    1    2    0    0 -0.22180916209E+02  0.76171513274E+01  0.21603418682E+02  0.59301925657E+02  0.49999966496E+02 0.  0.
        -12    1    1    2    0    0  0.22180916209E+02 -0.76171513274E+01 -0.21603418682E+02  0.31886074343E+02  0.00000000000E+00 0.  1.
         11    1    3    3    0    0  0.12669551857E+02 -0.12970747576E+01  0.10132637401E+02  0.16274836041E+02  0.51100000000E-03 0. -1.
        -11    1    3    3    0    0 -0.77040776843E+01  0.58419815024E+00 -0.59161437926E+01  0.97311283046E+01  0.51100000000E-03 0.  1.
         12    1    3    3    0    0 -0.27146390382E+02  0.83300279347E+01  0.17386925074E+02  0.33295961312E+02  0.00000000000E+00 0. -1.
</event>
<event>
 7    1  0.6293596E-013  0.5930190E+02  0.7816164E-02  0.1266605E+00
        -11   -1    0    0    0    0  0.00000000000E+00  0.00000000000E+00  0.45593999997E+02  0.45594000000E+02  0.51100000000E-03 0. -1.
         11   -1    0    0    0    0 -0.00000000000E+00 -0.00000000000E+00 -0.45593999997E+02  0.45594000000E+02  0.51100000000E-03 0.  1.
    9900012    2    1    2    0    0  0.14289991305E+02 -0.15398939712E+01  0.28463101443E+02  0.59301901639E+02  0.49999922693E+02 0.  0.
        -12    1    1    2    0    0 -0.14289991305E+02  0.15398939712E+01 -0.28463101443E+02  0.31886098361E+02  0.00000000000E+00 0.  1.
         11    1    3    3    0    0 -0.86144843401E+01 -0.14292652945E+01  0.42821479320E+00  0.87427402968E+01  0.51100000000E-03 0. -1.
        -11    1    3    3    0    0  0.13088255012E+02  0.15313859812E+02  0.24868199471E+02  0.32003813317E+02  0.51100000000E-03 0.  1.
        -12    1    3    3    0    0  0.98162206327E+01 -0.15424488489E+02  0.31666871789E+01  0.18555348025E+02  0.00000000000E+00 0.  1.
</event>
<event>
 7    1  0.6293596E-013  0.5930194E+02  0.7816164E-02  0.1266605E+00
        -11   -1    0    0    0    0  0.00000000000E+00  0.00000000000E+00  0.45593999997E+02  0.45594000000E+02  0.51100000000E-03 0. -1.
         11   -1    0    0    0    0 -0.00000000000E+00 -0.00000000000E+00 -0.45593999997E+02  0.45594000000E+02  0.51100000000E-03 0.  1.
    9900012    2    1    2    0    0  0.98724633488E+01 -0.84645407064E+01  0.29113687518E+02  0.59301940620E+02  0.49999993784E+02 0.  0.
        -12    1    1    2    0    0 -0.98724633488E+01  0.84645407064E+01 -0.29113687518E+02  0.31886059380E+02  0.00000000000E+00 0.  1.
         11    1    3    3    0    0 -0.14862455457E+02  0.60838256690E+01  0.11601671482E+02  0.19811721239E+02  0.51100000000E-03 0.  1.
        -11    1    3    3    0    0  0.16069565513E+02 -0.15866473065E+02  0.20224453927E+02  0.30315086016E+02  0.51100000000E-03 0. -1.
         12    1    3    3    0    0  0.86653532933E+01  0.13181066893E+01 -0.27124378914E+01  0.91751333646E+01  0.00000000000E+00 0. -1.
</event>
<event>
 7    1  0.6293596E-013  0.5930194E+02  0.7816164E-02  0.1266605E+00
        -11   -1    0    0    0    0  0.00000000000E+00  0.00000000000E+00  0.45593999997E+02  0.45594000000E+02  0.51100000000E-03 0.  1.
         11   -1    0    0    0    0 -0.00000000000E+00 -0.00000000000E+00 -0.45593999997E+02  0.45594000000E+02  0.51100000000E-03 0. -1.
    9900012    2    1    2    0    0 -0.27393670407E+02  0.14722535512E+02 -0.70394891882E+01  0.59301942885E+02  0.49999997917E+02 0.  0.
        -12    1    1    2    0    0  0.27393670407E+02 -0.14722535512E+02  0.70394891882E+01  0.31886057115E+02  0.00000000000E+00 0.  1.
         11    1    3    3    0    0 -0.36631577404E+02 -0.34129875934E+01 -0.22227388210E+01  0.36857312918E+02  0.51100000000E-03 0. -1.
        -11    1    3    3    0    0  0.47935156470E+01  0.14984802167E+02 -0.94525057172E+00  0.15761205130E+02  0.51100000000E-03 0.  1.
         12    1    3    3    0    0  0.44443913491E+01  0.31507209376E+01 -0.38714997955E+01  0.66834248374E+01  0.00000000000E+00 0. -1.
</event>
<event>
 7    1  0.6293596E-013  0.5930196E+02  0.7816164E-02  0.1266605E+00
        -11   -1    0    0    0    0  0.00000000000E+00  0.00000000000E+00  0.45593999997E+02  0.45594000000E+02  0.51100000000E-03 0.  1.
         11   -1    0    0    0    0 -0.00000000000E+00 -0.00000000000E+00 -0.45593999997E+02  0.45594000000E+02  0.51100000000E-03 0. -1.
    9900012    2    1    2    0    0  0.23065166271E+02 -0.14058181112E+00 -0.22015859002E+02  0.59301957506E+02  0.50000024581E+02 0.  0.
        -12    1    1    2    0    0 -0.23065166271E+02  0.14058181112E+00  0.22015859002E+02  0.31886042494E+02  0.00000000000E+00 0.  1.
         11    1    3    3    0    0  0.19148706086E+02 -0.94629667612E+01 -0.86788718136E+01  0.23055227193E+02  0.51100000000E-03 0. -1.
        -11    1    3    3    0    0  0.64171778981E+01  0.17618465618E+02  0.17670136787E+01  0.18833821718E+02  0.51100000000E-03 0.  1.
        -12    1    3    3    0    0 -0.25007177131E+01 -0.82960806682E+01 -0.15104000867E+02  0.17412908594E+02  0.00000000000E+00 0.  1.
</event>
<event>
 7    1  0.6293596E-013  0.5930194E+02  0.7816164E-02  0.1266605E+00
        -11   -1    0    0    0    0  0.00000000000E+00  0.00000000000E+00  0.45593999997E+02  0.45594000000E+02  0.51100000000E-03 0.  1.
         11   -1    0    0    0    0 -0.00000000000E+00 -0.00000000000E+00 -0.45593999997E+02  0.45594000000E+02  0.51100000000E-03 0. -1.
    9900012    2    1    2    0    0 -0.35901467624E+01  0.23607209260E+02 -0.21131295173E+02  0.59301935356E+02  0.49999984185E+02 0.  0.
        -12    1    1    2    0    0  0.35901467624E+01 -0.23607209260E+02  0.21131295173E+02  0.31886064644E+02  0.00000000000E+00 0.  1.
         11    1    3    3    0    0  0.18996785041E+02  0.35667829953E+01 -0.13463696411E+02  0.23555697912E+02  0.51100000000E-03 0. -1.
        -11    1    3    3    0    0 -0.72358444331E+01 -0.14812453014E+01  0.19105360123E+01  0.76290025835E+01  0.51100000000E-03 0.  1.
         12    1    3    3    0    0 -0.15351087370E+02  0.21521671566E+02 -0.95781347744E+01  0.28117234860E+02  0.00000000000E+00 0. -1.
</event>
<event>
 7    1  0.6293596E-013  0.5930192E+02  0.7816164E-02  0.1266605E+00
        -11   -1    0    0    0    0  0.00000000000E+00  0.00000000000E+00  0.45593999997E+02  0.45594000000E+02  0.51100000000E-03 0. -1.
         11   -1    0    0    0    0 -0.00000000000E+00 -0.00000000000E+00 -0.45593999997E+02  0.45594000000E+02  0.51100000000E-03 0.  1.
    9900012    2    1    2    0    0 -0.13241272826E+02 -0.22174121033E+02  0.18700246168E+02  0.59301919081E+02  0.49999954503E+02 0.  0.
        -12    1    1    2    0    0  0.13241272826E+02  0.22174121033E+02 -0.18700246168E+02  0.31886080919E+02  0.00000000000E+00 0.  1.
         11    1    3    3    0    0 -0.14403936773E+02 -0.36188302034E+02  0.20481143256E+02  0.44006179430E+02  0.51100000000E-03 0. -1.
        -11    1    3    3    0    0  0.39289952837E+00  0.10158807249E+02  0.13688546306E+01  0.10258143010E+02  0.51100000000E-03 0.  1.
         12    1    3    3    0    0  0.76976441918E+00  0.38553737520E+01 -0.31497517188E+01  0.50375966411E+01  0.00000000000E+00 0. -1.
</event>
<event>
 7    1  0.6293596E-013  0.5930194E+02  0.7816164E-02  0.1266605E+00
        -11   -1    0    0    0    0  0.00000000000E+00  0.00000000000E+00  0.45593999997E+02  0.45594000000E+02  0.51100000000E-03 0. -1.
         11   -1    0    0    0    0 -0.00000000000E+00 -0.00000000000E+00 -0.45593999997E+02  0.45594000000E+02  0.51100000000E-03 0.  1.
    9900012    2    1    2    0    0  0.29311742416E+02  0.11546160323E+02 -0.49222612743E+01  0.59301941640E+02  0.49999995645E+02 0.  0.
        -12    1    1    2    0    0 -0.29311742416E+02 -0.11546160323E+02  0.49222612743E+01  0.31886058360E+02  0.00000000000E+00 0.  1.
         11    1    3    3    0    0  0.27753145366E+02  0.93753267167E+00  0.33375653479E+01  0.27968828862E+02  0.51100000000E-03 0. -1.
        -11    1    3    3    0    0 -0.74105028120E+01 -0.51069530250E+01 -0.96370013803E+01  0.13185913582E+02  0.51100000000E-03 0.  1.
        -12    1    3    3    0    0  0.89690998625E+01  0.15715580676E+02  0.13771747581E+01  0.18147199196E+02  0.00000000000E+00 0.  1.
</event>
<event>
 7    1  0.6293596E-013  0.5930197E+02  0.7816164E-02  0.1266605E+00
        -11   -1    0    0    0    0  0.00000000000E+00  0.00000000000E+00  0.45593999997E+02  0.45594000000E+02  0.51100000000E-03 0.  1.
         11   -1    0    0    0    0 -0.00000000000E+00 -0.00000000000E+00 -0.45593999997E+02  0.45594000000E+02  0.51100000000E-03 0. -1.
    9900012    2    1    2    0    0 -0.20427221821E+02  0.57869673723E+01 -0.23789889321E+02  0.59301965179E+02  0.50000038575E+02 0.  0.
        -12    1    1    2    0    0  0.20427221821E+02 -0.57869673723E+01  0.23789889321E+02  0.31886034821E+02  0.00000000000E+00 0.  1.
         11    1    3    3    0    0 -0.19229017538E+02  0.96622650959E+01 -0.22627301005E+02  0.31226739075E+02  0.51100000000E-03 0. -1.
        -11    1    3    3    0    0  0.94867898116E+01  0.62251095397E+01  0.46526523541E+01  0.12263700253E+02  0.51100000000E-03 0.  1.
        -12    1    3    3    0    0 -0.10684994094E+02 -0.10100407263E+02 -0.58152406707E+01  0.15811525851E+02  0.00000000000E+00 0.  1.
</event>
<event>
 7    1  0.6293596E-013  0.5930194E+02  0.7816164E-02  0.1266605E+00
        -11   -1    0    0    0    0  0.00000000000E+00  0.00000000000E+00  0.45593999997E+02  0.45594000000E+02  0.51100000000E-03 0.  1.
         11   -1    0    0    0    0 -0.00000000000E+00 -0.00000000000E+00 -0.45593999997E+02  0.45594000000E+02  0.51100000000E-03 0. -1.
    9900012    2    1    2    0    0  0.61618842540E+01  0.57707091652E+01 -0.30748185848E+02  0.59301939805E+02  0.49999992298E+02 0.  0.
        -12    1    1    2    0    0 -0.61618842540E+01 -0.57707091652E+01  0.30748185848E+02  0.31886060195E+02  0.00000000000E+00 0.  1.
         11    1    3    3    0    0 -0.76758639109E+01  0.21135458811E+01  0.50018092482E+00  0.79772265976E+01  0.51100000000E-03 0. -1.
        -11    1    3    3    0    0  0.91122003506E+01 -0.14819328524E+02 -0.26451392964E+02  0.31659451719E+02  0.51100000000E-03 0.  1.
        -12    1    3    3    0    0  0.47255478142E+01  0.18476491808E+02 -0.47969738093E+01  0.19665261488E+02  0.00000000000E+00 0.  1.
</event>
<event>
 7    1  0.6293596E-013  0.5930203E+02  0.7816164E-02  0.1266604E+00
        -11   -1    0    0    0    0  0.00000000000E+00  0.00000000000E+00  0.45593999997E+02  0.45594000000E+02  0.51100000000E-03 0.  1.
         11   -1    0    0    0    0 -0.00000000000E+00 -0.00000000000E+00 -0.45593999997E+02  0.45594000000E+02  0.51100000000E-03 0. -1.
    9900012    2    1    2    0    0 -0.13441338174E+02  0.99291896649E+01 -0.27156154524E+02  0.59302029608E+02  0.50000156077E+02 0.  0.
        -12    1    1    2    0    0  0.13441338174E+02 -0.99291896649E+01  0.27156154524E+02  0.31885970392E+02  0.00000000000E+00 0.  1.
         11    1    3    3    0    0 -0.35770923372E+01  0.12059586063E+01  0.39457160000E+01  0.54606410578E+01  0.51100000000E-03 0.  1.
        -11    1    3    3    0    0 -0.55911867373E+01  0.25763349586E+02 -0.19433681652E+02  0.32751786727E+02  0.51100000000E-03 0. -1.
        -12    1    3    3    0    0 -0.42730590992E+01 -0.17040118527E+02 -0.11668188872E+02  0.21089601823E+02  0.00000000000E+00 0.  1.
</event>
<event>
 7    1  0.6293596E-013  0.5930197E+02  0.7816164E-02  0.1266605E+00
        -11   -1    0    0    0    0  0.00000000000E+00  0.00000000000E+00  0.45593999997E+02  0.45594000000E+02  0.51100000000E-03 0. -1.
         11   -1    0    0    0    0 -0.00000000000E+00 -0.00000000000E+00 -0.45593999997E+02  0.45594000000E+02  0.51100000000E-03 0.  1.
    9900012    2    1    2    0    0  0.18302016650E+02  0.65814807113E+01  0.25267355006E+02  0.59301969660E+02  0.50000046747E+02 0.  0.
        -12    1    1    2    0    0 -0.18302016650E+02 -0.65814807113E+01 -0.25267355006E+02  0.31886030340E+02  0.00000000000E+00 0.  1.
         11    1    3    3    0    0 -0.28587563792E+01  0.12530964301E+02  0.18799342528E+02  0.22773072566E+02  0.51100000000E-03 0. -1.
        -11    1    3    3    0    0  0.10609287606E+02 -0.56049341073E+01 -0.10895719717E+02  0.16207682693E+02  0.51100000000E-03 0.  1.
        -12    1    3    3    0    0  0.10551485423E+02 -0.34454948263E+00  0.17363732195E+02  0.20321214401E+02  0.00000000000E+00 0.  1.
</event>
<event>
 7    1  0.6293596E-013  0.5930197E+02  0.7816164E-02  0.1266605E+00
        -11   -1    0    0    0    0  0.00000000000E+00  0.00000000000E+00  0.45593999997E+02  0.45594000000E+02  0.51100000000E-03 0.  1.
         11   -1    0    0    0    0 -0.00000000000E+00 -0.00000000000E+00 -0.45593999997E+02  0.45594000000E+02  0.51100000000E-03 0. -1.
    9900012    2    1    2    0    0 -0.21058129144E+02 -0.80887241685E+01 -0.22535447188E+02  0.59301974194E+02  0.50000055016E+02 0.  0.
        -12    1    1    2    0    0  0.21058129144E+02  0.80887241685E+01  0.22535447188E+02  0.31886025806E+02  0.00000000000E+00 0.  1.
         11    1    3    3    0    0  0.50402034356E+01 -0.99965047114E+01 -0.10624597884E+02  0.15434242372E+02  0.51100000000E-03 0.  1.
        -11    1    3    3    0    0 -0.21422802854E+02  0.10085408104E+02 -0.20349305584E+02  0.31220925303E+02  0.51100000000E-03 0. -1.
         12    1    3    3    0    0 -0.46755297259E+01 -0.81776275607E+01  0.84384562805E+01  0.12646806519E+02  0.00000000000E+00 0. -1.
</event>
<event>
 7    1  0.6293596E-013  0.5930193E+02  0.7816164E-02  0.1266605E+00
        -11   -1    0    0    0    0  0.00000000000E+00  0.00000000000E+00  0.45593999997E+02  0.45594000000E+02  0.51100000000E-03 0.  1.
         11   -1    0    0    0    0 -0.00000000000E+00 -0.00000000000E+00 -0.45593999997E+02  0.45594000000E+02  0.51100000000E-03 0. -1.
    9900012    2    1    2    0    0  0.12995301189E+02 -0.35506784198E+01 -0.28900450592E+02  0.59301933848E+02  0.49999981435E+02 0.  0.
        -12    1    1    2    0    0 -0.12995301189E+02  0.35506784198E+01  0.28900450592E+02  0.31886066152E+02  0.00000000000E+00 0.  1.
         11    1    3    3    0    0  0.24775269823E+02  0.30674629164E+01 -0.67423060254E+01  0.25858886564E+02  0.51100000000E-03 0. -1.
        -11    1    3    3    0    0 -0.13161030825E+01 -0.10128280662E+02 -0.19218981741E+01  0.10392684415E+02  0.51100000000E-03 0.  1.
         12    1    3    3    0    0 -0.10463865551E+02  0.35101393260E+01 -0.20236246392E+02  0.23050362869E+02  0.00000000000E+00 0. -1.
</event>
<event>
 7    1  0.6293596E-013  0.5930189E+02  0.7816164E-02  0.1266605E+00
        -11   -1    0    0    0    0  0.00000000000E+00  0.00000000000E+00  0.45593999997E+02  0.45594000000E+02  0.51100000000E-03 0.  1.
         11   -1    0    0    0    0 -0.00000000000E+00 -0.00000000000E+00 -0.45593999997E+02  0.45594000000E+02  0.51100000000E-03 0. -1.
    9900012    2    1    2    0    0 -0.20130777447E+02 -0.23094593134E+02  0.88383076506E+01  0.59301888371E+02  0.49999898496E+02 0.  0.
        -12    1    1    2    0    0  0.20130777447E+02  0.23094593134E+02 -0.88383076506E+01  0.31886111629E+02  0.00000000000E+00 0.  1.
         11    1    3    3    0    0  0.54503774813E+01  0.73632786332E+01  0.15048043122E+02  0.17617266785E+02  0.51100000000E-03 0.  1.
        -11    1    3    3    0    0 -0.21288205552E+02 -0.25959451536E+02 -0.91641296536E+01  0.34800317416E+02  0.51100000000E-03 0. -1.
         12    1    3    3    0    0 -0.42929493766E+01 -0.44984202317E+01  0.29543941826E+01  0.68843041709E+01  0.00000000000E+00 0. -1.
</event>
<event>
 7    1  0.6293596E-013  0.5930201E+02  0.7816164E-02  0.1266605E+00
        -11   -1    0    0    0    0  0.00000000000E+00  0.00000000000E+00  0.45593999997E+02  0.45594000000E+02  0.51100000000E-03 0.  1.
         11   -1    0    0    0    0 -0.00000000000E+00 -0.00000000000E+00 -0.45593999997E+02  0.45594000000E+02  0.51100000000E-03 0. -1.
    9900012    2    1    2    0    0  0.23955015308E+02  0.34360765512E+00 -0.21041759556E+02  0.59302008251E+02  0.50000117127E+02 0.  0.
        -12    1    1    2    0    0 -0.23955015308E+02 -0.34360765512E+00  0.21041759556E+02  0.31885991749E+02  0.00000000000E+00 0.  1.
         11    1    3    3    0    0  0.29512265554E+02 -0.21666552675E+01 -0.21397166954E+02  0.36517214667E+02  0.51100000000E-03 0. -1.
        -11    1    3    3    0    0 -0.77919305969E+01  0.21692976315E+01  0.10009851331E+02  0.12869233022E+02  0.51100000000E-03 0.  1.
        -12    1    3    3    0    0  0.22346803514E+01  0.34096529107E+00 -0.96544439326E+01  0.99155605616E+01  0.00000000000E+00 0.  1.
</event>
<event>
 7    1  0.6293596E-013  0.5930194E+02  0.7816164E-02  0.1266605E+00
        -11   -1    0    0    0    0  0.00000000000E+00  0.00000000000E+00  0.45593999997E+02  0.45594000000E+02  0.51100000000E-03 0. -1.
         11   -1    0    0    0    0 -0.00000000000E+00 -0.00000000000E+00 -0.45593999997E+02  0.45594000000E+02  0.51100000000E-03 0.  1.
    9900012    2    1    2    0    0  0.11513612205E+02  0.28887400007E+02  0.70480945497E+01  0.59301940633E+02  0.49999993809E+02 0.  0.
        -12    1    1    2    0    0 -0.11513612205E+02 -0.28887400007E+02 -0.70480945497E+01  0.31886059367E+02  0.00000000000E+00 0.  1.
         11    1    3    3    0    0  0.83449197421E+01  0.15206579474E+02  0.21773516599E+02  0.27838171100E+02  0.51100000000E-03 0. -1.
        -11    1    3    3    0    0  0.94661948464E+01  0.47288690543E+01 -0.17244721965E+02  0.20232436416E+02  0.51100000000E-03 0.  1.
         12    1    3    3    0    0 -0.62975023837E+01  0.89519514786E+01  0.25192999151E+01  0.11231333118E+02  0.00000000000E+00 0. -1.
</event>
<event>
 7    1  0.6293596E-013  0.5930184E+02  0.7816164E-02  0.1266605E+00
        -11   -1    0    0    0    0  0.00000000000E+00  0.00000000000E+00  0.45593999997E+02  0.45594000000E+02  0.51100000000E-03 0.  1.
         11   -1    0    0    0    0 -0.00000000000E+00 -0.00000000000E+00 -0.45593999997E+02  0.45594000000E+02  0.51100000000E-03 0. -1.
    9900012    2    1    2    0    0  0.83489898046E+01 -0.28398366313E+02 -0.11855561776E+02  0.59301840228E+02  0.49999810694E+02 0.  0.
        -12    1    1    2    0    0 -0.83489898046E+01  0.28398366313E+02  0.11855561776E+02  0.31886159772E+02  0.00000000000E+00 0.  1.
         11    1    3    3    0    0  0.77429112657E-01 -0.23715986167E+02  0.13037222731E+02  0.27063317829E+02  0.51100000000E-03 0.  1.
        -11    1    3    3    0    0  0.12929984736E+02 -0.72242978331E+01 -0.20810815584E+02  0.25543395037E+02  0.51100000000E-03 0. -1.
        -12    1    3    3    0    0 -0.46584240443E+01  0.25419176875E+01 -0.40819689228E+01  0.66951273619E+01  0.00000000000E+00 0.  1.
</event>
<event>
 7    1  0.6293596E-013  0.5930195E+02  0.7816164E-02  0.1266605E+00
        -11   -1    0    0    0    0  0.00000000000E+00  0.00000000000E+00  0.45593999997E+02  0.45594000000E+02  0.51100000000E-03 0.  1.
         11   -1    0    0    0    0 -0.00000000000E+00 -0.00000000000E+00 -0.45593999997E+02  0.45594000000E+02  0.51100000000E-03 0. -1.
    9900012    2    1    2    0    0  0.13569199971E+02 -0.25551031193E+01 -0.28741410633E+02  0.59301946231E+02  0.50000004018E+02 0.  0.
        -12    1    1    2    0    0 -0.13569199971E+02  0.25551031193E+01  0.28741410633E+02  0.31886053769E+02  0.00000000000E+00 0.  1.
         11    1    3    3    0    0  0.60857041386E+01  0.13089640556E+02 -0.17407782222E+02  0.22614273521E+02  0.51100000000E-03 0. -1.
        -11    1    3    3    0    0  0.76813870300E+01 -0.17180214148E+02  0.56379645883E+01  0.19645612992E+02  0.51100000000E-03 0.  1.
        -12    1    3    3    0    0 -0.19789119734E+00  0.15354704725E+01 -0.16971592999E+02  0.17042059718E+02  0.00000000000E+00 0.  1.
</event>
<event>
 7    1  0.6293596E-013  0.5930190E+02  0.7816164E-02  0.1266605E+00
        -11   -1    0    0    0    0  0.00000000000E+00  0.00000000000E+00  0.45593999997E+02  0.45594000000E+02  0.51100000000E-03 0. -1.
         11   -1    0    0    0    0 -0.00000000000E+00 -0.00000000000E+00 -0.45593999997E+02  0.45594000000E+02  0.51100000000E-03 0.  1.
    9900012    2    1    2    0    0 -0.86274877899E+01 -0.24304058980E+02  0.18751059838E+02  0.59301904699E+02  0.49999928274E+02 0.  0.
        -12    1    1    2    0    0  0.86274877899E+01  0.24304058980E+02 -0.18751059838E+02  0.31886095301E+02  0.00000000000E+00 0.  1.
         11    1    3    3    0    0 -0.14075053546E+02 -0.28489749315E+01  0.21395000432E+02  0.25767612117E+02  0.51100000000E-03 0. -1.
        -11    1    3    3    0    0 -0.99458806373E+00 -0.25136329933E+02  0.11868297782E+01  0.25183980089E+02  0.51100000000E-03 0.  1.
        -12    1    3    3    0    0  0.64421538197E+01  0.36812458847E+01 -0.38307703715E+01  0.83503124935E+01  0.00000000000E+00 0.  1.
</event>
<event>
 7    1  0.6293596E-013  0.5930199E+02  0.7816164E-02  0.1266605E+00
        -11   -1    0    0    0    0  0.00000000000E+00  0.00000000000E+00  0.45593999997E+02  0.45594000000E+02  0.51100000000E-03 0.  1.
         11   -1    0    0    0    0 -0.00000000000E+00 -0.00000000000E+00 -0.45593999997E+02  0.45594000000E+02  0.51100000000E-03 0. -1.
    9900012    2    1    2    0    0 -0.29204927770E+01 -0.31606094543E+02 -0.30402346273E+01  0.59301991832E+02  0.50000087183E+02 0.  0.
        -12    1    1    2    0    0  0.29204927770E+01  0.31606094543E+02  0.30402346273E+01  0.31886008168E+02  0.00000000000E+00 0.  1.
         11    1    3    3    0    0 -0.13198514583E+02 -0.19171855144E+01 -0.19331297364E+02  0.23485643392E+02  0.51100000000E-03 0. -1.
        -11    1    3    3    0    0  0.32883829661E+01 -0.17289492690E+02  0.10128048378E+02  0.20305599824E+02  0.51100000000E-03 0.  1.
         12    1    3    3    0    0  0.69896388398E+01 -0.12399416338E+02  0.61630143590E+01  0.15510748616E+02  0.00000000000E+00 0. -1.
</event>
<event>
 7    1  0.6293596E-013  0.5930189E+02  0.7816164E-02  0.1266605E+00
        -11   -1    0    0    0    0  0.00000000000E+00  0.00000000000E+00  0.45593999997E+02  0.45594000000E+02  0.51100000000E-03 0.  1.
         11   -1    0    0    0    0 -0.00000000000E+00 -0.00000000000E+00 -0.45593999997E+02  0.45594000000E+02  0.51100000000E-03 0. -1.
    9900012    2    1    2    0    0  0.28621014172E+02  0.13703206087E+02  0.31278750202E+01  0.59301891560E+02  0.49999904311E+02 0.  0.
        -12    1    1    2    0    0 -0.28621014172E+02 -0.13703206087E+02 -0.31278750202E+01  0.31886108440E+02  0.00000000000E+00 0.  1.
         11    1    3    3    0    0  0.23500357094E+02  0.24396423631E+02 -0.72084118706E+01  0.34632549307E+02  0.51100000000E-03 0. -1.
        -11    1    3    3    0    0 -0.56747197608E+01 -0.84020135542E+01  0.89921653041E+01  0.13551948688E+02  0.51100000000E-03 0.  1.
         12    1    3    3    0    0  0.10795376840E+02 -0.22912039898E+01  0.13441215867E+01  0.11117393565E+02  0.00000000000E+00 0. -1.
</event>
<event>
 7    1  0.6293596E-013  0.5930195E+02  0.7816164E-02  0.1266605E+00
        -11   -1    0    0    0    0  0.00000000000E+00  0.00000000000E+00  0.45593999997E+02  0.45594000000E+02  0.51100000000E-03 0.  1.
         11   -1    0    0    0    0 -0.00000000000E+00 -0.00000000000E+00 -0.45593999997E+02  0.45594000000E+02  0.51100000000E-03 0. -1.
    9900012    2    1    2    0    0  0.98966267845E+01 -0.22032679247E+01 -0.30231156242E+02  0.59301946325E+02  0.50000004189E+02 0.  0.
        -12    1    1    2    0    0 -0.98966267845E+01  0.22032679247E+01  0.30231156242E+02  0.31886053675E+02  0.00000000000E+00 0.  1.
         11    1    3    3    0    0  0.11410603874E+02  0.19267398153E+02 -0.14645547233E+02  0.26756804113E+02  0.51100000000E-03 0. -1.
        -11    1    3    3    0    0  0.12268530425E+01 -0.21991219733E+02 -0.63870111610E+01  0.22932789311E+02  0.51100000000E-03 0.  1.
        -12    1    3    3    0    0 -0.27408301318E+01  0.52055365559E+00 -0.91985978477E+01  0.96123529005E+01  0.00000000000E+00 0.  1.
</event>
<event>
 7    1  0.6293596E-013  0.5930194E+02  0.7816164E-02  0.1266605E+00
        -11   -1    0    0    0    0  0.00000000000E+00  0.00000000000E+00  0.45593999997E+02  0.45594000000E+02  0.51100000000E-03 0.  1.
         11   -1    0    0    0    0 -0.00000000000E+00 -0.00000000000E+00 -0.45593999997E+02  0.45594000000E+02  0.51100000000E-03 0. -1.
    9900012    2    1    2    0    0  0.98558122298E+01  0.98022199541E+01 -0.28696695439E+02  0.59301939098E+02  0.49999991009E+02 0.  0.
        -12    1    1    2    0    0 -0.98558122298E+01 -0.98022199541E+01  0.28696695439E+02  0.31886060902E+02  0.00000000000E+00 0.  1.
         11    1    3    3    0    0  0.20761490829E+02 -0.77103366746E+01 -0.16687793335E+02  0.27730330682E+02  0.51100000000E-03 0. -1.
        -11    1    3    3    0    0 -0.11518982007E+02  0.30033274960E+01  0.11693952446E+01  0.11961371495E+02  0.51100000000E-03 0.  1.
         12    1    3    3    0    0  0.61330340830E+00  0.14509229133E+02 -0.13178297349E+02  0.19610236921E+02  0.00000000000E+00 0. -1.
</event>
<event>
 7    1  0.6293596E-013  0.5930195E+02  0.7816164E-02  0.1266605E+00
        -11   -1    0    0    0    0  0.00000000000E+00  0.00000000000E+00  0.45593999997E+02  0.45594000000E+02  0.51100000000E-03 0.  1.
         11   -1    0    0    0    0 -0.00000000000E+00 -0.00000000000E+00 -0.45593999997E+02  0.45594000000E+02  0.51100000000E-03 0. -1.
    9900012    2    1    2    0    0  0.15630921381E+02 -0.73657677235E+01 -0.26798137102E+02  0.59301946787E+02  0.50000005032E+02 0.  0.
        -12    1    1    2    0    0 -0.15630921381E+02  0.73657677235E+01  0.26798137102E+02  0.31886053213E+02  0.00000000000E+00 0.  1.
         11    1    3    3    0    0 -0.48077072589E+01 -0.99515099694E+01 -0.15564696401E+02  0.19089430952E+02  0.51100000000E-03 0. -1.
        -11    1    3    3    0    0 -0.98365999221E-01  0.14742856916E+02 -0.40507378835E+01  0.15289538371E+02  0.51100000000E-03 0.  1.
         12    1    3    3    0    0  0.20536994639E+02 -0.12157114670E+02 -0.71827028176E+01  0.24922977464E+02  0.00000000000E+00 0. -1.
</event>
<event>
 7    1  0.6293596E-013  0.5930195E+02  0.7816164E-02  0.1266605E+00
        -11   -1    0    0    0    0  0.00000000000E+00  0.00000000000E+00  0.45593999997E+02  0.45594000000E+02  0.51100000000E-03 0. -1.
         11   -1    0    0    0    0 -0.00000000000E+00 -0.00000000000E+00 -0.45593999997E+02  0.45594000000E+02  0.51100000000E-03 0.  1.
    9900012    2    1    2    0    0  0.22665181117E+02  0.10890175297E+02  0.19606479344E+02  0.59301946852E+02  0.50000005151E+02 0.  0.
        -12    1    1    2    0    0 -0.22665181117E+02 -0.10890175297E+02 -0.19606479344E+02  0.31886053148E+02  0.00000000000E+00 0.  1.
         11    1    3    3    0    0  0.25484302894E+02  0.30862848534E+01  0.22771149024E+02  0.34314720986E+02  0.51100000000E-03 0. -1.
        -11    1    3    3    0    0  0.32584582388E+01  0.14634009119E+02  0.81825696982E+00  0.15014703384E+02  0.51100000000E-03 0.  1.
         12    1    3    3    0    0 -0.60775800156E+01 -0.68301186752E+01 -0.39829266502E+01  0.99725224825E+01  0.00000000000E+00 0. -1.
</event>
<event>
 7    1  0.6293596E-013  0.5930194E+02  0.7816164E-02  0.1266605E+00
        -11   -1    0    0    0    0  0.00000000000E+00  0.00000000000E+00  0.45593999997E+02  0.45594000000E+02  0.51100000000E-03 0. -1.
         11   -1    0    0    0    0 -0.00000000000E+00 -0.00000000000E+00 -0.45593999997E+02  0.45594000000E+02  0.51100000000E-03 0.  1.
    9900012    2    1    2    0    0 -0.28947413094E+02  0.66883600840E+01  0.11577310313E+02  0.59301937221E+02  0.49999987587E+02 0.  0.
        -12    1    1    2    0    0  0.28947413094E+02 -0.66883600840E+01 -0.11577310313E+02  0.31886062779E+02  0.00000000000E+00 0.  1.
         11    1    3    3    0    0 -0.11968716519E+02  0.17785749482E+02  0.21170990720E+02  0.30129618452E+02  0.51100000000E-03 0. -1.
        -11    1    3    3    0    0 -0.49496056930E+01  0.22572056560E+01 -0.97876485056E+01  0.11197840748E+02  0.51100000000E-03 0.  1.
         12    1    3    3    0    0 -0.12029090882E+02 -0.13354595054E+02  0.19396809855E+00  0.17974478021E+02  0.00000000000E+00 0. -1.
</event>
<event>
 7    1  0.6293596E-013  0.5930192E+02  0.7816164E-02  0.1266605E+00
        -11   -1    0    0    0    0  0.00000000000E+00  0.00000000000E+00  0.45593999997E+02  0.45594000000E+02  0.51100000000E-03 0.  1.
         11   -1    0    0    0    0 -0.00000000000E+00 -0.00000000000E+00 -0.45593999997E+02  0.45594000000E+02  0.51100000000E-03 0. -1.
    9900012    2    1    2    0    0 -0.88736139752E+01 -0.20371948917E+02 -0.22868416543E+02  0.59301924625E+02  0.49999964614E+02 0.  0.
        -12    1    1    2    0    0  0.88736139752E+01  0.20371948917E+02  0.22868416543E+02  0.31886075375E+02  0.00000000000E+00 0.  1.
         11    1    3    3    0    0 -0.17164782203E+01 -0.64454933359E+01 -0.12051410988E+02  0.13774149298E+02  0.51100000000E-03 0. -1.
        -11    1    3    3    0    0  0.13685653323E+02  0.42200194375E+01  0.29975491400E+01  0.14631847868E+02  0.51100000000E-03 0.  1.
        -12    1    3    3    0    0 -0.20842789078E+02 -0.18146475019E+02 -0.13814554695E+02  0.30895927459E+02  0.00000000000E+00 0.  1.
</event>
<event>
 7    1  0.6293596E-013  0.5930203E+02  0.7816164E-02  0.1266604E+00
        -11   -1    0    0    0    0  0.00000000000E+00  0.00000000000E+00  0.45593999997E+02  0.45594000000E+02  0.51100000000E-03 0.  1.
         11   -1    0    0    0    0 -0.00000000000E+00 -0.00000000000E+00 -0.45593999997E+02  0.45594000000E+02  0.51100000000E-03 0. -1.
    9900012    2    1    2    0    0  0.15745536403E+02  0.80196533419E+01 -0.26542012508E+02  0.59302028409E+02  0.50000153891E+02 0.  0.
        -12    1    1    2    0    0 -0.15745536403E+02 -0.80196533419E+01  0.26542012508E+02  0.31885971591E+02  0.00000000000E+00 0.  1.
         11    1    3    3    0    0  0.13250472201E+02 -0.79566091493E+01 -0.66500765004E+01  0.16825758837E+02  0.51100000000E-03 0. -1.
        -11    1    3    3    0    0  0.79271074104E+01  0.25339186508E+02 -0.12340835284E+02  0.29278142368E+02  0.51100000000E-03 0.  1.
        -12    1    3    3    0    0 -0.54320432090E+01 -0.93629240165E+01 -0.75511007236E+01  0.13198127204E+02  0.00000000000E+00 0.  1.
</event>
<event>
 7    1  0.6293596E-013  0.5930197E+02  0.7816164E-02  0.1266605E+00
        -11   -1    0    0    0    0  0.00000000000E+00  0.00000000000E+00  0.45593999997E+02  0.45594000000E+02  0.51100000000E-03 0.  1.
         11   -1    0    0    0    0 -0.00000000000E+00 -0.00000000000E+00 -0.45593999997E+02  0.45594000000E+02  0.51100000000E-03 0. -1.
    9900012    2    1    2    0    0  0.68452562745E+01  0.87726109040E+01 -0.29881479089E+02  0.59301968136E+02  0.50000043967E+02 0.  0.
        -12    1    1    2    0    0 -0.68452562745E+01 -0.87726109040E+01  0.29881479089E+02  0.31886031864E+02  0.00000000000E+00 0.  1.
         11    1    3    3    0    0  0.86052285935E+01 -0.80221682041E+01 -0.14565287114E+02  0.18723053459E+02  0.51100000000E-03 0. -1.
        -11    1    3    3    0    0 -0.98034609141E+01  0.17658150836E+02  0.31287965230E+01  0.20437893844E+02  0.51100000000E-03 0.  1.
        -12    1    3    3    0    0  0.80434885951E+01 -0.86337172763E+00 -0.18444988497E+02  0.20141020833E+02  0.00000000000E+00 0.  1.
</event>
<event>
 7    1  0.6293596E-013  0.5930195E+02  0.7816164E-02  0.1266605E+00
        -11   -1    0    0    0    0  0.00000000000E+00  0.00000000000E+00  0.45593999997E+02  0.45594000000E+02  0.51100000000E-03 0.  1.
         11   -1    0    0    0    0 -0.00000000000E+00 -0.00000000000E+00 -0.45593999997E+02  0.45594000000E+02  0.51100000000E-03 0. -1.
    9900012    2    1    2    0    0 -0.31474745721E+02  0.51029228510E+01 -0.14438346376E+00  0.59301948403E+02  0.50000007980E+02 0.  0.
        -12    1    1    2    0    0  0.31474745721E+02 -0.51029228510E+01  0.14438346376E+00  0.31886051597E+02  0.00000000000E+00 0.  1.
         11    1    3    3    0    0 -0.13701608719E+02  0.37796347554E+01 -0.15507745498E+02  0.21035919069E+02  0.51100000000E-03 0. -1.
        -11    1    3    3    0    0 -0.13168508878E+01 -0.10509711831E+02  0.14528937645E+02  0.17979937942E+02  0.51100000000E-03 0.  1.
        -12    1    3    3    0    0 -0.16456286114E+02  0.11832999926E+02  0.83442438853E+00  0.20286091393E+02  0.00000000000E+00 0.  1.
</event>
<event>
 7    1  0.6293596E-013  0.5930202E+02  0.7816164E-02  0.1266605E+00
        -11   -1    0    0    0    0  0.00000000000E+00  0.00000000000E+00  0.45593999997E+02  0.45594000000E+02  0.51100000000E-03 0. -1.
         11   -1    0    0    0    0 -0.00000000000E+00 -0.00000000000E+00 -0.45593999997E+02  0.45594000000E+02  0.51100000000E-03 0.  1.
    9900012    2    1    2    0    0 -0.28371995952E+02  0.95449807130E+01  0.10983582823E+02  0.59302017144E+02  0.50000133346E+02 0.  0.
        -12    1    1    2    0    0  0.28371995952E+02 -0.95449807130E+01 -0.10983582823E+02  0.31885982856E+02  0.00000000000E+00 0.  1.
         11    1    3    3    0    0 -0.31548626229E+02  0.18996132986E+02  0.17431146621E+02  0.40743266415E+02  0.51100000000E-03 0. -1.
        -11    1    3    3    0    0  0.53096810974E+01 -0.11764365695E+02 -0.78575400616E+01  0.15110723002E+02  0.51100000000E-03 0.  1.
        -12    1    3    3    0    0 -0.21330508199E+01  0.23132134223E+01  0.14099762636E+01  0.34480277262E+01  0.00000000000E+00 0.  1.
</event>
<event>
 7    1  0.6293596E-013  0.5930190E+02  0.7816164E-02  0.1266605E+00
        -11   -1    0    0    0    0  0.00000000000E+00  0.00000000000E+00  0.45593999997E+02  0.45594000000E+02  0.51100000000E-03 0. -1.
         11   -1    0    0    0    0 -0.00000000000E+00 -0.00000000000E+00 -0.45593999997E+02  0.45594000000E+02  0.51100000000E-03 0.  1.
    9900012    2    1    2    0    0  0.16933688214E+01 -0.17610855193E+02  0.26527605294E+02  0.59301897052E+02  0.49999914327E+02 0.  0.
        -12    1    1    2    0    0 -0.16933688214E+01  0.17610855193E+02 -0.26527605294E+02  0.31886102948E+02  0.00000000000E+00 0.  1.
         11    1    3    3    0    0 -0.14132614078E+02 -0.32705340796E+00  0.14529433002E+02  0.20271708567E+02  0.51100000000E-03 0. -1.
        -11    1    3    3    0    0  0.12167146309E+02  0.34676877526E+00 -0.60006003113E+01  0.13570810670E+02  0.51100000000E-03 0.  1.
         12    1    3    3    0    0  0.36588365905E+01 -0.17630570561E+02  0.17998772603E+02  0.25459377814E+02  0.00000000000E+00 0. -1.
</event>
<event>
 7    1  0.6293596E-013  0.5930195E+02  0.7816164E-02  0.1266605E+00
        -11   -1    0    0    0    0  0.00000000000E+00  0.00000000000E+00  0.45593999997E+02  0.45594000000E+02  0.51100000000E-03 0.  1.
         11   -1    0    0    0    0 -0.00000000000E+00 -0.00000000000E+00 -0.45593999997E+02  0.45594000000E+02  0.51100000000E-03 0. -1.
    9900012    2    1    2    0    0  0.16723815885E+02 -0.22936977854E+02 -0.14523405005E+02  0.59301948758E+02  0.50000008627E+02 0.  0.
        -12    1    1    2    0    0 -0.16723815885E+02  0.22936977854E+02  0.14523405005E+02  0.31886051242E+02  0.00000000000E+00 0.  1.
         11    1    3    3    0    0  0.10847380315E+02 -0.11427245947E+02 -0.73983432671E+01  0.17406409537E+02  0.51100000000E-03 0. -1.
        -11    1    3    3    0    0  0.14659935629E+01 -0.22872049398E+01  0.16201250078E+02  0.16427444960E+02  0.51100000000E-03 0.  1.
        -12    1    3    3    0    0  0.44104420073E+01 -0.92225269679E+01 -0.23326311816E+02  0.25468094261E+02  0.00000000000E+00 0.  1.
</event>
<event>
 7    1  0.6293596E-013  0.5930196E+02  0.7816164E-02  0.1266605E+00
        -11   -1    0    0    0    0  0.00000000000E+00  0.00000000000E+00  0.45593999997E+02  0.45594000000E+02  0.51100000000E-03 0.  1.
         11   -1    0    0    0    0 -0.00000000000E+00 -0.00000000000E+00 -0.45593999997E+02  0.45594000000E+02  0.51100000000E-03 0. -1.
    9900012    2    1    2    0    0 -0.10385114899E+02  0.74414255261E+01 -0.29214626915E+02  0.59301955230E+02  0.50000020430E+02 0.  0.
        -12    1    1    2    0    0  0.10385114899E+02 -0.74414255261E+01  0.29214626915E+02  0.31886044770E+02  0.00000000000E+00 0.  1.
         11    1    3    3    0    0 -0.21282286494E+02 -0.37118774426E+01 -0.17013733799E+02  0.27498743437E+02  0.51100000000E-03 0. -1.
        -11    1    3    3    0    0  0.12001020392E+02 -0.49335705112E+01 -0.33154145766E+01  0.13392407644E+02  0.51100000000E-03 0.  1.
         12    1    3    3    0    0 -0.11038487960E+01  0.16086873480E+02 -0.88854785389E+01  0.18410804148E+02  0.00000000000E+00 0. -1.
</event>
<event>
 7    1  0.6293596E-013  0.5930193E+02  0.7816164E-02  0.1266605E+00
        -11   -1    0    0    0    0  0.00000000000E+00  0.00000000000E+00  0.45593999997E+02  0.45594000000E+02  0.51100000000E-03 0.  1.
         11   -1    0    0    0    0 -0.00000000000E+00 -0.00000000000E+00 -0.45593999997E+02  0.45594000000E+02  0.51100000000E-03 0. -1.
    9900012    2    1    2    0    0  0.92081379073E+01 -0.17858447770E+02 -0.24758993762E+02  0.59301925727E+02  0.49999966623E+02 0.  0.
        -12    1    1    2    0    0 -0.92081379073E+01  0.17858447770E+02  0.24758993762E+02  0.31886074273E+02  0.00000000000E+00 0.  1.
         11    1    3    3    0    0  0.15380268751E+02  0.45203129653E+01  0.70013266229E+00  0.16046061266E+02  0.51100000000E-03 0. -1.
        -11    1    3    3    0    0 -0.80108307258E+01 -0.17464263146E+02 -0.21157756338E+01  0.19330038876E+02  0.51100000000E-03 0.  1.
        -12    1    3    3    0    0  0.18386998826E+01 -0.49144975892E+01 -0.23343350790E+02  0.23925825585E+02  0.00000000000E+00 0.  1.
</event>
<event>
 7    1  0.6293596E-013  0.5930192E+02  0.7816164E-02  0.1266605E+00
        -11   -1    0    0    0    0  0.00000000000E+00  0.00000000000E+00  0.45593999997E+02  0.45594000000E+02  0.51100000000E-03 0. -1.
         11   -1    0    0    0    0 -0.00000000000E+00 -0.00000000000E+00 -0.45593999997E+02  0.45594000000E+02  0.51100000000E-03 0.  1.
    9900012    2    1    2    0    0 -0.56877081886E+01  0.31363487916E+02 -0.83875339263E+00  0.59301923008E+02  0.49999961665E+02 0.  0.
        -12    1    1    2    0    0  0.56877081886E+01 -0.31363487916E+02  0.83875339263E+00  0.31886076992E+02  0.00000000000E+00 0.  1.
         11    1    3    3    0    0 -0.10407203700E+02  0.19764978568E+02 -0.16708834263E+02  0.27895329526E+02  0.51100000000E-03 0. -1.
        -11    1    3    3    0    0  0.93511265799E+01  0.10704596174E+01 -0.24948209518E+01  0.97372267073E+01  0.51100000000E-03 0.  1.
         12    1    3    3    0    0 -0.46316310689E+01  0.10528049730E+02  0.18364901823E+02  0.21669366775E+02  0.00000000000E+00 0. -1.
</event>
<event>
 7    1  0.6293596E-013  0.5930197E+02  0.7816164E-02  0.1266605E+00
        -11   -1    0    0    0    0  0.00000000000E+00  0.00000000000E+00  0.45593999997E+02  0.45594000000E+02  0.51100000000E-03 0.  1.
         11   -1    0    0    0    0 -0.00000000000E+00 -0.00000000000E+00 -0.45593999997E+02  0.45594000000E+02  0.51100000000E-03 0. -1.
    9900012    2    1    2    0    0  0.10566577133E+02  0.75092409861E+01 -0.29132075508E+02  0.59301967386E+02  0.50000042600E+02 0.  0.
        -12    1    1    2    0    0 -0.10566577133E+02 -0.75092409861E+01  0.29132075508E+02  0.31886032614E+02  0.00000000000E+00 0.  1.
         11    1    3    3    0    0  0.11731706217E+02  0.14681679984E+02 -0.12478264348E+02  0.22558628932E+02  0.51100000000E-03 0. -1.
        -11    1    3    3    0    0 -0.13352470918E+02  0.44560885746E+00  0.16606923823E+01  0.13462724328E+02  0.51100000000E-03 0.  1.
        -12    1    3    3    0    0  0.12187341833E+02 -0.76180478550E+01 -0.18314503542E+02  0.23280614126E+02  0.00000000000E+00 0.  1.
</event>
<event>
 7    1  0.6293596E-013  0.5930186E+02  0.7816164E-02  0.1266605E+00
        -11   -1    0    0    0    0  0.00000000000E+00  0.00000000000E+00  0.45593999997E+02  0.45594000000E+02  0.51100000000E-03 0.  1.
         11   -1    0    0    0    0 -0.00000000000E+00 -0.00000000000E+00 -0.45593999997E+02  0.45594000000E+02  0.51100000000E-03 0. -1.
    9900012    2    1    2    0    0 -0.74179491981E+01  0.34247860561E+01 -0.30821592311E+02  0.59301863790E+02  0.49999853665E+02 0.  0.
        -12    1    1    2    0    0  0.74179491981E+01 -0.34247860561E+01  0.30821592311E+02  0.31886136210E+02  0.00000000000E+00 0.  1.
         11    1    3    3    0    0  0.10936859041E+02  0.60217633091E+01 -0.26532594994E+02  0.29323286248E+02  0.51100000000E-03 0. -1.
        -11    1    3    3    0    0 -0.99370242566E+01 -0.13842014523E+01  0.94744656804E+01  0.13799491474E+02  0.51100000000E-03 0.  1.
        -12    1    3    3    0    0 -0.84177839823E+01 -0.12127758007E+01 -0.13763462997E+02  0.16179086068E+02  0.00000000000E+00 0.  1.
</event>
<event>
 7    1  0.6293596E-013  0.5930194E+02  0.7816164E-02  0.1266605E+00
        -11   -1    0    0    0    0  0.00000000000E+00  0.00000000000E+00  0.45593999997E+02  0.45594000000E+02  0.51100000000E-03 0. -1.
         11   -1    0    0    0    0 -0.00000000000E+00 -0.00000000000E+00 -0.45593999997E+02  0.45594000000E+02  0.51100000000E-03 0.  1.
    9900012    2    1    2    0    0 -0.48226562869E+01 -0.39657590556E+01  0.31268761688E+02  0.59301941667E+02  0.49999995694E+02 0.  0.
        -12    1    1    2    0    0  0.48226562869E+01  0.39657590556E+01 -0.31268761688E+02  0.31886058333E+02  0.00000000000E+00 0.  1.
         11    1    3    3    0    0 -0.10697951875E+02  0.22219610865E+01  0.12197473381E+02  0.16375641745E+02  0.51100000000E-03 0. -1.
        -11    1    3    3    0    0  0.12745481617E+02 -0.13615174419E+02 -0.27708246872E+01  0.18854647857E+02  0.51100000000E-03 0.  1.
        -12    1    3    3    0    0 -0.68701860282E+01  0.74274542773E+01  0.21842112994E+02  0.24071652065E+02  0.00000000000E+00 0.  1.
</event>
<event>
 7    1  0.6293596E-013  0.5930194E+02  0.7816164E-02  0.1266605E+00
        -11   -1    0    0    0    0  0.00000000000E+00  0.00000000000E+00  0.45593999997E+02  0.45594000000E+02  0.51100000000E-03 0.  1.
         11   -1    0    0    0    0 -0.00000000000E+00 -0.00000000000E+00 -0.45593999997E+02  0.45594000000E+02  0.51100000000E-03 0. -1.
    9900012    2    1    2    0    0  0.30317724040E+02  0.73885478019E+01 -0.65548291075E+01  0.59301940127E+02  0.49999992887E+02 0.  0.
        -12    1    1    2    0    0 -0.30317724040E+02 -0.73885478019E+01  0.65548291075E+01  0.31886059873E+02  0.00000000000E+00 0.  1.
         11    1    3    3    0    0 -0.34218733329E+01  0.24548669788E+01 -0.15357332764E+02  0.15924297751E+02  0.51100000000E-03 0. -1.
        -11    1    3    3    0    0  0.15228438874E+02  0.11822895035E+02  0.12911371718E+02  0.23203226445E+02  0.51100000000E-03 0.  1.
         12    1    3    3    0    0  0.18511158498E+02 -0.68892142120E+01 -0.41088680624E+01  0.20174415931E+02  0.00000000000E+00 0. -1.
</event>
<event>
 7    1  0.6293596E-013  0.5930197E+02  0.7816164E-02  0.1266605E+00
        -11   -1    0    0    0    0  0.00000000000E+00  0.00000000000E+00  0.45593999997E+02  0.45594000000E+02  0.51100000000E-03 0.  1.
         11   -1    0    0    0    0 -0.00000000000E+00 -0.00000000000E+00 -0.45593999997E+02  0.45594000000E+02  0.51100000000E-03 0. -1.
    9900012    2    1    2    0    0  0.29194842061E+02 -0.11981391765E+02 -0.45636195602E+01  0.59301965830E+02  0.50000039762E+02 0.  0.
        -12    1    1    2    0    0 -0.29194842061E+02  0.11981391765E+02  0.45636195602E+01  0.31886034170E+02  0.00000000000E+00 0.  1.
         11    1    3    3    0    0  0.13545087669E+01 -0.27826834597E+01 -0.33106714835E+01  0.45319495992E+01  0.51100000000E-03 0. -1.
        -11    1    3    3    0    0 -0.21578642721E+01  0.14427451791E+02  0.62236001057E+01  0.15860042306E+02  0.51100000000E-03 0.  1.
        -12    1    3    3    0    0  0.29998197567E+02 -0.23626160096E+02 -0.74765481824E+01  0.38909973925E+02  0.00000000000E+00 0.  1.
</event>
<event>
 7    1  0.6293596E-013  0.5930194E+02  0.7816164E-02  0.1266605E+00
        -11   -1    0    0    0    0  0.00000000000E+00  0.00000000000E+00  0.45593999997E+02  0.45594000000E+02  0.51100000000E-03 0.  1.
         11   -1    0    0    0    0 -0.00000000000E+00 -0.00000000000E+00 -0.45593999997E+02  0.45594000000E+02  0.51100000000E-03 0. -1.
    9900012    2    1    2    0    0 -0.18186755839E+02 -0.60258670460E+01 -0.25488268242E+02  0.59301937534E+02  0.49999988157E+02 0.  0.
        -12    1    1    2    0    0  0.18186755839E+02  0.60258670460E+01  0.25488268242E+02  0.31886062466E+02  0.00000000000E+00 0.  1.
         11    1    3    3    0    0 -0.12567544141E+02  0.69999010039E+01 -0.21371061745E+02  0.25761678132E+02  0.51100000000E-03 0. -1.
        -11    1    3    3    0    0  0.40224953200E+01 -0.79936230341E+01  0.11461268050E+02  0.14540947128E+02  0.51100000000E-03 0.  1.
        -12    1    3    3    0    0 -0.96417070175E+01 -0.50321450158E+01 -0.15578474547E+02  0.18999312274E+02  0.00000000000E+00 0.  1.
</event>
<event>
 7    1  0.6293596E-013  0.5930193E+02  0.7816164E-02  0.1266605E+00
        -11   -1    0    0    0    0  0.00000000000E+00  0.00000000000E+00  0.45593999997E+02  0.45594000000E+02  0.51100000000E-03 0. -1.
         11   -1    0    0    0    0 -0.00000000000E+00 -0.00000000000E+00 -0.45593999997E+02  0.45594000000E+02  0.51100000000E-03 0.  1.
    9900012    2    1    2    0    0  0.12186219047E+02  0.23890138120E+01  0.29368521686E+02  0.59301931135E+02  0.49999976487E+02 0.  0.
        -12    1    1    2    0    0 -0.12186219047E+02 -0.23890138120E+01 -0.29368521686E+02  0.31886068865E+02  0.00000000000E+00 0.  1.
         11    1    3    3    0    0  0.52316687873E+01 -0.14663754353E+02  0.19180798494E+02  0.24704232049E+02  0.51100000000E-03 0. -1.
        -11    1    3    3    0    0  0.23483506092E+01  0.23133307472E+02  0.12790149280E+02  0.26537757706E+02  0.51100000000E-03 0.  1.
        -12    1    3    3    0    0  0.46061996510E+01 -0.60805393076E+01 -0.26024260885E+01  0.80599413796E+01  0.00000000000E+00 0.  1.
</event>
<event>
 7    1  0.6293596E-013  0.5930212E+02  0.7816164E-02  0.1266604E+00
        -11   -1    0    0    0    0  0.00000000000E+00  0.00000000000E+00  0.45593999997E+02  0.45594000000E+02  0.51100000000E-03 0. -1.
         11   -1    0    0    0    0 -0.00000000000E+00 -0.00000000000E+00 -0.45593999997E+02  0.45594000000E+02  0.51100000000E-03 0.  1.
    9900012    2    1    2    0    0 -0.31037977751E+00 -0.30895326453E+02 -0.78798170026E+01  0.59302124628E+02  0.50000329371E+02 0.  0.
        -12    1    1    2    0    0  0.31037977751E+00  0.30895326453E+02  0.78798170026E+01  0.31885875372E+02  0.00000000000E+00 0.  1.
         11    1    3    3    0    0 -0.83016210344E+01 -0.37354575232E+02 -0.88106005459E+01  0.39267134919E+02  0.51100000000E-03 0. -1.
        -11    1    3    3    0    0  0.10954618531E+02  0.10375121275E+02  0.10314937224E+01  0.15123187105E+02  0.51100000000E-03 0.  1.
        -12    1    3    3    0    0 -0.29633772744E+01 -0.39158724968E+01 -0.10071017912E+00  0.49118026041E+01  0.00000000000E+00 0.  1.
</event>
<event>
 7    1  0.6293596E-013  0.5930194E+02  0.7816164E-02  0.1266605E+00
        -11   -1    0    0    0    0  0.00000000000E+00  0.00000000000E+00  0.45593999997E+02  0.45594000000E+02  0.51100000000E-03 0. -1.
         11   -1    0    0    0    0 -0.00000000000E+00 -0.00000000000E+00 -0.45593999997E+02  0.45594000000E+02  0.51100000000E-03 0.  1.
    9900012    2    1    2    0    0 -0.20430687031E+02  0.28944858099E+01  0.24309053910E+02  0.59301935291E+02  0.49999984065E+02 0.  0.
        -12    1    1    2    0    0  0.20430687031E+02 -0.28944858099E+01 -0.24309053910E+02  0.31886064709E+02  0.00000000000E+00 0.  1.
         11    1    3    3    0    0 -0.50710708981E+01 -0.24044811191E+01  0.22325127314E+02  0.23019743685E+02  0.51100000000E-03 0. -1.
        -11    1    3    3    0    0  0.33594872219E+01 -0.75189050658E+01 -0.80128891389E+01  0.11490277647E+02  0.51100000000E-03 0.  1.
        -12    1    3    3    0    0 -0.18719103355E+02  0.12817871995E+02  0.99968157350E+01  0.24791913958E+02  0.00000000000E+00 0.  1.
</event>
<event>
 7    1  0.6293596E-013  0.5930192E+02  0.7816164E-02  0.1266605E+00
        -11   -1    0    0    0    0  0.00000000000E+00  0.00000000000E+00  0.45593999997E+02  0.45594000000E+02  0.51100000000E-03 0. -1.
         11   -1    0    0    0    0 -0.00000000000E+00 -0.00000000000E+00 -0.45593999997E+02  0.45594000000E+02  0.51100000000E-03 0.  1.
    9900012    2    1    2    0    0 -0.17721836971E+02  0.50385760828E+01  0.26024435746E+02  0.59301921369E+02  0.49999958676E+02 0.  0.
        -12    1    1    2    0    0  0.17721836971E+02 -0.50385760828E+01 -0.26024435746E+02  0.31886078631E+02  0.00000000000E+00 0.  1.
         11    1    3    3    0    0 -0.25359008581E+02  0.70181403207E+01  0.53373403017E+01  0.26848106293E+02  0.51100000000E-03 0. -1.
        -11    1    3    3    0    0  0.38403784911E+01 -0.11285569008E+02  0.32977377913E+01  0.12368817631E+02  0.51100000000E-03 0.  1.
         12    1    3    3    0    0  0.37967931189E+01  0.93060047700E+01  0.17389357653E+02  0.20084997445E+02  0.00000000000E+00 0. -1.
</event>
<event>
 7    1  0.6293596E-013  0.5930188E+02  0.7816164E-02  0.1266605E+00
        -11   -1    0    0    0    0  0.00000000000E+00  0.00000000000E+00  0.45593999997E+02  0.45594000000E+02  0.51100000000E-03 0.  1.
         11   -1    0    0    0    0 -0.00000000000E+00 -0.00000000000E+00 -0.45593999997E+02  0.45594000000E+02  0.51100000000E-03 0. -1.
    9900012    2    1    2    0    0 -0.25796522095E+01 -0.15090819474E+02 -0.27970290936E+02  0.59301880560E+02  0.49999884249E+02 0.  0.
        -12    1    1    2    0    0  0.25796522095E+01  0.15090819474E+02  0.27970290936E+02  0.31886119440E+02  0.00000000000E+00 0.  1.
         11    1    3    3    0    0  0.91106628930E+01 -0.16848128246E+02  0.13568144049E+01  0.19201680899E+02  0.51100000000E-03 0. -1.
        -11    1    3    3    0    0 -0.14911158462E+02  0.56062487745E+01 -0.30963707842E+02  0.34821313525E+02  0.51100000000E-03 0.  1.
        -12    1    3    3    0    0  0.32208433593E+01 -0.38489400023E+01  0.16366025015E+01  0.52788861357E+01  0.00000000000E+00 0.  1.
</event>
<event>
 7    1  0.6293596E-013  0.5930192E+02  0.7816164E-02  0.1266605E+00
        -11   -1    0    0    0    0  0.00000000000E+00  0.00000000000E+00  0.45593999997E+02  0.45594000000E+02  0.51100000000E-03 0.  1.
         11   -1    0    0    0    0 -0.00000000000E+00 -0.00000000000E+00 -0.45593999997E+02  0.45594000000E+02  0.51100000000E-03 0. -1.
    9900012    2    1    2    0    0 -0.10981219865E+02  0.29438183672E+02  0.54339824540E+01  0.59301921330E+02  0.49999958604E+02 0.  0.
        -12    1    1    2    0    0  0.10981219865E+02 -0.29438183672E+02 -0.54339824540E+01  0.31886078670E+02  0.00000000000E+00 0.  1.
         11    1    3    3    0    0 -0.18694904579E+02  0.21551438134E+02  0.51000651189E+01  0.28982315424E+02  0.51100000000E-03 0. -1.
        -11    1    3    3    0    0  0.12325279927E+02  0.15776422885E+02 -0.36503191559E+01  0.20350254901E+02  0.51100000000E-03 0.  1.
        -12    1    3    3    0    0 -0.46115952136E+01 -0.78896773463E+01  0.39842364910E+01  0.99693510049E+01  0.00000000000E+00 0.  1.
</event>
<event>
 7    1  0.6293596E-013  0.5930208E+02  0.7816164E-02  0.1266604E+00
        -11   -1    0    0    0    0  0.00000000000E+00  0.00000000000E+00  0.45593999997E+02  0.45594000000E+02  0.51100000000E-03 0.  1.
         11   -1    0    0    0    0 -0.00000000000E+00 -0.00000000000E+00 -0.45593999997E+02  0.45594000000E+02  0.51100000000E-03 0. -1.
    9900012    2    1    2    0    0 -0.18619779714E+02  0.45685386142E+01 -0.25478306759E+02  0.59302080585E+02  0.50000249046E+02 0.  0.
        -12    1    1    2    0    0  0.18619779714E+02 -0.45685386142E+01  0.25478306759E+02  0.31885919415E+02  0.00000000000E+00 0.  1.
         11    1    3    3    0    0  0.65526681146E+01  0.71610815579E+01 -0.74329979575E+01  0.12225710916E+02  0.51100000000E-03 0. -1.
        -11    1    3    3    0    0 -0.82299976958E+01 -0.16272297513E+02 -0.17529782236E+02  0.25294540793E+02  0.51100000000E-03 0.  1.
        -12    1    3    3    0    0 -0.16942450133E+02  0.13679754569E+02 -0.51552656558E+00  0.21781828876E+02  0.00000000000E+00 0.  1.
</event>
<event>
 7    1  0.6293596E-013  0.5930190E+02  0.7816164E-02  0.1266605E+00
        -11   -1    0    0    0    0  0.00000000000E+00  0.00000000000E+00  0.45593999997E+02  0.45594000000E+02  0.51100000000E-03 0. -1.
         11   -1    0    0    0    0 -0.00000000000E+00 -0.00000000000E+00 -0.45593999997E+02  0.45594000000E+02  0.51100000000E-03 0.  1.
    9900012    2    1    2    0    0  0.81472548690E+01  0.30499995016E+02 -0.44828374558E+01  0.59301901312E+02  0.49999922096E+02 0.  0.
        -12    1    1    2    0    0 -0.81472548690E+01 -0.30499995016E+02  0.44828374558E+01  0.31886098688E+02  0.00000000000E+00 0.  1.
         11    1    3    3    0    0  0.40982432884E+00  0.24873385691E+02 -0.28627584212E+00  0.24878408828E+02  0.51100000000E-03 0. -1.
        -11    1    3    3    0    0  0.19168267715E+02 -0.10228989668E-01  0.35707769350E+01  0.19498026567E+02  0.51100000000E-03 0.  1.
        -12    1    3    3    0    0 -0.11430837175E+02  0.56368383151E+01 -0.77673385487E+01  0.14925465917E+02  0.00000000000E+00 0.  1.
</event>
<event>
 7    1  0.6293596E-013  0.5930194E+02  0.7816164E-02  0.1266605E+00
        -11   -1    0    0    0    0  0.00000000000E+00  0.00000000000E+00  0.45593999997E+02  0.45594000000E+02  0.51100000000E-03 0. -1.
         11   -1    0    0    0    0 -0.00000000000E+00 -0.00000000000E+00 -0.45593999997E+02  0.45594000000E+02  0.51100000000E-03 0.  1.
    9900012    2    1    2    0    0 -0.14420781851E+02  0.95500174002E+00  0.28422701584E+02  0.59301938110E+02  0.49999989208E+02 0.  0.
        -12    1    1    2    0    0  0.14420781851E+02 -0.95500174002E+00 -0.28422701584E+02  0.31886061890E+02  0.00000000000E+00 0.  1.
         11    1    3    3    0    0 -0.20345355770E+02 -0.14065165966E+02  0.10748193650E+02  0.26968241731E+02  0.51100000000E-03 0. -1.
        -11    1    3    3    0    0  0.56840341717E+01  0.15551548319E+02  0.22242383143E+02  0.27728730727E+02  0.51100000000E-03 0.  1.
        -12    1    3    3    0    0  0.24053974709E+00 -0.53138061325E+00 -0.45678752097E+01  0.46049656521E+01  0.00000000000E+00 0.  1.
</event>
<event>
 7    1  0.6293596E-013  0.5930194E+02  0.7816164E-02  0.1266605E+00
        -11   -1    0    0    0    0  0.00000000000E+00  0.00000000000E+00  0.45593999997E+02  0.45594000000E+02  0.51100000000E-03 0.  1.
         11   -1    0    0    0    0 -0.00000000000E+00 -0.00000000000E+00 -0.45593999997E+02  0.45594000000E+02  0.51100000000E-03 0. -1.
    9900012    2    1    2    0    0  0.17564863146E+02  0.64688898903E+01 -0.25813748218E+02  0.59301944258E+02  0.50000000419E+02 0.  0.
        -12    1    1    2    0    0 -0.17564863146E+02 -0.64688898903E+01  0.25813748218E+02  0.31886055742E+02  0.00000000000E+00 0.  1.
         11    1    3    3    0    0  0.17436151496E+02  0.18596202372E+02 -0.27182430650E+02  0.37265569336E+02  0.51100000000E-03 0. -1.
        -11    1    3    3    0    0 -0.56808985778E+01 -0.10910721304E+02 -0.50469072084E+01  0.13296154356E+02  0.51100000000E-03 0.  1.
        -12    1    3    3    0    0  0.58096102279E+01 -0.12165911783E+01  0.64155896408E+01  0.87402205655E+01  0.00000000000E+00 0.  1.
</event>
<event>
 7    1  0.6293596E-013  0.5930191E+02  0.7816164E-02  0.1266605E+00
        -11   -1    0    0    0    0  0.00000000000E+00  0.00000000000E+00  0.45593999997E+02  0.45594000000E+02  0.51100000000E-03 0. -1.
         11   -1    0    0    0    0 -0.00000000000E+00 -0.00000000000E+00 -0.45593999997E+02  0.45594000000E+02  0.51100000000E-03 0.  1.
    9900012    2    1    2    0    0  0.15968657654E+02 -0.27504840221E+02  0.22821746148E+01  0.59301912378E+02  0.49999942279E+02 0.  0.
        -12    1    1    2    0    0 -0.15968657654E+02  0.27504840221E+02 -0.22821746148E+01  0.31886087622E+02  0.00000000000E+00 0.  1.
         11    1    3    3    0    0  0.10618565955E+02 -0.44633752827E+01  0.24550051823E+01  0.11777211578E+02  0.51100000000E-03 0. -1.
        -11    1    3    3    0    0  0.13595406076E+01 -0.16642438858E+02 -0.20151183038E+02  0.26170389755E+02  0.51100000000E-03 0.  1.
        -12    1    3    3    0    0  0.39905510918E+01 -0.63990260796E+01  0.19978352471E+02  0.21354311046E+02  0.00000000000E+00 0.  1.
</event>
<event>
 7    1  0.7225614E-013  0.5930194E+02  0.7816164E-02  0.1266605E+00
        -11   -1    0    0    0    0  0.00000000000E+00  0.00000000000E+00  0.45593999997E+02  0.45594000000E+02  0.51100000000E-03 0.  1.
         11   -1    0    0    0    0 -0.00000000000E+00 -0.00000000000E+00 -0.45593999997E+02  0.45594000000E+02  0.51100000000E-03 0. -1.
    9900012    2    1    2    0    0 -0.23035728576E+02 -0.15388306371E+02 -0.15788479367E+02  0.59301939649E+02  0.49999992015E+02 0.  0.
        -12    1    1    2    0    0  0.23035728576E+02  0.15388306371E+02  0.15788479367E+02  0.31886060351E+02  0.00000000000E+00 0.  1.
         11    1    3    3    0    0 -0.25288852150E+02 -0.47400609039E+01 -0.40038675083E+01  0.26038916562E+02  0.51100000000E-03 0. -1.
        -11    1    3    3    0    0  0.74728049485E+01  0.33048126708E+01  0.59454749133E+01  0.10105111221E+02  0.51100000000E-03 0.  1.
         12    1    3    3    0    0 -0.52196813738E+01 -0.13953058138E+02 -0.17730086772E+02  0.23157911866E+02  0.00000000000E+00 0. -1.
</event>
<event>
 7    1  0.6293596E-013  0.5930193E+02  0.7816164E-02  0.1266605E+00
        -11   -1    0    0    0    0  0.00000000000E+00  0.00000000000E+00  0.45593999997E+02  0.45594000000E+02  0.51100000000E-03 0.  1.
         11   -1    0    0    0    0 -0.00000000000E+00 -0.00000000000E+00 -0.45593999997E+02  0.45594000000E+02  0.51100000000E-03 0. -1.
    9900012    2    1    2    0    0 -0.13609506955E+01 -0.57067708839E+01 -0.31341697131E+02  0.59301930945E+02  0.49999976141E+02 0.  0.
        -12    1    1    2    0    0  0.13609506955E+01  0.57067708839E+01  0.31341697131E+02  0.31886069055E+02  0.00000000000E+00 0.  1.
         11    1    3    3    0    0 -0.10715111882E+02 -0.66865967481E+01 -0.21522536969E+02  0.24954835134E+02  0.51100000000E-03 0. -1.
        -11    1    3    3    0    0  0.64195539477E+01 -0.10000003562E+02  0.71909033172E+01  0.13889558485E+02  0.51100000000E-03 0.  1.
        -12    1    3    3    0    0  0.29346072390E+01  0.10979829426E+02 -0.17010063479E+02  0.20457537326E+02  0.00000000000E+00 0.  1.
</event>
<event>
 7    1  0.6293596E-013  0.5930192E+02  0.7816164E-02  0.1266605E+00
        -11   -1    0    0    0    0  0.00000000000E+00  0.00000000000E+00  0.45593999997E+02  0.45594000000E+02  0.51100000000E-03 0.  1.
         11   -1    0    0    0    0 -0.00000000000E+00 -0.00000000000E+00 -0.45593999997E+02  0.45594000000E+02  0.51100000000E-03 0. -1.
    9900012    2    1    2    0    0  0.23586786330E+02  0.12175489767E+02 -0.17667572607E+02  0.59301918989E+02  0.49999954335E+02 0.  0.
        -12    1    1    2    0    0 -0.23586786330E+02 -0.12175489767E+02  0.17667572607E+02  0.31886081011E+02  0.00000000000E+00 0.  1.
         11    1    3    3    0    0  0.15755843742E+02  0.12781690298E+02 -0.94030164798E+01  0.22361461000E+02  0.51100000000E-03 0. -1.
        -11    1    3    3    0    0  0.18473057595E+02 -0.77156529117E+01  0.25543874404E+01  0.20181923898E+02  0.51100000000E-03 0.  1.
        -12    1    3    3    0    0 -0.10642115007E+02  0.71094523806E+01 -0.10818943567E+02  0.16758534091E+02  0.00000000000E+00 0.  1.
</event>
<event>
 7    1  0.6293596E-013  0.5930189E+02  0.7816164E-02  0.1266605E+00
        -11   -1    0    0    0    0  0.00000000000E+00  0.00000000000E+00  0.45593999997E+02  0.45594000000E+02  0.51100000000E-03 0.  1.
         11   -1    0    0    0    0 -0.00000000000E+00 -0.00000000000E+00 -0.45593999997E+02  0.45594000000E+02  0.51100000000E-03 0. -1.
    9900012    2    1    2    0    0  0.22154745764E+02  0.22778104863E+02  0.26550890202E+01  0.59301885173E+02  0.49999892664E+02 0.  0.
        -12    1    1    2    0    0 -0.22154745764E+02 -0.22778104863E+02 -0.26550890202E+01  0.31886114827E+02  0.00000000000E+00 0.  1.
         11    1    3    3    0    0  0.34134364159E+02  0.19251963871E+02  0.64772717932E+01  0.39720875866E+02  0.51100000000E-03 0. -1.
        -11    1    3    3    0    0 -0.57009124567E+01  0.24795954374E+01 -0.92977174780E+01  0.11184647823E+02  0.51100000000E-03 0.  1.
         12    1    3    3    0    0 -0.62787059385E+01  0.10465455551E+01  0.54755347049E+01  0.83963614838E+01  0.00000000000E+00 0. -1.
</event>
<event>
 7    1  0.6293596E-013  0.5930193E+02  0.7816164E-02  0.1266605E+00
        -11   -1    0    0    0    0  0.00000000000E+00  0.00000000000E+00  0.45593999997E+02  0.45594000000E+02  0.51100000000E-03 0.  1.
         11   -1    0    0    0    0 -0.00000000000E+00 -0.00000000000E+00 -0.45593999997E+02  0.45594000000E+02  0.51100000000E-03 0. -1.
    9900012    2    1    2    0    0 -0.22872266889E+02 -0.21277747466E+02  0.63904925464E+01  0.59301928984E+02  0.49999972564E+02 0.  0.
        -12    1    1    2    0    0  0.22872266889E+02  0.21277747466E+02 -0.63904925464E+01  0.31886071016E+02  0.00000000000E+00 0.  1.
         11    1    3    3    0    0  0.94473819898E+01 -0.17100778141E+02 -0.43180018064E+01  0.20008367733E+02  0.51100000000E-03 0. -1.
        -11    1    3    3    0    0 -0.24372882209E+02 -0.80289274344E+01  0.32610328672E+00  0.25663347532E+02  0.51100000000E-03 0.  1.
        -12    1    3    3    0    0 -0.79467666695E+01  0.38519581092E+01  0.10382391066E+02  0.13630213719E+02  0.00000000000E+00 0.  1.
</event>
<event>
 7    1  0.6293596E-013  0.5930221E+02  0.7816164E-02  0.1266604E+00
        -11   -1    0    0    0    0  0.00000000000E+00  0.00000000000E+00  0.45593999997E+02  0.45594000000E+02  0.51100000000E-03 0.  1.
         11   -1    0    0    0    0 -0.00000000000E+00 -0.00000000000E+00 -0.45593999997E+02  0.45594000000E+02  0.51100000000E-03 0. -1.
    9900012    2    1    2    0    0  0.21687688756E+02  0.39085760755E+01 -0.23044977283E+02  0.59302207106E+02  0.50000479790E+02 0.  0.
        -12    1    1    2    0    0 -0.21687688756E+02 -0.39085760755E+01  0.23044977283E+02  0.31885792894E+02  0.00000000000E+00 0.  1.
         11    1    3    3    0    0  0.89741865991E+01 -0.40129431990E+01 -0.32394929559E+02  0.33853673355E+02  0.51100000000E-03 0. -1.
        -11    1    3    3    0    0 -0.41941716169E+00 -0.47299582127E+01  0.45849169130E+01  0.66007483523E+01  0.51100000000E-03 0.  1.
         12    1    3    3    0    0  0.13132919318E+02  0.12651477487E+02  0.47650353631E+01  0.18847785399E+02  0.00000000000E+00 0. -1.
</event>
<event>
 7    1  0.6293596E-013  0.5930195E+02  0.7816164E-02  0.1266605E+00
        -11   -1    0    0    0    0  0.00000000000E+00  0.00000000000E+00  0.45593999997E+02  0.45594000000E+02  0.51100000000E-03 0. -1.
         11   -1    0    0    0    0 -0.00000000000E+00 -0.00000000000E+00 -0.45593999997E+02  0.45594000000E+02  0.51100000000E-03 0.  1.
    9900012    2    1    2    0    0  0.31217625041E+02 -0.95815314934E+00  0.64235604132E+01  0.59301948205E+02  0.50000007619E+02 0.  0.
        -12    1    1    2    0    0 -0.31217625041E+02  0.95815314934E+00 -0.64235604132E+01  0.31886051795E+02  0.00000000000E+00 0.  1.
         11    1    3    3    0    0  0.17604270907E+02 -0.97731179584E+01  0.42096112396E+01  0.20570488955E+02  0.51100000000E-03 0. -1.
        -11    1    3    3    0    0 -0.10785852750E+02  0.22156670643E+01 -0.54950619724E+01  0.12306075996E+02  0.51100000000E-03 0.  1.
        -12    1    3    3    0    0  0.24399206883E+02  0.65992977448E+01  0.77090111459E+01  0.26425383254E+02  0.00000000000E+00 0.  1.
</event>
<event>
 7    1  0.6293596E-013  0.5930193E+02  0.7816164E-02  0.1266605E+00
        -11   -1    0    0    0    0  0.00000000000E+00  0.00000000000E+00  0.45593999997E+02  0.45594000000E+02  0.51100000000E-03 0.  1.
         11   -1    0    0    0    0 -0.00000000000E+00 -0.00000000000E+00 -0.45593999997E+02  0.45594000000E+02  0.51100000000E-03 0. -1.
    9900012    2    1    2    0    0  0.27135195154E+02 -0.14505091421E+02 -0.83668852203E+01  0.59301933114E+02  0.49999980096E+02 0.  0.
        -12    1    1    2    0    0 -0.27135195154E+02  0.14505091421E+02  0.83668852203E+01  0.31886066886E+02  0.00000000000E+00 0.  1.
         11    1    3    3    0    0  0.88263820411E+01 -0.29365676151E+02 -0.30550009024E+01  0.30815271969E+02  0.51100000000E-03 0.  1.
        -11    1    3    3    0    0  0.76224371837E+01  0.94029608114E+01 -0.99027225626E+01  0.15639089969E+02  0.51100000000E-03 0. -1.
        -12    1    3    3    0    0  0.10686375929E+02  0.54576239184E+01  0.45908382448E+01  0.12847571176E+02  0.00000000000E+00 0.  1.
</event>
<event>
 7    1  0.6293596E-013  0.5930196E+02  0.7816164E-02  0.1266605E+00
        -11   -1    0    0    0    0  0.00000000000E+00  0.00000000000E+00  0.45593999997E+02  0.45594000000E+02  0.51100000000E-03 0. -1.
         11   -1    0    0    0    0 -0.00000000000E+00 -0.00000000000E+00 -0.45593999997E+02  0.45594000000E+02  0.51100000000E-03 0.  1.
    9900012    2    1    2    0    0 -0.46904709135E+00 -0.14509147446E+02  0.28389865459E+02  0.59301955630E+02  0.50000021160E+02 0.  0.
        -12    1    1    2    0    0  0.46904709135E+00  0.14509147446E+02 -0.28389865459E+02  0.31886044370E+02  0.00000000000E+00 0.  1.
         11    1    3    3    0    0  0.40783866685E+01 -0.11751854605E+02 -0.92935245055E+01  0.15527682457E+02  0.51100000000E-03 0. -1.
        -11    1    3    3    0    0 -0.86508051581E+01  0.49403032368E+01  0.78251237439E+01  0.12667895951E+02  0.51100000000E-03 0.  1.
         12    1    3    3    0    0  0.41033713982E+01 -0.76975960776E+01  0.29858266221E+02  0.31106377223E+02  0.00000000000E+00 0. -1.
</event>
<event>
 7    1  0.6293596E-013  0.5930194E+02  0.7816164E-02  0.1266605E+00
        -11   -1    0    0    0    0  0.00000000000E+00  0.00000000000E+00  0.45593999997E+02  0.45594000000E+02  0.51100000000E-03 0.  1.
         11   -1    0    0    0    0 -0.00000000000E+00 -0.00000000000E+00 -0.45593999997E+02  0.45594000000E+02  0.51100000000E-03 0. -1.
    9900012    2    1    2    0    0  0.31561187959E+02  0.42167371783E+01  0.16827501240E+01  0.59301935555E+02  0.49999984549E+02 0.  0.
        -12    1    1    2    0    0 -0.31561187959E+02 -0.42167371783E+01 -0.16827501240E+01  0.31886064445E+02  0.00000000000E+00 0.  1.
         11    1    3    3    0    0  0.12354218385E+02  0.40444738606E+01  0.24435258033E+02  0.27677903030E+02  0.51100000000E-03 0. -1.
        -11    1    3    3    0    0  0.88581566995E+01  0.31533130646E+01 -0.44834648044E+01  0.10416898786E+02  0.51100000000E-03 0.  1.
         12    1    3    3    0    0  0.10348812874E+02 -0.29810497469E+01 -0.18269043105E+02  0.21207133740E+02  0.00000000000E+00 0. -1.
</event>
<event>
 7    1  0.6293596E-013  0.5930194E+02  0.7816164E-02  0.1266605E+00
        -11   -1    0    0    0    0  0.00000000000E+00  0.00000000000E+00  0.45593999997E+02  0.45594000000E+02  0.51100000000E-03 0. -1.
         11   -1    0    0    0    0 -0.00000000000E+00 -0.00000000000E+00 -0.45593999997E+02  0.45594000000E+02  0.51100000000E-03 0.  1.
    9900012    2    1    2    0    0 -0.21595425227E+02 -0.50477777168E+01  0.22910225686E+02  0.59301938914E+02  0.49999990674E+02 0.  0.
        -12    1    1    2    0    0  0.21595425227E+02  0.50477777168E+01 -0.22910225686E+02  0.31886061086E+02  0.00000000000E+00 0.  1.
         11    1    3    3    0    0 -0.21353674277E+02 -0.13292872651E+02  0.26027742937E+02  0.36195625026E+02  0.51100000000E-03 0. -1.
        -11    1    3    3    0    0  0.23946213896E+01  0.12097717716E+02 -0.92379530863E+01  0.15408723601E+02  0.51100000000E-03 0.  1.
        -12    1    3    3    0    0 -0.26363723396E+01 -0.38526227816E+01  0.61204358353E+01  0.76975902869E+01  0.00000000000E+00 0.  1.
</event>
<event>
 7    1  0.6293596E-013  0.5930194E+02  0.7816164E-02  0.1266605E+00
        -11   -1    0    0    0    0  0.00000000000E+00  0.00000000000E+00  0.45593999997E+02  0.45594000000E+02  0.51100000000E-03 0.  1.
         11   -1    0    0    0    0 -0.00000000000E+00 -0.00000000000E+00 -0.45593999997E+02  0.45594000000E+02  0.51100000000E-03 0. -1.
    9900012    2    1    2    0    0 -0.15203866599E+02  0.25230073294E+02 -0.12206828857E+02  0.59301939899E+02  0.49999992471E+02 0.  0.
        -12    1    1    2    0    0  0.15203866599E+02 -0.25230073294E+02  0.12206828857E+02  0.31886060101E+02  0.00000000000E+00 0.  1.
         11    1    3    3    0    0 -0.59703860306E+01  0.21237095230E+02  0.10862934240E+02  0.24589897595E+02  0.51100000000E-03 0. -1.
        -11    1    3    3    0    0  0.29154770317E+01 -0.81095480656E+01 -0.58893028156E+01  0.10437847674E+02  0.51100000000E-03 0.  1.
         12    1    3    3    0    0 -0.12148957600E+02  0.12102526130E+02 -0.17180460281E+02  0.24274194631E+02  0.00000000000E+00 0. -1.
</event>
<event>
 7    1  0.6293596E-013  0.5930194E+02  0.7816164E-02  0.1266605E+00
        -11   -1    0    0    0    0  0.00000000000E+00  0.00000000000E+00  0.45593999997E+02  0.45594000000E+02  0.51100000000E-03 0. -1.
         11   -1    0    0    0    0 -0.00000000000E+00 -0.00000000000E+00 -0.45593999997E+02  0.45594000000E+02  0.51100000000E-03 0.  1.
    9900012    2    1    2    0    0  0.29875772603E+02  0.48656428893E+01 -0.10024199780E+02  0.59301939557E+02  0.49999991847E+02 0.  0.
        -12    1    1    2    0    0 -0.29875772603E+02 -0.48656428893E+01  0.10024199780E+02  0.31886060443E+02  0.00000000000E+00 0.  1.
         11    1    3    3    0    0 -0.26629279297E+01  0.10546208290E+02 -0.15267541830E+02  0.18745973655E+02  0.51100000000E-03 0.  1.
        -11    1    3    3    0    0  0.29253603066E+02  0.25571491103E+01 -0.15173641939E+01  0.29404331285E+02  0.51100000000E-03 0. -1.
         12    1    3    3    0    0  0.32850974660E+01 -0.82377145113E+01  0.67607062442E+01  0.11151634618E+02  0.00000000000E+00 0. -1.
</event>
<event>
 7    1  0.6293596E-013  0.5930194E+02  0.7816164E-02  0.1266605E+00
        -11   -1    0    0    0    0  0.00000000000E+00  0.00000000000E+00  0.45593999997E+02  0.45594000000E+02  0.51100000000E-03 0.  1.
         11   -1    0    0    0    0 -0.00000000000E+00 -0.00000000000E+00 -0.45593999997E+02  0.45594000000E+02  0.51100000000E-03 0. -1.
    9900012    2    1    2    0    0  0.29535729608E+02  0.11797631507E+02  0.22754559116E+01  0.59301935141E+02  0.49999983792E+02 0.  0.
        -12    1    1    2    0    0 -0.29535729608E+02 -0.11797631507E+02 -0.22754559116E+01  0.31886064859E+02  0.00000000000E+00 0.  1.
         11    1    3    3    0    0  0.17878123477E+02  0.41837562425E+01  0.67104250025E+01  0.19548936526E+02  0.51100000000E-03 0. -1.
        -11    1    3    3    0    0 -0.32787124499E+01  0.58189843022E+01  0.14266008343E+02  0.15752127728E+02  0.51100000000E-03 0.  1.
         12    1    3    3    0    0  0.14936318581E+02  0.17948909620E+01 -0.18700977434E+02  0.24000870886E+02  0.00000000000E+00 0. -1.
</event>
<event>
 7    1  0.6293596E-013  0.5930198E+02  0.7816164E-02  0.1266605E+00
        -11   -1    0    0    0    0  0.00000000000E+00  0.00000000000E+00  0.45593999997E+02  0.45594000000E+02  0.51100000000E-03 0.  1.
         11   -1    0    0    0    0 -0.00000000000E+00 -0.00000000000E+00 -0.45593999997E+02  0.45594000000E+02  0.51100000000E-03 0. -1.
    9900012    2    1    2    0    0  0.69402378649E+01 -0.20307519683E+02 -0.23582961785E+02  0.59301978865E+02  0.50000063534E+02 0.  0.
        -12    1    1    2    0    0 -0.69402378649E+01  0.20307519683E+02  0.23582961785E+02  0.31886021135E+02  0.00000000000E+00 0.  1.
         11    1    3    3    0    0 -0.12411461038E+02 -0.14359102859E+02 -0.54514900333E+01  0.19747074311E+02  0.51100000000E-03 0. -1.
        -11    1    3    3    0    0  0.22588668824E+02 -0.67064849303E+01 -0.23475311023E+02  0.33261315777E+02  0.51100000000E-03 0.  1.
        -12    1    3    3    0    0 -0.32369699203E+01  0.75806810616E+00  0.53438392716E+01  0.62935887758E+01  0.00000000000E+00 0.  1.
</event>
<event>
 7    1  0.6293596E-013  0.5930195E+02  0.7816164E-02  0.1266605E+00
        -11   -1    0    0    0    0  0.00000000000E+00  0.00000000000E+00  0.45593999997E+02  0.45594000000E+02  0.51100000000E-03 0.  1.
         11   -1    0    0    0    0 -0.00000000000E+00 -0.00000000000E+00 -0.45593999997E+02  0.45594000000E+02  0.51100000000E-03 0. -1.
    9900012    2    1    2    0    0 -0.66258607943E+01 -0.45376022454E+00 -0.31186728528E+02  0.59301953430E+02  0.50000017148E+02 0.  0.
        -12    1    1    2    0    0  0.66258607943E+01  0.45376022454E+00  0.31186728528E+02  0.31886046570E+02  0.00000000000E+00 0.  1.
         11    1    3    3    0    0  0.10110033591E+02  0.48930131512E+01 -0.23623116017E+02  0.26157331047E+02  0.51100000000E-03 0. -1.
        -11    1    3    3    0    0 -0.18809575578E+02 -0.10394473832E+02 -0.13263165559E+02  0.25253846848E+02  0.51100000000E-03 0.  1.
         12    1    3    3    0    0  0.20736811931E+01  0.50477004566E+01  0.56995530487E+01  0.78907755351E+01  0.00000000000E+00 0. -1.
</event>
<event>
 7    1  0.6293596E-013  0.5930196E+02  0.7816164E-02  0.1266605E+00
        -11   -1    0    0    0    0  0.00000000000E+00  0.00000000000E+00  0.45593999997E+02  0.45594000000E+02  0.51100000000E-03 0. -1.
         11   -1    0    0    0    0 -0.00000000000E+00 -0.00000000000E+00 -0.45593999997E+02  0.45594000000E+02  0.51100000000E-03 0.  1.
    9900012    2    1    2    0    0  0.15390420293E+02 -0.19335580792E+02 -0.20149181431E+02  0.59301964911E+02  0.50000038085E+02 0.  0.
        -12    1    1    2    0    0 -0.15390420293E+02  0.19335580792E+02  0.20149181431E+02  0.31886035089E+02  0.00000000000E+00 0.  1.
         11    1    3    3    0    0  0.74481037737E+01 -0.13611821617E+02  0.16330145182E+01  0.15602008661E+02  0.51100000000E-03 0. -1.
        -11    1    3    3    0    0 -0.97466423261E+01 -0.84619220986E+01 -0.22329877382E+02  0.25791948092E+02  0.51100000000E-03 0.  1.
        -12    1    3    3    0    0  0.17688958845E+02  0.27381629236E+01  0.54768143268E+00  0.17908008158E+02  0.00000000000E+00 0.  1.
</event>
<event>
 7    1  0.6293596E-013  0.5930194E+02  0.7816164E-02  0.1266605E+00
        -11   -1    0    0    0    0  0.00000000000E+00  0.00000000000E+00  0.45593999997E+02  0.45594000000E+02  0.51100000000E-03 0. -1.
         11   -1    0    0    0    0 -0.00000000000E+00 -0.00000000000E+00 -0.45593999997E+02  0.45594000000E+02  0.51100000000E-03 0.  1.
    9900012    2    1    2    0    0  0.18661141077E+01  0.14216794521E+02  0.28480185705E+02  0.59301943390E+02  0.49999998837E+02 0.  0.
        -12    1    1    2    0    0 -0.18661141077E+01 -0.14216794521E+02 -0.28480185705E+02  0.31886056610E+02  0.00000000000E+00 0.  1.
         11    1    3    3    0    0  0.10209981312E+02  0.16172281660E+02  0.38713886340E+02  0.43180451692E+02  0.51100000000E-03 0. -1.
        -11    1    3    3    0    0 -0.40177239558E+01  0.29146638838E+01 -0.14217877785E+01  0.51632210963E+01  0.51100000000E-03 0.  1.
         12    1    3    3    0    0 -0.43261432485E+01 -0.48701510230E+01 -0.88119128565E+01  0.10958270602E+02  0.00000000000E+00 0. -1.
</event>
<event>
 7    1  0.6293596E-013  0.5930194E+02  0.7816164E-02  0.1266605E+00
        -11   -1    0    0    0    0  0.00000000000E+00  0.00000000000E+00  0.45593999997E+02  0.45594000000E+02  0.51100000000E-03 0.  1.
         11   -1    0    0    0    0 -0.00000000000E+00 -0.00000000000E+00 -0.45593999997E+02  0.45594000000E+02  0.51100000000E-03 0. -1.
    9900012    2    1    2    0    0 -0.14383754888E+01 -0.24617538264E+02 -0.20214573370E+02  0.59301935791E+02  0.49999984978E+02 0.  0.
        -12    1    1    2    0    0  0.14383754888E+01  0.24617538264E+02  0.20214573370E+02  0.31886064209E+02  0.00000000000E+00 0.  1.
         11    1    3    3    0    0 -0.61188150203E+01 -0.23043621823E+02 -0.27888834179E+02  0.36691081697E+02  0.51100000000E-03 0. -1.
        -11    1    3    3    0    0 -0.17120840624E+01 -0.75165499194E+01  0.10861337412E+02  0.13319099263E+02  0.51100000000E-03 0.  1.
         12    1    3    3    0    0  0.63925235939E+01  0.59426334788E+01 -0.31870766041E+01  0.92917548312E+01  0.00000000000E+00 0. -1.
</event>
<event>
 7    1  0.6293596E-013  0.5930185E+02  0.7816164E-02  0.1266605E+00
        -11   -1    0    0    0    0  0.00000000000E+00  0.00000000000E+00  0.45593999997E+02  0.45594000000E+02  0.51100000000E-03 0. -1.
         11   -1    0    0    0    0 -0.00000000000E+00 -0.00000000000E+00 -0.45593999997E+02  0.45594000000E+02  0.51100000000E-03 0.  1.
    9900012    2    1    2    0    0  0.22623938433E+02 -0.15491269026E+02  0.16275897607E+02  0.59301845495E+02  0.49999820299E+02 0.  0.
        -12    1    1    2    0    0 -0.22623938433E+02  0.15491269026E+02 -0.16275897607E+02  0.31886154505E+02  0.00000000000E+00 0.  1.
         11    1    3    3    0    0  0.18434792338E+02 -0.13087183938E+01  0.40354613311E+01  0.18916639786E+02  0.51100000000E-03 0. -1.
        -11    1    3    3    0    0 -0.10133467112E+02  0.68326048550E+01  0.79872216710E+01  0.14600251885E+02  0.51100000000E-03 0.  1.
        -12    1    3    3    0    0  0.14322613206E+02 -0.21015155487E+02  0.42532146046E+01  0.25784953824E+02  0.00000000000E+00 0.  1.
</event>
<event>
 7    1  0.6293596E-013  0.5930195E+02  0.7816164E-02  0.1266605E+00
        -11   -1    0    0    0    0  0.00000000000E+00  0.00000000000E+00  0.45593999997E+02  0.45594000000E+02  0.51100000000E-03 0.  1.
         11   -1    0    0    0    0 -0.00000000000E+00 -0.00000000000E+00 -0.45593999997E+02  0.45594000000E+02  0.51100000000E-03 0. -1.
    9900012    2    1    2    0    0  0.20638100754E+02  0.22108943088E+02 -0.10098708979E+02  0.59301945207E+02  0.50000002151E+02 0.  0.
        -12    1    1    2    0    0 -0.20638100754E+02 -0.22108943088E+02  0.10098708979E+02  0.31886054793E+02  0.00000000000E+00 0.  1.
         11    1    3    3    0    0  0.12489122240E+02  0.30373683184E+02 -0.63093372869E+01  0.33441688680E+02  0.51100000000E-03 0.  1.
        -11    1    3    3    0    0  0.74208952756E+01 -0.93418632589E+01  0.77636785691E+01  0.14234282596E+02  0.51100000000E-03 0. -1.
         12    1    3    3    0    0  0.72808323865E+00  0.10771231626E+01 -0.11553050261E+02  0.11625973931E+02  0.00000000000E+00 0. -1.
</event>
<event>
 7    1  0.6293596E-013  0.5930195E+02  0.7816164E-02  0.1266605E+00
        -11   -1    0    0    0    0  0.00000000000E+00  0.00000000000E+00  0.45593999997E+02  0.45594000000E+02  0.51100000000E-03 0.  1.
         11   -1    0    0    0    0 -0.00000000000E+00 -0.00000000000E+00 -0.45593999997E+02  0.45594000000E+02  0.51100000000E-03 0. -1.
    9900012    2    1    2    0    0 -0.10162327769E+02 -0.21228057874E+02 -0.21513182533E+02  0.59301947101E+02  0.50000005604E+02 0.  0.
        -12    1    1    2    0    0  0.10162327769E+02  0.21228057874E+02  0.21513182533E+02  0.31886052899E+02  0.00000000000E+00 0.  1.
         11    1    3    3    0    0 -0.43946607651E+01 -0.98564059060E+01  0.11652755641E+02  0.15882332792E+02  0.51100000000E-03 0.  1.
        -11    1    3    3    0    0  0.82011801868E+01 -0.86476506185E+01 -0.23081977887E+02  0.25977277015E+02  0.51100000000E-03 0. -1.
        -12    1    3    3    0    0 -0.13968847191E+02 -0.27240013496E+01 -0.10083960287E+02  0.17442337294E+02  0.00000000000E+00 0.  1.
</event>
<event>
 7    1  0.7346911E-013  0.5930192E+02  0.7816164E-02  0.1266605E+00
        -11   -1    0    0    0    0  0.00000000000E+00  0.00000000000E+00  0.45593999997E+02  0.45594000000E+02  0.51100000000E-03 0.  1.
         11   -1    0    0    0    0 -0.00000000000E+00 -0.00000000000E+00 -0.45593999997E+02  0.45594000000E+02  0.51100000000E-03 0. -1.
    9900012    2    1    2    0    0  0.50205072358E+01  0.31455170656E+02 -0.14451989412E+01  0.59301923824E+02  0.49999963154E+02 0.  0.
        -12    1    1    2    0    0 -0.50205072358E+01 -0.31455170656E+02  0.14451989412E+01  0.31886076176E+02  0.00000000000E+00 0.  1.
         11    1    3    3    0    0  0.21389548837E+02  0.24256219193E+02  0.28348368464E+01  0.32464030390E+02  0.51100000000E-03 0. -1.
        -11    1    3    3    0    0 -0.98575506136E+01 -0.51577690033E+01  0.23593416708E+01  0.11372791151E+02  0.51100000000E-03 0.  1.
        -12    1    3    3    0    0 -0.65114909879E+01  0.12356720467E+02 -0.66393774584E+01  0.15465102283E+02  0.00000000000E+00 0.  1.
</event>
<event>
 7    1  0.6293596E-013  0.5930195E+02  0.7816164E-02  0.1266605E+00
        -11   -1    0    0    0    0  0.00000000000E+00  0.00000000000E+00  0.45593999997E+02  0.45594000000E+02  0.51100000000E-03 0.  1.
         11   -1    0    0    0    0 -0.00000000000E+00 -0.00000000000E+00 -0.45593999997E+02  0.45594000000E+02  0.51100000000E-03 0. -1.
    9900012    2    1    2    0    0 -0.16311793491E+02  0.26762271654E+02 -0.58674184276E+01  0.59301946780E+02  0.50000005019E+02 0.  0.
        -12    1    1    2    0    0  0.16311793491E+02 -0.26762271654E+02  0.58674184276E+01  0.31886053220E+02  0.00000000000E+00 0.  1.
         11    1    3    3    0    0 -0.24508870078E+01 -0.11959763355E+02  0.74109687476E+00  0.12230781311E+02  0.51100000000E-03 0. -1.
        -11    1    3    3    0    0 -0.13444792269E+02  0.24469172114E+02 -0.13752282434E+02  0.31122790612E+02  0.51100000000E-03 0.  1.
        -12    1    3    3    0    0 -0.41611421418E+00  0.14252862895E+02  0.71437671312E+01  0.15948374856E+02  0.00000000000E+00 0.  1.
</event>
<event>
 7    1  0.6293596E-013  0.5930197E+02  0.7816164E-02  0.1266605E+00
        -11   -1    0    0    0    0  0.00000000000E+00  0.00000000000E+00  0.45593999997E+02  0.45594000000E+02  0.51100000000E-03 0.  1.
         11   -1    0    0    0    0 -0.00000000000E+00 -0.00000000000E+00 -0.45593999997E+02  0.45594000000E+02  0.51100000000E-03 0. -1.
    9900012    2    1    2    0    0 -0.15088223327E+02 -0.13699127952E+02 -0.24523420145E+02  0.59301972881E+02  0.50000052622E+02 0.  0.
        -12    1    1    2    0    0  0.15088223327E+02  0.13699127952E+02  0.24523420145E+02  0.31886027119E+02  0.00000000000E+00 0.  1.
         11    1    3    3    0    0 -0.12981333479E+02 -0.14801149019E+02 -0.18302442148E+02  0.26880632806E+02  0.51100000000E-03 0. -1.
        -11    1    3    3    0    0  0.74085917349E+01 -0.83436420307E+01  0.73364050015E+01  0.13353892033E+02  0.51100000000E-03 0.  1.
        -12    1    3    3    0    0 -0.95154815822E+01  0.94456630976E+01 -0.13557382998E+02  0.19067448043E+02  0.00000000000E+00 0.  1.
</event>
<event>
 7    1  0.6293596E-013  0.5930197E+02  0.7816164E-02  0.1266605E+00
        -11   -1    0    0    0    0  0.00000000000E+00  0.00000000000E+00  0.45593999997E+02  0.45594000000E+02  0.51100000000E-03 0.  1.
         11   -1    0    0    0    0 -0.00000000000E+00 -0.00000000000E+00 -0.45593999997E+02  0.45594000000E+02  0.51100000000E-03 0. -1.
    9900012    2    1    2    0    0  0.27087037159E+02  0.14692330970E+02 -0.81943255729E+01  0.59301966334E+02  0.50000040681E+02 0.  0.
        -12    1    1    2    0    0 -0.27087037159E+02 -0.14692330970E+02  0.81943255729E+01  0.31886033666E+02  0.00000000000E+00 0.  1.
         11    1    3    3    0    0  0.51376348532E+01  0.10908742744E+02 -0.37439037643E+01  0.12625877228E+02  0.51100000000E-03 0. -1.
        -11    1    3    3    0    0  0.32134875317E+02 -0.43218025681E+01 -0.75578108407E+01  0.33293373125E+02  0.51100000000E-03 0.  1.
        -12    1    3    3    0    0 -0.10185473012E+02  0.81053907943E+01  0.31073890321E+01  0.13382715980E+02  0.00000000000E+00 0.  1.
</event>
<event>
 7    1  0.6293596E-013  0.5930195E+02  0.7816164E-02  0.1266605E+00
        -11   -1    0    0    0    0  0.00000000000E+00  0.00000000000E+00  0.45593999997E+02  0.45594000000E+02  0.51100000000E-03 0.  1.
         11   -1    0    0    0    0 -0.00000000000E+00 -0.00000000000E+00 -0.45593999997E+02  0.45594000000E+02  0.51100000000E-03 0. -1.
    9900012    2    1    2    0    0 -0.24137241604E+02 -0.16221752676E+02 -0.13075491865E+02  0.59301950078E+02  0.50000011034E+02 0.  0.
        -12    1    1    2    0    0  0.24137241604E+02  0.16221752676E+02  0.13075491865E+02  0.31886049922E+02  0.00000000000E+00 0.  1.
         11    1    3    3    0    0 -0.62420719457E+01 -0.54777806617E+01  0.16650024921E+02  0.18606258981E+02  0.51100000000E-03 0.  1.
        -11    1    3    3    0    0 -0.48419055879E+01 -0.43946582255E+01 -0.24356564777E+02  0.25219026917E+02  0.51100000000E-03 0. -1.
        -12    1    3    3    0    0 -0.13053264070E+02 -0.63493137889E+01 -0.53689520089E+01  0.15476664180E+02  0.00000000000E+00 0.  1.
</event>
<event>
 7    1  0.6293596E-013  0.5930193E+02  0.7816164E-02  0.1266605E+00
        -11   -1    0    0    0    0  0.00000000000E+00  0.00000000000E+00  0.45593999997E+02  0.45594000000E+02  0.51100000000E-03 0.  1.
         11   -1    0    0    0    0 -0.00000000000E+00 -0.00000000000E+00 -0.45593999997E+02  0.45594000000E+02  0.51100000000E-03 0. -1.
    9900012    2    1    2    0    0 -0.19895080429E+02 -0.24809721623E+02  0.23204838911E+01  0.59301934740E+02  0.49999983062E+02 0.  0.
        -12    1    1    2    0    0  0.19895080429E+02  0.24809721623E+02 -0.23204838911E+01  0.31886065260E+02  0.00000000000E+00 0.  1.
         11    1    3    3    0    0 -0.40111395481E+01  0.21950409717E+01 -0.15664016081E+02  0.16317746333E+02  0.51100000000E-03 0. -1.
        -11    1    3    3    0    0 -0.22001040997E+02 -0.21600832305E+02  0.13355671143E+02  0.33600829055E+02  0.51100000000E-03 0.  1.
        -12    1    3    3    0    0  0.61171001168E+01 -0.54039302892E+01  0.46288288285E+01  0.93833593523E+01  0.00000000000E+00 0.  1.
</event>
<event>
 7    1  0.6293596E-013  0.5930195E+02  0.7816164E-02  0.1266605E+00
        -11   -1    0    0    0    0  0.00000000000E+00  0.00000000000E+00  0.45593999997E+02  0.45594000000E+02  0.51100000000E-03 0.  1.
         11   -1    0    0    0    0 -0.00000000000E+00 -0.00000000000E+00 -0.45593999997E+02  0.45594000000E+02  0.51100000000E-03 0. -1.
    9900012    2    1    2    0    0 -0.24816218214E+02  0.42992804367E+01 -0.19554842518E+02  0.59301947178E+02  0.50000005744E+02 0.  0.
        -12    1    1    2    0    0  0.24816218214E+02 -0.42992804367E+01  0.19554842518E+02  0.31886052822E+02  0.00000000000E+00 0.  1.
         11    1    3    3    0    0 -0.95287768499E+01  0.14690323564E+02 -0.24628068059E+02  0.30218288026E+02  0.51100000000E-03 0. -1.
        -11    1    3    3    0    0 -0.11131114350E+02 -0.34103151273E+01  0.13194519538E+02  0.17596229768E+02  0.51100000000E-03 0.  1.
        -12    1    3    3    0    0 -0.41563270141E+01 -0.69807279999E+01 -0.81212939972E+01  0.11487429384E+02  0.00000000000E+00 0.  1.
</event>
<event>
 7    1  0.6293596E-013  0.5930193E+02  0.7816164E-02  0.1266605E+00
        -11   -1    0    0    0    0  0.00000000000E+00  0.00000000000E+00  0.45593999997E+02  0.45594000000E+02  0.51100000000E-03 0. -1.
         11   -1    0    0    0    0 -0.00000000000E+00 -0.00000000000E+00 -0.45593999997E+02  0.45594000000E+02  0.51100000000E-03 0.  1.
    9900012    2    1    2    0    0  0.22187987643E+02 -0.19175733245E+02  0.12518230882E+02  0.59301927092E+02  0.49999969113E+02 0.  0.
        -12    1    1    2    0    0 -0.22187987643E+02  0.19175733245E+02 -0.12518230882E+02  0.31886072908E+02  0.00000000000E+00 0.  1.
         11    1    3    3    0    0 -0.10654069039E+01 -0.22894397359E+01  0.16237082748E+02  0.16432269551E+02  0.51100000000E-03 0. -1.
        -11    1    3    3    0    0  0.29035048584E+02 -0.20083169064E+02 -0.61389793287E+01  0.35833710293E+02  0.51100000000E-03 0.  1.
        -12    1    3    3    0    0 -0.57816540376E+01  0.31968755554E+01  0.24201274625E+01  0.70359472469E+01  0.00000000000E+00 0.  1.
</event>
<event>
 7    1  0.6293596E-013  0.5930189E+02  0.7816164E-02  0.1266605E+00
        -11   -1    0    0    0    0  0.00000000000E+00  0.00000000000E+00  0.45593999997E+02  0.45594000000E+02  0.51100000000E-03 0.  1.
         11   -1    0    0    0    0 -0.00000000000E+00 -0.00000000000E+00 -0.45593999997E+02  0.45594000000E+02  0.51100000000E-03 0. -1.
    9900012    2    1    2    0    0  0.43160693646E+01 -0.25346655217E+02 -0.18858493587E+02  0.59301887572E+02  0.49999897037E+02 0.  0.
        -12    1    1    2    0    0 -0.43160693646E+01  0.25346655217E+02  0.18858493587E+02  0.31886112428E+02  0.00000000000E+00 0.  1.
         11    1    3    3    0    0  0.20749644883E+02 -0.58347466777E+01 -0.15045877680E+02  0.26286317106E+02  0.51100000000E-03 0. -1.
        -11    1    3    3    0    0 -0.16602272656E+02 -0.17756729188E+02 -0.10219878017E+02  0.26370111789E+02  0.51100000000E-03 0.  1.
        -12    1    3    3    0    0  0.16869713818E+00 -0.17551793506E+01  0.64072621101E+01  0.66454586768E+01  0.00000000000E+00 0.  1.
</event>
<event>
 7    1  0.6293596E-013  0.5930196E+02  0.7816164E-02  0.1266605E+00
        -11   -1    0    0    0    0  0.00000000000E+00  0.00000000000E+00  0.45593999997E+02  0.45594000000E+02  0.51100000000E-03 0.  1.
         11   -1    0    0    0    0 -0.00000000000E+00 -0.00000000000E+00 -0.45593999997E+02  0.45594000000E+02  0.51100000000E-03 0. -1.
    9900012    2    1    2    0    0 -0.24892010151E+02 -0.66069166603E+01 -0.18800428623E+02  0.59301958641E+02  0.50000026651E+02 0.  0.
        -12    1    1    2    0    0  0.24892010151E+02  0.66069166603E+01  0.18800428623E+02  0.31886041359E+02  0.00000000000E+00 0.  1.
         11    1    3    3    0    0 -0.23167885662E+02  0.79227178129E+01  0.95306609917E+01  0.26274586253E+02  0.51100000000E-03 0. -1.
        -11    1    3    3    0    0 -0.41871038652E+01 -0.13519684738E+02 -0.25329084864E+02  0.29015103903E+02  0.51100000000E-03 0.  1.
        -12    1    3    3    0    0  0.24629793754E+01 -0.10099497354E+01 -0.30020047507E+01  0.40122684849E+01  0.00000000000E+00 0.  1.
</event>
<event>
 7    1  0.6293596E-013  0.5930195E+02  0.7816164E-02  0.1266605E+00
        -11   -1    0    0    0    0  0.00000000000E+00  0.00000000000E+00  0.45593999997E+02  0.45594000000E+02  0.51100000000E-03 0. -1.
         11   -1    0    0    0    0 -0.00000000000E+00 -0.00000000000E+00 -0.45593999997E+02  0.45594000000E+02  0.51100000000E-03 0.  1.
    9900012    2    1    2    0    0  0.20155382452E+02 -0.72339231631E+01  0.23625222481E+02  0.59301949392E+02  0.50000009782E+02 0.  0.
        -12    1    1    2    0    0 -0.20155382452E+02  0.72339231631E+01 -0.23625222481E+02  0.31886050608E+02  0.00000000000E+00 0.  1.
         11    1    3    3    0    0 -0.19295698409E+01 -0.20553721777E+02  0.21099948529E+02  0.29519257221E+02  0.51100000000E-03 0. -1.
        -11    1    3    3    0    0  0.20591551689E+02  0.11924030319E+02  0.70503230602E+01  0.24817363992E+02  0.51100000000E-03 0.  1.
        -12    1    3    3    0    0  0.14934006043E+01  0.13957682950E+01 -0.45250491079E+01  0.49653281792E+01  0.00000000000E+00 0.  1.
</event>
<event>
 7    1  0.7199225E-013  0.5930193E+02  0.7816164E-02  0.1266605E+00
        -11   -1    0    0    0    0  0.00000000000E+00  0.00000000000E+00  0.45593999997E+02  0.45594000000E+02  0.51100000000E-03 0.  1.
         11   -1    0    0    0    0 -0.00000000000E+00 -0.00000000000E+00 -0.45593999997E+02  0.45594000000E+02  0.51100000000E-03 0. -1.
    9900012    2    1    2    0    0  0.34806514960E+01  0.25637636616E+02 -0.18636474436E+02  0.59301928974E+02  0.49999972545E+02 0.  0.
        -12    1    1    2    0    0 -0.34806514960E+01 -0.25637636616E+02  0.18636474436E+02  0.31886071026E+02  0.00000000000E+00 0.  1.
         11    1    3    3    0    0 -0.12382951720E+01  0.18405391883E+02 -0.19047266360E+02  0.26515847740E+02  0.51100000000E-03 0. -1.
        -11    1    3    3    0    0  0.18828937752E+01 -0.11612335489E+02 -0.52845362369E+01  0.12896431599E+02  0.51100000000E-03 0.  1.
        -12    1    3    3    0    0  0.28360528927E+01  0.18844580222E+02  0.56953281611E+01  0.19889649635E+02  0.00000000000E+00 0.  1.
</event>
<event>
 7    1  0.6293596E-013  0.5930192E+02  0.7816164E-02  0.1266605E+00
        -11   -1    0    0    0    0  0.00000000000E+00  0.00000000000E+00  0.45593999997E+02  0.45594000000E+02  0.51100000000E-03 0.  1.
         11   -1    0    0    0    0 -0.00000000000E+00 -0.00000000000E+00 -0.45593999997E+02  0.45594000000E+02  0.51100000000E-03 0. -1.
    9900012    2    1    2    0    0  0.25171797046E+02 -0.19531625324E+02 -0.12722294070E+01  0.59301916485E+02  0.49999949768E+02 0.  0.
        -12    1    1    2    0    0 -0.25171797046E+02  0.19531625324E+02  0.12722294070E+01  0.31886083515E+02  0.00000000000E+00 0.  1.
         11    1    3    3    0    0  0.35748665047E+02 -0.23988347421E+02 -0.75923105743E+01  0.43715569820E+02  0.51100000000E-03 0. -1.
        -11    1    3    3    0    0 -0.37180010141E+01  0.60032519832E+01  0.43133888488E+01  0.82745325872E+01  0.51100000000E-03 0.  1.
         12    1    3    3    0    0 -0.68588669871E+01 -0.15465298863E+01  0.20066923185E+01  0.73118140771E+01  0.00000000000E+00 0. -1.
</event>
<event>
 7    1  0.6293596E-013  0.5930195E+02  0.7816164E-02  0.1266605E+00
        -11   -1    0    0    0    0  0.00000000000E+00  0.00000000000E+00  0.45593999997E+02  0.45594000000E+02  0.51100000000E-03 0.  1.
         11   -1    0    0    0    0 -0.00000000000E+00 -0.00000000000E+00 -0.45593999997E+02  0.45594000000E+02  0.51100000000E-03 0. -1.
    9900012    2    1    2    0    0 -0.30135289523E+02 -0.93464441686E+01  0.46074206478E+01  0.59301952609E+02  0.50000015650E+02 0.  0.
        -12    1    1    2    0    0  0.30135289523E+02  0.93464441686E+01 -0.46074206478E+01  0.31886047391E+02  0.00000000000E+00 0.  1.
         11    1    3    3    0    0 -0.17520807898E+02  0.73535673060E+01  0.87368351840E+01  0.20913774189E+02  0.51100000000E-03 0. -1.
        -11    1    3    3    0    0  0.84539181326E+01  0.32916411767E+01 -0.18182154854E+01  0.92525424204E+01  0.51100000000E-03 0.  1.
         12    1    3    3    0    0 -0.21068399757E+02 -0.19991652651E+02 -0.23111990508E+01  0.29135636000E+02  0.00000000000E+00 0. -1.
</event>
<event>
 7    1  0.6293596E-013  0.5930199E+02  0.7816164E-02  0.1266605E+00
        -11   -1    0    0    0    0  0.00000000000E+00  0.00000000000E+00  0.45593999997E+02  0.45594000000E+02  0.51100000000E-03 0.  1.
         11   -1    0    0    0    0 -0.00000000000E+00 -0.00000000000E+00 -0.45593999997E+02  0.45594000000E+02  0.51100000000E-03 0. -1.
    9900012    2    1    2    0    0 -0.15967561887E+02  0.75083985697E+01 -0.26558968357E+02  0.59301986108E+02  0.50000076745E+02 0.  0.
        -12    1    1    2    0    0  0.15967561887E+02 -0.75083985697E+01  0.26558968357E+02  0.31886013892E+02  0.00000000000E+00 0.  1.
         11    1    3    3    0    0 -0.16849235241E+01  0.19526715046E+02 -0.15323164223E+01  0.19659083438E+02  0.51100000000E-03 0. -1.
        -11    1    3    3    0    0 -0.94562494437E+01 -0.16262464668E+02 -0.27011185117E+02  0.32916447748E+02  0.51100000000E-03 0.  1.
        -12    1    3    3    0    0 -0.48263889191E+01  0.42441481917E+01  0.19845331826E+01  0.67264549225E+01  0.00000000000E+00 0.  1.
</event>
<event>
 7    1  0.6293596E-013  0.5930194E+02  0.7816164E-02  0.1266605E+00
        -11   -1    0    0    0    0  0.00000000000E+00  0.00000000000E+00  0.45593999997E+02  0.45594000000E+02  0.51100000000E-03 0. -1.
         11   -1    0    0    0    0 -0.00000000000E+00 -0.00000000000E+00 -0.45593999997E+02  0.45594000000E+02  0.51100000000E-03 0.  1.
    9900012    2    1    2    0    0 -0.26908141092E+02  0.10343208250E+02  0.13626840860E+02  0.59301940260E+02  0.49999993129E+02 0.  0.
        -12    1    1    2    0    0  0.26908141092E+02 -0.10343208250E+02 -0.13626840860E+02  0.31886059740E+02  0.00000000000E+00 0.  1.
         11    1    3    3    0    0  0.56588506524E+01  0.85540982314E+01  0.10843893768E+02  0.14925991410E+02  0.51100000000E-03 0. -1.
        -11    1    3    3    0    0 -0.20272327354E+02 -0.12592693495E+02 -0.41533979266E+01  0.24223829186E+02  0.51100000000E-03 0.  1.
        -12    1    3    3    0    0 -0.12294664390E+02  0.14381803514E+02  0.69363450185E+01  0.20152119665E+02  0.00000000000E+00 0.  1.
</event>
<event>
 7    1  0.6293596E-013  0.5930199E+02  0.7816164E-02  0.1266605E+00
        -11   -1    0    0    0    0  0.00000000000E+00  0.00000000000E+00  0.45593999997E+02  0.45594000000E+02  0.51100000000E-03 0.  1.
         11   -1    0    0    0    0 -0.00000000000E+00 -0.00000000000E+00 -0.45593999997E+02  0.45594000000E+02  0.51100000000E-03 0. -1.
    9900012    2    1    2    0    0  0.18751721066E+02  0.22414226913E+02 -0.12755121860E+02  0.59301988260E+02  0.50000080668E+02 0.  0.
        -12    1    1    2    0    0 -0.18751721066E+02 -0.22414226913E+02  0.12755121860E+02  0.31886011740E+02  0.00000000000E+00 0.  1.
         11    1    3    3    0    0 -0.11186608741E+02  0.40150319024E+01 -0.76988590299E+01  0.14160971962E+02  0.51100000000E-03 0.  1.
        -11    1    3    3    0    0  0.24010653976E+02  0.18390116697E+02 -0.14849940656E+02  0.33693154115E+02  0.51100000000E-03 0. -1.
        -12    1    3    3    0    0  0.59276758311E+01  0.90783139596E-02  0.97936778267E+01  0.11447862182E+02  0.00000000000E+00 0.  1.
</event>
<event>
 7    1  0.6293596E-013  0.5930194E+02  0.7816164E-02  0.1266605E+00
        -11   -1    0    0    0    0  0.00000000000E+00  0.00000000000E+00  0.45593999997E+02  0.45594000000E+02  0.51100000000E-03 0. -1.
         11   -1    0    0    0    0 -0.00000000000E+00 -0.00000000000E+00 -0.45593999997E+02  0.45594000000E+02  0.51100000000E-03 0.  1.
    9900012    2    1    2    0    0  0.30540625880E+02  0.88451207974E+01  0.23989467481E+01  0.59301938209E+02  0.49999989387E+02 0.  0.
        -12    1    1    2    0    0 -0.30540625880E+02 -0.88451207974E+01 -0.23989467481E+01  0.31886061791E+02  0.00000000000E+00 0.  1.
         11    1    3    3    0    0  0.23893292879E+02  0.14396668227E+01 -0.15869650696E+02  0.28719468982E+02  0.51100000000E-03 0.  1.
        -11    1    3    3    0    0  0.13968850948E+02  0.39160445584E+01  0.17040457788E+02  0.22379486224E+02  0.51100000000E-03 0. -1.
         12    1    3    3    0    0 -0.73215179463E+01  0.34894094163E+01  0.12281396568E+01  0.82029830018E+01  0.00000000000E+00 0. -1.
</event>
<event>
 7    1  0.6293596E-013  0.5930195E+02  0.7816164E-02  0.1266605E+00
        -11   -1    0    0    0    0  0.00000000000E+00  0.00000000000E+00  0.45593999997E+02  0.45594000000E+02  0.51100000000E-03 0.  1.
         11   -1    0    0    0    0 -0.00000000000E+00 -0.00000000000E+00 -0.45593999997E+02  0.45594000000E+02  0.51100000000E-03 0. -1.
    9900012    2    1    2    0    0  0.29483572008E+02  0.12069125614E+02 -0.13324334823E+01  0.59301949909E+02  0.50000010726E+02 0.  0.
        -12    1    1    2    0    0 -0.29483572008E+02 -0.12069125614E+02  0.13324334823E+01  0.31886050091E+02  0.00000000000E+00 0.  1.
         11    1    3    3    0    0 -0.21608671982E+01  0.12787164599E+02 -0.18188600492E+02  0.22338444745E+02  0.51100000000E-03 0. -1.
        -11    1    3    3    0    0  0.23698885866E+02  0.32432965444E+01  0.11000609562E+02  0.26328113771E+02  0.51100000000E-03 0.  1.
         12    1    3    3    0    0  0.79455533402E+01 -0.39613355289E+01  0.58555574477E+01  0.10635391393E+02  0.00000000000E+00 0. -1.
</event>
<event>
 7    1  0.6293596E-013  0.5930182E+02  0.7816164E-02  0.1266605E+00
        -11   -1    0    0    0    0  0.00000000000E+00  0.00000000000E+00  0.45593999997E+02  0.45594000000E+02  0.51100000000E-03 0.  1.
         11   -1    0    0    0    0 -0.00000000000E+00 -0.00000000000E+00 -0.45593999997E+02  0.45594000000E+02  0.51100000000E-03 0. -1.
    9900012    2    1    2    0    0 -0.30852117404E+02  0.46790482741E+01 -0.65560511578E+01  0.59301820425E+02  0.49999774579E+02 0.  0.
        -12    1    1    2    0    0  0.30852117404E+02 -0.46790482741E+01  0.65560511578E+01  0.31886179575E+02  0.00000000000E+00 0.  1.
         11    1    3    3    0    0 -0.19748315861E+02 -0.71921261674E+01 -0.22415415899E+02  0.30727406794E+02  0.51100000000E-03 0. -1.
        -11    1    3    3    0    0 -0.10179305456E+02 -0.11504318090E+01  0.42011436507E+01  0.11072098317E+02  0.51100000000E-03 0.  1.
         12    1    3    3    0    0 -0.92449608786E+00  0.13021606250E+02  0.11658221090E+02  0.17502315314E+02  0.00000000000E+00 0. -1.
</event>
<event>
 7    1  0.6293596E-013  0.5930194E+02  0.7816164E-02  0.1266605E+00
        -11   -1    0    0    0    0  0.00000000000E+00  0.00000000000E+00  0.45593999997E+02  0.45594000000E+02  0.51100000000E-03 0. -1.
         11   -1    0    0    0    0 -0.00000000000E+00 -0.00000000000E+00 -0.45593999997E+02  0.45594000000E+02  0.51100000000E-03 0.  1.
    9900012    2    1    2    0    0 -0.12708591610E+02 -0.51038173533E+01  0.28795195597E+02  0.59301944400E+02  0.50000000678E+02 0.  0.
        -12    1    1    2    0    0  0.12708591610E+02  0.51038173533E+01 -0.28795195597E+02  0.31886055600E+02  0.00000000000E+00 0.  1.
         11    1    3    3    0    0 -0.19895342336E+02  0.14023164132E+02  0.13913632291E+02  0.28036814062E+02  0.51100000000E-03 0. -1.
        -11    1    3    3    0    0  0.59885051665E+01 -0.22176082690E+02  0.15779573423E+02  0.27868185719E+02  0.51100000000E-03 0.  1.
        -12    1    3    3    0    0  0.11982455599E+01  0.30491012039E+01 -0.89801011670E+00  0.33969446187E+01  0.00000000000E+00 0.  1.
</event>
<event>
 7    1  0.6293596E-013  0.5930192E+02  0.7816164E-02  0.1266605E+00
        -11   -1    0    0    0    0  0.00000000000E+00  0.00000000000E+00  0.45593999997E+02  0.45594000000E+02  0.51100000000E-03 0.  1.
         11   -1    0    0    0    0 -0.00000000000E+00 -0.00000000000E+00 -0.45593999997E+02  0.45594000000E+02  0.51100000000E-03 0. -1.
    9900012    2    1    2    0    0  0.19913996082E+02  0.20649651909E+02 -0.13919282653E+02  0.59301924771E+02  0.49999964881E+02 0.  0.
        -12    1    1    2    0    0 -0.19913996082E+02 -0.20649651909E+02  0.13919282653E+02  0.31886075229E+02  0.00000000000E+00 0.  1.
         11    1    3    3    0    0  0.73756886531E+00  0.29811432916E+00 -0.90699059249E+01  0.91047280977E+01  0.51100000000E-03 0. -1.
        -11    1    3    3    0    0  0.60363495194E+01  0.39464729905E+01  0.17855482195E+02  0.19256957425E+02  0.51100000000E-03 0.  1.
        -12    1    3    3    0    0  0.13140077697E+02  0.16405064589E+02 -0.22704858923E+02  0.30940239249E+02  0.00000000000E+00 0.  1.
</event>
<event>
 7    1  0.6293596E-013  0.5930195E+02  0.7816164E-02  0.1266605E+00
        -11   -1    0    0    0    0  0.00000000000E+00  0.00000000000E+00  0.45593999997E+02  0.45594000000E+02  0.51100000000E-03 0.  1.
         11   -1    0    0    0    0 -0.00000000000E+00 -0.00000000000E+00 -0.45593999997E+02  0.45594000000E+02  0.51100000000E-03 0. -1.
    9900012    2    1    2    0    0 -0.19621550560E+02  0.17215080114E+02 -0.18312730141E+02  0.59301947956E+02  0.50000007164E+02 0.  0.
        -12    1    1    2    0    0  0.19621550560E+02 -0.17215080114E+02  0.18312730141E+02  0.31886052044E+02  0.00000000000E+00 0.  1.
         11    1    3    3    0    0 -0.25324997535E+02  0.25338382039E+02 -0.15970633278E+02  0.39223082899E+02  0.51100000000E-03 0. -1.
        -11    1    3    3    0    0  0.16909900898E+01 -0.11475353486E+02 -0.65915597841E+01  0.13341358467E+02  0.51100000000E-03 0.  1.
         12    1    3    3    0    0  0.40124568853E+01  0.33520515616E+01  0.42494629208E+01  0.67375065895E+01  0.00000000000E+00 0. -1.
</event>
<event>
 7    1  0.6293596E-013  0.5930198E+02  0.7816164E-02  0.1266605E+00
        -11   -1    0    0    0    0  0.00000000000E+00  0.00000000000E+00  0.45593999997E+02  0.45594000000E+02  0.51100000000E-03 0.  1.
         11   -1    0    0    0    0 -0.00000000000E+00 -0.00000000000E+00 -0.45593999997E+02  0.45594000000E+02  0.51100000000E-03 0. -1.
    9900012    2    1    2    0    0  0.51844723865E+01 -0.26854076617E+02 -0.16392006896E+02  0.59301983081E+02  0.50000071223E+02 0.  0.
        -12    1    1    2    0    0 -0.51844723865E+01  0.26854076617E+02  0.16392006896E+02  0.31886016919E+02  0.00000000000E+00 0.  1.
         11    1    3    3    0    0  0.11961300076E+02  0.43188998374E+01 -0.11743468950E+02  0.17309958363E+02  0.51100000000E-03 0.  1.
        -11    1    3    3    0    0 -0.13038129841E+01 -0.29611538734E+02  0.56984557938E+01  0.30183034194E+02  0.51100000000E-03 0. -1.
         12    1    3    3    0    0 -0.54730147050E+01 -0.15614377208E+01 -0.10346993740E+02  0.11808990523E+02  0.00000000000E+00 0. -1.
</event>
<event>
 7    1  0.6293596E-013  0.5930197E+02  0.7816164E-02  0.1266605E+00
        -11   -1    0    0    0    0  0.00000000000E+00  0.00000000000E+00  0.45593999997E+02  0.45594000000E+02  0.51100000000E-03 0.  1.
         11   -1    0    0    0    0 -0.00000000000E+00 -0.00000000000E+00 -0.45593999997E+02  0.45594000000E+02  0.51100000000E-03 0. -1.
    9900012    2    1    2    0    0  0.21034523163E+02  0.13289572958E+02 -0.19941289340E+02  0.59301969600E+02  0.50000046638E+02 0.  0.
        -12    1    1    2    0    0 -0.21034523163E+02 -0.13289572958E+02  0.19941289340E+02  0.31886030400E+02  0.00000000000E+00 0.  1.
         11    1    3    3    0    0 -0.69503136999E+01  0.21587412228E+02 -0.15672583263E+02  0.27567246754E+02  0.51100000000E-03 0. -1.
        -11    1    3    3    0    0  0.26157431192E+02 -0.37143357155E+01 -0.44745763133E+01  0.26796069297E+02  0.51100000000E-03 0.  1.
         12    1    3    3    0    0  0.18274056711E+01 -0.45835035542E+01  0.20587023624E+00  0.49386535485E+01  0.00000000000E+00 0. -1.
</event>
<event>
 7    1  0.6293596E-013  0.5930201E+02  0.7816164E-02  0.1266605E+00
        -11   -1    0    0    0    0  0.00000000000E+00  0.00000000000E+00  0.45593999997E+02  0.45594000000E+02  0.51100000000E-03 0.  1.
         11   -1    0    0    0    0 -0.00000000000E+00 -0.00000000000E+00 -0.45593999997E+02  0.45594000000E+02  0.51100000000E-03 0. -1.
    9900012    2    1    2    0    0 -0.29079476610E+02  0.11445004347E+02  0.63334158505E+01  0.59302011843E+02  0.50000123680E+02 0.  0.
        -12    1    1    2    0    0  0.29079476610E+02 -0.11445004347E+02 -0.63334158505E+01  0.31885988157E+02  0.00000000000E+00 0.  1.
         11    1    3    3    0    0  0.61969245652E+01  0.56560906425E+01  0.89410901562E+01  0.12261171594E+02  0.51100000000E-03 0. -1.
        -11    1    3    3    0    0 -0.34527175853E+02  0.12508675038E+02  0.47721095127E+01  0.37031957186E+02  0.51100000000E-03 0.  1.
        -12    1    3    3    0    0 -0.74922532192E+00 -0.67197613336E+01 -0.73797838184E+01  0.10008883063E+02  0.00000000000E+00 0.  1.
</event>
<event>
 7    1  0.6293596E-013  0.5930194E+02  0.7816164E-02  0.1266605E+00
        -11   -1    0    0    0    0  0.00000000000E+00  0.00000000000E+00  0.45593999997E+02  0.45594000000E+02  0.51100000000E-03 0. -1.
         11   -1    0    0    0    0 -0.00000000000E+00 -0.00000000000E+00 -0.45593999997E+02  0.45594000000E+02  0.51100000000E-03 0.  1.
    9900012    2    1    2    0    0  0.11651203493E+02  0.29597772672E+02 -0.22230315475E+01  0.59301944125E+02  0.50000000178E+02 0.  0.
        -12    1    1    2    0    0 -0.11651203493E+02 -0.29597772672E+02  0.22230315475E+01  0.31886055875E+02  0.00000000000E+00 0.  1.
         11    1    3    3    0    0  0.18425323597E+02  0.15144234149E+01  0.15707566781E+02  0.24259300946E+02  0.51100000000E-03 0. -1.
        -11    1    3    3    0    0 -0.65179596972E+00  0.48985341218E+01 -0.72928970834E+01  0.88094734609E+01  0.51100000000E-03 0.  1.
         12    1    3    3    0    0 -0.61223241346E+01  0.23184815135E+02 -0.10637701245E+02  0.26233169718E+02  0.00000000000E+00 0. -1.
</event>
<event>
 7    1  0.6293596E-013  0.5930194E+02  0.7816164E-02  0.1266605E+00
        -11   -1    0    0    0    0  0.00000000000E+00  0.00000000000E+00  0.45593999997E+02  0.45594000000E+02  0.51100000000E-03 0. -1.
         11   -1    0    0    0    0 -0.00000000000E+00 -0.00000000000E+00 -0.45593999997E+02  0.45594000000E+02  0.51100000000E-03 0.  1.
    9900012    2    1    2    0    0 -0.11928163085E+02 -0.72100740707E+01  0.28678467564E+02  0.59301941220E+02  0.49999994879E+02 0.  0.
        -12    1    1    2    0    0  0.11928163085E+02  0.72100740707E+01 -0.28678467564E+02  0.31886058780E+02  0.00000000000E+00 0.  1.
         11    1    3    3    0    0 -0.93874143138E+01 -0.20732305762E+02 -0.18010465972E+01  0.22829713507E+02  0.51100000000E-03 0. -1.
        -11    1    3    3    0    0 -0.76659980437E+01  0.59956144476E+01  0.21882899939E+02  0.23949451530E+02  0.51100000000E-03 0.  1.
        -12    1    3    3    0    0  0.51252492723E+01  0.75266172436E+01  0.85966142226E+01  0.12522776183E+02  0.00000000000E+00 0.  1.
</event>
<event>
 7    1  0.6293596E-013  0.5930193E+02  0.7816164E-02  0.1266605E+00
        -11   -1    0    0    0    0  0.00000000000E+00  0.00000000000E+00  0.45593999997E+02  0.45594000000E+02  0.51100000000E-03 0.  1.
         11   -1    0    0    0    0 -0.00000000000E+00 -0.00000000000E+00 -0.45593999997E+02  0.45594000000E+02  0.51100000000E-03 0. -1.
    9900012    2    1    2    0    0  0.79800731044E+01 -0.24968378819E+02  0.18155447325E+02  0.59301925059E+02  0.49999965405E+02 0.  0.
        -12    1    1    2    0    0 -0.79800731044E+01  0.24968378819E+02 -0.18155447325E+02  0.31886074941E+02  0.00000000000E+00 0.  1.
         11    1    3    3    0    0 -0.52841062402E+01  0.45422898657E+01 -0.38795447337E+01  0.79752770224E+01  0.51100000000E-03 0. -1.
        -11    1    3    3    0    0  0.19276308560E+02 -0.10963586778E+02  0.36842376566E+00  0.22179090222E+02  0.51100000000E-03 0.  1.
        -12    1    3    3    0    0 -0.60121292152E+01 -0.18547081906E+02  0.21666568293E+02  0.29147557814E+02  0.00000000000E+00 0.  1.
</event>
<event>
 7    1  0.6293596E-013  0.5930195E+02  0.7816164E-02  0.1266605E+00
        -11   -1    0    0    0    0  0.00000000000E+00  0.00000000000E+00  0.45593999997E+02  0.45594000000E+02  0.51100000000E-03 0.  1.
         11   -1    0    0    0    0 -0.00000000000E+00 -0.00000000000E+00 -0.45593999997E+02  0.45594000000E+02  0.51100000000E-03 0. -1.
    9900012    2    1    2    0    0 -0.23605335030E+02  0.18740244876E+02  0.10407293187E+02  0.59301947071E+02  0.50000005551E+02 0.  0.
        -12    1    1    2    0    0  0.23605335030E+02 -0.18740244876E+02 -0.10407293187E+02  0.31886052929E+02  0.00000000000E+00 0.  1.
         11    1    3    3    0    0  0.11282883074E+02  0.12996563264E+02  0.79354289290E+01  0.18952180342E+02  0.51100000000E-03 0. -1.
        -11    1    3    3    0    0 -0.19620475161E+02  0.10859501733E+02  0.72257546375E+01  0.23560631438E+02  0.51100000000E-03 0.  1.
         12    1    3    3    0    0 -0.15267742944E+02 -0.51158201208E+01 -0.47538903799E+01  0.16789135292E+02  0.00000000000E+00 0. -1.
</event>
<event>
 7    1  0.6293596E-013  0.5930195E+02  0.7816164E-02  0.1266605E+00
        -11   -1    0    0    0    0  0.00000000000E+00  0.00000000000E+00  0.45593999997E+02  0.45594000000E+02  0.51100000000E-03 0.  1.
         11   -1    0    0    0    0 -0.00000000000E+00 -0.00000000000E+00 -0.45593999997E+02  0.45594000000E+02  0.51100000000E-03 0. -1.
    9900012    2    1    2    0    0  0.15237991013E+02  0.21549185748E+02 -0.17892913950E+02  0.59301950603E+02  0.50000011991E+02 0.  0.
        -12    1    1    2    0    0 -0.15237991013E+02 -0.21549185748E+02  0.17892913950E+02  0.31886049397E+02  0.00000000000E+00 0.  1.
         11    1    3    3    0    0  0.70851300122E+01  0.15016253110E+00 -0.12018901094E+02  0.13952619820E+02  0.51100000000E-03 0. -1.
        -11    1    3    3    0    0 -0.15020706160E+02  0.63500167767E+01 -0.68801821945E+01  0.17699752368E+02  0.51100000000E-03 0.  1.
        -12    1    3    3    0    0  0.23173567161E+02  0.15049006440E+02  0.10061693380E+01  0.27649578415E+02  0.00000000000E+00 0.  1.
</event>
<event>
 7    1  0.6293596E-013  0.5930197E+02  0.7816164E-02  0.1266605E+00
        -11   -1    0    0    0    0  0.00000000000E+00  0.00000000000E+00  0.45593999997E+02  0.45594000000E+02  0.51100000000E-03 0.  1.
         11   -1    0    0    0    0 -0.00000000000E+00 -0.00000000000E+00 -0.45593999997E+02  0.45594000000E+02  0.51100000000E-03 0. -1.
    9900012    2    1    2    0    0  0.28981028375E+02 -0.37667736108E+01 -0.12752655809E+02  0.59301971409E+02  0.50000049937E+02 0.  0.
        -12    1    1    2    0    0 -0.28981028375E+02  0.37667736108E+01  0.12752655809E+02  0.31886028591E+02  0.00000000000E+00 0.  1.
         11    1    3    3    0    0  0.84474838367E+01  0.13313400306E+02  0.70249538478E+01  0.17261419053E+02  0.51100000000E-03 0. -1.
        -11    1    3    3    0    0 -0.98218667865E+00 -0.89036368310E+01  0.32051471480E+01  0.95138009224E+01  0.51100000000E-03 0.  1.
         12    1    3    3    0    0  0.21515731217E+02 -0.81765370858E+01 -0.22982756805E+02  0.32526751434E+02  0.00000000000E+00 0. -1.
</event>
<event>
 7    1  0.6293596E-013  0.5930194E+02  0.7816164E-02  0.1266605E+00
        -11   -1    0    0    0    0  0.00000000000E+00  0.00000000000E+00  0.45593999997E+02  0.45594000000E+02  0.51100000000E-03 0. -1.
         11   -1    0    0    0    0 -0.00000000000E+00 -0.00000000000E+00 -0.45593999997E+02  0.45594000000E+02  0.51100000000E-03 0.  1.
    9900012    2    1    2    0    0  0.28209611827E+02  0.11967180088E+02  0.88161915233E+01  0.59301939854E+02  0.49999992388E+02 0.  0.
        -12    1    1    2    0    0 -0.28209611827E+02 -0.11967180088E+02 -0.88161915233E+01  0.31886060146E+02  0.00000000000E+00 0.  1.
         11    1    3    3    0    0  0.17936827268E+02  0.16862871058E+02  0.24291992729E+02  0.34585937949E+02  0.51100000000E-03 0. -1.
        -11    1    3    3    0    0  0.16463227505E+01 -0.60745620800E+01 -0.14680976842E+02  0.15973157620E+02  0.51100000000E-03 0.  1.
        -12    1    3    3    0    0  0.86264618085E+01  0.11788711093E+01 -0.79482436409E+00  0.87428442852E+01  0.00000000000E+00 0.  1.
</event>
<event>
 7    1  0.6293596E-013  0.5930197E+02  0.7816164E-02  0.1266605E+00
        -11   -1    0    0    0    0  0.00000000000E+00  0.00000000000E+00  0.45593999997E+02  0.45594000000E+02  0.51100000000E-03 0.  1.
         11   -1    0    0    0    0 -0.00000000000E+00 -0.00000000000E+00 -0.45593999997E+02  0.45594000000E+02  0.51100000000E-03 0. -1.
    9900012    2    1    2    0    0 -0.31617622086E+02  0.34725862505E+01 -0.22329320170E+01  0.59301970661E+02  0.50000048573E+02 0.  0.
        -12    1    1    2    0    0  0.31617622086E+02 -0.34725862505E+01  0.22329320170E+01  0.31886029339E+02  0.00000000000E+00 0.  1.
         11    1    3    3    0    0 -0.12509998061E+02  0.25491540364E+02  0.27417599450E+01  0.28527809756E+02  0.51100000000E-03 0. -1.
        -11    1    3    3    0    0 -0.10505318581E+02 -0.10834755546E+02 -0.67889492730E+01  0.16548216784E+02  0.51100000000E-03 0.  1.
         12    1    3    3    0    0 -0.86023054433E+01 -0.11184198568E+02  0.18142573110E+01  0.14225944121E+02  0.00000000000E+00 0. -1.
</event>
<event>
 7    1  0.6293596E-013  0.5930195E+02  0.7816164E-02  0.1266605E+00
        -11   -1    0    0    0    0  0.00000000000E+00  0.00000000000E+00  0.45593999997E+02  0.45594000000E+02  0.51100000000E-03 0.  1.
         11   -1    0    0    0    0 -0.00000000000E+00 -0.00000000000E+00 -0.45593999997E+02  0.45594000000E+02  0.51100000000E-03 0. -1.
    9900012    2    1    2    0    0  0.15084063382E+02  0.23070068261E+02 -0.16030075386E+02  0.59301947648E+02  0.50000006603E+02 0.  0.
        -12    1    1    2    0    0 -0.15084063382E+02 -0.23070068261E+02  0.16030075386E+02  0.31886052352E+02  0.00000000000E+00 0.  1.
         11    1    3    3    0    0  0.13259105910E+02  0.11441494031E+01 -0.79957704511E+01  0.15525634053E+02  0.51100000000E-03 0. -1.
        -11    1    3    3    0    0  0.70571931405E+00  0.32445768773E+02 -0.60911458265E+01  0.33020115214E+02  0.51100000000E-03 0.  1.
        -12    1    3    3    0    0  0.11192381582E+01 -0.10519849915E+02 -0.19431591083E+01  0.10756198380E+02  0.00000000000E+00 0.  1.
</event>
<event>
 7    1  0.6293596E-013  0.5930192E+02  0.7816164E-02  0.1266605E+00
        -11   -1    0    0    0    0  0.00000000000E+00  0.00000000000E+00  0.45593999997E+02  0.45594000000E+02  0.51100000000E-03 0.  1.
         11   -1    0    0    0    0 -0.00000000000E+00 -0.00000000000E+00 -0.45593999997E+02  0.45594000000E+02  0.51100000000E-03 0. -1.
    9900012    2    1    2    0    0 -0.15112902933E+02  0.14495450471E+02 -0.24045872280E+02  0.59301923209E+02  0.49999962031E+02 0.  0.
        -12    1    1    2    0    0  0.15112902933E+02 -0.14495450471E+02  0.24045872280E+02  0.31886076791E+02  0.00000000000E+00 0.  1.
         11    1    3    3    0    0 -0.13036512297E+02 -0.50755063835E+01 -0.27183603643E+02  0.30572205109E+02  0.51100000000E-03 0. -1.
        -11    1    3    3    0    0 -0.28506684689E+01  0.36101626568E-03  0.80477697548E+01  0.85377344265E+01  0.51100000000E-03 0.  1.
        -12    1    3    3    0    0  0.77427783316E+00  0.19570595839E+02 -0.49100383916E+01  0.20191983673E+02  0.00000000000E+00 0.  1.
</event>
<event>
 7    1  0.6293596E-013  0.5930201E+02  0.7816164E-02  0.1266605E+00
        -11   -1    0    0    0    0  0.00000000000E+00  0.00000000000E+00  0.45593999997E+02  0.45594000000E+02  0.51100000000E-03 0.  1.
         11   -1    0    0    0    0 -0.00000000000E+00 -0.00000000000E+00 -0.45593999997E+02  0.45594000000E+02  0.51100000000E-03 0. -1.
    9900012    2    1    2    0    0  0.25099659265E+02 -0.19627868056E+02  0.12124869742E+01  0.59302012100E+02  0.50000124148E+02 0.  0.
        -12    1    1    2    0    0 -0.25099659265E+02  0.19627868056E+02 -0.12124869742E+01  0.31885987900E+02  0.00000000000E+00 0.  1.
         11    1    3    3    0    0  0.21576696848E+02 -0.67577505237E+01 -0.18870208769E+02  0.29450056337E+02  0.51100000000E-03 0. -1.
        -11    1    3    3    0    0  0.53519548982E+01 -0.44568210348E+01  0.20067926733E+02  0.21242136394E+02  0.51100000000E-03 0.  1.
        -12    1    3    3    0    0 -0.18289924806E+01 -0.84132964976E+01  0.14769009980E-01  0.86098193695E+01  0.00000000000E+00 0.  1.
</event>
<event>
 7    1  0.6293596E-013  0.5930199E+02  0.7816164E-02  0.1266605E+00
        -11   -1    0    0    0    0  0.00000000000E+00  0.00000000000E+00  0.45593999997E+02  0.45594000000E+02  0.51100000000E-03 0.  1.
         11   -1    0    0    0    0 -0.00000000000E+00 -0.00000000000E+00 -0.45593999997E+02  0.45594000000E+02  0.51100000000E-03 0. -1.
    9900012    2    1    2    0    0 -0.20004930767E+02 -0.24654417194E+02  0.29461787264E+01  0.59301991920E+02  0.50000087344E+02 0.  0.
        -12    1    1    2    0    0  0.20004930767E+02  0.24654417194E+02 -0.29461787264E+01  0.31886008080E+02  0.00000000000E+00 0.  1.
         11    1    3    3    0    0  0.45996425500E+01 -0.18538748370E+02  0.52385994639E+01  0.19806181543E+02  0.51100000000E-03 0. -1.
        -11    1    3    3    0    0 -0.29882333943E+02 -0.10594135194E+02 -0.49354179477E+01  0.32086569355E+02  0.51100000000E-03 0.  1.
        -12    1    3    3    0    0  0.52777606260E+01  0.44784663705E+01  0.26429972102E+01  0.74092410212E+01  0.00000000000E+00 0.  1.
</event>
<event>
 7    1  0.6293596E-013  0.5930194E+02  0.7816164E-02  0.1266605E+00
        -11   -1    0    0    0    0  0.00000000000E+00  0.00000000000E+00  0.45593999997E+02  0.45594000000E+02  0.51100000000E-03 0.  1.
         11   -1    0    0    0    0 -0.00000000000E+00 -0.00000000000E+00 -0.45593999997E+02  0.45594000000E+02  0.51100000000E-03 0. -1.
    9900012    2    1    2    0    0 -0.85713972472E+01  0.13274881817E+02 -0.27695292366E+02  0.59301944156E+02  0.50000000234E+02 0.  0.
        -12    1    1    2    0    0  0.85713972472E+01 -0.13274881817E+02  0.27695292366E+02  0.31886055844E+02  0.00000000000E+00 0.  1.
         11    1    3    3    0    0  0.78197541660E+01  0.66977237619E+01  0.57825142167E+01  0.11808705676E+02  0.51100000000E-03 0. -1.
        -11    1    3    3    0    0 -0.94329186364E+01  0.59768394535E+01 -0.37708791002E+02  0.39327541024E+02  0.51100000000E-03 0.  1.
        -12    1    3    3    0    0 -0.69582327767E+01  0.60031860199E+00  0.42309844192E+01  0.81656974567E+01  0.00000000000E+00 0.  1.
</event>
<event>
 7    1  0.6293596E-013  0.5930195E+02  0.7816164E-02  0.1266605E+00
        -11   -1    0    0    0    0  0.00000000000E+00  0.00000000000E+00  0.45593999997E+02  0.45594000000E+02  0.51100000000E-03 0. -1.
         11   -1    0    0    0    0 -0.00000000000E+00 -0.00000000000E+00 -0.45593999997E+02  0.45594000000E+02  0.51100000000E-03 0.  1.
    9900012    2    1    2    0    0  0.27389446302E+02  0.51571884894E+01  0.15490059688E+02  0.59301948018E+02  0.50000007278E+02 0.  0.
        -12    1    1    2    0    0 -0.27389446302E+02 -0.51571884894E+01 -0.15490059688E+02  0.31886051982E+02  0.00000000000E+00 0.  1.
         11    1    3    3    0    0  0.26981099480E+02 -0.82824587379E+01  0.18474406434E+02  0.33732514660E+02  0.51100000000E-03 0. -1.
        -11    1    3    3    0    0 -0.38175185896E+01  0.90667651769E+00 -0.98964817051E+01  0.10645931659E+02  0.51100000000E-03 0.  1.
        -12    1    3    3    0    0  0.42258654114E+01  0.12532970710E+02  0.69121349590E+01  0.14923501699E+02  0.00000000000E+00 0.  1.
</event>
<event>
 7    1  0.6293596E-013  0.5930200E+02  0.7816164E-02  0.1266605E+00
        -11   -1    0    0    0    0  0.00000000000E+00  0.00000000000E+00  0.45593999997E+02  0.45594000000E+02  0.51100000000E-03 0.  1.
         11   -1    0    0    0    0 -0.00000000000E+00 -0.00000000000E+00 -0.45593999997E+02  0.45594000000E+02  0.51100000000E-03 0. -1.
    9900012    2    1    2    0    0 -0.30045756420E+02  0.55167882424E+01 -0.91397403690E+01  0.59301995463E+02  0.50000093805E+02 0.  0.
        -12    1    1    2    0    0  0.30045756420E+02 -0.55167882424E+01  0.91397403690E+01  0.31886004537E+02  0.00000000000E+00 0.  1.
         11    1    3    3    0    0 -0.27034605374E+02 -0.49616372041E+00  0.17612065830E+00  0.27039731599E+02  0.51100000000E-03 0. -1.
        -11    1    3    3    0    0  0.81198712021E+01 -0.81066347285E+00  0.74246336152E+01  0.11032437092E+02  0.51100000000E-03 0.  1.
         12    1    3    3    0    0 -0.11131022247E+02  0.68236154357E+01 -0.16740494643E+02  0.21229826772E+02  0.00000000000E+00 0. -1.
</event>
<event>
 7    1  0.6293596E-013  0.5930192E+02  0.7816164E-02  0.1266605E+00
        -11   -1    0    0    0    0  0.00000000000E+00  0.00000000000E+00  0.45593999997E+02  0.45594000000E+02  0.51100000000E-03 0.  1.
         11   -1    0    0    0    0 -0.00000000000E+00 -0.00000000000E+00 -0.45593999997E+02  0.45594000000E+02  0.51100000000E-03 0. -1.
    9900012    2    1    2    0    0 -0.14350295619E+02  0.30962293749E+01 -0.28305558008E+02  0.59301917851E+02  0.49999952259E+02 0.  0.
        -12    1    1    2    0    0  0.14350295619E+02 -0.30962293749E+01  0.28305558008E+02  0.31886082149E+02  0.00000000000E+00 0.  1.
         11    1    3    3    0    0 -0.14741346015E+02 -0.10617322934E+02 -0.96720429773E+01  0.20581138069E+02  0.51100000000E-03 0. -1.
        -11    1    3    3    0    0  0.22870850021E+01  0.34093895602E+01  0.86063977356E+01  0.95354484543E+01  0.51100000000E-03 0.  1.
        -12    1    3    3    0    0 -0.18960346071E+01  0.10304162749E+02 -0.27239912766E+02  0.29185331327E+02  0.00000000000E+00 0.  1.
</event>
<event>
 7    1  0.6293596E-013  0.5930194E+02  0.7816164E-02  0.1266605E+00
        -11   -1    0    0    0    0  0.00000000000E+00  0.00000000000E+00  0.45593999997E+02  0.45594000000E+02  0.51100000000E-03 0.  1.
         11   -1    0    0    0    0 -0.00000000000E+00 -0.00000000000E+00 -0.45593999997E+02  0.45594000000E+02  0.51100000000E-03 0. -1.
    9900012    2    1    2    0    0 -0.49125645218E+01 -0.14194607610E+02 -0.28126511689E+02  0.59301939799E+02  0.49999992287E+02 0.  0.
        -12    1    1    2    0    0  0.49125645218E+01  0.14194607610E+02  0.28126511689E+02  0.31886060201E+02  0.00000000000E+00 0.  1.
         11    1    3    3    0    0  0.96248850298E+01 -0.12895062699E+02 -0.36620653039E+02  0.39999916039E+02  0.51100000000E-03 0. -1.
        -11    1    3    3    0    0 -0.70606287569E+01  0.12358002274E+01  0.88625546146E+01  0.11398445298E+02  0.51100000000E-03 0.  1.
         12    1    3    3    0    0 -0.74768207947E+01 -0.25353451389E+01 -0.36841326401E+00  0.79035784618E+01  0.00000000000E+00 0. -1.
</event>
<event>
 7    1  0.6293596E-013  0.5930192E+02  0.7816164E-02  0.1266605E+00
        -11   -1    0    0    0    0  0.00000000000E+00  0.00000000000E+00  0.45593999997E+02  0.45594000000E+02  0.51100000000E-03 0.  1.
         11   -1    0    0    0    0 -0.00000000000E+00 -0.00000000000E+00 -0.45593999997E+02  0.45594000000E+02  0.51100000000E-03 0. -1.
    9900012    2    1    2    0    0 -0.14523371866E+02 -0.28379260527E+02 -0.64131013857E+00  0.59301920951E+02  0.49999957914E+02 0.  0.
        -12    1    1    2    0    0  0.14523371866E+02  0.28379260527E+02  0.64131013857E+00  0.31886079049E+02  0.00000000000E+00 0.  1.
         11    1    3    3    0    0 -0.83764563512E+01  0.91691840662E+01  0.54161314464E-01  0.12419415894E+02  0.51100000000E-03 0. -1.
        -11    1    3    3    0    0  0.81798608563E+01 -0.17362750253E+02  0.77922338296E+01  0.20714587331E+02  0.51100000000E-03 0.  1.
        -12    1    3    3    0    0 -0.14326776371E+02 -0.20185694340E+02 -0.84877052826E+01  0.26167917727E+02  0.00000000000E+00 0.  1.
</event>
<event>
 7    1  0.6293596E-013  0.5930194E+02  0.7816164E-02  0.1266605E+00
        -11   -1    0    0    0    0  0.00000000000E+00  0.00000000000E+00  0.45593999997E+02  0.45594000000E+02  0.51100000000E-03 0.  1.
         11   -1    0    0    0    0 -0.00000000000E+00 -0.00000000000E+00 -0.45593999997E+02  0.45594000000E+02  0.51100000000E-03 0. -1.
    9900012    2    1    2    0    0 -0.24382129628E+02 -0.20180201599E+02 -0.38719802372E+01  0.59301937014E+02  0.49999987209E+02 0.  0.
        -12    1    1    2    0    0  0.24382129628E+02  0.20180201599E+02  0.38719802372E+01  0.31886062986E+02  0.00000000000E+00 0.  1.
         11    1    3    3    0    0 -0.41182402656E+01  0.38891652278E+01 -0.10453187557E+02  0.11889265723E+02  0.51100000000E-03 0. -1.
        -11    1    3    3    0    0 -0.97298797763E+01 -0.25215772569E+02  0.17499101936E+02  0.32198203607E+02  0.51100000000E-03 0.  1.
        -12    1    3    3    0    0 -0.10534009586E+02  0.11464057417E+01 -0.10917894616E+02  0.15214467684E+02  0.00000000000E+00 0.  1.
</event>
<event>
 7    1  0.6293596E-013  0.5930201E+02  0.7816164E-02  0.1266605E+00
        -11   -1    0    0    0    0  0.00000000000E+00  0.00000000000E+00  0.45593999997E+02  0.45594000000E+02  0.51100000000E-03 0.  1.
         11   -1    0    0    0    0 -0.00000000000E+00 -0.00000000000E+00 -0.45593999997E+02  0.45594000000E+02  0.51100000000E-03 0. -1.
    9900012    2    1    2    0    0 -0.58903620311E+01  0.39141842909E+01 -0.31091786266E+02  0.59302009711E+02  0.50000119790E+02 0.  0.
        -12    1    1    2    0    0  0.58903620311E+01 -0.39141842909E+01  0.31091786266E+02  0.31885990289E+02  0.00000000000E+00 0.  1.
         11    1    3    3    0    0  0.12285415918E+02 -0.38603167723E+01 -0.17999715436E+02  0.22131950793E+02  0.51100000000E-03 0. -1.
        -11    1    3    3    0    0 -0.13478557065E+02  0.12073779983E+02 -0.20538047868E+02  0.27372597139E+02  0.51100000000E-03 0.  1.
        -12    1    3    3    0    0 -0.46972208834E+01 -0.42992789199E+01  0.74459770385E+01  0.97974617793E+01  0.00000000000E+00 0.  1.
</event>
<event>
 7    1  0.6293596E-013  0.5930194E+02  0.7816164E-02  0.1266605E+00
        -11   -1    0    0    0    0  0.00000000000E+00  0.00000000000E+00  0.45593999997E+02  0.45594000000E+02  0.51100000000E-03 0.  1.
         11   -1    0    0    0    0 -0.00000000000E+00 -0.00000000000E+00 -0.45593999997E+02  0.45594000000E+02  0.51100000000E-03 0. -1.
    9900012    2    1    2    0    0 -0.14709667819E+02  0.25578390418E+01 -0.28174524981E+02  0.59301941513E+02  0.49999995415E+02 0.  0.
        -12    1    1    2    0    0  0.14709667819E+02 -0.25578390418E+01  0.28174524981E+02  0.31886058487E+02  0.00000000000E+00 0.  1.
         11    1    3    3    0    0  0.61840766471E+01 -0.13592059037E+01 -0.33831295975E+02  0.34418698875E+02  0.51100000000E-03 0. -1.
        -11    1    3    3    0    0 -0.32848523999E+01 -0.34831573918E+01 -0.50247022569E+00  0.48140541432E+01  0.51100000000E-03 0.  1.
         12    1    3    3    0    0 -0.17608892067E+02  0.74002023372E+01  0.61592412198E+01  0.20069188495E+02  0.00000000000E+00 0. -1.
</event>
<event>
 7    1  0.6293596E-013  0.5930191E+02  0.7816164E-02  0.1266605E+00
        -11   -1    0    0    0    0  0.00000000000E+00  0.00000000000E+00  0.45593999997E+02  0.45594000000E+02  0.51100000000E-03 0. -1.
         11   -1    0    0    0    0 -0.00000000000E+00 -0.00000000000E+00 -0.45593999997E+02  0.45594000000E+02  0.51100000000E-03 0.  1.
    9900012    2    1    2    0    0 -0.24971618942E+02 -0.82519051895E+01  0.18029055387E+02  0.59301913222E+02  0.49999943818E+02 0.  0.
        -12    1    1    2    0    0  0.24971618942E+02  0.82519051895E+01 -0.18029055387E+02  0.31886086778E+02  0.00000000000E+00 0.  1.
         11    1    3    3    0    0 -0.80776471906E+01 -0.17637335724E+01  0.28815400619E+00  0.82729784988E+01  0.51100000000E-03 0. -1.
        -11    1    3    3    0    0  0.76016999575E+01  0.12397861294E+02 -0.14712571568E+01  0.14617024485E+02  0.51100000000E-03 0.  1.
        -12    1    3    3    0    0 -0.24495671709E+02 -0.18886032911E+02  0.19212158538E+02  0.36411910239E+02  0.00000000000E+00 0.  1.
</event>
<event>
 7    1  0.6293596E-013  0.5930195E+02  0.7816164E-02  0.1266605E+00
        -11   -1    0    0    0    0  0.00000000000E+00  0.00000000000E+00  0.45593999997E+02  0.45594000000E+02  0.51100000000E-03 0. -1.
         11   -1    0    0    0    0 -0.00000000000E+00 -0.00000000000E+00 -0.45593999997E+02  0.45594000000E+02  0.51100000000E-03 0.  1.
    9900012    2    1    2    0    0 -0.82299813331E+01  0.41588553106E+01  0.30523627340E+02  0.59301945113E+02  0.50000001980E+02 0.  0.
        -12    1    1    2    0    0  0.82299813331E+01 -0.41588553106E+01 -0.30523627340E+02  0.31886054887E+02  0.00000000000E+00 0.  1.
         11    1    3    3    0    0  0.14017975780E+02  0.30145970887E+01  0.19136462514E+02  0.23912248710E+02  0.51100000000E-03 0. -1.
        -11    1    3    3    0    0 -0.16575252714E+02 -0.96543320349E+01  0.73604892334E+00  0.19196012551E+02  0.51100000000E-03 0.  1.
        -12    1    3    3    0    0 -0.56727043983E+01  0.10798590257E+02  0.10651115903E+02  0.16193683852E+02  0.00000000000E+00 0.  1.
</event>
<event>
 7    1  0.6293596E-013  0.5930197E+02  0.7816164E-02  0.1266605E+00
        -11   -1    0    0    0    0  0.00000000000E+00  0.00000000000E+00  0.45593999997E+02  0.45594000000E+02  0.51100000000E-03 0.  1.
         11   -1    0    0    0    0 -0.00000000000E+00 -0.00000000000E+00 -0.45593999997E+02  0.45594000000E+02  0.51100000000E-03 0. -1.
    9900012    2    1    2    0    0 -0.20581689953E+02  0.15194591314E+02 -0.19032534723E+02  0.59301969446E+02  0.50000046357E+02 0.  0.
        -12    1    1    2    0    0  0.20581689953E+02 -0.15194591314E+02  0.19032534723E+02  0.31886030554E+02  0.00000000000E+00 0.  1.
         11    1    3    3    0    0 -0.11278829938E+02  0.10724854052E+02 -0.19640098359E+02  0.25059288957E+02  0.51100000000E-03 0. -1.
        -11    1    3    3    0    0  0.64201102850E+01 -0.10148519732E+02  0.36691169725E+01  0.12556778585E+02  0.51100000000E-03 0.  1.
        -12    1    3    3    0    0 -0.15722970300E+02  0.14618256993E+02 -0.30615533367E+01  0.21685901904E+02  0.00000000000E+00 0.  1.
</event>
<event>
 7    1  0.6849270E-013  0.5930195E+02  0.7816164E-02  0.1266605E+00
        -11   -1    0    0    0    0  0.00000000000E+00  0.00000000000E+00  0.45593999997E+02  0.45594000000E+02  0.51100000000E-03 0. -1.
         11   -1    0    0    0    0 -0.00000000000E+00 -0.00000000000E+00 -0.45593999997E+02  0.45594000000E+02  0.51100000000E-03 0.  1.
    9900012    2    1    2    0    0 -0.11470635376E+02 -0.32181094038E+01  0.29576819129E+02  0.59301953932E+02  0.50000018062E+02 0.  0.
        -12    1    1    2    0    0  0.11470635376E+02  0.32181094038E+01 -0.29576819129E+02  0.31886046068E+02  0.00000000000E+00 0.  1.
         11    1    3    3    0    0 -0.97153489424E+01 -0.47298913100E+01  0.38758981993E+02  0.40237029740E+02  0.51100000000E-03 0. -1.
        -11    1    3    3    0    0 -0.79250995118E+01  0.51375654641E+01 -0.41485604595E+01  0.10315635478E+02  0.51100000000E-03 0.  1.
         12    1    3    3    0    0  0.61698130780E+01 -0.36257835579E+01 -0.50336024044E+01  0.87492887135E+01  0.00000000000E+00 0. -1.
</event>
<event>
 7    1  0.6293596E-013  0.5930206E+02  0.7816164E-02  0.1266604E+00
        -11   -1    0    0    0    0  0.00000000000E+00  0.00000000000E+00  0.45593999997E+02  0.45594000000E+02  0.51100000000E-03 0. -1.
         11   -1    0    0    0    0 -0.00000000000E+00 -0.00000000000E+00 -0.45593999997E+02  0.45594000000E+02  0.51100000000E-03 0.  1.
    9900012    2    1    2    0    0  0.21906936310E+02  0.87641873191E+01  0.21447336472E+02  0.59302061412E+02  0.50000214080E+02 0.  0.
        -12    1    1    2    0    0 -0.21906936310E+02 -0.87641873191E+01 -0.21447336472E+02  0.31885938588E+02  0.00000000000E+00 0.  1.
         11    1    3    3    0    0  0.25400786681E+01 -0.80850096628E+01  0.10628901037E+02  0.13593855907E+02  0.51100000000E-03 0. -1.
        -11    1    3    3    0    0  0.21076601837E+02  0.26915581277E+02  0.78616483042E+01  0.35078158087E+02  0.51100000000E-03 0.  1.
        -12    1    3    3    0    0 -0.17097441943E+01 -0.10066384295E+02  0.29567871309E+01  0.10630047419E+02  0.00000000000E+00 0.  1.
</event>
<event>
 7    1  0.6293596E-013  0.5930193E+02  0.7816164E-02  0.1266605E+00
        -11   -1    0    0    0    0  0.00000000000E+00  0.00000000000E+00  0.45593999997E+02  0.45594000000E+02  0.51100000000E-03 0. -1.
         11   -1    0    0    0    0 -0.00000000000E+00 -0.00000000000E+00 -0.45593999997E+02  0.45594000000E+02  0.51100000000E-03 0.  1.
    9900012    2    1    2    0    0  0.15391428140E+02 -0.94905843853E+01  0.26263176522E+02  0.59301926344E+02  0.49999967749E+02 0.  0.
        -12    1    1    2    0    0 -0.15391428140E+02  0.94905843853E+01 -0.26263176522E+02  0.31886073656E+02  0.00000000000E+00 0.  1.
         11    1    3    3    0    0  0.11285929202E+02  0.83317033027E+01  0.82645038584E+01  0.16281630820E+02  0.51100000000E-03 0. -1.
        -11    1    3    3    0    0 -0.71801307186E+01 -0.17120872498E+02 -0.33468525402E+01  0.18864781324E+02  0.51100000000E-03 0.  1.
        -12    1    3    3    0    0  0.11285629656E+02 -0.70141519010E+00  0.21345525204E+02  0.24155514199E+02  0.00000000000E+00 0.  1.
</event>
<event>
 7    1  0.6293596E-013  0.5930194E+02  0.7816164E-02  0.1266605E+00
        -11   -1    0    0    0    0  0.00000000000E+00  0.00000000000E+00  0.45593999997E+02  0.45594000000E+02  0.51100000000E-03 0. -1.
         11   -1    0    0    0    0 -0.00000000000E+00 -0.00000000000E+00 -0.45593999997E+02  0.45594000000E+02  0.51100000000E-03 0.  1.
    9900012    2    1    2    0    0 -0.21314435856E+02  0.15336356583E+02  0.18089001543E+02  0.59301937434E+02  0.49999987975E+02 0.  0.
        -12    1    1    2    0    0  0.21314435856E+02 -0.15336356583E+02 -0.18089001543E+02  0.31886062566E+02  0.00000000000E+00 0.  1.
         11    1    3    3    0    0 -0.12771715991E+02 -0.93053494648E+01  0.22948473137E+02  0.27862854800E+02  0.51100000000E-03 0. -1.
        -11    1    3    3    0    0 -0.11332963098E+02  0.23829890339E+02 -0.74008578580E+00  0.26397868349E+02  0.51100000000E-03 0.  1.
         12    1    3    3    0    0  0.27902432325E+01  0.81181570951E+00 -0.41193858077E+01  0.50412142858E+01  0.00000000000E+00 0. -1.
</event>
<event>
 7    1  0.6293596E-013  0.5930194E+02  0.7816164E-02  0.1266605E+00
        -11   -1    0    0    0    0  0.00000000000E+00  0.00000000000E+00  0.45593999997E+02  0.45594000000E+02  0.51100000000E-03 0. -1.
         11   -1    0    0    0    0 -0.00000000000E+00 -0.00000000000E+00 -0.45593999997E+02  0.45594000000E+02  0.51100000000E-03 0.  1.
    9900012    2    1    2    0    0 -0.19476644301E+02  0.23100681536E+02  0.10185277337E+02  0.59301936664E+02  0.49999986570E+02 0.  0.
        -12    1    1    2    0    0  0.19476644301E+02 -0.23100681536E+02 -0.10185277337E+02  0.31886063336E+02  0.00000000000E+00 0.  1.
         11    1    3    3    0    0 -0.64887534246E+00  0.26374938410E+02  0.15913395554E+02  0.30810624364E+02  0.51100000000E-03 0. -1.
        -11    1    3    3    0    0 -0.14601477858E+02  0.52013081559E+01 -0.96300909006E+01  0.18248161913E+02  0.51100000000E-03 0.  1.
         12    1    3    3    0    0 -0.42262911000E+01 -0.84755650302E+01  0.39019726836E+01  0.10243150388E+02  0.00000000000E+00 0. -1.
</event>
<event>
 7    1  0.6293596E-013  0.5930192E+02  0.7816164E-02  0.1266605E+00
        -11   -1    0    0    0    0  0.00000000000E+00  0.00000000000E+00  0.45593999997E+02  0.45594000000E+02  0.51100000000E-03 0.  1.
         11   -1    0    0    0    0 -0.00000000000E+00 -0.00000000000E+00 -0.45593999997E+02  0.45594000000E+02  0.51100000000E-03 0. -1.
    9900012    2    1    2    0    0 -0.19630662593E+02  0.19344434920E+02 -0.16035958499E+02  0.59301920887E+02  0.49999957797E+02 0.  0.
        -12    1    1    2    0    0  0.19630662593E+02 -0.19344434920E+02  0.16035958499E+02  0.31886079113E+02  0.00000000000E+00 0.  1.
         11    1    3    3    0    0 -0.82663573216E+01  0.27077788796E+02 -0.88743764239E+01  0.29669746656E+02  0.51100000000E-03 0. -1.
        -11    1    3    3    0    0 -0.50696157440E+01 -0.16015113475E+02 -0.90171864160E+01  0.19065532108E+02  0.51100000000E-03 0.  1.
        -12    1    3    3    0    0 -0.62946895272E+01  0.82817595987E+01  0.18556043408E+01  0.10566642123E+02  0.00000000000E+00 0.  1.
</event>
<event>
 7    1  0.6293596E-013  0.5930195E+02  0.7816164E-02  0.1266605E+00
        -11   -1    0    0    0    0  0.00000000000E+00  0.00000000000E+00  0.45593999997E+02  0.45594000000E+02  0.51100000000E-03 0.  1.
         11   -1    0    0    0    0 -0.00000000000E+00 -0.00000000000E+00 -0.45593999997E+02  0.45594000000E+02  0.51100000000E-03 0. -1.
    9900012    2    1    2    0    0 -0.11667364815E+02  0.27821938596E+02 -0.10321472096E+02  0.59301945757E+02  0.50000003154E+02 0.  0.
        -12    1    1    2    0    0  0.11667364815E+02 -0.27821938596E+02  0.10321472096E+02  0.31886054243E+02  0.00000000000E+00 0.  1.
         11    1    3    3    0    0 -0.15885124176E+02 -0.14070976970E+01 -0.12786109682E+02  0.20440198020E+02  0.51100000000E-03 0.  1.
        -11    1    3    3    0    0 -0.49370103301E+01  0.24035660737E+02  0.93786320456E+01  0.26268722797E+02  0.51100000000E-03 0. -1.
         12    1    3    3    0    0  0.91547696914E+01  0.51933755559E+01 -0.69139944598E+01  0.12593024941E+02  0.00000000000E+00 0. -1.
</event>
<event>
 7    1  0.6293596E-013  0.5930197E+02  0.7816164E-02  0.1266605E+00
        -11   -1    0    0    0    0  0.00000000000E+00  0.00000000000E+00  0.45593999997E+02  0.45594000000E+02  0.51100000000E-03 0.  1.
         11   -1    0    0    0    0 -0.00000000000E+00 -0.00000000000E+00 -0.45593999997E+02  0.45594000000E+02  0.51100000000E-03 0. -1.
    9900012    2    1    2    0    0 -0.30602086923E+01  0.27242715266E+02 -0.16284604902E+02  0.59301972196E+02  0.50000051373E+02 0.  0.
        -12    1    1    2    0    0  0.30602086923E+01 -0.27242715266E+02  0.16284604902E+02  0.31886027804E+02  0.00000000000E+00 0.  1.
         11    1    3    3    0    0  0.88385542192E+00  0.28828500777E+02 -0.10604640905E+02  0.30729823729E+02  0.51100000000E-03 0. -1.
        -11    1    3    3    0    0 -0.13282012634E+02  0.21176177921E+01  0.45848360764E+01  0.14209746191E+02  0.51100000000E-03 0.  1.
        -12    1    3    3    0    0  0.93379485194E+01 -0.37034033037E+01 -0.10264800073E+02  0.14362402276E+02  0.00000000000E+00 0.  1.
</event>
<event>
 7    1  0.6293596E-013  0.5930193E+02  0.7816164E-02  0.1266605E+00
        -11   -1    0    0    0    0  0.00000000000E+00  0.00000000000E+00  0.45593999997E+02  0.45594000000E+02  0.51100000000E-03 0.  1.
         11   -1    0    0    0    0 -0.00000000000E+00 -0.00000000000E+00 -0.45593999997E+02  0.45594000000E+02  0.51100000000E-03 0. -1.
    9900012    2    1    2    0    0 -0.18766092136E+01  0.13187047249E+02 -0.28970706711E+02  0.59301925851E+02  0.49999966850E+02 0.  0.
        -12    1    1    2    0    0  0.18766092136E+01 -0.13187047249E+02  0.28970706711E+02  0.31886074149E+02  0.00000000000E+00 0.  1.
         11    1    3    3    0    0  0.42112628844E+01  0.63253134368E+01  0.64346247286E+01  0.99573450686E+01  0.51100000000E-03 0. -1.
        -11    1    3    3    0    0 -0.16175687037E+02  0.14411968617E+02 -0.20491752933E+02  0.29820624223E+02  0.51100000000E-03 0.  1.
         12    1    3    3    0    0  0.10087814939E+02 -0.75502348047E+01 -0.14913578507E+02  0.19523956559E+02  0.00000000000E+00 0. -1.
</event>
<event>
 7    1  0.6293596E-013  0.5930195E+02  0.7816164E-02  0.1266605E+00
        -11   -1    0    0    0    0  0.00000000000E+00  0.00000000000E+00  0.45593999997E+02  0.45594000000E+02  0.51100000000E-03 0. -1.
         11   -1    0    0    0    0 -0.00000000000E+00 -0.00000000000E+00 -0.45593999997E+02  0.45594000000E+02  0.51100000000E-03 0.  1.
    9900012    2    1    2    0    0  0.26267396805E+02  0.32929726826E+00 -0.18073071896E+02  0.59301945065E+02  0.50000001891E+02 0.  0.
        -12    1    1    2    0    0 -0.26267396805E+02 -0.32929726826E+00  0.18073071896E+02  0.31886054935E+02  0.00000000000E+00 0.  1.
         11    1    3    3    0    0  0.18069588464E+02 -0.19348193713E+02 -0.32964695728E+01  0.26678255923E+02  0.51100000000E-03 0. -1.
        -11    1    3    3    0    0  0.14486113495E+02  0.14256616706E+02 -0.13020187930E+02  0.24137603404E+02  0.51100000000E-03 0.  1.
         12    1    3    3    0    0 -0.62883051545E+01  0.54208742750E+01 -0.17564143934E+01  0.84860857374E+01  0.00000000000E+00 0. -1.
</event>
<event>
 7    1  0.6293596E-013  0.5930196E+02  0.7816164E-02  0.1266605E+00
        -11   -1    0    0    0    0  0.00000000000E+00  0.00000000000E+00  0.45593999997E+02  0.45594000000E+02  0.51100000000E-03 0. -1.
         11   -1    0    0    0    0 -0.00000000000E+00 -0.00000000000E+00 -0.45593999997E+02  0.45594000000E+02  0.51100000000E-03 0.  1.
    9900012    2    1    2    0    0 -0.21637836814E+02 -0.23145897310E+02  0.35764803510E+01  0.59301956722E+02  0.50000023151E+02 0.  0.
        -12    1    1    2    0    0  0.21637836814E+02  0.23145897310E+02 -0.35764803510E+01  0.31886043278E+02  0.00000000000E+00 0.  1.
         11    1    3    3    0    0  0.13911744957E+02  0.29322766202E+01 -0.34169321944E+01  0.14622254266E+02  0.51100000000E-03 0. -1.
        -11    1    3    3    0    0 -0.10628764878E+02 -0.87830772363E+01  0.18281937480E+01  0.13908823862E+02  0.51100000000E-03 0.  1.
         12    1    3    3    0    0 -0.24920816893E+02 -0.17295096694E+02  0.51652187974E+01  0.30770878594E+02  0.00000000000E+00 0. -1.
</event>
<event>
 7    1  0.6293596E-013  0.5930194E+02  0.7816164E-02  0.1266605E+00
        -11   -1    0    0    0    0  0.00000000000E+00  0.00000000000E+00  0.45593999997E+02  0.45594000000E+02  0.51100000000E-03 0.  1.
         11   -1    0    0    0    0 -0.00000000000E+00 -0.00000000000E+00 -0.45593999997E+02  0.45594000000E+02  0.51100000000E-03 0. -1.
    9900012    2    1    2    0    0  0.16117159184E+02 -0.83949269443E+01 -0.26200824472E+02  0.59301940011E+02  0.49999992675E+02 0.  0.
        -12    1    1    2    0    0 -0.16117159184E+02  0.83949269443E+01  0.26200824472E+02  0.31886059989E+02  0.00000000000E+00 0.  1.
         11    1    3    3    0    0 -0.97365586623E+01 -0.23160955920E+01  0.25484094651E+00  0.10011484283E+02  0.51100000000E-03 0. -1.
        -11    1    3    3    0    0  0.15642941731E+02 -0.52280422886E+01 -0.33167209394E+02  0.37041838932E+02  0.51100000000E-03 0.  1.
        -12    1    3    3    0    0  0.10210776115E+02 -0.85078906373E+00  0.67115439752E+01  0.12248616797E+02  0.00000000000E+00 0.  1.
</event>
<event>
 7    1  0.6293596E-013  0.5930195E+02  0.7816164E-02  0.1266605E+00
        -11   -1    0    0    0    0  0.00000000000E+00  0.00000000000E+00  0.45593999997E+02  0.45594000000E+02  0.51100000000E-03 0. -1.
         11   -1    0    0    0    0 -0.00000000000E+00 -0.00000000000E+00 -0.45593999997E+02  0.45594000000E+02  0.51100000000E-03 0.  1.
    9900012    2    1    2    0    0 -0.12635346370E+02  0.18553250775E+02  0.22646079601E+02  0.59301952683E+02  0.50000015786E+02 0.  0.
        -12    1    1    2    0    0  0.12635346370E+02 -0.18553250775E+02 -0.22646079601E+02  0.31886047317E+02  0.00000000000E+00 0.  1.
         11    1    3    3    0    0 -0.14202545611E+02 -0.10533960100E+02 -0.39800894119E+01  0.18125058047E+02  0.51100000000E-03 0. -1.
        -11    1    3    3    0    0  0.54777471642E+01  0.12631316557E+02  0.76261284268E+01  0.15738923312E+02  0.51100000000E-03 0.  1.
         12    1    3    3    0    0 -0.39105479241E+01  0.16455894318E+02  0.19000040586E+02  0.25437971325E+02  0.00000000000E+00 0. -1.
</event>
<event>
 7    1  0.6293596E-013  0.5930194E+02  0.7816164E-02  0.1266605E+00
        -11   -1    0    0    0    0  0.00000000000E+00  0.00000000000E+00  0.45593999997E+02  0.45594000000E+02  0.51100000000E-03 0.  1.
         11   -1    0    0    0    0 -0.00000000000E+00 -0.00000000000E+00 -0.45593999997E+02  0.45594000000E+02  0.51100000000E-03 0. -1.
    9900012    2    1    2    0    0  0.15282297541E+01 -0.31672369322E+02 -0.33535439289E+01  0.59301941580E+02  0.49999995537E+02 0.  0.
        -12    1    1    2    0    0 -0.15282297541E+01  0.31672369322E+02  0.33535439289E+01  0.31886058420E+02  0.00000000000E+00 0.  1.
         11    1    3    3    0    0  0.82698909501E+01 -0.27876989949E+02  0.13182123319E+02  0.31926259417E+02  0.51100000000E-03 0. -1.
        -11    1    3    3    0    0  0.42679728689E+01 -0.35792718343E+01 -0.15314969614E+02  0.16296474275E+02  0.51100000000E-03 0.  1.
         12    1    3    3    0    0 -0.11009634065E+02 -0.21610753925E+00 -0.12206976342E+01  0.11079207888E+02  0.00000000000E+00 0. -1.
</event>
<event>
 7    1  0.9221641E-013  0.5930194E+02  0.7816164E-02  0.1266605E+00
        -11   -1    0    0    0    0  0.00000000000E+00  0.00000000000E+00  0.45593999997E+02  0.45594000000E+02  0.51100000000E-03 0. -1.
         11   -1    0    0    0    0 -0.00000000000E+00 -0.00000000000E+00 -0.45593999997E+02  0.45594000000E+02  0.51100000000E-03 0.  1.
    9900012    2    1    2    0    0  0.32366319439E+00  0.22506692640E+02  0.22584613529E+02  0.59301941295E+02  0.49999995017E+02 0.  0.
        -12    1    1    2    0    0 -0.32366319439E+00 -0.22506692640E+02 -0.22584613529E+02  0.31886058705E+02  0.00000000000E+00 0.  1.
         11    1    3    3    0    0  0.12632236414E+02  0.11046849839E+02  0.22224805505E+02  0.27848667261E+02  0.51100000000E-03 0. -1.
        -11    1    3    3    0    0 -0.13541357660E+02 -0.43873982072E+01  0.46756855902E+01  0.14982645504E+02  0.51100000000E-03 0.  1.
        -12    1    3    3    0    0  0.12327844402E+01  0.15847241008E+02 -0.43158775660E+01  0.16470628531E+02  0.00000000000E+00 0.  1.
</event>
<event>
 7    1  0.6293596E-013  0.5930194E+02  0.7816164E-02  0.1266605E+00
        -11   -1    0    0    0    0  0.00000000000E+00  0.00000000000E+00  0.45593999997E+02  0.45594000000E+02  0.51100000000E-03 0.  1.
         11   -1    0    0    0    0 -0.00000000000E+00 -0.00000000000E+00 -0.45593999997E+02  0.45594000000E+02  0.51100000000E-03 0. -1.
    9900012    2    1    2    0    0  0.28543817441E+02  0.24271754677E+01  0.14002858937E+02  0.59301941083E+02  0.49999994630E+02 0.  0.
        -12    1    1    2    0    0 -0.28543817441E+02 -0.24271754677E+01 -0.14002858937E+02  0.31886058917E+02  0.00000000000E+00 0.  1.
         11    1    3    3    0    0  0.11624926931E+02 -0.14898505936E+01 -0.12482184689E+02  0.17122018450E+02  0.51100000000E-03 0. -1.
        -11    1    3    3    0    0  0.20502314504E+02 -0.57991407673E+01  0.22753966873E+02  0.31172390707E+02  0.51100000000E-03 0.  1.
        -12    1    3    3    0    0 -0.35834239942E+01  0.97161668286E+01  0.37310767533E+01  0.11007531926E+02  0.00000000000E+00 0.  1.
</event>
<event>
 7    1  0.6293596E-013  0.5930195E+02  0.7816164E-02  0.1266605E+00
        -11   -1    0    0    0    0  0.00000000000E+00  0.00000000000E+00  0.45593999997E+02  0.45594000000E+02  0.51100000000E-03 0.  1.
         11   -1    0    0    0    0 -0.00000000000E+00 -0.00000000000E+00 -0.45593999997E+02  0.45594000000E+02  0.51100000000E-03 0. -1.
    9900012    2    1    2    0    0  0.11774444815E+02  0.20960086834E+02 -0.20946531579E+02  0.59301953272E+02  0.50000016859E+02 0.  0.
        -12    1    1    2    0    0 -0.11774444815E+02 -0.20960086834E+02  0.20946531579E+02  0.31886046728E+02  0.00000000000E+00 0.  1.
         11    1    3    3    0    0 -0.29991261946E+01 -0.73487538598E+01 -0.20356078863E+02  0.21848773150E+02  0.51100000000E-03 0. -1.
        -11    1    3    3    0    0  0.14732253280E+02  0.10690862236E+02 -0.57603339328E+01  0.19092282979E+02  0.51100000000E-03 0.  1.
         12    1    3    3    0    0  0.41317728956E-01  0.17617978458E+02  0.51698812171E+01  0.18360897143E+02  0.00000000000E+00 0. -1.
</event>
<event>
 7    1  0.6293596E-013  0.5930189E+02  0.7816164E-02  0.1266605E+00
        -11   -1    0    0    0    0  0.00000000000E+00  0.00000000000E+00  0.45593999997E+02  0.45594000000E+02  0.51100000000E-03 0.  1.
         11   -1    0    0    0    0 -0.00000000000E+00 -0.00000000000E+00 -0.45593999997E+02  0.45594000000E+02  0.51100000000E-03 0. -1.
    9900012    2    1    2    0    0 -0.24473330979E+02 -0.17426480126E+02 -0.10681662054E+02  0.59301889497E+02  0.49999900548E+02 0.  0.
        -12    1    1    2    0    0  0.24473330979E+02  0.17426480126E+02  0.10681662054E+02  0.31886110503E+02  0.00000000000E+00 0.  1.
         11    1    3    3    0    0 -0.17095159999E+02  0.53006920776E+01 -0.12746544483E+02  0.21973079629E+02  0.51100000000E-03 0. -1.
        -11    1    3    3    0    0 -0.91749285782E+01 -0.10523221702E+02  0.14278457051E+02  0.19969773294E+02  0.51100000000E-03 0.  1.
         12    1    3    3    0    0  0.17967575974E+01 -0.12203950502E+02 -0.12213574622E+02  0.17359036574E+02  0.00000000000E+00 0. -1.
</event>
<event>
 7    1  0.6293596E-013  0.5930198E+02  0.7816164E-02  0.1266605E+00
        -11   -1    0    0    0    0  0.00000000000E+00  0.00000000000E+00  0.45593999997E+02  0.45594000000E+02  0.51100000000E-03 0.  1.
         11   -1    0    0    0    0 -0.00000000000E+00 -0.00000000000E+00 -0.45593999997E+02  0.45594000000E+02  0.51100000000E-03 0. -1.
    9900012    2    1    2    0    0  0.25839069980E+02  0.75338427994E+00 -0.18667975417E+02  0.59301977490E+02  0.50000061027E+02 0.  0.
        -12    1    1    2    0    0 -0.25839069980E+02 -0.75338427994E+00  0.18667975417E+02  0.31886022510E+02  0.00000000000E+00 0.  1.
         11    1    3    3    0    0  0.11884311548E+02  0.19742383005E+02 -0.14146166183E+02  0.27039093284E+02  0.51100000000E-03 0. -1.
        -11    1    3    3    0    0  0.19815903398E+02 -0.14292160308E+02 -0.35811851534E+01  0.24693334346E+02  0.51100000000E-03 0.  1.
        -12    1    3    3    0    0 -0.58611449654E+01 -0.46968384170E+01 -0.94062408117E+00  0.75695498600E+01  0.00000000000E+00 0.  1.
</event>
<event>
 7    1  0.6293596E-013  0.5930197E+02  0.7816164E-02  0.1266605E+00
        -11   -1    0    0    0    0  0.00000000000E+00  0.00000000000E+00  0.45593999997E+02  0.45594000000E+02  0.51100000000E-03 0. -1.
         11   -1    0    0    0    0 -0.00000000000E+00 -0.00000000000E+00 -0.45593999997E+02  0.45594000000E+02  0.51100000000E-03 0.  1.
    9900012    2    1    2    0    0 -0.19775317812E+02 -0.17992493803E+02  0.17376005605E+02  0.59301974870E+02  0.50000056249E+02 0.  0.
        -12    1    1    2    0    0  0.19775317812E+02  0.17992493803E+02 -0.17376005605E+02  0.31886025130E+02  0.00000000000E+00 0.  1.
         11    1    3    3    0    0 -0.23652651578E+02 -0.20628669206E+02  0.24492695953E+02  0.39810577429E+02  0.51100000000E-03 0. -1.
        -11    1    3    3    0    0  0.71883062650E+01 -0.30556401474E+01  0.21704386320E+01  0.81067556881E+01  0.51100000000E-03 0.  1.
        -12    1    3    3    0    0 -0.33109724986E+01  0.56918155510E+01 -0.92871289801E+01  0.11384641753E+02  0.00000000000E+00 0.  1.
</event>
<event>
 7    1  0.6293596E-013  0.5930194E+02  0.7816164E-02  0.1266605E+00
        -11   -1    0    0    0    0  0.00000000000E+00  0.00000000000E+00  0.45593999997E+02  0.45594000000E+02  0.51100000000E-03 0.  1.
         11   -1    0    0    0    0 -0.00000000000E+00 -0.00000000000E+00 -0.45593999997E+02  0.45594000000E+02  0.51100000000E-03 0. -1.
    9900012    2    1    2    0    0  0.11877129402E+02 -0.20124302723E+02 -0.21694857058E+02  0.59301943711E+02  0.49999999423E+02 0.  0.
        -12    1    1    2    0    0 -0.11877129402E+02  0.20124302723E+02  0.21694857058E+02  0.31886056289E+02  0.00000000000E+00 0.  1.
         11    1    3    3    0    0 -0.37229489645E+01  0.13176117222E+02 -0.18245310868E+01  0.13813012994E+02  0.51100000000E-03 0. -1.
        -11    1    3    3    0    0 -0.21439068481E+01 -0.84959517768E+01 -0.10304342894E+02  0.13526160427E+02  0.51100000000E-03 0.  1.
         12    1    3    3    0    0  0.17743985214E+02 -0.24804468168E+02 -0.95659830774E+01  0.31962770290E+02  0.00000000000E+00 0. -1.
</event>
<event>
 7    1  0.6293596E-013  0.5930197E+02  0.7816164E-02  0.1266605E+00
        -11   -1    0    0    0    0  0.00000000000E+00  0.00000000000E+00  0.45593999997E+02  0.45594000000E+02  0.51100000000E-03 0.  1.
         11   -1    0    0    0    0 -0.00000000000E+00 -0.00000000000E+00 -0.45593999997E+02  0.45594000000E+02  0.51100000000E-03 0. -1.
    9900012    2    1    2    0    0  0.19749257484E+02  0.18927745260E+02 -0.16383708734E+02  0.59301974477E+02  0.50000055532E+02 0.  0.
        -12    1    1    2    0    0 -0.19749257484E+02 -0.18927745260E+02  0.16383708734E+02  0.31886025523E+02  0.00000000000E+00 0.  1.
         11    1    3    3    0    0  0.12165330491E+02  0.18590665979E+02 -0.45649818279E+01  0.22681428236E+02  0.51100000000E-03 0. -1.
        -11    1    3    3    0    0  0.11557980315E+02 -0.36877703689E+01 -0.21914327356E+02  0.25048439132E+02  0.51100000000E-03 0.  1.
        -12    1    3    3    0    0 -0.39740533219E+01  0.40248496500E+01  0.10095600449E+02  0.11572107109E+02  0.00000000000E+00 0.  1.
</event>
<event>
 7    1  0.6293596E-013  0.5930194E+02  0.7816164E-02  0.1266605E+00
        -11   -1    0    0    0    0  0.00000000000E+00  0.00000000000E+00  0.45593999997E+02  0.45594000000E+02  0.51100000000E-03 0.  1.
         11   -1    0    0    0    0 -0.00000000000E+00 -0.00000000000E+00 -0.45593999997E+02  0.45594000000E+02  0.51100000000E-03 0. -1.
    9900012    2    1    2    0    0 -0.28931136628E+02  0.12588277137E+02  0.46092564108E+01  0.59301942976E+02  0.49999998082E+02 0.  0.
        -12    1    1    2    0    0  0.28931136628E+02 -0.12588277137E+02 -0.46092564108E+01  0.31886057024E+02  0.00000000000E+00 0.  1.
         11    1    3    3    0    0 -0.25731877079E+02  0.24171974678E+02  0.49095655517E+01  0.35644322016E+02  0.51100000000E-03 0. -1.
        -11    1    3    3    0    0  0.27696635149E+01  0.14603754703E+00  0.77488508457E+01  0.82302522830E+01  0.51100000000E-03 0.  1.
         12    1    3    3    0    0 -0.59689230645E+01 -0.11729735089E+02 -0.80491599866E+01  0.15427368677E+02  0.00000000000E+00 0. -1.
</event>
<event>
 7    1  0.6293596E-013  0.5930197E+02  0.7816164E-02  0.1266605E+00
        -11   -1    0    0    0    0  0.00000000000E+00  0.00000000000E+00  0.45593999997E+02  0.45594000000E+02  0.51100000000E-03 0.  1.
         11   -1    0    0    0    0 -0.00000000000E+00 -0.00000000000E+00 -0.45593999997E+02  0.45594000000E+02  0.51100000000E-03 0. -1.
    9900012    2    1    2    0    0 -0.15759058596E+02  0.64721721575E+01 -0.26953333547E+02  0.59301966544E+02  0.50000041064E+02 0.  0.
        -12    1    1    2    0    0  0.15759058596E+02 -0.64721721575E+01  0.26953333547E+02  0.31886033456E+02  0.00000000000E+00 0.  1.
         11    1    3    3    0    0 -0.13588669218E+02  0.13165780313E+02 -0.11725296260E+02  0.22259206523E+02  0.51100000000E-03 0. -1.
        -11    1    3    3    0    0  0.98868213309E+01 -0.58127861238E+01 -0.20783554809E+02  0.23738025809E+02  0.51100000000E-03 0.  1.
        -12    1    3    3    0    0 -0.12057210708E+02 -0.88082203217E+00  0.55555175219E+01  0.13304734212E+02  0.00000000000E+00 0.  1.
</event>
<event>
 7    1  0.6293596E-013  0.5930197E+02  0.7816164E-02  0.1266605E+00
        -11   -1    0    0    0    0  0.00000000000E+00  0.00000000000E+00  0.45593999997E+02  0.45594000000E+02  0.51100000000E-03 0. -1.
         11   -1    0    0    0    0 -0.00000000000E+00 -0.00000000000E+00 -0.45593999997E+02  0.45594000000E+02  0.51100000000E-03 0.  1.
    9900012    2    1    2    0    0 -0.14457049005E+02  0.74347140340E+01  0.27430601275E+02  0.59301966615E+02  0.50000041195E+02 0.  0.
        -12    1    1    2    0    0  0.14457049005E+02 -0.74347140340E+01 -0.27430601275E+02  0.31886033385E+02  0.00000000000E+00 0.  1.
         11    1    3    3    0    0 -0.17525743660E+02  0.99911956960E+01  0.13697025600E+02  0.24384097129E+02  0.51100000000E-03 0. -1.
        -11    1    3    3    0    0  0.75542007907E+01 -0.75538572895E+01 -0.72335919208E+01  0.12901610825E+02  0.51100000000E-03 0.  1.
        -12    1    3    3    0    0 -0.44855061360E+01  0.49973756275E+01  0.20967167596E+02  0.22016258661E+02  0.00000000000E+00 0.  1.
</event>
<event>
 7    1  0.6293596E-013  0.5930195E+02  0.7816164E-02  0.1266605E+00
        -11   -1    0    0    0    0  0.00000000000E+00  0.00000000000E+00  0.45593999997E+02  0.45594000000E+02  0.51100000000E-03 0.  1.
         11   -1    0    0    0    0 -0.00000000000E+00 -0.00000000000E+00 -0.45593999997E+02  0.45594000000E+02  0.51100000000E-03 0. -1.
    9900012    2    1    2    0    0  0.86663317604E+00 -0.53060648594E+01 -0.31429524895E+02  0.59301946427E+02  0.50000004375E+02 0.  0.
        -12    1    1    2    0    0 -0.86663317604E+00  0.53060648594E+01  0.31429524895E+02  0.31886053573E+02  0.00000000000E+00 0.  1.
         11    1    3    3    0    0  0.42669444143E+01  0.13203857742E+02 -0.18884206614E+02  0.23434204352E+02  0.51100000000E-03 0. -1.
        -11    1    3    3    0    0  0.64082947438E+01 -0.62808833895E+01  0.65883505139E+01  0.11132030382E+02  0.51100000000E-03 0.  1.
         12    1    3    3    0    0 -0.98086059821E+01 -0.12229039212E+02 -0.19133668795E+02  0.24735711692E+02  0.00000000000E+00 0. -1.
</event>
<event>
 7    1  0.6293596E-013  0.5930201E+02  0.7816164E-02  0.1266605E+00
        -11   -1    0    0    0    0  0.00000000000E+00  0.00000000000E+00  0.45593999997E+02  0.45594000000E+02  0.51100000000E-03 0. -1.
         11   -1    0    0    0    0 -0.00000000000E+00 -0.00000000000E+00 -0.45593999997E+02  0.45594000000E+02  0.51100000000E-03 0.  1.
    9900012    2    1    2    0    0 -0.22810023417E+02  0.21304652887E+02  0.65215805517E+01  0.59302009098E+02  0.50000118672E+02 0.  0.
        -12    1    1    2    0    0  0.22810023417E+02 -0.21304652887E+02 -0.65215805517E+01  0.31885990902E+02  0.00000000000E+00 0.  1.
         11    1    3    3    0    0 -0.80775884466E+01 -0.55817783629E+01  0.67624929440E+01  0.11922038244E+02  0.51100000000E-03 0. -1.
        -11    1    3    3    0    0 -0.22425177895E+02  0.23330528612E+02 -0.10547916904E+02  0.34036167825E+02  0.51100000000E-03 0.  1.
        -12    1    3    3    0    0  0.76927429243E+01  0.35559026383E+01  0.10307004512E+02  0.13343803029E+02  0.00000000000E+00 0.  1.
</event>
<event>
 7    1  0.6293596E-013  0.5930196E+02  0.7816164E-02  0.1266605E+00
        -11   -1    0    0    0    0  0.00000000000E+00  0.00000000000E+00  0.45593999997E+02  0.45594000000E+02  0.51100000000E-03 0.  1.
         11   -1    0    0    0    0 -0.00000000000E+00 -0.00000000000E+00 -0.45593999997E+02  0.45594000000E+02  0.51100000000E-03 0. -1.
    9900012    2    1    2    0    0 -0.18487982530E+02 -0.69116175570E+01 -0.25042841374E+02  0.59301955099E+02  0.50000020192E+02 0.  0.
        -12    1    1    2    0    0  0.18487982530E+02  0.69116175570E+01  0.25042841374E+02  0.31886044901E+02  0.00000000000E+00 0.  1.
         11    1    3    3    0    0  0.13181692100E+02 -0.13775391294E+01 -0.12728611519E+02  0.18375858406E+02  0.51100000000E-03 0. -1.
        -11    1    3    3    0    0 -0.23674427042E+02  0.79463460825E+00 -0.17533678950E+02  0.29470999944E+02  0.51100000000E-03 0.  1.
         12    1    3    3    0    0 -0.79952475890E+01 -0.63287130358E+01  0.52194490948E+01  0.11455096750E+02  0.00000000000E+00 0. -1.
</event>
<event>
 7    1  0.6293596E-013  0.5930199E+02  0.7816164E-02  0.1266605E+00
        -11   -1    0    0    0    0  0.00000000000E+00  0.00000000000E+00  0.45593999997E+02  0.45594000000E+02  0.51100000000E-03 0. -1.
         11   -1    0    0    0    0 -0.00000000000E+00 -0.00000000000E+00 -0.45593999997E+02  0.45594000000E+02  0.51100000000E-03 0.  1.
    9900012    2    1    2    0    0 -0.30308566930E+02  0.58907735320E+01  0.79628767841E+01  0.59301986627E+02  0.50000077691E+02 0.  0.
        -12    1    1    2    0    0  0.30308566930E+02 -0.58907735320E+01 -0.79628767841E+01  0.31886013373E+02  0.00000000000E+00 0.  1.
         11    1    3    3    0    0  0.19247382066E+01 -0.67848899689E+01  0.93165697158E+00  0.71138831890E+01  0.51100000000E-03 0. -1.
        -11    1    3    3    0    0 -0.36600386177E+02  0.95963983717E+01 -0.58085697054E+01  0.38280786464E+02  0.51100000000E-03 0.  1.
        -12    1    3    3    0    0  0.43670810406E+01  0.30792651291E+01  0.12839789518E+02  0.13907316974E+02  0.00000000000E+00 0.  1.
</event>
<event>
 7    1  0.6293596E-013  0.5930196E+02  0.7816164E-02  0.1266605E+00
        -11   -1    0    0    0    0  0.00000000000E+00  0.00000000000E+00  0.45593999997E+02  0.45594000000E+02  0.51100000000E-03 0.  1.
         11   -1    0    0    0    0 -0.00000000000E+00 -0.00000000000E+00 -0.45593999997E+02  0.45594000000E+02  0.51100000000E-03 0. -1.
    9900012    2    1    2    0    0  0.31566372229E+02 -0.34959391764E+01 -0.28394341601E+01  0.59301955517E+02  0.50000020954E+02 0.  0.
        -12    1    1    2    0    0 -0.31566372229E+02  0.34959391764E+01  0.28394341601E+01  0.31886044483E+02  0.00000000000E+00 0.  1.
         11    1    3    3    0    0  0.25141081689E+02  0.13495158056E+02 -0.11652370061E+02  0.30821599695E+02  0.51100000000E-03 0. -1.
        -11    1    3    3    0    0  0.11260174191E+02 -0.73763302309E+01  0.11136230186E+02  0.17470472046E+02  0.51100000000E-03 0.  1.
        -12    1    3    3    0    0 -0.48348836518E+01 -0.96147670017E+01 -0.23232942852E+01  0.11009883776E+02  0.00000000000E+00 0.  1.
</event>
<event>
 7    1  0.6293596E-013  0.5930193E+02  0.7816164E-02  0.1266605E+00
        -11   -1    0    0    0    0  0.00000000000E+00  0.00000000000E+00  0.45593999997E+02  0.45594000000E+02  0.51100000000E-03 0. -1.
         11   -1    0    0    0    0 -0.00000000000E+00 -0.00000000000E+00 -0.45593999997E+02  0.45594000000E+02  0.51100000000E-03 0.  1.
    9900012    2    1    2    0    0 -0.21151436946E+02 -0.23709160875E+02 -0.26858306775E+01  0.59301932813E+02  0.49999979546E+02 0.  0.
        -12    1    1    2    0    0  0.21151436946E+02  0.23709160875E+02  0.26858306775E+01  0.31886067187E+02  0.00000000000E+00 0.  1.
         11    1    3    3    0    0  0.97958169164E+00 -0.11094003722E+02  0.35945923203E+01  0.11702888237E+02  0.51100000000E-03 0. -1.
        -11    1    3    3    0    0  0.38984748888E+01 -0.41763714325E+01 -0.17210183497E+02  0.18133686913E+02  0.51100000000E-03 0.  1.
        -12    1    3    3    0    0 -0.26029493526E+02 -0.84387857205E+01  0.10929760499E+02  0.29465357663E+02  0.00000000000E+00 0.  1.
</event>
<event>
 7    1  0.6293596E-013  0.5930190E+02  0.7816164E-02  0.1266605E+00
        -11   -1    0    0    0    0  0.00000000000E+00  0.00000000000E+00  0.45593999997E+02  0.45594000000E+02  0.51100000000E-03 0.  1.
         11   -1    0    0    0    0 -0.00000000000E+00 -0.00000000000E+00 -0.45593999997E+02  0.45594000000E+02  0.51100000000E-03 0. -1.
    9900012    2    1    2    0    0  0.87143954232E+01  0.18908341953E+02 -0.24150715898E+02  0.59301903322E+02  0.49999925762E+02 0.  0.
        -12    1    1    2    0    0 -0.87143954232E+01 -0.18908341953E+02  0.24150715898E+02  0.31886096678E+02  0.00000000000E+00 0.  1.
         11    1    3    3    0    0  0.15637253142E+01 -0.56179463488E+01 -0.27619052344E+02  0.28227975674E+02  0.51100000000E-03 0. -1.
        -11    1    3    3    0    0 -0.26071470305E+01  0.19911200234E+02  0.25066506529E+01  0.20237005909E+02  0.51100000000E-03 0.  1.
         12    1    3    3    0    0  0.97578171396E+01  0.46150880673E+01  0.96168579327E+00  0.10836921738E+02  0.00000000000E+00 0. -1.
</event>
<event>
 7    1  0.6293596E-013  0.5930194E+02  0.7816164E-02  0.1266605E+00
        -11   -1    0    0    0    0  0.00000000000E+00  0.00000000000E+00  0.45593999997E+02  0.45594000000E+02  0.51100000000E-03 0. -1.
         11   -1    0    0    0    0 -0.00000000000E+00 -0.00000000000E+00 -0.45593999997E+02  0.45594000000E+02  0.51100000000E-03 0.  1.
    9900012    2    1    2    0    0  0.26584392787E+02  0.11661211602E+02  0.13191178808E+02  0.59301937305E+02  0.49999987739E+02 0.  0.
        -12    1    1    2    0    0 -0.26584392787E+02 -0.11661211602E+02 -0.13191178808E+02  0.31886062695E+02  0.00000000000E+00 0.  1.
         11    1    3    3    0    0  0.29759465834E+02  0.25378103989E+02  0.11775635668E+02  0.40845312637E+02  0.51100000000E-03 0. -1.
        -11    1    3    3    0    0  0.11866900894E+01 -0.67807222288E+00 -0.35769892724E+01  0.38292124286E+01  0.51100000000E-03 0.  1.
         12    1    3    3    0    0 -0.43617631366E+01 -0.13038820164E+02  0.49925324121E+01  0.14627412239E+02  0.00000000000E+00 0. -1.
</event>
<event>
 7    1  0.6293596E-013  0.5930192E+02  0.7816164E-02  0.1266605E+00
        -11   -1    0    0    0    0  0.00000000000E+00  0.00000000000E+00  0.45593999997E+02  0.45594000000E+02  0.51100000000E-03 0.  1.
         11   -1    0    0    0    0 -0.00000000000E+00 -0.00000000000E+00 -0.45593999997E+02  0.45594000000E+02  0.51100000000E-03 0. -1.
    9900012    2    1    2    0    0 -0.23076299213E+02  0.19848982343E+02 -0.94986582020E+01  0.59301918506E+02  0.49999953454E+02 0.  0.
        -12    1    1    2    0    0  0.23076299213E+02 -0.19848982343E+02  0.94986582020E+01  0.31886081494E+02  0.00000000000E+00 0.  1.
         11    1    3    3    0    0 -0.10407056456E+02  0.20042673549E+02 -0.13599770768E+02  0.26362271379E+02  0.51100000000E-03 0. -1.
        -11    1    3    3    0    0 -0.20130552324E+02  0.22458312703E+01  0.10497126686E+02  0.22813867798E+02  0.51100000000E-03 0.  1.
        -12    1    3    3    0    0  0.74613095679E+01 -0.24395224765E+01 -0.63960141201E+01  0.10125779328E+02  0.00000000000E+00 0.  1.
</event>
<event>
 7    1  0.6293596E-013  0.5930195E+02  0.7816164E-02  0.1266605E+00
        -11   -1    0    0    0    0  0.00000000000E+00  0.00000000000E+00  0.45593999997E+02  0.45594000000E+02  0.51100000000E-03 0.  1.
         11   -1    0    0    0    0 -0.00000000000E+00 -0.00000000000E+00 -0.45593999997E+02  0.45594000000E+02  0.51100000000E-03 0. -1.
    9900012    2    1    2    0    0 -0.31196527130E+02  0.55653693566E+01  0.35388209544E+01  0.59301954544E+02  0.50000019180E+02 0.  0.
        -12    1    1    2    0    0  0.31196527130E+02 -0.55653693566E+01 -0.35388209544E+01  0.31886045456E+02  0.00000000000E+00 0.  1.
         11    1    3    3    0    0 -0.62953228309E+01  0.18760323394E+02 -0.50671059792E+01  0.20426854547E+02  0.51100000000E-03 0. -1.
        -11    1    3    3    0    0 -0.13749800892E+02 -0.20338090055E+02  0.41216212033E+01  0.24893426708E+02  0.51100000000E-03 0.  1.
         12    1    3    3    0    0 -0.11151403407E+02  0.71431360171E+01  0.44843057303E+01  0.13981673290E+02  0.00000000000E+00 0. -1.
</event>
<event>
 7    1  0.6293596E-013  0.5930194E+02  0.7816164E-02  0.1266605E+00
        -11   -1    0    0    0    0  0.00000000000E+00  0.00000000000E+00  0.45593999997E+02  0.45594000000E+02  0.51100000000E-03 0.  1.
         11   -1    0    0    0    0 -0.00000000000E+00 -0.00000000000E+00 -0.45593999997E+02  0.45594000000E+02  0.51100000000E-03 0. -1.
    9900012    2    1    2    0    0  0.26775499825E+02 -0.16194606421E+02  0.61260061629E+01  0.59301943180E+02  0.49999998454E+02 0.  0.
        -12    1    1    2    0    0 -0.26775499825E+02  0.16194606421E+02 -0.61260061629E+01  0.31886056820E+02  0.00000000000E+00 0.  1.
         11    1    3    3    0    0  0.24175892930E+02 -0.20388075972E+01 -0.61725267276E+01  0.25034588510E+02  0.51100000000E-03 0. -1.
        -11    1    3    3    0    0  0.71651010133E+00 -0.65933888559E+01  0.21330554725E+02  0.22337831776E+02  0.51100000000E-03 0.  1.
        -12    1    3    3    0    0  0.18830967930E+01 -0.75624099682E+01 -0.90320218345E+01  0.11929522894E+02  0.00000000000E+00 0.  1.
</event>
<event>
 7    1  0.6293596E-013  0.5930197E+02  0.7816164E-02  0.1266605E+00
        -11   -1    0    0    0    0  0.00000000000E+00  0.00000000000E+00  0.45593999997E+02  0.45594000000E+02  0.51100000000E-03 0. -1.
         11   -1    0    0    0    0 -0.00000000000E+00 -0.00000000000E+00 -0.45593999997E+02  0.45594000000E+02  0.51100000000E-03 0.  1.
    9900012    2    1    2    0    0 -0.10879289332E+02 -0.29666642522E+02  0.42720215911E+01  0.59301971973E+02  0.50000050965E+02 0.  0.
        -12    1    1    2    0    0  0.10879289332E+02  0.29666642522E+02 -0.42720215911E+01  0.31886028027E+02  0.00000000000E+00 0.  1.
         11    1    3    3    0    0 -0.85451350142E+01 -0.18811489208E+02  0.94956053521E+01  0.22738908943E+02  0.51100000000E-03 0. -1.
        -11    1    3    3    0    0 -0.13117707151E+02  0.69211099264E+01 -0.53624677344E+01  0.15771241675E+02  0.51100000000E-03 0.  1.
        -12    1    3    3    0    0  0.10783552833E+02 -0.17776263240E+02  0.13888397344E+00  0.20791821354E+02  0.00000000000E+00 0.  1.
</event>
<event>
 7    1  0.6293596E-013  0.5930195E+02  0.7816164E-02  0.1266605E+00
        -11   -1    0    0    0    0  0.00000000000E+00  0.00000000000E+00  0.45593999997E+02  0.45594000000E+02  0.51100000000E-03 0.  1.
         11   -1    0    0    0    0 -0.00000000000E+00 -0.00000000000E+00 -0.45593999997E+02  0.45594000000E+02  0.51100000000E-03 0. -1.
    9900012    2    1    2    0    0  0.30550377231E+02 -0.88871994658E+01  0.21004979094E+01  0.59301953604E+02  0.50000017465E+02 0.  0.
        -12    1    1    2    0    0 -0.30550377231E+02  0.88871994658E+01 -0.21004979094E+01  0.31886046396E+02  0.00000000000E+00 0.  1.
         11    1    3    3    0    0  0.12277288699E+02  0.79541441484E+01  0.13398980424E+02  0.19837663764E+02  0.51100000000E-03 0. -1.
        -11    1    3    3    0    0  0.24788828572E+02 -0.15559965046E+02 -0.39059823581E+01  0.29527194798E+02  0.51100000000E-03 0.  1.
         12    1    3    3    0    0 -0.65157400400E+01 -0.12813785686E+01 -0.73925001568E+01  0.99370950420E+01  0.00000000000E+00 0. -1.
</event>
<event>
 7    1  0.6293596E-013  0.5930195E+02  0.7816164E-02  0.1266605E+00
        -11   -1    0    0    0    0  0.00000000000E+00  0.00000000000E+00  0.45593999997E+02  0.45594000000E+02  0.51100000000E-03 0.  1.
         11   -1    0    0    0    0 -0.00000000000E+00 -0.00000000000E+00 -0.45593999997E+02  0.45594000000E+02  0.51100000000E-03 0. -1.
    9900012    2    1    2    0    0 -0.25112084537E+02 -0.90529452593E+01  0.17439835268E+02  0.59301945653E+02  0.50000002964E+02 0.  0.
        -12    1    1    2    0    0  0.25112084537E+02  0.90529452593E+01 -0.17439835268E+02  0.31886054347E+02  0.00000000000E+00 0.  1.
         11    1    3    3    0    0 -0.15212374658E+02  0.33291192588E+01 -0.11097494300E+02  0.19122075143E+02  0.51100000000E-03 0. -1.
        -11    1    3    3    0    0  0.16411749170E+01 -0.15652906050E+02  0.12209248460E+02  0.19919153374E+02  0.51100000000E-03 0.  1.
         12    1    3    3    0    0 -0.11540884796E+02  0.32708415318E+01  0.16328081108E+02  0.20260717136E+02  0.00000000000E+00 0. -1.
</event>
<event>
 7    1  0.6293596E-013  0.5930197E+02  0.7816164E-02  0.1266605E+00
        -11   -1    0    0    0    0  0.00000000000E+00  0.00000000000E+00  0.45593999997E+02  0.45594000000E+02  0.51100000000E-03 0.  1.
         11   -1    0    0    0    0 -0.00000000000E+00 -0.00000000000E+00 -0.45593999997E+02  0.45594000000E+02  0.51100000000E-03 0. -1.
    9900012    2    1    2    0    0  0.15361152730E+02 -0.18850126654E+02 -0.20625865346E+02  0.59301974702E+02  0.50000055942E+02 0.  0.
        -12    1    1    2    0    0 -0.15361152730E+02  0.18850126654E+02  0.20625865346E+02  0.31886025298E+02  0.00000000000E+00 0.  1.
         11    1    3    3    0    0  0.16332542462E+02 -0.34048424133E+02 -0.10010841349E+02  0.39067429836E+02  0.51100000000E-03 0. -1.
        -11    1    3    3    0    0 -0.18282267833E+01  0.82154107880E+01 -0.12306255510E+01  0.85058701551E+01  0.51100000000E-03 0.  1.
         12    1    3    3    0    0  0.85683705076E+00  0.69828866909E+01 -0.93843984462E+01  0.11728674711E+02  0.00000000000E+00 0. -1.
</event>
<event>
 7    1  0.6293596E-013  0.5930195E+02  0.7816164E-02  0.1266605E+00
        -11   -1    0    0    0    0  0.00000000000E+00  0.00000000000E+00  0.45593999997E+02  0.45594000000E+02  0.51100000000E-03 0.  1.
         11   -1    0    0    0    0 -0.00000000000E+00 -0.00000000000E+00 -0.45593999997E+02  0.45594000000E+02  0.51100000000E-03 0. -1.
    9900012    2    1    2    0    0 -0.89947709429E+01 -0.10797090491E+02 -0.28622314382E+02  0.59301953711E+02  0.50000017659E+02 0.  0.
        -12    1    1    2    0    0  0.89947709429E+01  0.10797090491E+02  0.28622314382E+02  0.31886046289E+02  0.00000000000E+00 0.  1.
         11    1    3    3    0    0 -0.79923134734E+01 -0.25976743987E+02 -0.30166873848E+02  0.40604292641E+02  0.51100000000E-03 0. -1.
        -11    1    3    3    0    0  0.14330027730E+01  0.16525716481E+01  0.41660072827E+01  0.47053275061E+01  0.51100000000E-03 0.  1.
         12    1    3    3    0    0 -0.24354602425E+01  0.13527081848E+02 -0.26214478163E+01  0.13992333564E+02  0.00000000000E+00 0. -1.
</event>
<event>
 7    1  0.6293596E-013  0.5930194E+02  0.7816164E-02  0.1266605E+00
        -11   -1    0    0    0    0  0.00000000000E+00  0.00000000000E+00  0.45593999997E+02  0.45594000000E+02  0.51100000000E-03 0. -1.
         11   -1    0    0    0    0 -0.00000000000E+00 -0.00000000000E+00 -0.45593999997E+02  0.45594000000E+02  0.51100000000E-03 0.  1.
    9900012    2    1    2    0    0  0.48149722979E+01 -0.15597353595E+02  0.27390861087E+02  0.59301942413E+02  0.49999997054E+02 0.  0.
        -12    1    1    2    0    0 -0.48149722979E+01  0.15597353595E+02 -0.27390861087E+02  0.31886057587E+02  0.00000000000E+00 0.  1.
         11    1    3    3    0    0  0.10731880796E+02  0.10355712845E+02  0.71741393788E+01  0.16549390624E+02  0.51100000000E-03 0. -1.
        -11    1    3    3    0    0 -0.16009602706E+02 -0.17760238033E+02  0.88878963150E+01  0.25509373472E+02  0.51100000000E-03 0.  1.
         12    1    3    3    0    0  0.10092694208E+02 -0.81928284072E+01  0.11328825393E+02  0.17243178317E+02  0.00000000000E+00 0. -1.
</event>
<event>
 7    1  0.6293596E-013  0.5930196E+02  0.7816164E-02  0.1266605E+00
        -11   -1    0    0    0    0  0.00000000000E+00  0.00000000000E+00  0.45593999997E+02  0.45594000000E+02  0.51100000000E-03 0.  1.
         11   -1    0    0    0    0 -0.00000000000E+00 -0.00000000000E+00 -0.45593999997E+02  0.45594000000E+02  0.51100000000E-03 0. -1.
    9900012    2    1    2    0    0 -0.24135771278E+02 -0.65228352112E+01 -0.19789818978E+02  0.59301956509E+02  0.50000022762E+02 0.  0.
        -12    1    1    2    0    0  0.24135771278E+02  0.65228352112E+01  0.19789818978E+02  0.31886043491E+02  0.00000000000E+00 0.  1.
         11    1    3    3    0    0 -0.25823199202E+02 -0.31692343788E+01  0.10138101565E+02  0.27922441998E+02  0.51100000000E-03 0. -1.
        -11    1    3    3    0    0  0.40054225549E+01  0.72699984062E-01 -0.68638312687E+01  0.79473816492E+01  0.51100000000E-03 0.  1.
         12    1    3    3    0    0 -0.23179946310E+01 -0.34263008165E+01 -0.23064089274E+02  0.23432132861E+02  0.00000000000E+00 0. -1.
</event>
<event>
 7    1  0.6293596E-013  0.5930195E+02  0.7816164E-02  0.1266605E+00
        -11   -1    0    0    0    0  0.00000000000E+00  0.00000000000E+00  0.45593999997E+02  0.45594000000E+02  0.51100000000E-03 0. -1.
         11   -1    0    0    0    0 -0.00000000000E+00 -0.00000000000E+00 -0.45593999997E+02  0.45594000000E+02  0.51100000000E-03 0.  1.
    9900012    2    1    2    0    0  0.16620897596E+02  0.25508228551E+02 -0.94760872732E+01  0.59301949904E+02  0.50000010717E+02 0.  0.
        -12    1    1    2    0    0 -0.16620897596E+02 -0.25508228551E+02  0.94760872732E+01  0.31886050096E+02  0.00000000000E+00 0.  1.
         11    1    3    3    0    0 -0.10100448205E+02  0.45512640768E+01  0.77575010709E+01  0.13524491922E+02  0.51100000000E-03 0. -1.
        -11    1    3    3    0    0  0.26002794478E+02  0.25313002623E+02 -0.10593554818E+02  0.37803661547E+02  0.51100000000E-03 0.  1.
         12    1    3    3    0    0  0.71855132218E+00 -0.43560381483E+01 -0.66400335263E+01  0.79737964348E+01  0.00000000000E+00 0. -1.
</event>
<event>
 7    1  0.6293596E-013  0.5930193E+02  0.7816164E-02  0.1266605E+00
        -11   -1    0    0    0    0  0.00000000000E+00  0.00000000000E+00  0.45593999997E+02  0.45594000000E+02  0.51100000000E-03 0.  1.
         11   -1    0    0    0    0 -0.00000000000E+00 -0.00000000000E+00 -0.45593999997E+02  0.45594000000E+02  0.51100000000E-03 0. -1.
    9900012    2    1    2    0    0  0.19873143299E+02  0.20365299819E+02 -0.14388680755E+02  0.59301931017E+02  0.49999976272E+02 0.  0.
        -12    1    1    2    0    0 -0.19873143299E+02 -0.20365299819E+02  0.14388680755E+02  0.31886068983E+02  0.00000000000E+00 0.  1.
         11    1    3    3    0    0 -0.37339439804E+01 -0.31615310596E+01 -0.95141498871E+01  0.10698442159E+02  0.51100000000E-03 0. -1.
        -11    1    3    3    0    0  0.30691674110E+02  0.88653982541E+01 -0.49003014397E+01  0.32320072715E+02  0.51100000000E-03 0.  1.
        -12    1    3    3    0    0 -0.70845868304E+01  0.14661432625E+02  0.25770571536E-01  0.16283416143E+02  0.00000000000E+00 0.  1.
</event>
<event>
 7    1  0.6293596E-013  0.5930196E+02  0.7816164E-02  0.1266605E+00
        -11   -1    0    0    0    0  0.00000000000E+00  0.00000000000E+00  0.45593999997E+02  0.45594000000E+02  0.51100000000E-03 0.  1.
         11   -1    0    0    0    0 -0.00000000000E+00 -0.00000000000E+00 -0.45593999997E+02  0.45594000000E+02  0.51100000000E-03 0. -1.
    9900012    2    1    2    0    0  0.27633625053E+02  0.37535927852E+00 -0.15904763436E+02  0.59301958726E+02  0.50000026807E+02 0.  0.
        -12    1    1    2    0    0 -0.27633625053E+02 -0.37535927852E+00  0.15904763436E+02  0.31886041274E+02  0.00000000000E+00 0.  1.
         11    1    3    3    0    0  0.87826709882E+01 -0.12022731905E+02 -0.26373094506E+02  0.30285665029E+02  0.51100000000E-03 0. -1.
        -11    1    3    3    0    0  0.12799395796E+02  0.15237584282E+02  0.53770901800E+01  0.20613626720E+02  0.51100000000E-03 0.  1.
        -12    1    3    3    0    0  0.60515582688E+01 -0.28394930980E+01  0.50912408903E+01  0.84026669777E+01  0.00000000000E+00 0.  1.
</event>
<event>
 7    1  0.6293596E-013  0.5930195E+02  0.7816164E-02  0.1266605E+00
        -11   -1    0    0    0    0  0.00000000000E+00  0.00000000000E+00  0.45593999997E+02  0.45594000000E+02  0.51100000000E-03 0.  1.
         11   -1    0    0    0    0 -0.00000000000E+00 -0.00000000000E+00 -0.45593999997E+02  0.45594000000E+02  0.51100000000E-03 0. -1.
    9900012    2    1    2    0    0  0.28878277355E+02 -0.11371635287E+02 -0.73110342246E+01  0.59301949547E+02  0.50000010066E+02 0.  0.
        -12    1    1    2    0    0 -0.28878277355E+02  0.11371635287E+02  0.73110342246E+01  0.31886050453E+02  0.00000000000E+00 0.  1.
         11    1    3    3    0    0  0.15420115175E+02 -0.27902438943E+02 -0.16382078222E+02  0.35842691558E+02  0.51100000000E-03 0. -1.
        -11    1    3    3    0    0  0.12355933470E+02  0.13675995099E+02  0.86851132121E+01  0.20374815966E+02  0.51100000000E-03 0.  1.
         12    1    3    3    0    0  0.11022287097E+01  0.28548085567E+01  0.38593078537E+00  0.30844420233E+01  0.00000000000E+00 0. -1.
</event>
<event>
 7    1  0.6293596E-013  0.5930192E+02  0.7816164E-02  0.1266605E+00
        -11   -1    0    0    0    0  0.00000000000E+00  0.00000000000E+00  0.45593999997E+02  0.45594000000E+02  0.51100000000E-03 0.  1.
         11   -1    0    0    0    0 -0.00000000000E+00 -0.00000000000E+00 -0.45593999997E+02  0.45594000000E+02  0.51100000000E-03 0. -1.
    9900012    2    1    2    0    0  0.27280037163E+02  0.16079269753E+02 -0.37388440703E+01  0.59301916854E+02  0.49999950442E+02 0.  0.
        -12    1    1    2    0    0 -0.27280037163E+02 -0.16079269753E+02  0.37388440703E+01  0.31886083146E+02  0.00000000000E+00 0.  1.
         11    1    3    3    0    0 -0.98450452858E+01  0.25130218023E+01 -0.13228922652E+02  0.16680665156E+02  0.51100000000E-03 0. -1.
        -11    1    3    3    0    0  0.42734551533E+01 -0.15559918183E+01 -0.15562265046E+01  0.48068046227E+01  0.51100000000E-03 0.  1.
         12    1    3    3    0    0  0.32851627295E+02  0.15122239769E+02  0.11046305086E+02  0.37814447076E+02  0.00000000000E+00 0. -1.
</event>
<event>
 7    1  0.6293596E-013  0.5930197E+02  0.7816164E-02  0.1266605E+00
        -11   -1    0    0    0    0  0.00000000000E+00  0.00000000000E+00  0.45593999997E+02  0.45594000000E+02  0.51100000000E-03 0. -1.
         11   -1    0    0    0    0 -0.00000000000E+00 -0.00000000000E+00 -0.45593999997E+02  0.45594000000E+02  0.51100000000E-03 0.  1.
    9900012    2    1    2    0    0  0.10969449017E+02  0.27473462621E+02 -0.11899541160E+02  0.59301967949E+02  0.50000043627E+02 0.  0.
        -12    1    1    2    0    0 -0.10969449017E+02 -0.27473462621E+02  0.11899541160E+02  0.31886032051E+02  0.00000000000E+00 0.  1.
         11    1    3    3    0    0 -0.10697657929E+02 -0.44250558388E+01 -0.11963272486E+02  0.16647549164E+02  0.51100000000E-03 0. -1.
        -11    1    3    3    0    0  0.99557748119E+01  0.10575951095E+02 -0.85416470405E+01  0.16850161070E+02  0.51100000000E-03 0.  1.
         12    1    3    3    0    0  0.11711332133E+02  0.21322567365E+02  0.86053783667E+01  0.25804257715E+02  0.00000000000E+00 0. -1.
</event>
<event>
 7    1  0.6293596E-013  0.5930196E+02  0.7816164E-02  0.1266605E+00
        -11   -1    0    0    0    0  0.00000000000E+00  0.00000000000E+00  0.45593999997E+02  0.45594000000E+02  0.51100000000E-03 0.  1.
         11   -1    0    0    0    0 -0.00000000000E+00 -0.00000000000E+00 -0.45593999997E+02  0.45594000000E+02  0.51100000000E-03 0. -1.
    9900012    2    1    2    0    0  0.18601503023E+01  0.34701750494E+01 -0.31642019772E+02  0.59301957767E+02  0.50000025058E+02 0.  0.
        -12    1    1    2    0    0 -0.18601503023E+01 -0.34701750494E+01  0.31642019772E+02  0.31886042233E+02  0.00000000000E+00 0.  1.
         11    1    3    3    0    0  0.12718588686E+02  0.51834387664E+01 -0.34551289696E+02  0.37180938066E+02  0.51100000000E-03 0. -1.
        -11    1    3    3    0    0  0.12815164094E+01  0.67212664730E+01  0.26463359856E+01  0.73362661973E+01  0.51100000000E-03 0.  1.
         12    1    3    3    0    0 -0.12139954793E+02 -0.84345301899E+01  0.26293393809E+00  0.14784753504E+02  0.00000000000E+00 0. -1.
</event>
<event>
 7    1  0.6293596E-013  0.5930188E+02  0.7816164E-02  0.1266605E+00
        -11   -1    0    0    0    0  0.00000000000E+00  0.00000000000E+00  0.45593999997E+02  0.45594000000E+02  0.51100000000E-03 0. -1.
         11   -1    0    0    0    0 -0.00000000000E+00 -0.00000000000E+00 -0.45593999997E+02  0.45594000000E+02  0.51100000000E-03 0.  1.
    9900012    2    1    2    0    0  0.90167112368E+01 -0.16962124455E+02  0.25450141893E+02  0.59301882803E+02  0.49999888340E+02 0.  0.
        -12    1    1    2    0    0 -0.90167112368E+01  0.16962124455E+02 -0.25450141893E+02  0.31886117197E+02  0.00000000000E+00 0.  1.
         11    1    3    3    0    0  0.26385006172E+02 -0.29712854518E+01  0.17359107258E+02  0.31722794533E+02  0.51100000000E-03 0. -1.
        -11    1    3    3    0    0 -0.11544932378E+02 -0.15735471303E+02  0.88935152481E+01  0.21447264032E+02  0.51100000000E-03 0.  1.
        -12    1    3    3    0    0 -0.58233625577E+01  0.17446322995E+01 -0.80248061361E+00  0.61318242370E+01  0.00000000000E+00 0.  1.
</event>
<event>
 7    1  0.6293596E-013  0.5930199E+02  0.7816164E-02  0.1266605E+00
        -11   -1    0    0    0    0  0.00000000000E+00  0.00000000000E+00  0.45593999997E+02  0.45594000000E+02  0.51100000000E-03 0.  1.
         11   -1    0    0    0    0 -0.00000000000E+00 -0.00000000000E+00 -0.45593999997E+02  0.45594000000E+02  0.51100000000E-03 0. -1.
    9900012    2    1    2    0    0  0.79281792923E+01 -0.16730110263E+02 -0.25960832146E+02  0.59301993320E+02  0.50000089897E+02 0.  0.
        -12    1    1    2    0    0 -0.79281792923E+01  0.16730110263E+02  0.25960832146E+02  0.31886006680E+02  0.00000000000E+00 0.  1.
         11    1    3    3    0    0 -0.50619287689E+00 -0.14850965912E+02 -0.30687705141E+02  0.34096079933E+02  0.51100000000E-03 0. -1.
        -11    1    3    3    0    0  0.69774226273E+01  0.10099670486E+02  0.82099570228E-01  0.12275769265E+02  0.51100000000E-03 0.  1.
         12    1    3    3    0    0  0.14569495419E+01 -0.11978814836E+02  0.46447734246E+01  0.12930144122E+02  0.00000000000E+00 0. -1.
</event>
<event>
 7    1  0.6293596E-013  0.5930191E+02  0.7816164E-02  0.1266605E+00
        -11   -1    0    0    0    0  0.00000000000E+00  0.00000000000E+00  0.45593999997E+02  0.45594000000E+02  0.51100000000E-03 0.  1.
         11   -1    0    0    0    0 -0.00000000000E+00 -0.00000000000E+00 -0.45593999997E+02  0.45594000000E+02  0.51100000000E-03 0. -1.
    9900012    2    1    2    0    0 -0.98253949392E+01  0.29458393069E+02 -0.72378972915E+01  0.59301914239E+02  0.49999945673E+02 0.  0.
        -12    1    1    2    0    0  0.98253949392E+01 -0.29458393069E+02  0.72378972915E+01  0.31886085761E+02  0.00000000000E+00 0.  1.
         11    1    3    3    0    0 -0.20094538766E+02  0.28901710908E+02 -0.12414297107E+02  0.37325784044E+02  0.51100000000E-03 0. -1.
        -11    1    3    3    0    0  0.92969071014E+00 -0.23513842505E+01  0.10527160498E+02  0.10826561833E+02  0.51100000000E-03 0.  1.
         12    1    3    3    0    0  0.93394531164E+01  0.29080664120E+01 -0.53507606825E+01  0.11149568362E+02  0.00000000000E+00 0. -1.
</event>
<event>
 7    1  0.6293596E-013  0.5930187E+02  0.7816164E-02  0.1266605E+00
        -11   -1    0    0    0    0  0.00000000000E+00  0.00000000000E+00  0.45593999997E+02  0.45594000000E+02  0.51100000000E-03 0. -1.
         11   -1    0    0    0    0 -0.00000000000E+00 -0.00000000000E+00 -0.45593999997E+02  0.45594000000E+02  0.51100000000E-03 0.  1.
    9900012    2    1    2    0    0  0.21308427286E+02  0.53333417099E+01  0.23113449725E+02  0.59301871898E+02  0.49999868452E+02 0.  0.
        -12    1    1    2    0    0 -0.21308427286E+02 -0.53333417099E+01 -0.23113449725E+02  0.31886128102E+02  0.00000000000E+00 0.  1.
         11    1    3    3    0    0  0.24779915032E+02 -0.73025256557E+01 -0.10825314470E+01  0.25856197411E+02  0.51100000000E-03 0. -1.
        -11    1    3    3    0    0 -0.91402303591E+01  0.12105695744E+02  0.23119293467E+02  0.27651282269E+02  0.51100000000E-03 0.  1.
        -12    1    3    3    0    0  0.56687426126E+01  0.53017162150E+00  0.10766877046E+01  0.57943922174E+01  0.00000000000E+00 0.  1.
</event>
<event>
 7    1  0.6293596E-013  0.5930194E+02  0.7816164E-02  0.1266605E+00
        -11   -1    0    0    0    0  0.00000000000E+00  0.00000000000E+00  0.45593999997E+02  0.45594000000E+02  0.51100000000E-03 0.  1.
         11   -1    0    0    0    0 -0.00000000000E+00 -0.00000000000E+00 -0.45593999997E+02  0.45594000000E+02  0.51100000000E-03 0. -1.
    9900012    2    1    2    0    0 -0.44176023855E+01 -0.29390518690E+02  0.11550023952E+02  0.59301939519E+02  0.49999991778E+02 0.  0.
        -12    1    1    2    0    0  0.44176023855E+01  0.29390518690E+02 -0.11550023952E+02  0.31886060481E+02  0.00000000000E+00 0.  1.
         11    1    3    3    0    0 -0.60503749418E+01 -0.29243967026E+02 -0.48066829492E+01  0.30247658514E+02  0.51100000000E-03 0. -1.
        -11    1    3    3    0    0  0.11706300116E+02  0.21563398441E+00  0.25892636029E+01  0.11991173699E+02  0.51100000000E-03 0.  1.
         12    1    3    3    0    0 -0.10073527560E+02 -0.36218564783E+00  0.13767443299E+02  0.17063107306E+02  0.00000000000E+00 0. -1.
</event>
<event>
 7    1  0.6293596E-013  0.5930195E+02  0.7816164E-02  0.1266605E+00
        -11   -1    0    0    0    0  0.00000000000E+00  0.00000000000E+00  0.45593999997E+02  0.45594000000E+02  0.51100000000E-03 0.  1.
         11   -1    0    0    0    0 -0.00000000000E+00 -0.00000000000E+00 -0.45593999997E+02  0.45594000000E+02  0.51100000000E-03 0. -1.
    9900012    2    1    2    0    0 -0.25720734552E+02  0.17594768549E+02  0.67519123757E+01  0.59301946828E+02  0.50000005107E+02 0.  0.
        -12    1    1    2    0    0  0.25720734552E+02 -0.17594768549E+02 -0.67519123757E+01  0.31886053172E+02  0.00000000000E+00 0.  1.
         11    1    3    3    0    0 -0.18383042589E+02  0.13002512403E+02  0.17173237405E+02  0.28318221463E+02  0.51100000000E-03 0. -1.
        -11    1    3    3    0    0  0.27538809832E+00  0.70647119513E+01 -0.18381896437E+02  0.19694672133E+02  0.51100000000E-03 0.  1.
        -12    1    3    3    0    0 -0.76130800609E+01 -0.24724558060E+01  0.79605714077E+01  0.11289053232E+02  0.00000000000E+00 0.  1.
</event>
<event>
 7    1  0.6293596E-013  0.5930193E+02  0.7816164E-02  0.1266605E+00
        -11   -1    0    0    0    0  0.00000000000E+00  0.00000000000E+00  0.45593999997E+02  0.45594000000E+02  0.51100000000E-03 0. -1.
         11   -1    0    0    0    0 -0.00000000000E+00 -0.00000000000E+00 -0.45593999997E+02  0.45594000000E+02  0.51100000000E-03 0.  1.
    9900012    2    1    2    0    0  0.88503369113E+01 -0.27227534249E+02  0.14037599187E+02  0.59301932892E+02  0.49999979690E+02 0.  0.
        -12    1    1    2    0    0 -0.88503369113E+01  0.27227534249E+02 -0.14037599187E+02  0.31886067108E+02  0.00000000000E+00 0.  1.
         11    1    3    3    0    0 -0.10632868919E+02 -0.23340732047E+02  0.24014543935E+02  0.35136106708E+02  0.51100000000E-03 0. -1.
        -11    1    3    3    0    0  0.90179160575E+01 -0.56270325930E+01 -0.18215425985E+01  0.10784448225E+02  0.51100000000E-03 0.  1.
         12    1    3    3    0    0  0.10465289772E+02  0.17402303919E+01 -0.81554021494E+01  0.13381377958E+02  0.00000000000E+00 0. -1.
</event>
<event>
 7    1  0.6293596E-013  0.5930195E+02  0.7816164E-02  0.1266605E+00
        -11   -1    0    0    0    0  0.00000000000E+00  0.00000000000E+00  0.45593999997E+02  0.45594000000E+02  0.51100000000E-03 0.  1.
         11   -1    0    0    0    0 -0.00000000000E+00 -0.00000000000E+00 -0.45593999997E+02  0.45594000000E+02  0.51100000000E-03 0. -1.
    9900012    2    1    2    0    0  0.19382774301E+02 -0.11677940408E+02 -0.22464502223E+02  0.59301951453E+02  0.50000013543E+02 0.  0.
        -12    1    1    2    0    0 -0.19382774301E+02  0.11677940408E+02  0.22464502223E+02  0.31886048547E+02  0.00000000000E+00 0.  1.
         11    1    3    3    0    0 -0.14120952770E+02 -0.11035432851E+02 -0.64191328531E+01  0.19036474258E+02  0.51100000000E-03 0.  1.
        -11    1    3    3    0    0  0.18453930588E+02  0.73703342169E+01 -0.81898710108E+01  0.21492867841E+02  0.51100000000E-03 0. -1.
        -12    1    3    3    0    0  0.15049796483E+02 -0.80128417735E+01 -0.78554983591E+01  0.18772609354E+02  0.00000000000E+00 0.  1.
</event>
<event>
 7    1  0.6293596E-013  0.5930190E+02  0.7816164E-02  0.1266605E+00
        -11   -1    0    0    0    0  0.00000000000E+00  0.00000000000E+00  0.45593999997E+02  0.45594000000E+02  0.51100000000E-03 0.  1.
         11   -1    0    0    0    0 -0.00000000000E+00 -0.00000000000E+00 -0.45593999997E+02  0.45594000000E+02  0.51100000000E-03 0. -1.
    9900012    2    1    2    0    0  0.20948186654E+02  0.24002555309E+02  0.13318740500E+01  0.59301904693E+02  0.49999928262E+02 0.  0.
        -12    1    1    2    0    0 -0.20948186654E+02 -0.24002555309E+02 -0.13318740500E+01  0.31886095307E+02  0.00000000000E+00 0.  1.
         11    1    3    3    0    0  0.10169864626E+02  0.84674384935E+01 -0.65225733423E+01  0.14753563109E+02  0.51100000000E-03 0. -1.
        -11    1    3    3    0    0  0.92000230092E+01 -0.11479669339E+02 -0.36281006574E+01  0.15152106987E+02  0.51100000000E-03 0.  1.
        -12    1    3    3    0    0  0.15782990191E+01  0.27014786155E+02  0.11482548050E+02  0.29396234597E+02  0.00000000000E+00 0.  1.
</event>
<event>
 7    1  0.6293596E-013  0.5930191E+02  0.7816164E-02  0.1266605E+00
        -11   -1    0    0    0    0  0.00000000000E+00  0.00000000000E+00  0.45593999997E+02  0.45594000000E+02  0.51100000000E-03 0.  1.
         11   -1    0    0    0    0 -0.00000000000E+00 -0.00000000000E+00 -0.45593999997E+02  0.45594000000E+02  0.51100000000E-03 0. -1.
    9900012    2    1    2    0    0 -0.25835733359E+02  0.17396304989E+02  0.68268749196E+01  0.59301909511E+02  0.49999937050E+02 0.  0.
        -12    1    1    2    0    0  0.25835733359E+02 -0.17396304989E+02 -0.68268749196E+01  0.31886090489E+02  0.00000000000E+00 0.  1.
         11    1    3    3    0    0 -0.22116835269E+02 -0.17040268652E+01 -0.13895779365E+02  0.26175385275E+02  0.51100000000E-03 0. -1.
        -11    1    3    3    0    0  0.31386483072E+01  0.61104452823E+01  0.16453352508E+02  0.17829791467E+02  0.51100000000E-03 0.  1.
         12    1    3    3    0    0 -0.68575463977E+01  0.12989886572E+02  0.42693017760E+01  0.15296732769E+02  0.00000000000E+00 0. -1.
</event>
<event>
 7    1  0.6293596E-013  0.5930190E+02  0.7816164E-02  0.1266605E+00
        -11   -1    0    0    0    0  0.00000000000E+00  0.00000000000E+00  0.45593999997E+02  0.45594000000E+02  0.51100000000E-03 0.  1.
         11   -1    0    0    0    0 -0.00000000000E+00 -0.00000000000E+00 -0.45593999997E+02  0.45594000000E+02  0.51100000000E-03 0. -1.
    9900012    2    1    2    0    0  0.19273930851E+02 -0.25374214925E+01 -0.25274508003E+02  0.59301895298E+02  0.49999911128E+02 0.  0.
        -12    1    1    2    0    0 -0.19273930851E+02  0.25374214925E+01  0.25274508003E+02  0.31886104702E+02  0.00000000000E+00 0.  1.
         11    1    3    3    0    0  0.20934559182E+01 -0.87514366807E+01  0.87423907743E+01  0.12545899664E+02  0.51100000000E-03 0.  1.
        -11    1    3    3    0    0  0.15366237681E+02 -0.31395414528E+01 -0.33759378346E+02  0.37224637105E+02  0.51100000000E-03 0. -1.
        -12    1    3    3    0    0  0.18142372520E+01  0.93535566411E+01 -0.25752043170E+00  0.95313585294E+01  0.00000000000E+00 0.  1.
</event>
<event>
 7    1  0.6293596E-013  0.5930194E+02  0.7816164E-02  0.1266605E+00
        -11   -1    0    0    0    0  0.00000000000E+00  0.00000000000E+00  0.45593999997E+02  0.45594000000E+02  0.51100000000E-03 0.  1.
         11   -1    0    0    0    0 -0.00000000000E+00 -0.00000000000E+00 -0.45593999997E+02  0.45594000000E+02  0.51100000000E-03 0. -1.
    9900012    2    1    2    0    0 -0.22906957641E+02 -0.17690634808E+02 -0.13380334360E+02  0.59301943238E+02  0.49999998559E+02 0.  0.
        -12    1    1    2    0    0  0.22906957641E+02  0.17690634808E+02  0.13380334360E+02  0.31886056762E+02  0.00000000000E+00 0.  1.
         11    1    3    3    0    0 -0.10398995934E+02 -0.80487535728E+01 -0.29831846498E+01  0.13484099578E+02  0.51100000000E-03 0. -1.
        -11    1    3    3    0    0 -0.14056916991E+02  0.88381701433E+01  0.90792708191E+01  0.18924675047E+02  0.51100000000E-03 0.  1.
        -12    1    3    3    0    0  0.15489552837E+01 -0.18480051378E+02 -0.19476420529E+02  0.26893168613E+02  0.00000000000E+00 0.  1.
</event>
<event>
 7    1  0.6293596E-013  0.5930194E+02  0.7816164E-02  0.1266605E+00
        -11   -1    0    0    0    0  0.00000000000E+00  0.00000000000E+00  0.45593999997E+02  0.45594000000E+02  0.51100000000E-03 0. -1.
         11   -1    0    0    0    0 -0.00000000000E+00 -0.00000000000E+00 -0.45593999997E+02  0.45594000000E+02  0.51100000000E-03 0.  1.
    9900012    2    1    2    0    0  0.15360613388E+02  0.43250641794E+01  0.27605549155E+02  0.59301937716E+02  0.49999988490E+02 0.  0.
        -12    1    1    2    0    0 -0.15360613388E+02 -0.43250641794E+01 -0.27605549155E+02  0.31886062284E+02  0.00000000000E+00 0.  1.
         11    1    3    3    0    0 -0.25289226838E+01 -0.14244686359E+02  0.10673564181E+02  0.17978640438E+02  0.51100000000E-03 0. -1.
        -11    1    3    3    0    0  0.10989084051E+01  0.19779525599E+02  0.13945432381E+02  0.24226273282E+02  0.51100000000E-03 0.  1.
        -12    1    3    3    0    0  0.16790627667E+02 -0.12097750601E+01  0.29865525931E+01  0.17097023997E+02  0.00000000000E+00 0.  1.
</event>
<event>
 7    1  0.6293596E-013  0.5930195E+02  0.7816164E-02  0.1266605E+00
        -11   -1    0    0    0    0  0.00000000000E+00  0.00000000000E+00  0.45593999997E+02  0.45594000000E+02  0.51100000000E-03 0.  1.
         11   -1    0    0    0    0 -0.00000000000E+00 -0.00000000000E+00 -0.45593999997E+02  0.45594000000E+02  0.51100000000E-03 0. -1.
    9900012    2    1    2    0    0  0.11851778217E+02  0.24455409956E+02 -0.16678989929E+02  0.59301946182E+02  0.50000003929E+02 0.  0.
        -12    1    1    2    0    0 -0.11851778217E+02 -0.24455409956E+02  0.16678989929E+02  0.31886053818E+02  0.00000000000E+00 0.  1.
         11    1    3    3    0    0 -0.14753763340E+02 -0.15878673623E+01 -0.79739182822E+01  0.16845718402E+02  0.51100000000E-03 0. -1.
        -11    1    3    3    0    0  0.23944828381E+02  0.24017004768E+02 -0.13590325718E+02  0.36535849211E+02  0.51100000000E-03 0.  1.
        -12    1    3    3    0    0  0.26607131756E+01  0.20262725507E+01  0.48852540716E+01  0.59203785687E+01  0.00000000000E+00 0.  1.
</event>
<event>
 7    1  0.6293596E-013  0.5930194E+02  0.7816164E-02  0.1266605E+00
        -11   -1    0    0    0    0  0.00000000000E+00  0.00000000000E+00  0.45593999997E+02  0.45594000000E+02  0.51100000000E-03 0.  1.
         11   -1    0    0    0    0 -0.00000000000E+00 -0.00000000000E+00 -0.45593999997E+02  0.45594000000E+02  0.51100000000E-03 0. -1.
    9900012    2    1    2    0    0 -0.19134296071E+02  0.16222020893E+02  0.19683637663E+02  0.59301939729E+02  0.49999992159E+02 0.  0.
        -12    1    1    2    0    0  0.19134296071E+02 -0.16222020893E+02 -0.19683637663E+02  0.31886060271E+02  0.00000000000E+00 0.  1.
         11    1    3    3    0    0 -0.32903760787E+02  0.95648154998E+01  0.19272889589E+02  0.39313959898E+02  0.51100000000E-03 0. -1.
        -11    1    3    3    0    0  0.40185764575E+01 -0.78787686625E+00  0.53717562724E+01  0.67546630125E+01  0.51100000000E-03 0.  1.
         12    1    3    3    0    0  0.97508882580E+01  0.74450822589E+01 -0.49610081987E+01  0.13233316818E+02  0.00000000000E+00 0. -1.
</event>
<event>
 7    1  0.6293596E-013  0.5930196E+02  0.7816164E-02  0.1266605E+00
        -11   -1    0    0    0    0  0.00000000000E+00  0.00000000000E+00  0.45593999997E+02  0.45594000000E+02  0.51100000000E-03 0. -1.
         11   -1    0    0    0    0 -0.00000000000E+00 -0.00000000000E+00 -0.45593999997E+02  0.45594000000E+02  0.51100000000E-03 0.  1.
    9900012    2    1    2    0    0  0.23574924037E+02 -0.12849747849E+02 -0.17199614072E+02  0.59301956229E+02  0.50000022252E+02 0.  0.
        -12    1    1    2    0    0 -0.23574924037E+02  0.12849747849E+02  0.17199614072E+02  0.31886043771E+02  0.00000000000E+00 0.  1.
         11    1    3    3    0    0  0.36030147713E+01  0.95085029583E+01  0.10414179097E+02  0.14555015303E+02  0.51100000000E-03 0. -1.
        -11    1    3    3    0    0  0.17671598628E+02 -0.15011435826E+02 -0.94860582668E+01  0.25052223560E+02  0.51100000000E-03 0.  1.
        -12    1    3    3    0    0  0.23003106382E+01 -0.73468149815E+01 -0.18127734902E+02  0.19694717365E+02  0.00000000000E+00 0.  1.
</event>
<event>
 7    1  0.6293596E-013  0.5930195E+02  0.7816164E-02  0.1266605E+00
        -11   -1    0    0    0    0  0.00000000000E+00  0.00000000000E+00  0.45593999997E+02  0.45594000000E+02  0.51100000000E-03 0. -1.
         11   -1    0    0    0    0 -0.00000000000E+00 -0.00000000000E+00 -0.45593999997E+02  0.45594000000E+02  0.51100000000E-03 0.  1.
    9900012    2    1    2    0    0  0.18187461383E+02 -0.84120996336E+00  0.26176872657E+02  0.59301952144E+02  0.50000014803E+02 0.  0.
        -12    1    1    2    0    0 -0.18187461383E+02  0.84120996336E+00 -0.26176872657E+02  0.31886047856E+02  0.00000000000E+00 0.  1.
         11    1    3    3    0    0  0.14984780851E+02 -0.12807818313E+02  0.15205093960E+02  0.24895355986E+02  0.51100000000E-03 0. -1.
        -11    1    3    3    0    0 -0.56286095224E+01  0.18961127561E+02  0.17652489979E+01  0.19857535291E+02  0.51100000000E-03 0.  1.
        -12    1    3    3    0    0  0.88312900544E+01 -0.69945192113E+01  0.92065296990E+01  0.14549060867E+02  0.00000000000E+00 0.  1.
</event>
<event>
 7    1  0.6293596E-013  0.5930192E+02  0.7816164E-02  0.1266605E+00
        -11   -1    0    0    0    0  0.00000000000E+00  0.00000000000E+00  0.45593999997E+02  0.45594000000E+02  0.51100000000E-03 0.  1.
         11   -1    0    0    0    0 -0.00000000000E+00 -0.00000000000E+00 -0.45593999997E+02  0.45594000000E+02  0.51100000000E-03 0. -1.
    9900012    2    1    2    0    0  0.98440410741E+00 -0.24624127522E+02 -0.20233762296E+02  0.59301923974E+02  0.49999963427E+02 0.  0.
        -12    1    1    2    0    0 -0.98440410741E+00  0.24624127522E+02  0.20233762296E+02  0.31886076026E+02  0.00000000000E+00 0.  1.
         11    1    3    3    0    0 -0.10249341206E+01  0.52001313981E+01 -0.24811498972E+02  0.25371289641E+02  0.51100000000E-03 0. -1.
        -11    1    3    3    0    0  0.19575081667E+01 -0.26007405559E+02 -0.21772705151E+01  0.26171692519E+02  0.51100000000E-03 0.  1.
        -12    1    3    3    0    0  0.51830061348E-01 -0.38168533613E+01  0.67550071910E+01  0.77589418149E+01  0.00000000000E+00 0.  1.
</event>
<event>
 7    1  0.6293596E-013  0.5930196E+02  0.7816164E-02  0.1266605E+00
        -11   -1    0    0    0    0  0.00000000000E+00  0.00000000000E+00  0.45593999997E+02  0.45594000000E+02  0.51100000000E-03 0. -1.
         11   -1    0    0    0    0 -0.00000000000E+00 -0.00000000000E+00 -0.45593999997E+02  0.45594000000E+02  0.51100000000E-03 0.  1.
    9900012    2    1    2    0    0  0.25043573419E+02  0.44735675130E+01  0.19223063202E+02  0.59301960190E+02  0.50000029476E+02 0.  0.
        -12    1    1    2    0    0 -0.25043573419E+02 -0.44735675130E+01 -0.19223063202E+02  0.31886039810E+02  0.00000000000E+00 0.  1.
         11    1    3    3    0    0 -0.12914849781E+01  0.81694678956E+00  0.59989509073E+01  0.61905369521E+01  0.51100000000E-03 0. -1.
        -11    1    3    3    0    0  0.13664042524E+02 -0.14977602376E+02 -0.83393612683E+01  0.21922125300E+02  0.51100000000E-03 0.  1.
        -12    1    3    3    0    0  0.12671015874E+02  0.18634223100E+02  0.21563473563E+02  0.31189297938E+02  0.00000000000E+00 0.  1.
</event>
<event>
 7    1  0.6293596E-013  0.5930195E+02  0.7816164E-02  0.1266605E+00
        -11   -1    0    0    0    0  0.00000000000E+00  0.00000000000E+00  0.45593999997E+02  0.45594000000E+02  0.51100000000E-03 0. -1.
         11   -1    0    0    0    0 -0.00000000000E+00 -0.00000000000E+00 -0.45593999997E+02  0.45594000000E+02  0.51100000000E-03 0.  1.
    9900012    2    1    2    0    0 -0.88825395535E+01  0.28100372009E+02  0.12173325291E+02  0.59301948745E+02  0.50000008603E+02 0.  0.
        -12    1    1    2    0    0  0.88825395535E+01 -0.28100372009E+02 -0.12173325291E+02  0.31886051255E+02  0.00000000000E+00 0.  1.
         11    1    3    3    0    0 -0.84758763341E+01  0.12882850195E+02  0.91685847271E+01  0.17940770746E+02  0.51100000000E-03 0. -1.
        -11    1    3    3    0    0 -0.11581695118E+02 -0.11513259366E+01 -0.11836917180E+02  0.16600416314E+02  0.51100000000E-03 0.  1.
        -12    1    3    3    0    0  0.11175031899E+02  0.16368847751E+02  0.14841657745E+02  0.24760761685E+02  0.00000000000E+00 0.  1.
</event>
<event>
 7    1  0.6293596E-013  0.5930193E+02  0.7816164E-02  0.1266605E+00
        -11   -1    0    0    0    0  0.00000000000E+00  0.00000000000E+00  0.45593999997E+02  0.45594000000E+02  0.51100000000E-03 0. -1.
         11   -1    0    0    0    0 -0.00000000000E+00 -0.00000000000E+00 -0.45593999997E+02  0.45594000000E+02  0.51100000000E-03 0.  1.
    9900012    2    1    2    0    0  0.30593970815E+02 -0.78144639860E+01 -0.44344575215E+01  0.59301932335E+02  0.49999978676E+02 0.  0.
        -12    1    1    2    0    0 -0.30593970815E+02  0.78144639860E+01  0.44344575215E+01  0.31886067665E+02  0.00000000000E+00 0.  1.
         11    1    3    3    0    0  0.65051935377E+01 -0.20827724996E+02 -0.62643442028E+01  0.22701402600E+02  0.51100000000E-03 0.  1.
        -11    1    3    3    0    0  0.22671908823E+02  0.22603525808E+01  0.79690155075E+01  0.24137726734E+02  0.51100000000E-03 0. -1.
         12    1    3    3    0    0  0.14168684547E+01  0.10752908429E+02 -0.61391288262E+01  0.12462803001E+02  0.00000000000E+00 0. -1.
</event>
<event>
 7    1  0.1053299E-012  0.5930193E+02  0.7816164E-02  0.1266605E+00
        -11   -1    0    0    0    0  0.00000000000E+00  0.00000000000E+00  0.45593999997E+02  0.45594000000E+02  0.51100000000E-03 0.  1.
         11   -1    0    0    0    0 -0.00000000000E+00 -0.00000000000E+00 -0.45593999997E+02  0.45594000000E+02  0.51100000000E-03 0. -1.
    9900012    2    1    2    0    0 -0.22816081960E+02 -0.69585623831E+01 -0.21159550352E+02  0.59301925335E+02  0.49999965909E+02 0.  0.
        -12    1    1    2    0    0  0.22816081960E+02  0.69585623831E+01  0.21159550352E+02  0.31886074665E+02  0.00000000000E+00 0.  1.
         11    1    3    3    0    0 -0.20371648229E+01 -0.14019977511E+02 -0.19875423320E+02  0.24407831988E+02  0.51100000000E-03 0. -1.
        -11    1    3    3    0    0 -0.29123229712E+01  0.34442887637E+01  0.11682995935E+02  0.12523463757E+02  0.51100000000E-03 0.  1.
         12    1    3    3    0    0 -0.17866594166E+02  0.36171263641E+01 -0.12967122967E+02  0.22370629590E+02  0.00000000000E+00 0. -1.
</event>
<event>
 7    1  0.6293596E-013  0.5930195E+02  0.7816164E-02  0.1266605E+00
        -11   -1    0    0    0    0  0.00000000000E+00  0.00000000000E+00  0.45593999997E+02  0.45594000000E+02  0.51100000000E-03 0.  1.
         11   -1    0    0    0    0 -0.00000000000E+00 -0.00000000000E+00 -0.45593999997E+02  0.45594000000E+02  0.51100000000E-03 0. -1.
    9900012    2    1    2    0    0  0.27739168863E+02  0.14860266936E+02 -0.51411207727E+01  0.59301950615E+02  0.50000012013E+02 0.  0.
        -12    1    1    2    0    0 -0.27739168863E+02 -0.14860266936E+02  0.51411207727E+01  0.31886049385E+02  0.00000000000E+00 0.  1.
         11    1    3    3    0    0  0.30904406105E+02  0.10592602646E+02 -0.14583077922E+02  0.35776412753E+02  0.51100000000E-03 0. -1.
        -11    1    3    3    0    0  0.65224154740E+00  0.11248075297E+02  0.10619430302E+02  0.15482794228E+02  0.51100000000E-03 0.  1.
         12    1    3    3    0    0 -0.38174787889E+01 -0.69804110073E+01 -0.11774731522E+01  0.80427436338E+01  0.00000000000E+00 0. -1.
</event>
<event>
 7    1  0.6293596E-013  0.5930191E+02  0.7816164E-02  0.1266605E+00
        -11   -1    0    0    0    0  0.00000000000E+00  0.00000000000E+00  0.45593999997E+02  0.45594000000E+02  0.51100000000E-03 0.  1.
         11   -1    0    0    0    0 -0.00000000000E+00 -0.00000000000E+00 -0.45593999997E+02  0.45594000000E+02  0.51100000000E-03 0. -1.
    9900012    2    1    2    0    0  0.19362791656E+02 -0.23569527294E+02  0.92888380625E+01  0.59301908516E+02  0.49999935235E+02 0.  0.
        -12    1    1    2    0    0 -0.19362791656E+02  0.23569527294E+02 -0.92888380625E+01  0.31886091484E+02  0.00000000000E+00 0.  1.
         11    1    3    3    0    0  0.19187143412E+02 -0.26175247799E+02 -0.37281711716E+01  0.32667863876E+02  0.51100000000E-03 0. -1.
        -11    1    3    3    0    0  0.40749185995E+01  0.95395182727E+01  0.15184022477E+02  0.18389179136E+02  0.51100000000E-03 0.  1.
         12    1    3    3    0    0 -0.38992703554E+01 -0.69337977672E+01 -0.21670132429E+01  0.82448655038E+01  0.00000000000E+00 0. -1.
</event>
<event>
 7    1  0.6293596E-013  0.5930198E+02  0.7816164E-02  0.1266605E+00
        -11   -1    0    0    0    0  0.00000000000E+00  0.00000000000E+00  0.45593999997E+02  0.45594000000E+02  0.51100000000E-03 0. -1.
         11   -1    0    0    0    0 -0.00000000000E+00 -0.00000000000E+00 -0.45593999997E+02  0.45594000000E+02  0.51100000000E-03 0.  1.
    9900012    2    1    2    0    0 -0.13827474368E+02 -0.22094979957E+02  0.18366576908E+02  0.59301979019E+02  0.50000063815E+02 0.  0.
        -12    1    1    2    0    0  0.13827474368E+02  0.22094979957E+02 -0.18366576908E+02  0.31886020981E+02  0.00000000000E+00 0.  1.
         11    1    3    3    0    0 -0.12596948332E+02 -0.36891460273E+00  0.92645136164E+01  0.15641304871E+02  0.51100000000E-03 0. -1.
        -11    1    3    3    0    0  0.14160066652E+02 -0.21392784028E+01 -0.48372753427E+01  0.15115661834E+02  0.51100000000E-03 0.  1.
        -12    1    3    3    0    0 -0.15390592688E+02 -0.19586786952E+02  0.13939338634E+02  0.28545012313E+02  0.00000000000E+00 0.  1.
</event>
<event>
 7    1  0.6293596E-013  0.5930195E+02  0.7816164E-02  0.1266605E+00
        -11   -1    0    0    0    0  0.00000000000E+00  0.00000000000E+00  0.45593999997E+02  0.45594000000E+02  0.51100000000E-03 0.  1.
         11   -1    0    0    0    0 -0.00000000000E+00 -0.00000000000E+00 -0.45593999997E+02  0.45594000000E+02  0.51100000000E-03 0. -1.
    9900012    2    1    2    0    0 -0.24828369773E+02 -0.15876893610E+02  0.12173601000E+02  0.59301948856E+02  0.50000008805E+02 0.  0.
        -12    1    1    2    0    0  0.24828369773E+02  0.15876893610E+02 -0.12173601000E+02  0.31886051144E+02  0.00000000000E+00 0.  1.
         11    1    3    3    0    0 -0.20416966623E+02 -0.13676378360E+02 -0.11411515035E+02  0.27094621732E+02  0.51100000000E-03 0. -1.
        -11    1    3    3    0    0  0.13282053570E+01  0.90985569487E+01  0.87078086942E+01  0.12663877784E+02  0.51100000000E-03 0.  1.
        -12    1    3    3    0    0 -0.57396085067E+01 -0.11299072199E+02  0.14877307341E+02  0.19543449339E+02  0.00000000000E+00 0.  1.
</event>
<event>
 7    1  0.6293596E-013  0.5930186E+02  0.7816164E-02  0.1266605E+00
        -11   -1    0    0    0    0  0.00000000000E+00  0.00000000000E+00  0.45593999997E+02  0.45594000000E+02  0.51100000000E-03 0. -1.
         11   -1    0    0    0    0 -0.00000000000E+00 -0.00000000000E+00 -0.45593999997E+02  0.45594000000E+02  0.51100000000E-03 0.  1.
    9900012    2    1    2    0    0  0.12813040304E+02  0.28479741416E+02  0.64386344426E+01  0.59301863727E+02  0.49999853550E+02 0.  0.
        -12    1    1    2    0    0 -0.12813040304E+02 -0.28479741416E+02 -0.64386344426E+01  0.31886136273E+02  0.00000000000E+00 0.  1.
         11    1    3    3    0    0 -0.79755612423E+01  0.10216001493E+02  0.20811730976E+02  0.24517430741E+02  0.51100000000E-03 0. -1.
        -11    1    3    3    0    0  0.10292002742E+02  0.88560089197E+01 -0.15545565190E+02  0.20640223152E+02  0.51100000000E-03 0.  1.
         12    1    3    3    0    0  0.10496598804E+02  0.94077310031E+01  0.11724686560E+01  0.14144209834E+02  0.00000000000E+00 0. -1.
</event>
<event>
 7    1  0.6293596E-013  0.5930197E+02  0.7816164E-02  0.1266605E+00
        -11   -1    0    0    0    0  0.00000000000E+00  0.00000000000E+00  0.45593999997E+02  0.45594000000E+02  0.51100000000E-03 0. -1.
         11   -1    0    0    0    0 -0.00000000000E+00 -0.00000000000E+00 -0.45593999997E+02  0.45594000000E+02  0.51100000000E-03 0.  1.
    9900012    2    1    2    0    0 -0.26020100166E+02  0.15061704940E+02  0.10621593709E+02  0.59301971378E+02  0.50000049881E+02 0.  0.
        -12    1    1    2    0    0  0.26020100166E+02 -0.15061704940E+02 -0.10621593709E+02  0.31886028622E+02  0.00000000000E+00 0.  1.
         11    1    3    3    0    0 -0.27307754549E+02  0.84898570592E+01  0.15434920125E+02  0.32496582757E+02  0.51100000000E-03 0. -1.
        -11    1    3    3    0    0  0.10118907515E+02 -0.33482311508E+01 -0.77808405701E+01  0.13196379101E+02  0.51100000000E-03 0.  1.
         12    1    3    3    0    0 -0.88312531320E+01  0.99200790314E+01  0.29675141545E+01  0.13609009520E+02  0.00000000000E+00 0. -1.
</event>
<event>
 7    1  0.6293596E-013  0.5930187E+02  0.7816164E-02  0.1266605E+00
        -11   -1    0    0    0    0  0.00000000000E+00  0.00000000000E+00  0.45593999997E+02  0.45594000000E+02  0.51100000000E-03 0. -1.
         11   -1    0    0    0    0 -0.00000000000E+00 -0.00000000000E+00 -0.45593999997E+02  0.45594000000E+02  0.51100000000E-03 0.  1.
    9900012    2    1    2    0    0 -0.13423018145E+02  0.43620369796E+01  0.28592320846E+02  0.59301865175E+02  0.49999856191E+02 0.  0.
        -12    1    1    2    0    0  0.13423018145E+02 -0.43620369796E+01 -0.28592320846E+02  0.31886134825E+02  0.00000000000E+00 0.  1.
         11    1    3    3    0    0  0.11858379922E+02  0.16260582392E-01  0.17966370391E+02  0.21527004066E+02  0.51100000000E-03 0.  1.
        -11    1    3    3    0    0 -0.22144413795E+02  0.73971563003E+01  0.17808683538E+02  0.29363960790E+02  0.51100000000E-03 0. -1.
        -12    1    3    3    0    0 -0.31369842718E+01 -0.30513799030E+01 -0.71827330825E+01  0.84109003185E+01  0.00000000000E+00 0.  1.
</event>
<event>
 7    1  0.6293596E-013  0.5930201E+02  0.7816164E-02  0.1266605E+00
        -11   -1    0    0    0    0  0.00000000000E+00  0.00000000000E+00  0.45593999997E+02  0.45594000000E+02  0.51100000000E-03 0. -1.
         11   -1    0    0    0    0 -0.00000000000E+00 -0.00000000000E+00 -0.45593999997E+02  0.45594000000E+02  0.51100000000E-03 0.  1.
    9900012    2    1    2    0    0 -0.19373363640E+02  0.19356777615E+02  0.16331090292E+02  0.59302006704E+02  0.50000114306E+02 0.  0.
        -12    1    1    2    0    0  0.19373363640E+02 -0.19356777615E+02 -0.16331090292E+02  0.31885993296E+02  0.00000000000E+00 0.  1.
         11    1    3    3    0    0 -0.35489886301E+01  0.83070523431E+01  0.29849144472E+02  0.31186116541E+02  0.51100000000E-03 0. -1.
        -11    1    3    3    0    0 -0.17827764198E+02  0.77576181488E+01 -0.72347698644E+01  0.20744920122E+02  0.51100000000E-03 0.  1.
         12    1    3    3    0    0  0.20033891875E+01  0.32921071231E+01 -0.62832843156E+01  0.73709700404E+01  0.00000000000E+00 0. -1.
</event>
<event>
 7    1  0.6293596E-013  0.5930190E+02  0.7816164E-02  0.1266605E+00
        -11   -1    0    0    0    0  0.00000000000E+00  0.00000000000E+00  0.45593999997E+02  0.45594000000E+02  0.51100000000E-03 0.  1.
         11   -1    0    0    0    0 -0.00000000000E+00 -0.00000000000E+00 -0.45593999997E+02  0.45594000000E+02  0.51100000000E-03 0. -1.
    9900012    2    1    2    0    0 -0.25316796421E+02  0.19070603140E+02 -0.34778555238E+01  0.59301897005E+02  0.49999914241E+02 0.  0.
        -12    1    1    2    0    0  0.25316796421E+02 -0.19070603140E+02  0.34778555238E+01  0.31886102995E+02  0.00000000000E+00 0.  1.
         11    1    3    3    0    0 -0.71680136552E+01  0.18703535809E+02  0.17102193472E+02  0.26337951578E+02  0.51100000000E-03 0. -1.
        -11    1    3    3    0    0 -0.86348832012E+01 -0.27023863721E+01 -0.21095413193E+02  0.22953878932E+02  0.51100000000E-03 0.  1.
         12    1    3    3    0    0 -0.95138995650E+01  0.30694537037E+01  0.51536419683E+00  0.10010066495E+02  0.00000000000E+00 0. -1.
</event>
<event>
 7    1  0.6293596E-013  0.5930192E+02  0.7816164E-02  0.1266605E+00
        -11   -1    0    0    0    0  0.00000000000E+00  0.00000000000E+00  0.45593999997E+02  0.45594000000E+02  0.51100000000E-03 0.  1.
         11   -1    0    0    0    0 -0.00000000000E+00 -0.00000000000E+00 -0.45593999997E+02  0.45594000000E+02  0.51100000000E-03 0. -1.
    9900012    2    1    2    0    0  0.26654447246E+02  0.12166417885E+00 -0.17499941091E+02  0.59301916855E+02  0.49999950443E+02 0.  0.
        -12    1    1    2    0    0 -0.26654447246E+02 -0.12166417885E+00  0.17499941091E+02  0.31886083145E+02  0.00000000000E+00 0.  1.
         11    1    3    3    0    0  0.41318329962E+01  0.11680401125E+01 -0.48886082203E+01  0.65065238189E+01  0.51100000000E-03 0. -1.
        -11    1    3    3    0    0  0.15304658913E+02 -0.14034462334E+02  0.12046456159E+02  0.24006578759E+02  0.51100000000E-03 0.  1.
        -12    1    3    3    0    0  0.72179553361E+01  0.12988086401E+02 -0.24657789030E+02  0.28788814277E+02  0.00000000000E+00 0.  1.
</event>
<event>
 7    1  0.6293596E-013  0.5930194E+02  0.7816164E-02  0.1266605E+00
        -11   -1    0    0    0    0  0.00000000000E+00  0.00000000000E+00  0.45593999997E+02  0.45594000000E+02  0.51100000000E-03 0. -1.
         11   -1    0    0    0    0 -0.00000000000E+00 -0.00000000000E+00 -0.45593999997E+02  0.45594000000E+02  0.51100000000E-03 0.  1.
    9900012    2    1    2    0    0  0.11043361487E+02  0.88443339455E+01  0.28575208791E+02  0.59301942963E+02  0.49999998059E+02 0.  0.
        -12    1    1    2    0    0 -0.11043361487E+02 -0.88443339455E+01 -0.28575208791E+02  0.31886057037E+02  0.00000000000E+00 0.  1.
         11    1    3    3    0    0 -0.39553811188E+01  0.76602243116E+00 -0.53900990300E+00  0.40647708541E+01  0.51100000000E-03 0. -1.
        -11    1    3    3    0    0  0.20571027529E+02 -0.13074788871E+02  0.20039930908E+02  0.31554969635E+02  0.51100000000E-03 0.  1.
        -12    1    3    3    0    0 -0.55722849231E+01  0.21153100386E+02  0.90742877865E+01  0.23682202474E+02  0.00000000000E+00 0.  1.
</event>
<event>
 7    1  0.6293596E-013  0.5930193E+02  0.7816164E-02  0.1266605E+00
        -11   -1    0    0    0    0  0.00000000000E+00  0.00000000000E+00  0.45593999997E+02  0.45594000000E+02  0.51100000000E-03 0. -1.
         11   -1    0    0    0    0 -0.00000000000E+00 -0.00000000000E+00 -0.45593999997E+02  0.45594000000E+02  0.51100000000E-03 0.  1.
    9900012    2    1    2    0    0  0.22653378610E+02 -0.91398170085E+01  0.20494132570E+02  0.59301932711E+02  0.49999979361E+02 0.  0.
        -12    1    1    2    0    0 -0.22653378610E+02  0.91398170085E+01 -0.20494132570E+02  0.31886067289E+02  0.00000000000E+00 0.  1.
         11    1    3    3    0    0  0.27220740892E+01 -0.10617858413E+02  0.11975684347E+02  0.16234704200E+02  0.51100000000E-03 0. -1.
        -11    1    3    3    0    0  0.19114902110E+02 -0.20145559499E+01 -0.11720844300E+02  0.22512576701E+02  0.51100000000E-03 0.  1.
        -12    1    3    3    0    0  0.81640241035E+00  0.34925973548E+01  0.20239292523E+02  0.20554651809E+02  0.00000000000E+00 0.  1.
</event>
<event>
 7    1  0.6293596E-013  0.5930194E+02  0.7816164E-02  0.1266605E+00
        -11   -1    0    0    0    0  0.00000000000E+00  0.00000000000E+00  0.45593999997E+02  0.45594000000E+02  0.51100000000E-03 0.  1.
         11   -1    0    0    0    0 -0.00000000000E+00 -0.00000000000E+00 -0.45593999997E+02  0.45594000000E+02  0.51100000000E-03 0. -1.
    9900012    2    1    2    0    0 -0.14748616711E+02  0.38226300290E+00 -0.28267524670E+02  0.59301940807E+02  0.49999994126E+02 0.  0.
        -12    1    1    2    0    0  0.14748616711E+02 -0.38226300290E+00  0.28267524670E+02  0.31886059193E+02  0.00000000000E+00 0.  1.
         11    1    3    3    0    0 -0.89464949360E+01  0.18215283158E+02 -0.10808952957E+02  0.22992820107E+02  0.51100000000E-03 0. -1.
        -11    1    3    3    0    0  0.57168538193E+01 -0.85885468616E+01  0.33001833741E+01  0.10832209625E+02  0.51100000000E-03 0.  1.
         12    1    3    3    0    0 -0.11518975595E+02 -0.92444732934E+01 -0.20758755087E+02  0.25476911076E+02  0.00000000000E+00 0. -1.
</event>
<event>
 7    1  0.6293596E-013  0.5930192E+02  0.7816164E-02  0.1266605E+00
        -11   -1    0    0    0    0  0.00000000000E+00  0.00000000000E+00  0.45593999997E+02  0.45594000000E+02  0.51100000000E-03 0.  1.
         11   -1    0    0    0    0 -0.00000000000E+00 -0.00000000000E+00 -0.45593999997E+02  0.45594000000E+02  0.51100000000E-03 0. -1.
    9900012    2    1    2    0    0  0.12553156613E+02 -0.26333458328E+02 -0.12872027724E+02  0.59301923631E+02  0.49999962801E+02 0.  0.
        -12    1    1    2    0    0 -0.12553156613E+02  0.26333458328E+02  0.12872027724E+02  0.31886076369E+02  0.00000000000E+00 0.  1.
         11    1    3    3    0    0  0.22399418359E+01 -0.69188219226E+01  0.19287570278E+01  0.75237982534E+01  0.51100000000E-03 0. -1.
        -11    1    3    3    0    0  0.22162971067E+02  0.45197935600E+00 -0.17830045535E+02  0.28448411131E+02  0.51100000000E-03 0.  1.
        -12    1    3    3    0    0 -0.11849756289E+02 -0.19866615762E+02  0.30292607833E+01  0.23329714246E+02  0.00000000000E+00 0.  1.
</event>
<event>
 7    1  0.6293596E-013  0.5930194E+02  0.7816164E-02  0.1266605E+00
        -11   -1    0    0    0    0  0.00000000000E+00  0.00000000000E+00  0.45593999997E+02  0.45594000000E+02  0.51100000000E-03 0.  1.
         11   -1    0    0    0    0 -0.00000000000E+00 -0.00000000000E+00 -0.45593999997E+02  0.45594000000E+02  0.51100000000E-03 0. -1.
    9900012    2    1    2    0    0 -0.15936516116E+02  0.16671555030E+01 -0.27567533384E+02  0.59301939562E+02  0.49999991855E+02 0.  0.
        -12    1    1    2    0    0  0.15936516116E+02 -0.16671555030E+01  0.27567533384E+02  0.31886060438E+02  0.00000000000E+00 0.  1.
         11    1    3    3    0    0 -0.12440223314E+02  0.22521098086E+02 -0.18493322084E+02  0.31685359034E+02  0.51100000000E-03 0. -1.
        -11    1    3    3    0    0  0.32222267190E+01 -0.61504197178E+01  0.28738704971E+01  0.75146217223E+01  0.51100000000E-03 0.  1.
         12    1    3    3    0    0 -0.67185195210E+01 -0.14703522865E+02 -0.11948081797E+02  0.20101958806E+02  0.00000000000E+00 0. -1.
</event>
<event>
 7    1  0.6293596E-013  0.5930231E+02  0.7816164E-02  0.1266603E+00
        -11   -1    0    0    0    0  0.00000000000E+00  0.00000000000E+00  0.45593999997E+02  0.45594000000E+02  0.51100000000E-03 0.  1.
         11   -1    0    0    0    0 -0.00000000000E+00 -0.00000000000E+00 -0.45593999997E+02  0.45594000000E+02  0.51100000000E-03 0. -1.
    9900012    2    1    2    0    0  0.20209854830E+02 -0.22991353277E+02 -0.89250410206E+01  0.59302314890E+02  0.50000676359E+02 0.  0.
        -12    1    1    2    0    0 -0.20209854830E+02  0.22991353277E+02  0.89250410206E+01  0.31885685110E+02  0.00000000000E+00 0.  1.
         11    1    3    3    0    0  0.24847605317E+01 -0.17989781061E+02 -0.64454386166E+01  0.19270442049E+02  0.51100000000E-03 0. -1.
        -11    1    3    3    0    0 -0.32912316177E+01  0.12299696658E+02 -0.66528128815E+00  0.12749797759E+02  0.51100000000E-03 0.  1.
        -12    1    3    3    0    0  0.21016325916E+02 -0.17301268874E+02 -0.18143211158E+01  0.27282075081E+02  0.00000000000E+00 0.  1.
</event>
<event>
 7    1  0.6293596E-013  0.5930193E+02  0.7816164E-02  0.1266605E+00
        -11   -1    0    0    0    0  0.00000000000E+00  0.00000000000E+00  0.45593999997E+02  0.45594000000E+02  0.51100000000E-03 0.  1.
         11   -1    0    0    0    0 -0.00000000000E+00 -0.00000000000E+00 -0.45593999997E+02  0.45594000000E+02  0.51100000000E-03 0. -1.
    9900012    2    1    2    0    0 -0.20854454541E+02 -0.21609802064E+02 -0.10715850103E+02  0.59301933092E+02  0.49999980055E+02 0.  0.
        -12    1    1    2    0    0  0.20854454541E+02  0.21609802064E+02  0.10715850103E+02  0.31886066908E+02  0.00000000000E+00 0.  1.
         11    1    3    3    0    0 -0.10699973037E+02  0.70552131025E+01 -0.14025633476E+02  0.18999574984E+02  0.51100000000E-03 0. -1.
        -11    1    3    3    0    0 -0.45841442708E+00 -0.45246711751E+01  0.12033191473E+02  0.12863922043E+02  0.51100000000E-03 0.  1.
        -12    1    3    3    0    0 -0.96960670769E+01 -0.24140343991E+02 -0.87234081007E+01  0.27438436065E+02  0.00000000000E+00 0.  1.
</event>
<event>
 7    1  0.6293596E-013  0.5930196E+02  0.7816164E-02  0.1266605E+00
        -11   -1    0    0    0    0  0.00000000000E+00  0.00000000000E+00  0.45593999997E+02  0.45594000000E+02  0.51100000000E-03 0.  1.
         11   -1    0    0    0    0 -0.00000000000E+00 -0.00000000000E+00 -0.45593999997E+02  0.45594000000E+02  0.51100000000E-03 0. -1.
    9900012    2    1    2    0    0  0.28535305550E+01 -0.26478247389E+02  0.17535081963E+02  0.59301963544E+02  0.50000035592E+02 0.  0.
        -12    1    1    2    0    0 -0.28535305550E+01  0.26478247389E+02 -0.17535081963E+02  0.31886036456E+02  0.00000000000E+00 0.  1.
         11    1    3    3    0    0  0.11749274795E+02 -0.20315176103E+02  0.29183548189E+02  0.37449049700E+02  0.51100000000E-03 0. -1.
        -11    1    3    3    0    0 -0.19346919651E+01  0.45630080730E+01 -0.62411212157E+01  0.79696718856E+01  0.51100000000E-03 0.  1.
         12    1    3    3    0    0 -0.69610522744E+01 -0.10726079359E+02 -0.54073450102E+01  0.13883241957E+02  0.00000000000E+00 0. -1.
</event>
<event>
 7    1  0.6293596E-013  0.5930195E+02  0.7816164E-02  0.1266605E+00
        -11   -1    0    0    0    0  0.00000000000E+00  0.00000000000E+00  0.45593999997E+02  0.45594000000E+02  0.51100000000E-03 0.  1.
         11   -1    0    0    0    0 -0.00000000000E+00 -0.00000000000E+00 -0.45593999997E+02  0.45594000000E+02  0.51100000000E-03 0. -1.
    9900012    2    1    2    0    0  0.22391298956E+02  0.94515034728E+01 -0.20640223856E+02  0.59301952461E+02  0.50000015380E+02 0.  0.
        -12    1    1    2    0    0 -0.22391298956E+02 -0.94515034728E+01  0.20640223856E+02  0.31886047539E+02  0.00000000000E+00 0.  1.
         11    1    3    3    0    0 -0.57714965723E+01  0.23967615292E+01  0.54589937580E+01  0.82979064603E+01  0.51100000000E-03 0.  1.
        -11    1    3    3    0    0  0.26775425018E+02  0.53223773549E+01 -0.33536366996E+02  0.43242791274E+02  0.51100000000E-03 0. -1.
         12    1    3    3    0    0  0.13873705098E+01  0.17323645887E+01  0.74371493820E+01  0.77612547266E+01  0.00000000000E+00 0. -1.
</event>
<event>
 7    1  0.7292232E-013  0.5930193E+02  0.7816164E-02  0.1266605E+00
        -11   -1    0    0    0    0  0.00000000000E+00  0.00000000000E+00  0.45593999997E+02  0.45594000000E+02  0.51100000000E-03 0.  1.
         11   -1    0    0    0    0 -0.00000000000E+00 -0.00000000000E+00 -0.45593999997E+02  0.45594000000E+02  0.51100000000E-03 0. -1.
    9900012    2    1    2    0    0 -0.21299391930E+02 -0.22964054464E+02 -0.59757680097E+01  0.59301926280E+02  0.49999967632E+02 0.  0.
        -12    1    1    2    0    0  0.21299391930E+02  0.22964054464E+02  0.59757680097E+01  0.31886073720E+02  0.00000000000E+00 0.  1.
         11    1    3    3    0    0 -0.13312551361E+02 -0.30772114809E+02  0.18060474683E+01  0.33576909943E+02  0.51100000000E-03 0. -1.
        -11    1    3    3    0    0 -0.11178531234E+01  0.48577773704E+01  0.73304875756E+01  0.88647416738E+01  0.51100000000E-03 0.  1.
         12    1    3    3    0    0 -0.68689874449E+01  0.29502829751E+01 -0.15112303054E+02  0.16860274664E+02  0.00000000000E+00 0. -1.
</event>
<event>
 7    1  0.6293596E-013  0.5930194E+02  0.7816164E-02  0.1266605E+00
        -11   -1    0    0    0    0  0.00000000000E+00  0.00000000000E+00  0.45593999997E+02  0.45594000000E+02  0.51100000000E-03 0.  1.
         11   -1    0    0    0    0 -0.00000000000E+00 -0.00000000000E+00 -0.45593999997E+02  0.45594000000E+02  0.51100000000E-03 0. -1.
    9900012    2    1    2    0    0  0.28167829278E+02 -0.14923097751E+02  0.77145724968E+00  0.59301943502E+02  0.49999999041E+02 0.  0.
        -12    1    1    2    0    0 -0.28167829278E+02  0.14923097751E+02 -0.77145724968E+00  0.31886056498E+02  0.00000000000E+00 0.  1.
         11    1    3    3    0    0  0.18082647776E+02 -0.15767747072E+01  0.18430934142E+02  0.25868275990E+02  0.51100000000E-03 0. -1.
        -11    1    3    3    0    0 -0.78210090219E+00  0.49398721244E+01 -0.93365198340E+01  0.10591724189E+02  0.51100000000E-03 0.  1.
         12    1    3    3    0    0  0.10867282403E+02 -0.18286195168E+02 -0.83229570587E+01  0.22841943323E+02  0.00000000000E+00 0. -1.
</event>
<event>
 7    1  0.6293596E-013  0.5930194E+02  0.7816164E-02  0.1266605E+00
        -11   -1    0    0    0    0  0.00000000000E+00  0.00000000000E+00  0.45593999997E+02  0.45594000000E+02  0.51100000000E-03 0.  1.
         11   -1    0    0    0    0 -0.00000000000E+00 -0.00000000000E+00 -0.45593999997E+02  0.45594000000E+02  0.51100000000E-03 0. -1.
    9900012    2    1    2    0    0 -0.26524830515E+02 -0.69115700190E+01 -0.16290621090E+02  0.59301940829E+02  0.49999994166E+02 0.  0.
        -12    1    1    2    0    0  0.26524830515E+02  0.69115700190E+01  0.16290621090E+02  0.31886059171E+02  0.00000000000E+00 0.  1.
         11    1    3    3    0    0  0.71524118085E+01 -0.11981248804E+02 -0.10874287688E+02  0.17690603454E+02  0.51100000000E-03 0. -1.
        -11    1    3    3    0    0 -0.16575164634E+02 -0.92166716687E+01 -0.28965671461E+01  0.19185234447E+02  0.51100000000E-03 0.  1.
         12    1    3    3    0    0 -0.17102077689E+02  0.14286350453E+02 -0.25197662563E+01  0.22426102928E+02  0.00000000000E+00 0. -1.
</event>
<event>
 7    1  0.6293596E-013  0.5930198E+02  0.7816164E-02  0.1266605E+00
        -11   -1    0    0    0    0  0.00000000000E+00  0.00000000000E+00  0.45593999997E+02  0.45594000000E+02  0.51100000000E-03 0. -1.
         11   -1    0    0    0    0 -0.00000000000E+00 -0.00000000000E+00 -0.45593999997E+02  0.45594000000E+02  0.51100000000E-03 0.  1.
    9900012    2    1    2    0    0  0.29645059753E+02 -0.85791714218E+01  0.80178954678E+01  0.59301978019E+02  0.50000061992E+02 0.  0.
        -12    1    1    2    0    0 -0.29645059753E+02  0.85791714218E+01 -0.80178954678E+01  0.31886021981E+02  0.00000000000E+00 0.  1.
         11    1    3    3    0    0  0.32173784421E+01  0.54873543229E+01 -0.59151578343E+01  0.86862923029E+01  0.51100000000E-03 0. -1.
        -11    1    3    3    0    0  0.32973610311E+02 -0.29227484735E+01  0.17172104338E+02  0.37291857064E+02  0.51100000000E-03 0.  1.
        -12    1    3    3    0    0 -0.65459290002E+01 -0.11143777271E+02 -0.32390510359E+01  0.13323828652E+02  0.00000000000E+00 0.  1.
</event>
<event>
 7    1  0.6293596E-013  0.5930191E+02  0.7816164E-02  0.1266605E+00
        -11   -1    0    0    0    0  0.00000000000E+00  0.00000000000E+00  0.45593999997E+02  0.45594000000E+02  0.51100000000E-03 0.  1.
         11   -1    0    0    0    0 -0.00000000000E+00 -0.00000000000E+00 -0.45593999997E+02  0.45594000000E+02  0.51100000000E-03 0. -1.
    9900012    2    1    2    0    0 -0.18266691022E+02  0.44471640090E+01 -0.25754090955E+02  0.59301914170E+02  0.49999945547E+02 0.  0.
        -12    1    1    2    0    0  0.18266691022E+02 -0.44471640090E+01  0.25754090955E+02  0.31886085830E+02  0.00000000000E+00 0.  1.
         11    1    3    3    0    0  0.37203882115E+01 -0.38365159133E+00 -0.23613308693E+02  0.23907672925E+02  0.51100000000E-03 0. -1.
        -11    1    3    3    0    0 -0.19963996640E+02 -0.82603666155E+01  0.14969962820E+01  0.21657234740E+02  0.51100000000E-03 0.  1.
         12    1    3    3    0    0 -0.20230825938E+01  0.13091182216E+02 -0.36377785441E+01  0.13737006505E+02  0.00000000000E+00 0. -1.
</event>
<event>
 7    1  0.6293596E-013  0.5930195E+02  0.7816164E-02  0.1266605E+00
        -11   -1    0    0    0    0  0.00000000000E+00  0.00000000000E+00  0.45593999997E+02  0.45594000000E+02  0.51100000000E-03 0.  1.
         11   -1    0    0    0    0 -0.00000000000E+00 -0.00000000000E+00 -0.45593999997E+02  0.45594000000E+02  0.51100000000E-03 0. -1.
    9900012    2    1    2    0    0  0.63852494212E+01  0.21626808367E+02 -0.22543958065E+02  0.59301948260E+02  0.50000007718E+02 0.  0.
        -12    1    1    2    0    0 -0.63852494212E+01 -0.21626808367E+02  0.22543958065E+02  0.31886051740E+02  0.00000000000E+00 0.  1.
         11    1    3    3    0    0  0.12403594503E+02 -0.10368915006E+02 -0.68386478291E+01  0.17553650885E+02  0.51100000000E-03 0. -1.
        -11    1    3    3    0    0  0.26932939350E+01  0.24706338019E+02 -0.17295398219E+02  0.30278503437E+02  0.51100000000E-03 0.  1.
        -12    1    3    3    0    0 -0.87116390167E+01  0.72893853539E+01  0.15900879830E+01  0.11469793938E+02  0.00000000000E+00 0.  1.
</event>
<event>
 7    1  0.6293596E-013  0.5930192E+02  0.7816164E-02  0.1266605E+00
        -11   -1    0    0    0    0  0.00000000000E+00  0.00000000000E+00  0.45593999997E+02  0.45594000000E+02  0.51100000000E-03 0. -1.
         11   -1    0    0    0    0 -0.00000000000E+00 -0.00000000000E+00 -0.45593999997E+02  0.45594000000E+02  0.51100000000E-03 0.  1.
    9900012    2    1    2    0    0 -0.85992327364E+01  0.13182154224E+02  0.27730964286E+02  0.59301915670E+02  0.49999948282E+02 0.  0.
        -12    1    1    2    0    0  0.85992327364E+01 -0.13182154224E+02 -0.27730964286E+02  0.31886084330E+02  0.00000000000E+00 0.  1.
         11    1    3    3    0    0  0.97672923846E+01  0.23125434625E+02  0.22630840011E+02  0.33798530249E+02  0.51100000000E-03 0. -1.
        -11    1    3    3    0    0 -0.10695629484E+02 -0.12629322564E+02  0.52866062064E+01  0.17373672148E+02  0.51100000000E-03 0.  1.
         12    1    3    3    0    0 -0.76708956372E+01  0.26860421628E+01 -0.18648193131E+00  0.81297132722E+01  0.00000000000E+00 0. -1.
</event>
<event>
 7    1  0.6293596E-013  0.5930195E+02  0.7816164E-02  0.1266605E+00
        -11   -1    0    0    0    0  0.00000000000E+00  0.00000000000E+00  0.45593999997E+02  0.45594000000E+02  0.51100000000E-03 0.  1.
         11   -1    0    0    0    0 -0.00000000000E+00 -0.00000000000E+00 -0.45593999997E+02  0.45594000000E+02  0.51100000000E-03 0. -1.
    9900012    2    1    2    0    0 -0.32397452085E+01 -0.31124709151E+02 -0.61218167919E+01  0.59301951176E+02  0.50000013037E+02 0.  0.
        -12    1    1    2    0    0  0.32397452085E+01  0.31124709151E+02  0.61218167919E+01  0.31886048824E+02  0.00000000000E+00 0.  1.
         11    1    3    3    0    0 -0.22524199145E+02 -0.27369629934E+02 -0.54199354698E+00  0.35450387122E+02  0.51100000000E-03 0. -1.
        -11    1    3    3    0    0  0.15669459182E+01 -0.33271022282E+01  0.24247769510E+01  0.44050507682E+01  0.51100000000E-03 0.  1.
         12    1    3    3    0    0  0.17717508018E+02 -0.42797698948E+00 -0.80046001959E+01  0.19446513286E+02  0.00000000000E+00 0. -1.
</event>
<event>
 7    1  0.6293596E-013  0.5930192E+02  0.7816164E-02  0.1266605E+00
        -11   -1    0    0    0    0  0.00000000000E+00  0.00000000000E+00  0.45593999997E+02  0.45594000000E+02  0.51100000000E-03 0. -1.
         11   -1    0    0    0    0 -0.00000000000E+00 -0.00000000000E+00 -0.45593999997E+02  0.45594000000E+02  0.51100000000E-03 0.  1.
    9900012    2    1    2    0    0 -0.14395248382E+02  0.22797354323E+02  0.17022911789E+02  0.59301920500E+02  0.49999957090E+02 0.  0.
        -12    1    1    2    0    0  0.14395248382E+02 -0.22797354323E+02 -0.17022911789E+02  0.31886079500E+02  0.00000000000E+00 0.  1.
         11    1    3    3    0    0 -0.13679539623E+02  0.26258581450E+02  0.16694588877E+02  0.33990472225E+02  0.51100000000E-03 0. -1.
        -11    1    3    3    0    0 -0.28837272628E+01 -0.12087358246E+02  0.69359651746E+01  0.14231223611E+02  0.51100000000E-03 0.  1.
        -12    1    3    3    0    0  0.21680185034E+01  0.86261311193E+01 -0.66076422623E+01  0.11080224663E+02  0.00000000000E+00 0.  1.
</event>
<event>
 7    1  0.6293596E-013  0.5930194E+02  0.7816164E-02  0.1266605E+00
        -11   -1    0    0    0    0  0.00000000000E+00  0.00000000000E+00  0.45593999997E+02  0.45594000000E+02  0.51100000000E-03 0.  1.
         11   -1    0    0    0    0 -0.00000000000E+00 -0.00000000000E+00 -0.45593999997E+02  0.45594000000E+02  0.51100000000E-03 0. -1.
    9900012    2    1    2    0    0  0.26322899488E+02 -0.17800518227E+02 -0.26396174821E+01  0.59301936162E+02  0.49999985655E+02 0.  0.
        -12    1    1    2    0    0 -0.26322899488E+02  0.17800518227E+02  0.26396174821E+01  0.31886063838E+02  0.00000000000E+00 0.  1.
         11    1    3    3    0    0  0.21926275888E+02  0.64507499146E+00 -0.21942226829E+02  0.31026424457E+02  0.51100000000E-03 0. -1.
        -11    1    3    3    0    0  0.50853144018E+01 -0.17705758559E+02  0.19886921494E+02  0.27108005376E+02  0.51100000000E-03 0.  1.
         12    1    3    3    0    0 -0.68869080156E+00 -0.73983465987E+00 -0.58431214675E+00  0.11675063293E+01  0.00000000000E+00 0. -1.
</event>
<event>
 7    1  0.6293596E-013  0.5930196E+02  0.7816164E-02  0.1266605E+00
        -11   -1    0    0    0    0  0.00000000000E+00  0.00000000000E+00  0.45593999997E+02  0.45594000000E+02  0.51100000000E-03 0. -1.
         11   -1    0    0    0    0 -0.00000000000E+00 -0.00000000000E+00 -0.45593999997E+02  0.45594000000E+02  0.51100000000E-03 0.  1.
    9900012    2    1    2    0    0  0.31279107174E+02 -0.61916685365E+01  0.10780681001E-01  0.59301961973E+02  0.50000032728E+02 0.  0.
        -12    1    1    2    0    0 -0.31279107174E+02  0.61916685365E+01 -0.10780681001E-01  0.31886038027E+02  0.00000000000E+00 0.  1.
         11    1    3    3    0    0  0.25544444886E+02 -0.17029382128E+02  0.10885105081E+02  0.32573056858E+02  0.51100000000E-03 0. -1.
        -11    1    3    3    0    0  0.41405028708E+00  0.71111562646E+01 -0.16603834097E+02  0.18067298858E+02  0.51100000000E-03 0.  1.
         12    1    3    3    0    0  0.53206120009E+01  0.37265573274E+01  0.57295096972E+01  0.86616062569E+01  0.00000000000E+00 0. -1.
</event>
<event>
 7    1  0.6293596E-013  0.5930195E+02  0.7816164E-02  0.1266605E+00
        -11   -1    0    0    0    0  0.00000000000E+00  0.00000000000E+00  0.45593999997E+02  0.45594000000E+02  0.51100000000E-03 0.  1.
         11   -1    0    0    0    0 -0.00000000000E+00 -0.00000000000E+00 -0.45593999997E+02  0.45594000000E+02  0.51100000000E-03 0. -1.
    9900012    2    1    2    0    0  0.25721459681E+02  0.66971701712E+01  0.17614609962E+02  0.59301951945E+02  0.50000014439E+02 0.  0.
        -12    1    1    2    0    0 -0.25721459681E+02 -0.66971701712E+01 -0.17614609962E+02  0.31886048055E+02  0.00000000000E+00 0.  1.
         11    1    3    3    0    0  0.16899322055E+01 -0.33674219047E+01 -0.62588683121E+01  0.73053975904E+01  0.51100000000E-03 0. -1.
        -11    1    3    3    0    0  0.21348912875E+02  0.22443656628E+02  0.85863105661E+01  0.32143716854E+02  0.51100000000E-03 0.  1.
        -12    1    3    3    0    0  0.26826146011E+01 -0.12379064552E+02  0.15287167708E+02  0.19852837501E+02  0.00000000000E+00 0.  1.
</event>
<event>
 7    1  0.6293596E-013  0.5930194E+02  0.7816164E-02  0.1266605E+00
        -11   -1    0    0    0    0  0.00000000000E+00  0.00000000000E+00  0.45593999997E+02  0.45594000000E+02  0.51100000000E-03 0. -1.
         11   -1    0    0    0    0 -0.00000000000E+00 -0.00000000000E+00 -0.45593999997E+02  0.45594000000E+02  0.51100000000E-03 0.  1.
    9900012    2    1    2    0    0  0.15251865613E+02  0.20968824526E+02  0.18558274916E+02  0.59301943886E+02  0.49999999741E+02 0.  0.
        -12    1    1    2    0    0 -0.15251865613E+02 -0.20968824526E+02 -0.18558274916E+02  0.31886056114E+02  0.00000000000E+00 0.  1.
         11    1    3    3    0    0 -0.13278879754E+02  0.58719835339E+01  0.25251689096E+01  0.14737208570E+02  0.51100000000E-03 0. -1.
        -11    1    3    3    0    0  0.86008547728E+01  0.19369333070E+02  0.78293529489E+01  0.22593019592E+02  0.51100000000E-03 0.  1.
         12    1    3    3    0    0  0.19929890594E+02 -0.42724920782E+01  0.82037530573E+01  0.21971715724E+02  0.00000000000E+00 0. -1.
</event>
<event>
 7    1  0.6293596E-013  0.5930195E+02  0.7816164E-02  0.1266605E+00
        -11   -1    0    0    0    0  0.00000000000E+00  0.00000000000E+00  0.45593999997E+02  0.45594000000E+02  0.51100000000E-03 0.  1.
         11   -1    0    0    0    0 -0.00000000000E+00 -0.00000000000E+00 -0.45593999997E+02  0.45594000000E+02  0.51100000000E-03 0. -1.
    9900012    2    1    2    0    0 -0.27186326140E+02 -0.11437696879E+02 -0.12116224082E+02  0.59301950936E+02  0.50000012599E+02 0.  0.
        -12    1    1    2    0    0  0.27186326140E+02  0.11437696879E+02  0.12116224082E+02  0.31886049064E+02  0.00000000000E+00 0.  1.
         11    1    3    3    0    0 -0.19234122388E+02 -0.26063407674E+02 -0.10688757534E+02  0.34110148365E+02  0.51100000000E-03 0. -1.
        -11    1    3    3    0    0  0.46395851799E+01 -0.61929621547E-01  0.27581687184E+01  0.53978774402E+01  0.51100000000E-03 0.  1.
         12    1    3    3    0    0 -0.12591788932E+02  0.14687640416E+02 -0.41856352670E+01  0.19793925131E+02  0.00000000000E+00 0. -1.
</event>
<event>
 7    1  0.6293596E-013  0.5930193E+02  0.7816164E-02  0.1266605E+00
        -11   -1    0    0    0    0  0.00000000000E+00  0.00000000000E+00  0.45593999997E+02  0.45594000000E+02  0.51100000000E-03 0.  1.
         11   -1    0    0    0    0 -0.00000000000E+00 -0.00000000000E+00 -0.45593999997E+02  0.45594000000E+02  0.51100000000E-03 0. -1.
    9900012    2    1    2    0    0  0.13717712298E+02  0.19469453563E+02 -0.21201085039E+02  0.59301933144E+02  0.49999980151E+02 0.  0.
        -12    1    1    2    0    0 -0.13717712298E+02 -0.19469453563E+02  0.21201085039E+02  0.31886066856E+02  0.00000000000E+00 0.  1.
         11    1    3    3    0    0  0.11431674743E+02  0.95231331757E+01 -0.25026849174E+02  0.29115570280E+02  0.51100000000E-03 0. -1.
        -11    1    3    3    0    0 -0.87990247707E+00  0.14086715800E+02  0.13287053809E+02  0.19384416153E+02  0.51100000000E-03 0.  1.
         12    1    3    3    0    0  0.31659400320E+01 -0.41403954127E+01 -0.94612896736E+01  0.10801946711E+02  0.00000000000E+00 0. -1.
</event>
<event>
 7    1  0.6293596E-013  0.5930199E+02  0.7816164E-02  0.1266605E+00
        -11   -1    0    0    0    0  0.00000000000E+00  0.00000000000E+00  0.45593999997E+02  0.45594000000E+02  0.51100000000E-03 0.  1.
         11   -1    0    0    0    0 -0.00000000000E+00 -0.00000000000E+00 -0.45593999997E+02  0.45594000000E+02  0.51100000000E-03 0. -1.
    9900012    2    1    2    0    0 -0.78702557920E+00 -0.99726321548E+01 -0.30276141679E+02  0.59301991213E+02  0.50000086055E+02 0.  0.
        -12    1    1    2    0    0  0.78702557920E+00  0.99726321548E+01  0.30276141679E+02  0.31886008787E+02  0.00000000000E+00 0.  1.
         11    1    3    3    0    0  0.67489080027E+01 -0.18834315318E+02 -0.26444103534E+02  0.33159761831E+02  0.51100000000E-03 0. -1.
        -11    1    3    3    0    0  0.25041402322E+01 -0.42552259375E+01  0.53198700016E+01  0.72580082100E+01  0.51100000000E-03 0.  1.
         12    1    3    3    0    0 -0.10040073814E+02  0.13116909101E+02 -0.91519081470E+01  0.18884221172E+02  0.00000000000E+00 0. -1.
</event>
<event>
 7    1  0.6293596E-013  0.5930195E+02  0.7816164E-02  0.1266605E+00
        -11   -1    0    0    0    0  0.00000000000E+00  0.00000000000E+00  0.45593999997E+02  0.45594000000E+02  0.51100000000E-03 0.  1.
         11   -1    0    0    0    0 -0.00000000000E+00 -0.00000000000E+00 -0.45593999997E+02  0.45594000000E+02  0.51100000000E-03 0. -1.
    9900012    2    1    2    0    0  0.28710549340E+02 -0.55612309353E+01  0.12708148879E+02  0.59301953195E+02  0.50000016720E+02 0.  0.
        -12    1    1    2    0    0 -0.28710549340E+02  0.55612309353E+01 -0.12708148879E+02  0.31886046805E+02  0.00000000000E+00 0.  1.
         11    1    3    3    0    0  0.20590351937E+02 -0.11350361144E+02 -0.33865736837E+01  0.23754203261E+02  0.51100000000E-03 0. -1.
        -11    1    3    3    0    0 -0.46027372194E+01 -0.40548592508E+01 -0.57575804296E+01  0.84128952282E+01  0.51100000000E-03 0.  1.
         12    1    3    3    0    0  0.12722934622E+02  0.98439894593E+01  0.21852302992E+02  0.27134854706E+02  0.00000000000E+00 0. -1.
</event>
<event>
 7    1  0.6293596E-013  0.5930195E+02  0.7816164E-02  0.1266605E+00
        -11   -1    0    0    0    0  0.00000000000E+00  0.00000000000E+00  0.45593999997E+02  0.45594000000E+02  0.51100000000E-03 0. -1.
         11   -1    0    0    0    0 -0.00000000000E+00 -0.00000000000E+00 -0.45593999997E+02  0.45594000000E+02  0.51100000000E-03 0.  1.
    9900012    2    1    2    0    0 -0.54486828687E+01 -0.31571839020E+01  0.31258030757E+02  0.59301945964E+02  0.50000003531E+02 0.  0.
        -12    1    1    2    0    0  0.54486828687E+01  0.31571839020E+01 -0.31258030757E+02  0.31886054036E+02  0.00000000000E+00 0.  1.
         11    1    3    3    0    0  0.12170901378E+02 -0.13772056298E+02  0.12164340225E+02  0.22040225689E+02  0.51100000000E-03 0. -1.
        -11    1    3    3    0    0 -0.20202776214E+01  0.13806103980E+02  0.15657943503E+02  0.20972868755E+02  0.51100000000E-03 0.  1.
         12    1    3    3    0    0 -0.15599306626E+02 -0.31912315841E+01  0.34357470285E+01  0.16288851521E+02  0.00000000000E+00 0. -1.
</event>
<event>
 7    1  0.6293596E-013  0.5930195E+02  0.7816164E-02  0.1266605E+00
        -11   -1    0    0    0    0  0.00000000000E+00  0.00000000000E+00  0.45593999997E+02  0.45594000000E+02  0.51100000000E-03 0.  1.
         11   -1    0    0    0    0 -0.00000000000E+00 -0.00000000000E+00 -0.45593999997E+02  0.45594000000E+02  0.51100000000E-03 0. -1.
    9900012    2    1    2    0    0 -0.22374722705E+02  0.22629251483E+02  0.20022402440E+01  0.59301949683E+02  0.50000010313E+02 0.  0.
        -12    1    1    2    0    0  0.22374722705E+02 -0.22629251483E+02 -0.20022402440E+01  0.31886050317E+02  0.00000000000E+00 0.  1.
         11    1    3    3    0    0 -0.24502799775E+02 -0.38455982244E+01 -0.11907102387E+02  0.27512813561E+02  0.51100000000E-03 0. -1.
        -11    1    3    3    0    0 -0.18968734540E+01  0.10642262529E+02  0.10562474771E+02  0.15113628095E+02  0.51100000000E-03 0.  1.
         12    1    3    3    0    0  0.40249505238E+01  0.15832587179E+02  0.33468678597E+01  0.16675508027E+02  0.00000000000E+00 0. -1.
</event>
<event>
 7    1  0.6293596E-013  0.5930196E+02  0.7816164E-02  0.1266605E+00
        -11   -1    0    0    0    0  0.00000000000E+00  0.00000000000E+00  0.45593999997E+02  0.45594000000E+02  0.51100000000E-03 0.  1.
         11   -1    0    0    0    0 -0.00000000000E+00 -0.00000000000E+00 -0.45593999997E+02  0.45594000000E+02  0.51100000000E-03 0. -1.
    9900012    2    1    2    0    0  0.18487546514E+02 -0.83313592957E+01 -0.24607293421E+02  0.59301955822E+02  0.50000021511E+02 0.  0.
        -12    1    1    2    0    0 -0.18487546514E+02  0.83313592957E+01  0.24607293421E+02  0.31886044178E+02  0.00000000000E+00 0.  1.
         11    1    3    3    0    0  0.52599824016E+01 -0.13703140574E+02  0.48380360011E+01  0.15454774960E+02  0.51100000000E-03 0. -1.
        -11    1    3    3    0    0  0.10747143325E+02  0.16909874571E+02 -0.14153809970E+02  0.24531108507E+02  0.51100000000E-03 0.  1.
         12    1    3    3    0    0  0.24804207875E+01 -0.11538093292E+02 -0.15291519451E+02  0.19316072355E+02  0.00000000000E+00 0. -1.
</event>
<event>
 7    1  0.6293596E-013  0.5930194E+02  0.7816164E-02  0.1266605E+00
        -11   -1    0    0    0    0  0.00000000000E+00  0.00000000000E+00  0.45593999997E+02  0.45594000000E+02  0.51100000000E-03 0. -1.
         11   -1    0    0    0    0 -0.00000000000E+00 -0.00000000000E+00 -0.45593999997E+02  0.45594000000E+02  0.51100000000E-03 0.  1.
    9900012    2    1    2    0    0 -0.10517620317E+02 -0.28796146836E+01  0.29963451192E+02  0.59301938387E+02  0.49999989712E+02 0.  0.
        -12    1    1    2    0    0  0.10517620317E+02  0.28796146836E+01 -0.29963451192E+02  0.31886061613E+02  0.00000000000E+00 0.  1.
         11    1    3    3    0    0 -0.58500252735E+01 -0.38404277502E+01  0.24715196200E+02  0.25686817718E+02  0.51100000000E-03 0.  1.
        -11    1    3    3    0    0  0.12734014762E+02  0.40524943526E+01  0.82255900958E+01  0.15691978050E+02  0.51100000000E-03 0. -1.
        -12    1    3    3    0    0 -0.17401609806E+02 -0.30916812860E+01 -0.29773351032E+01  0.17923142619E+02  0.00000000000E+00 0.  1.
</event>
<event>
 7    1  0.6293596E-013  0.5930166E+02  0.7816164E-02  0.1266606E+00
        -11   -1    0    0    0    0  0.00000000000E+00  0.00000000000E+00  0.45593999997E+02  0.45594000000E+02  0.51100000000E-03 0.  1.
         11   -1    0    0    0    0 -0.00000000000E+00 -0.00000000000E+00 -0.45593999997E+02  0.45594000000E+02  0.51100000000E-03 0. -1.
    9900012    2    1    2    0    0 -0.23758216590E+02  0.17656003025E+02  0.11855431686E+02  0.59301661878E+02  0.49999485425E+02 0.  0.
        -12    1    1    2    0    0  0.23758216590E+02 -0.17656003025E+02 -0.11855431686E+02  0.31886338122E+02  0.00000000000E+00 0.  1.
         11    1    3    3    0    0 -0.11084501917E+02  0.62163757636E+01 -0.18654334920E+02  0.22571967614E+02  0.51100000000E-03 0. -1.
        -11    1    3    3    0    0 -0.24114339627E+00  0.21660240663E+01  0.13641438665E+02  0.13814436633E+02  0.51100000000E-03 0.  1.
         12    1    3    3    0    0 -0.12432571277E+02  0.92736031948E+01  0.16868327942E+02  0.22915257631E+02  0.00000000000E+00 0. -1.
</event>
<event>
 7    1  0.6293596E-013  0.5930196E+02  0.7816164E-02  0.1266605E+00
        -11   -1    0    0    0    0  0.00000000000E+00  0.00000000000E+00  0.45593999997E+02  0.45594000000E+02  0.51100000000E-03 0.  1.
         11   -1    0    0    0    0 -0.00000000000E+00 -0.00000000000E+00 -0.45593999997E+02  0.45594000000E+02  0.51100000000E-03 0. -1.
    9900012    2    1    2    0    0  0.89193252052E+01  0.13012400296E+02 -0.27709975872E+02  0.59301957812E+02  0.50000025139E+02 0.  0.
        -12    1    1    2    0    0 -0.89193252052E+01 -0.13012400296E+02  0.27709975872E+02  0.31886042188E+02  0.00000000000E+00 0.  1.
         11    1    3    3    0    0 -0.13957327725E+02  0.18013878496E+02 -0.60054661443E+01  0.23566341243E+02  0.51100000000E-03 0. -1.
        -11    1    3    3    0    0  0.17970055315E+01 -0.46601108252E+01  0.61624253097E+00  0.50324563487E+01  0.51100000000E-03 0.  1.
         12    1    3    3    0    0  0.21079647398E+02 -0.34136737563E+00 -0.22320752259E+02  0.30703160221E+02  0.00000000000E+00 0. -1.
</event>
<event>
 7    1  0.6293596E-013  0.5930197E+02  0.7816164E-02  0.1266605E+00
        -11   -1    0    0    0    0  0.00000000000E+00  0.00000000000E+00  0.45593999997E+02  0.45594000000E+02  0.51100000000E-03 0. -1.
         11   -1    0    0    0    0 -0.00000000000E+00 -0.00000000000E+00 -0.45593999997E+02  0.45594000000E+02  0.51100000000E-03 0.  1.
    9900012    2    1    2    0    0 -0.22351072016E+02  0.22594431119E+02  0.25769125438E+01  0.59301965187E+02  0.50000038589E+02 0.  0.
        -12    1    1    2    0    0  0.22351072016E+02 -0.22594431119E+02 -0.25769125438E+01  0.31886034813E+02  0.00000000000E+00 0.  1.
         11    1    3    3    0    0 -0.15041849353E+02  0.73577479935E+01  0.97959308388E+00  0.16773589072E+02  0.51100000000E-03 0. -1.
        -11    1    3    3    0    0  0.22262291585E+01 -0.56952575397E+00 -0.16510726050E+02  0.16669868950E+02  0.51100000000E-03 0.  1.
        -12    1    3    3    0    0 -0.95354518211E+01  0.15806208880E+02  0.18108045510E+02  0.25858507164E+02  0.00000000000E+00 0.  1.
</event>
<event>
 7    1  0.6293596E-013  0.5930194E+02  0.7816164E-02  0.1266605E+00
        -11   -1    0    0    0    0  0.00000000000E+00  0.00000000000E+00  0.45593999997E+02  0.45594000000E+02  0.51100000000E-03 0. -1.
         11   -1    0    0    0    0 -0.00000000000E+00 -0.00000000000E+00 -0.45593999997E+02  0.45594000000E+02  0.51100000000E-03 0.  1.
    9900012    2    1    2    0    0 -0.88893480214E+01 -0.25167487196E+02  0.17444135720E+02  0.59301940491E+02  0.49999993549E+02 0.  0.
        -12    1    1    2    0    0  0.88893480214E+01  0.25167487196E+02 -0.17444135720E+02  0.31886059509E+02  0.00000000000E+00 0.  1.
         11    1    3    3    0    0 -0.10769050101E+02  0.88785469939E+01 -0.36238190204E+01  0.14419885622E+02  0.51100000000E-03 0. -1.
        -11    1    3    3    0    0  0.77563803530E+01 -0.48151559425E+01  0.86734296816E+01  0.12592678255E+02  0.51100000000E-03 0.  1.
         12    1    3    3    0    0 -0.58766782734E+01 -0.29230878248E+02  0.12394525058E+02  0.32289376614E+02  0.00000000000E+00 0. -1.
</event>
<event>
 7    1  0.6293596E-013  0.5930195E+02  0.7816164E-02  0.1266605E+00
        -11   -1    0    0    0    0  0.00000000000E+00  0.00000000000E+00  0.45593999997E+02  0.45594000000E+02  0.51100000000E-03 0.  1.
         11   -1    0    0    0    0 -0.00000000000E+00 -0.00000000000E+00 -0.45593999997E+02  0.45594000000E+02  0.51100000000E-03 0. -1.
    9900012    2    1    2    0    0  0.52459484351E+01 -0.18696998464E+02 -0.25290754077E+02  0.59301953391E+02  0.50000017076E+02 0.  0.
        -12    1    1    2    0    0 -0.52459484351E+01  0.18696998464E+02  0.25290754077E+02  0.31886046609E+02  0.00000000000E+00 0.  1.
         11    1    3    3    0    0  0.12836687747E+02 -0.25953274699E+02 -0.20539446782E+02  0.35499604142E+02  0.51100000000E-03 0. -1.
        -11    1    3    3    0    0  0.45100774185E+01  0.98971094210E+01 -0.30835077277E+01  0.11304936682E+02  0.51100000000E-03 0.  1.
         12    1    3    3    0    0 -0.12100816731E+02 -0.26408331865E+01 -0.16677995682E+01  0.12497412567E+02  0.00000000000E+00 0. -1.
</event>
<event>
 7    1  0.6293596E-013  0.5930191E+02  0.7816164E-02  0.1266605E+00
        -11   -1    0    0    0    0  0.00000000000E+00  0.00000000000E+00  0.45593999997E+02  0.45594000000E+02  0.51100000000E-03 0.  1.
         11   -1    0    0    0    0 -0.00000000000E+00 -0.00000000000E+00 -0.45593999997E+02  0.45594000000E+02  0.51100000000E-03 0. -1.
    9900012    2    1    2    0    0 -0.21858463617E+02  0.10282030886E+02 -0.20813698333E+02  0.59301911668E+02  0.49999940984E+02 0.  0.
        -12    1    1    2    0    0  0.21858463617E+02 -0.10282030886E+02  0.20813698333E+02  0.31886088332E+02  0.00000000000E+00 0.  1.
         11    1    3    3    0    0  0.94900077499E+01 -0.92478433249E+01 -0.62277653050E+01  0.14641308487E+02  0.51100000000E-03 0.  1.
        -11    1    3    3    0    0 -0.18363302816E+02  0.15838992434E+02 -0.18616530839E+02  0.30572206207E+02  0.51100000000E-03 0. -1.
        -12    1    3    3    0    0 -0.12985168550E+02  0.36908817773E+01  0.40305978118E+01  0.14088396974E+02  0.00000000000E+00 0.  1.
</event>
<event>
 7    1  0.6293596E-013  0.5930195E+02  0.7816164E-02  0.1266605E+00
        -11   -1    0    0    0    0  0.00000000000E+00  0.00000000000E+00  0.45593999997E+02  0.45594000000E+02  0.51100000000E-03 0. -1.
         11   -1    0    0    0    0 -0.00000000000E+00 -0.00000000000E+00 -0.45593999997E+02  0.45594000000E+02  0.51100000000E-03 0.  1.
    9900012    2    1    2    0    0 -0.24497605911E+02  0.13528200438E+02  0.15283175363E+02  0.59301947381E+02  0.50000006115E+02 0.  0.
        -12    1    1    2    0    0  0.24497605911E+02 -0.13528200438E+02 -0.15283175363E+02  0.31886052619E+02  0.00000000000E+00 0.  1.
         11    1    3    3    0    0  0.10001483163E+02  0.41737748932E+01  0.10070078152E+02  0.14793800613E+02  0.51100000000E-03 0. -1.
        -11    1    3    3    0    0 -0.58108370859E+01  0.82261480084E+01 -0.80393662939E+01  0.12886688844E+02  0.51100000000E-03 0.  1.
         12    1    3    3    0    0 -0.28688251988E+02  0.11282775367E+01  0.13252463505E+02  0.31621457924E+02  0.00000000000E+00 0. -1.
</event>
<event>
 7    1  0.6293596E-013  0.5930200E+02  0.7816164E-02  0.1266605E+00
        -11   -1    0    0    0    0  0.00000000000E+00  0.00000000000E+00  0.45593999997E+02  0.45594000000E+02  0.51100000000E-03 0.  1.
         11   -1    0    0    0    0 -0.00000000000E+00 -0.00000000000E+00 -0.45593999997E+02  0.45594000000E+02  0.51100000000E-03 0. -1.
    9900012    2    1    2    0    0 -0.24019513138E+02  0.20858318973E+02 -0.21703614951E+01  0.59302000709E+02  0.50000103372E+02 0.  0.
        -12    1    1    2    0    0  0.24019513138E+02 -0.20858318973E+02  0.21703614951E+01  0.31885999291E+02  0.00000000000E+00 0.  1.
         11    1    3    3    0    0  0.10802994943E+02 -0.26474687250E+01 -0.10345845492E+02  0.15190467721E+02  0.51100000000E-03 0. -1.
        -11    1    3    3    0    0 -0.21412585404E+02  0.10951647604E+02  0.91104215326E+01  0.25718421018E+02  0.51100000000E-03 0.  1.
         12    1    3    3    0    0 -0.13409922677E+02  0.12554140095E+02 -0.93493753528E+00  0.18393111969E+02  0.00000000000E+00 0. -1.
</event>
<event>
 7    1  0.6293596E-013  0.5930195E+02  0.7816164E-02  0.1266605E+00
        -11   -1    0    0    0    0  0.00000000000E+00  0.00000000000E+00  0.45593999997E+02  0.45594000000E+02  0.51100000000E-03 0.  1.
         11   -1    0    0    0    0 -0.00000000000E+00 -0.00000000000E+00 -0.45593999997E+02  0.45594000000E+02  0.51100000000E-03 0. -1.
    9900012    2    1    2    0    0 -0.15710020956E+02 -0.26339536128E+02 -0.87260768248E+01  0.59301947585E+02  0.50000006487E+02 0.  0.
        -12    1    1    2    0    0  0.15710020956E+02  0.26339536128E+02  0.87260768248E+01  0.31886052415E+02  0.00000000000E+00 0.  1.
         11    1    3    3    0    0 -0.20310490595E+02 -0.62721316284E+01 -0.22849445942E+02  0.31208217564E+02  0.51100000000E-03 0. -1.
        -11    1    3    3    0    0  0.56154716713E+01 -0.91069533975E+01  0.68252400215E+00  0.10720819071E+02  0.51100000000E-03 0.  1.
         12    1    3    3    0    0 -0.10150020325E+01 -0.10960451102E+02  0.13440845115E+02  0.17372910950E+02  0.00000000000E+00 0. -1.
</event>
<event>
 7    1  0.6293596E-013  0.5930192E+02  0.7816164E-02  0.1266605E+00
        -11   -1    0    0    0    0  0.00000000000E+00  0.00000000000E+00  0.45593999997E+02  0.45594000000E+02  0.51100000000E-03 0.  1.
         11   -1    0    0    0    0 -0.00000000000E+00 -0.00000000000E+00 -0.45593999997E+02  0.45594000000E+02  0.51100000000E-03 0. -1.
    9900012    2    1    2    0    0  0.14879636477E+02  0.95149877695E+01 -0.26547754782E+02  0.59301923761E+02  0.49999963039E+02 0.  0.
        -12    1    1    2    0    0 -0.14879636477E+02 -0.95149877695E+01  0.26547754782E+02  0.31886076239E+02  0.00000000000E+00 0.  1.
         11    1    3    3    0    0  0.44958583259E+01  0.17162414057E+02 -0.36907849758E+01  0.18121343558E+02  0.51100000000E-03 0.  1.
        -11    1    3    3    0    0  0.21710742732E+02 -0.36227844604E+01 -0.12494830330E+02  0.25310110676E+02  0.51100000000E-03 0. -1.
        -12    1    3    3    0    0 -0.11326964581E+02 -0.40246418275E+01 -0.10362139476E+02  0.15870469526E+02  0.00000000000E+00 0.  1.
</event>
<event>
 7    1  0.6293596E-013  0.5930194E+02  0.7816164E-02  0.1266605E+00
        -11   -1    0    0    0    0  0.00000000000E+00  0.00000000000E+00  0.45593999997E+02  0.45594000000E+02  0.51100000000E-03 0. -1.
         11   -1    0    0    0    0 -0.00000000000E+00 -0.00000000000E+00 -0.45593999997E+02  0.45594000000E+02  0.51100000000E-03 0.  1.
    9900012    2    1    2    0    0  0.30157317574E+02 -0.83974333110E+01 -0.60613645713E+01  0.59301939880E+02  0.49999992436E+02 0.  0.
        -12    1    1    2    0    0 -0.30157317574E+02  0.83974333110E+01  0.60613645713E+01  0.31886060120E+02  0.00000000000E+00 0.  1.
         11    1    3    3    0    0  0.14793210879E+02 -0.23400859550E+02  0.54594846578E+01  0.28217818640E+02  0.51100000000E-03 0. -1.
        -11    1    3    3    0    0 -0.97754041705E+00  0.71044438723E+01  0.30652296553E+01  0.77989961599E+01  0.51100000000E-03 0.  1.
         12    1    3    3    0    0  0.16341647112E+02  0.78989823672E+01 -0.14586078884E+02  0.23285125080E+02  0.00000000000E+00 0. -1.
</event>
<event>
 7    1  0.6293596E-013  0.5930201E+02  0.7816164E-02  0.1266605E+00
        -11   -1    0    0    0    0  0.00000000000E+00  0.00000000000E+00  0.45593999997E+02  0.45594000000E+02  0.51100000000E-03 0. -1.
         11   -1    0    0    0    0 -0.00000000000E+00 -0.00000000000E+00 -0.45593999997E+02  0.45594000000E+02  0.51100000000E-03 0.  1.
    9900012    2    1    2    0    0  0.28711857233E+02 -0.65448500811E+01  0.12227460697E+02  0.59302006156E+02  0.50000113307E+02 0.  0.
        -12    1    1    2    0    0 -0.28711857233E+02  0.65448500811E+01 -0.12227460697E+02  0.31885993844E+02  0.00000000000E+00 0.  1.
         11    1    3    3    0    0  0.26559279850E+02 -0.13402871295E+02  0.18938964976E+02  0.35266367827E+02  0.51100000000E-03 0. -1.
        -11    1    3    3    0    0  0.53476823995E+01  0.13054933713E+02  0.35008584444E+00  0.14112106918E+02  0.51100000000E-03 0.  1.
        -12    1    3    3    0    0 -0.31951050163E+01 -0.61969124992E+01 -0.70615901242E+01  0.99235314112E+01  0.00000000000E+00 0.  1.
</event>
<event>
 7    1  0.6293596E-013  0.5930195E+02  0.7816164E-02  0.1266605E+00
        -11   -1    0    0    0    0  0.00000000000E+00  0.00000000000E+00  0.45593999997E+02  0.45594000000E+02  0.51100000000E-03 0. -1.
         11   -1    0    0    0    0 -0.00000000000E+00 -0.00000000000E+00 -0.45593999997E+02  0.45594000000E+02  0.51100000000E-03 0.  1.
    9900012    2    1    2    0    0  0.13900621357E+02  0.16818692182E+01  0.28647242811E+02  0.59301945386E+02  0.50000002477E+02 0.  0.
        -12    1    1    2    0    0 -0.13900621357E+02 -0.16818692182E+01 -0.28647242811E+02  0.31886054614E+02  0.00000000000E+00 0.  1.
         11    1    3    3    0    0  0.20737911351E+01  0.20680565916E+02  0.13235296871E+02  0.24640606725E+02  0.51100000000E-03 0. -1.
        -11    1    3    3    0    0  0.16950090250E+02 -0.78925479723E+01  0.78284333827E+01  0.20270230450E+02  0.51100000000E-03 0.  1.
         12    1    3    3    0    0 -0.51232600282E+01 -0.11106148725E+02  0.75835125574E+01  0.14391108211E+02  0.00000000000E+00 0. -1.
</event>
<event>
 7    1  0.6293596E-013  0.5930197E+02  0.7816164E-02  0.1266605E+00
        -11   -1    0    0    0    0  0.00000000000E+00  0.00000000000E+00  0.45593999997E+02  0.45594000000E+02  0.51100000000E-03 0.  1.
         11   -1    0    0    0    0 -0.00000000000E+00 -0.00000000000E+00 -0.45593999997E+02  0.45594000000E+02  0.51100000000E-03 0. -1.
    9900012    2    1    2    0    0  0.69445779153E-01 -0.21132678430E+02 -0.23877268284E+02  0.59301970755E+02  0.50000048744E+02 0.  0.
        -12    1    1    2    0    0 -0.69445779153E-01  0.21132678430E+02  0.23877268284E+02  0.31886029245E+02  0.00000000000E+00 0.  1.
         11    1    3    3    0    0  0.15629993817E+02 -0.24026963929E+02 -0.73014436664E+01  0.29578755589E+02  0.51100000000E-03 0. -1.
        -11    1    3    3    0    0 -0.13807210789E+02 -0.54997166470E+01 -0.14783439222E+02  0.20962729509E+02  0.51100000000E-03 0.  1.
        -12    1    3    3    0    0 -0.17533372488E+01  0.83940021458E+01 -0.17923853954E+01  0.87604856564E+01  0.00000000000E+00 0.  1.
</event>
<event>
 7    1  0.6293596E-013  0.5930182E+02  0.7816164E-02  0.1266605E+00
        -11   -1    0    0    0    0  0.00000000000E+00  0.00000000000E+00  0.45593999997E+02  0.45594000000E+02  0.51100000000E-03 0. -1.
         11   -1    0    0    0    0 -0.00000000000E+00 -0.00000000000E+00 -0.45593999997E+02  0.45594000000E+02  0.51100000000E-03 0.  1.
    9900012    2    1    2    0    0  0.99323238469E+01  0.23268505024E+02  0.19407573978E+02  0.59301822576E+02  0.49999778500E+02 0.  0.
        -12    1    1    2    0    0 -0.99323238469E+01 -0.23268505024E+02 -0.19407573978E+02  0.31886177424E+02  0.00000000000E+00 0.  1.
         11    1    3    3    0    0  0.12184322271E+02  0.18115546955E+02  0.16229337725E+02  0.27203348212E+02  0.51100000000E-03 0. -1.
        -11    1    3    3    0    0 -0.74929879466E+01 -0.11885562684E+02  0.39280762058E+00  0.14055809004E+02  0.51100000000E-03 0.  1.
        -12    1    3    3    0    0  0.52409895223E+01  0.17038520752E+02  0.27854286322E+01  0.18042665359E+02  0.00000000000E+00 0.  1.
</event>
<event>
 7    1  0.6293596E-013  0.5930194E+02  0.7816164E-02  0.1266605E+00
        -11   -1    0    0    0    0  0.00000000000E+00  0.00000000000E+00  0.45593999997E+02  0.45594000000E+02  0.51100000000E-03 0.  1.
         11   -1    0    0    0    0 -0.00000000000E+00 -0.00000000000E+00 -0.45593999997E+02  0.45594000000E+02  0.51100000000E-03 0. -1.
    9900012    2    1    2    0    0 -0.13489679598E+02  0.28792866760E+02  0.23916357124E+01  0.59301944218E+02  0.50000000347E+02 0.  0.
        -12    1    1    2    0    0  0.13489679598E+02 -0.28792866760E+02 -0.23916357124E+01  0.31886055782E+02  0.00000000000E+00 0.  1.
         11    1    3    3    0    0 -0.74055561650E+01  0.27285014651E+02 -0.13530659501E+02  0.31343149705E+02  0.51100000000E-03 0. -1.
        -11    1    3    3    0    0 -0.39173443342E+01  0.77597698460E+01  0.18823736902E+02  0.20733853619E+02  0.51100000000E-03 0.  1.
        -12    1    3    3    0    0 -0.21667790991E+01 -0.62519177368E+01 -0.29014416887E+01  0.72249408942E+01  0.00000000000E+00 0.  1.
</event>
<event>
 7    1  0.6293596E-013  0.5930195E+02  0.7816164E-02  0.1266605E+00
        -11   -1    0    0    0    0  0.00000000000E+00  0.00000000000E+00  0.45593999997E+02  0.45594000000E+02  0.51100000000E-03 0.  1.
         11   -1    0    0    0    0 -0.00000000000E+00 -0.00000000000E+00 -0.45593999997E+02  0.45594000000E+02  0.51100000000E-03 0. -1.
    9900012    2    1    2    0    0 -0.31396521377E+02  0.25495661537E+01 -0.49475537523E+01  0.59301950852E+02  0.50000012446E+02 0.  0.
        -12    1    1    2    0    0  0.31396521377E+02 -0.25495661537E+01  0.49475537523E+01  0.31886049148E+02  0.00000000000E+00 0.  1.
         11    1    3    3    0    0 -0.52569219069E+01  0.97781811754E+01  0.12411886072E+01  0.11170881991E+02  0.51100000000E-03 0. -1.
        -11    1    3    3    0    0 -0.72894898240E+01 -0.22384240049E+02 -0.27784347871E+01  0.23704652804E+02  0.51100000000E-03 0.  1.
        -12    1    3    3    0    0 -0.18850109646E+02  0.15155625027E+02 -0.34103075724E+01  0.24426416057E+02  0.00000000000E+00 0.  1.
</event>
<event>
 7    1  0.6293596E-013  0.5930195E+02  0.7816164E-02  0.1266605E+00
        -11   -1    0    0    0    0  0.00000000000E+00  0.00000000000E+00  0.45593999997E+02  0.45594000000E+02  0.51100000000E-03 0. -1.
         11   -1    0    0    0    0 -0.00000000000E+00 -0.00000000000E+00 -0.45593999997E+02  0.45594000000E+02  0.51100000000E-03 0.  1.
    9900012    2    1    2    0    0 -0.16830461102E+02  0.26595704574E+02 -0.51112143451E+01  0.59301946077E+02  0.50000003737E+02 0.  0.
        -12    1    1    2    0    0  0.16830461102E+02 -0.26595704574E+02  0.51112143451E+01  0.31886053923E+02  0.00000000000E+00 0.  1.
         11    1    3    3    0    0 -0.20937761905E+02  0.84972862373E+01 -0.15204465085E+02  0.27235445760E+02  0.51100000000E-03 0. -1.
        -11    1    3    3    0    0  0.11432530048E+02  0.85610819781E+00  0.57949385018E+01  0.12845893393E+02  0.51100000000E-03 0.  1.
         12    1    3    3    0    0 -0.73252292460E+01  0.17242310139E+02  0.42983122385E+01  0.19220606924E+02  0.00000000000E+00 0. -1.
</event>
<event>
 7    1  0.6293596E-013  0.5930202E+02  0.7816164E-02  0.1266604E+00
        -11   -1    0    0    0    0  0.00000000000E+00  0.00000000000E+00  0.45593999997E+02  0.45594000000E+02  0.51100000000E-03 0.  1.
         11   -1    0    0    0    0 -0.00000000000E+00 -0.00000000000E+00 -0.45593999997E+02  0.45594000000E+02  0.51100000000E-03 0. -1.
    9900012    2    1    2    0    0 -0.25632016176E+02 -0.18605886387E+02  0.36791769922E+01  0.59302021815E+02  0.50000141864E+02 0.  0.
        -12    1    1    2    0    0  0.25632016176E+02  0.18605886387E+02 -0.36791769922E+01  0.31885978185E+02  0.00000000000E+00 0.  1.
         11    1    3    3    0    0  0.60723066383E+01  0.11027867602E+02 -0.40711700760E+01  0.13231069413E+02  0.51100000000E-03 0. -1.
        -11    1    3    3    0    0 -0.21295142801E+02 -0.10914111247E+02  0.28473478727E+01  0.24097890393E+02  0.51100000000E-03 0.  1.
         12    1    3    3    0    0 -0.10409180014E+02 -0.18719642742E+02  0.49029991955E+01  0.21973062009E+02  0.00000000000E+00 0. -1.
</event>
<event>
 7    1  0.6293596E-013  0.5930195E+02  0.7816164E-02  0.1266605E+00
        -11   -1    0    0    0    0  0.00000000000E+00  0.00000000000E+00  0.45593999997E+02  0.45594000000E+02  0.51100000000E-03 0.  1.
         11   -1    0    0    0    0 -0.00000000000E+00 -0.00000000000E+00 -0.45593999997E+02  0.45594000000E+02  0.51100000000E-03 0. -1.
    9900012    2    1    2    0    0  0.31978011550E+01  0.20519852033E+02 -0.24195657657E+02  0.59301951183E+02  0.50000013050E+02 0.  0.
        -12    1    1    2    0    0 -0.31978011550E+01 -0.20519852033E+02  0.24195657657E+02  0.31886048817E+02  0.00000000000E+00 0.  1.
         11    1    3    3    0    0  0.18843442566E+02  0.22336069607E+01 -0.26460017673E+02  0.32560664356E+02  0.51100000000E-03 0. -1.
        -11    1    3    3    0    0 -0.14738253329E+02  0.10380079519E+02 -0.11897760541E+01  0.18065927303E+02  0.51100000000E-03 0.  1.
         12    1    3    3    0    0 -0.90738808158E+00  0.79061655532E+01  0.34541360696E+01  0.86753595241E+01  0.00000000000E+00 0. -1.
</event>
<event>
 7    1  0.6293596E-013  0.5930194E+02  0.7816164E-02  0.1266605E+00
        -11   -1    0    0    0    0  0.00000000000E+00  0.00000000000E+00  0.45593999997E+02  0.45594000000E+02  0.51100000000E-03 0. -1.
         11   -1    0    0    0    0 -0.00000000000E+00 -0.00000000000E+00 -0.45593999997E+02  0.45594000000E+02  0.51100000000E-03 0.  1.
    9900012    2    1    2    0    0 -0.43504212147E+01  0.15383527215E+02  0.27588795681E+02  0.59301941582E+02  0.49999995539E+02 0.  0.
        -12    1    1    2    0    0  0.43504212147E+01 -0.15383527215E+02 -0.27588795681E+02  0.31886058418E+02  0.00000000000E+00 0.  1.
         11    1    3    3    0    0  0.78178824104E+01  0.26750619630E+02  0.20103024742E+02  0.34363447731E+02  0.51100000000E-03 0. -1.
        -11    1    3    3    0    0 -0.12603770175E+02 -0.26073320580E+01 -0.76986500651E+00  0.12893637790E+02  0.51100000000E-03 0.  1.
         12    1    3    3    0    0  0.43546654957E+00 -0.87597603570E+01  0.82556359462E+01  0.12044856060E+02  0.00000000000E+00 0. -1.
</event>
<event>
 7    1  0.6293596E-013  0.5930203E+02  0.7816164E-02  0.1266604E+00
        -11   -1    0    0    0    0  0.00000000000E+00  0.00000000000E+00  0.45593999997E+02  0.45594000000E+02  0.51100000000E-03 0.  1.
         11   -1    0    0    0    0 -0.00000000000E+00 -0.00000000000E+00 -0.45593999997E+02  0.45594000000E+02  0.51100000000E-03 0. -1.
    9900012    2    1    2    0    0 -0.24871249150E+02 -0.18297317485E+02 -0.79588968036E+01  0.59302032871E+02  0.50000162028E+02 0.  0.
        -12    1    1    2    0    0  0.24871249150E+02  0.18297317485E+02  0.79588968036E+01  0.31885967129E+02  0.00000000000E+00 0.  1.
         11    1    3    3    0    0 -0.24946660933E+02 -0.21775641805E+02  0.87594304193E+01  0.34252621640E+02  0.51100000000E-03 0. -1.
        -11    1    3    3    0    0  0.89778404521E+01  0.19750091383E+01 -0.11113745208E+02  0.14422815713E+02  0.51100000000E-03 0.  1.
         12    1    3    3    0    0 -0.89024286686E+01  0.15033151809E+01 -0.56045820149E+01  0.10626595518E+02  0.00000000000E+00 0. -1.
</event>
<event>
 7    1  0.6293596E-013  0.5930193E+02  0.7816164E-02  0.1266605E+00
        -11   -1    0    0    0    0  0.00000000000E+00  0.00000000000E+00  0.45593999997E+02  0.45594000000E+02  0.51100000000E-03 0. -1.
         11   -1    0    0    0    0 -0.00000000000E+00 -0.00000000000E+00 -0.45593999997E+02  0.45594000000E+02  0.51100000000E-03 0.  1.
    9900012    2    1    2    0    0 -0.37795227691E+00  0.24207377939E+02 -0.20750457935E+02  0.59301929387E+02  0.49999973299E+02 0.  0.
        -12    1    1    2    0    0  0.37795227691E+00 -0.24207377939E+02  0.20750457935E+02  0.31886070613E+02  0.00000000000E+00 0.  1.
         11    1    3    3    0    0  0.18246560705E+02  0.13644977043E+02 -0.49244081065E+01  0.23310344732E+02  0.51100000000E-03 0. -1.
        -11    1    3    3    0    0 -0.12798520322E+01 -0.63075823316E+01 -0.85964759198E+01  0.10738855367E+02  0.51100000000E-03 0.  1.
         12    1    3    3    0    0 -0.17344660950E+02  0.16869983228E+02 -0.72295739084E+01  0.25252729288E+02  0.00000000000E+00 0. -1.
</event>
<event>
 7    1  0.6293596E-013  0.5930173E+02  0.7816164E-02  0.1266606E+00
        -11   -1    0    0    0    0  0.00000000000E+00  0.00000000000E+00  0.45593999997E+02  0.45594000000E+02  0.51100000000E-03 0.  1.
         11   -1    0    0    0    0 -0.00000000000E+00 -0.00000000000E+00 -0.45593999997E+02  0.45594000000E+02  0.51100000000E-03 0. -1.
    9900012    2    1    2    0    0 -0.14940015066E+02  0.17476294816E+02 -0.22093199001E+02  0.59301727519E+02  0.49999605139E+02 0.  0.
        -12    1    1    2    0    0  0.14940015066E+02 -0.17476294816E+02  0.22093199001E+02  0.31886272481E+02  0.00000000000E+00 0.  1.
         11    1    3    3    0    0  0.92655119502E+00  0.19505810133E+01  0.12647401020E+02  0.12830433205E+02  0.51100000000E-03 0. -1.
        -11    1    3    3    0    0 -0.19038582214E+02  0.15758978740E+02 -0.21198028234E+02  0.32560243011E+02  0.51100000000E-03 0.  1.
         12    1    3    3    0    0  0.31720159538E+01 -0.23326493742E+00 -0.13542571787E+02  0.13911051303E+02  0.00000000000E+00 0. -1.
</event>
<event>
 7    1  0.6293596E-013  0.5930196E+02  0.7816164E-02  0.1266605E+00
        -11   -1    0    0    0    0  0.00000000000E+00  0.00000000000E+00  0.45593999997E+02  0.45594000000E+02  0.51100000000E-03 0.  1.
         11   -1    0    0    0    0 -0.00000000000E+00 -0.00000000000E+00 -0.45593999997E+02  0.45594000000E+02  0.51100000000E-03 0. -1.
    9900012    2    1    2    0    0 -0.20956980015E+02 -0.10483082791E+02  0.21624743163E+02  0.59301959904E+02  0.50000028954E+02 0.  0.
        -12    1    1    2    0    0  0.20956980015E+02  0.10483082791E+02 -0.21624743163E+02  0.31886040096E+02  0.00000000000E+00 0.  1.
         11    1    3    3    0    0 -0.16499419440E+02  0.89208619027E+01 -0.62891231573E+01  0.19782964623E+02  0.51100000000E-03 0. -1.
        -11    1    3    3    0    0 -0.93430927897E+01 -0.19532503310E+01  0.12506616279E+02  0.15732896134E+02  0.51100000000E-03 0.  1.
         12    1    3    3    0    0  0.48855322149E+01 -0.17450694363E+02  0.15407250041E+02  0.23786099147E+02  0.00000000000E+00 0. -1.
</event>
<event>
 7    1  0.6293596E-013  0.5930195E+02  0.7816164E-02  0.1266605E+00
        -11   -1    0    0    0    0  0.00000000000E+00  0.00000000000E+00  0.45593999997E+02  0.45594000000E+02  0.51100000000E-03 0.  1.
         11   -1    0    0    0    0 -0.00000000000E+00 -0.00000000000E+00 -0.45593999997E+02  0.45594000000E+02  0.51100000000E-03 0. -1.
    9900012    2    1    2    0    0  0.21136814494E+02  0.44044513460E+01 -0.23463931230E+02  0.59301949956E+02  0.50000010812E+02 0.  0.
        -12    1    1    2    0    0 -0.21136814494E+02 -0.44044513460E+01  0.23463931230E+02  0.31886050044E+02  0.00000000000E+00 0.  1.
         11    1    3    3    0    0 -0.12560081562E+01  0.30923239318E+01 -0.11787302569E+02  0.12250735729E+02  0.51100000000E-03 0. -1.
        -11    1    3    3    0    0  0.42827864255E+01 -0.12816566320E+02  0.89265355154E+01  0.16195359470E+02  0.51100000000E-03 0.  1.
        -12    1    3    3    0    0  0.18110036225E+02  0.14128693734E+02 -0.20603164176E+02  0.30855854757E+02  0.00000000000E+00 0.  1.
</event>
<event>
 7    1  0.6293596E-013  0.5930184E+02  0.7816164E-02  0.1266605E+00
        -11   -1    0    0    0    0  0.00000000000E+00  0.00000000000E+00  0.45593999997E+02  0.45594000000E+02  0.51100000000E-03 0.  1.
         11   -1    0    0    0    0 -0.00000000000E+00 -0.00000000000E+00 -0.45593999997E+02  0.45594000000E+02  0.51100000000E-03 0. -1.
    9900012    2    1    2    0    0 -0.22613920022E+00  0.30195122638E+02 -0.10243562299E+02  0.59301840955E+02  0.49999812020E+02 0.  0.
        -12    1    1    2    0    0  0.22613920022E+00 -0.30195122638E+02  0.10243562299E+02  0.31886159045E+02  0.00000000000E+00 0.  1.
         11    1    3    3    0    0  0.66675906179E+01  0.28307155571E+02 -0.88491157662E+01  0.30398333363E+02  0.51100000000E-03 0. -1.
        -11    1    3    3    0    0 -0.11883500685E+02  0.52558474984E+01  0.97445454915E+01  0.16241849911E+02  0.51100000000E-03 0.  1.
        -12    1    3    3    0    0  0.49897708665E+01 -0.33678804314E+01 -0.11138992024E+02  0.12661657680E+02  0.00000000000E+00 0.  1.
</event>
<event>
 7    1  0.6293596E-013  0.5930194E+02  0.7816164E-02  0.1266605E+00
        -11   -1    0    0    0    0  0.00000000000E+00  0.00000000000E+00  0.45593999997E+02  0.45594000000E+02  0.51100000000E-03 0.  1.
         11   -1    0    0    0    0 -0.00000000000E+00 -0.00000000000E+00 -0.45593999997E+02  0.45594000000E+02  0.51100000000E-03 0. -1.
    9900012    2    1    2    0    0 -0.23484479463E+01 -0.75685217685E+01 -0.30885643440E+02  0.59301941915E+02  0.49999996147E+02 0.  0.
        -12    1    1    2    0    0  0.23484479463E+01  0.75685217685E+01  0.30885643440E+02  0.31886058085E+02  0.00000000000E+00 0.  1.
         11    1    3    3    0    0  0.16136404827E+02  0.48240025897E+01 -0.10240421123E+02  0.19710930642E+02  0.51100000000E-03 0. -1.
        -11    1    3    3    0    0 -0.92628926270E+01 -0.12657988277E+02  0.13461156416E+01  0.15742867420E+02  0.51100000000E-03 0.  1.
         12    1    3    3    0    0 -0.92219601463E+01  0.26546391839E+00 -0.21991337958E+02  0.23848143853E+02  0.00000000000E+00 0. -1.
</event>
<event>
 7    1  0.6293596E-013  0.5930192E+02  0.7816164E-02  0.1266605E+00
        -11   -1    0    0    0    0  0.00000000000E+00  0.00000000000E+00  0.45593999997E+02  0.45594000000E+02  0.51100000000E-03 0. -1.
         11   -1    0    0    0    0 -0.00000000000E+00 -0.00000000000E+00 -0.45593999997E+02  0.45594000000E+02  0.51100000000E-03 0.  1.
    9900012    2    1    2    0    0 -0.19303575948E+02 -0.23309991593E+02  0.10036843967E+02  0.59301921701E+02  0.49999959282E+02 0.  0.
        -12    1    1    2    0    0  0.19303575948E+02  0.23309991593E+02 -0.10036843967E+02  0.31886078299E+02  0.00000000000E+00 0.  1.
         11    1    3    3    0    0 -0.23201349226E+02 -0.29212919495E+02  0.15836223940E+02  0.40527561736E+02  0.51100000000E-03 0. -1.
        -11    1    3    3    0    0  0.90590035809E+01  0.39726062591E+01  0.10907825148E+01  0.99517311622E+01  0.51100000000E-03 0.  1.
        -12    1    3    3    0    0 -0.51612303030E+01  0.19303216426E+01 -0.68901624880E+01  0.88226288030E+01  0.00000000000E+00 0.  1.
</event>
<event>
 7    1  0.6293596E-013  0.5930196E+02  0.7816164E-02  0.1266605E+00
        -11   -1    0    0    0    0  0.00000000000E+00  0.00000000000E+00  0.45593999997E+02  0.45594000000E+02  0.51100000000E-03 0.  1.
         11   -1    0    0    0    0 -0.00000000000E+00 -0.00000000000E+00 -0.45593999997E+02  0.45594000000E+02  0.51100000000E-03 0. -1.
    9900012    2    1    2    0    0  0.23296114278E+02 -0.21712846619E+02 -0.16009498300E+01  0.59301957770E+02  0.50000025062E+02 0.  0.
        -12    1    1    2    0    0 -0.23296114278E+02  0.21712846619E+02  0.16009498300E+01  0.31886042230E+02  0.00000000000E+00 0.  1.
         11    1    3    3    0    0  0.10790570583E+02  0.29422808085E+01 -0.15345056560E+02  0.18988527877E+02  0.51100000000E-03 0. -1.
        -11    1    3    3    0    0 -0.56534612692E+01 -0.15008585177E+02  0.11272304567E+02  0.19603165659E+02  0.51100000000E-03 0.  1.
         12    1    3    3    0    0  0.18159004964E+02 -0.96465422510E+01  0.24718021633E+01  0.20710264234E+02  0.00000000000E+00 0. -1.
</event>
<event>
 7    1  0.6293596E-013  0.5930198E+02  0.7816164E-02  0.1266605E+00
        -11   -1    0    0    0    0  0.00000000000E+00  0.00000000000E+00  0.45593999997E+02  0.45594000000E+02  0.51100000000E-03 0.  1.
         11   -1    0    0    0    0 -0.00000000000E+00 -0.00000000000E+00 -0.45593999997E+02  0.45594000000E+02  0.51100000000E-03 0. -1.
    9900012    2    1    2    0    0 -0.16666984318E+02 -0.16734524190E+02 -0.21421611151E+02  0.59301982838E+02  0.50000070781E+02 0.  0.
        -12    1    1    2    0    0  0.16666984318E+02  0.16734524190E+02  0.21421611151E+02  0.31886017162E+02  0.00000000000E+00 0.  1.
         11    1    3    3    0    0  0.13170319885E+01 -0.12016679095E+02 -0.67619259649E+01  0.13851310145E+02  0.51100000000E-03 0. -1.
        -11    1    3    3    0    0  0.29286673200E+00  0.13663286001E+02 -0.13936794428E+02  0.19519359478E+02  0.51100000000E-03 0.  1.
        -12    1    3    3    0    0 -0.18276883038E+02 -0.18381131096E+02 -0.72289075857E+00  0.25931313214E+02  0.00000000000E+00 0.  1.
</event>
<event>
 7    1  0.6293596E-013  0.5930195E+02  0.7816164E-02  0.1266605E+00
        -11   -1    0    0    0    0  0.00000000000E+00  0.00000000000E+00  0.45593999997E+02  0.45594000000E+02  0.51100000000E-03 0.  1.
         11   -1    0    0    0    0 -0.00000000000E+00 -0.00000000000E+00 -0.45593999997E+02  0.45594000000E+02  0.51100000000E-03 0. -1.
    9900012    2    1    2    0    0 -0.17766750552E+02  0.14916166524E+02 -0.21876264486E+02  0.59301946673E+02  0.50000004823E+02 0.  0.
        -12    1    1    2    0    0  0.17766750552E+02 -0.14916166524E+02  0.21876264486E+02  0.31886053327E+02  0.00000000000E+00 0.  1.
         11    1    3    3    0    0 -0.19594516511E+01 -0.13884406926E+02  0.27372099838E+01  0.14286655495E+02  0.51100000000E-03 0. -1.
        -11    1    3    3    0    0 -0.18206901467E+02  0.17090080330E+02 -0.12236296734E+02  0.27808075531E+02  0.51100000000E-03 0.  1.
         12    1    3    3    0    0  0.23996025666E+01  0.11710493121E+02 -0.12377177736E+02  0.17207215647E+02  0.00000000000E+00 0. -1.
</event>
<event>
 7    1  0.6293596E-013  0.5930194E+02  0.7816164E-02  0.1266605E+00
        -11   -1    0    0    0    0  0.00000000000E+00  0.00000000000E+00  0.45593999997E+02  0.45594000000E+02  0.51100000000E-03 0.  1.
         11   -1    0    0    0    0 -0.00000000000E+00 -0.00000000000E+00 -0.45593999997E+02  0.45594000000E+02  0.51100000000E-03 0. -1.
    9900012    2    1    2    0    0  0.50319294925E+00 -0.49735636224E+01 -0.31491764309E+02  0.59301941016E+02  0.49999994507E+02 0.  0.
        -12    1    1    2    0    0 -0.50319294925E+00  0.49735636224E+01  0.31491764309E+02  0.31886058984E+02  0.00000000000E+00 0.  1.
         11    1    3    3    0    0 -0.15608167497E+01  0.30342710610E+01 -0.36804344842E+02  0.36962179986E+02  0.51100000000E-03 0. -1.
        -11    1    3    3    0    0 -0.51564847594E+01 -0.35827247521E+01  0.10625849427E+02  0.12342363146E+02  0.51100000000E-03 0.  1.
        -12    1    3    3    0    0  0.72204944583E+01 -0.44251099313E+01 -0.53132688938E+01  0.99973978847E+01  0.00000000000E+00 0.  1.
</event>
<event>
 7    1  0.6293596E-013  0.5930197E+02  0.7816164E-02  0.1266605E+00
        -11   -1    0    0    0    0  0.00000000000E+00  0.00000000000E+00  0.45593999997E+02  0.45594000000E+02  0.51100000000E-03 0. -1.
         11   -1    0    0    0    0 -0.00000000000E+00 -0.00000000000E+00 -0.45593999997E+02  0.45594000000E+02  0.51100000000E-03 0.  1.
    9900012    2    1    2    0    0 -0.30831529683E+02  0.73973562643E+01  0.33785897437E+01  0.59301969031E+02  0.50000045600E+02 0.  0.
        -12    1    1    2    0    0  0.30831529683E+02 -0.73973562643E+01 -0.33785897437E+01  0.31886030969E+02  0.00000000000E+00 0.  1.
         11    1    3    3    0    0 -0.10217665379E+02 -0.13667402103E+02  0.16101413724E+02  0.23461758038E+02  0.51100000000E-03 0. -1.
        -11    1    3    3    0    0  0.15700991599E+01  0.23594808296E+01 -0.51057662143E+01  0.58396241363E+01  0.51100000000E-03 0.  1.
         12    1    3    3    0    0 -0.22183963463E+02  0.18705277538E+02 -0.76170577661E+01  0.30000586857E+02  0.00000000000E+00 0. -1.
</event>
<event>
 7    1  0.6293596E-013  0.5930191E+02  0.7816164E-02  0.1266605E+00
        -11   -1    0    0    0    0  0.00000000000E+00  0.00000000000E+00  0.45593999997E+02  0.45594000000E+02  0.51100000000E-03 0. -1.
         11   -1    0    0    0    0 -0.00000000000E+00 -0.00000000000E+00 -0.45593999997E+02  0.45594000000E+02  0.51100000000E-03 0.  1.
    9900012    2    1    2    0    0 -0.29965785197E+02 -0.91849694794E+01  0.58660456273E+01  0.59301914663E+02  0.49999946446E+02 0.  0.
        -12    1    1    2    0    0  0.29965785197E+02  0.91849694794E+01 -0.58660456273E+01  0.31886085337E+02  0.00000000000E+00 0.  1.
         11    1    3    3    0    0 -0.34527184569E+02 -0.57116197006E+01  0.18801814006E+02  0.39727286391E+02  0.51100000000E-03 0. -1.
        -11    1    3    3    0    0 -0.14825858308E+01 -0.95663476261E+00 -0.12907497661E+02  0.13027536488E+02  0.51100000000E-03 0.  1.
         12    1    3    3    0    0  0.60439852026E+01 -0.25167150162E+01 -0.28270717822E-01  0.65470917845E+01  0.00000000000E+00 0. -1.
</event>
<event>
 7    1  0.6293596E-013  0.5930195E+02  0.7816164E-02  0.1266605E+00
        -11   -1    0    0    0    0  0.00000000000E+00  0.00000000000E+00  0.45593999997E+02  0.45594000000E+02  0.51100000000E-03 0. -1.
         11   -1    0    0    0    0 -0.00000000000E+00 -0.00000000000E+00 -0.45593999997E+02  0.45594000000E+02  0.51100000000E-03 0.  1.
    9900012    2    1    2    0    0 -0.16016519289E+02  0.25208718315E+02  0.11167443340E+02  0.59301950386E+02  0.50000011596E+02 0.  0.
        -12    1    1    2    0    0  0.16016519289E+02 -0.25208718315E+02 -0.11167443340E+02  0.31886049614E+02  0.00000000000E+00 0.  1.
         11    1    3    3    0    0  0.96125779133E+01  0.92675883636E+01  0.12036139532E+02  0.17976609895E+02  0.51100000000E-03 0. -1.
        -11    1    3    3    0    0 -0.15059129540E+02 -0.59005554448E+01 -0.45049467502E+01  0.16789534911E+02  0.51100000000E-03 0.  1.
        -12    1    3    3    0    0 -0.10569967663E+02  0.21841685396E+02  0.36362505575E+01  0.24535805580E+02  0.00000000000E+00 0.  1.
</event>
<event>
 7    1  0.6293596E-013  0.5930196E+02  0.7816164E-02  0.1266605E+00
        -11   -1    0    0    0    0  0.00000000000E+00  0.00000000000E+00  0.45593999997E+02  0.45594000000E+02  0.51100000000E-03 0. -1.
         11   -1    0    0    0    0 -0.00000000000E+00 -0.00000000000E+00 -0.45593999997E+02  0.45594000000E+02  0.51100000000E-03 0.  1.
    9900012    2    1    2    0    0  0.12743743188E+02  0.14340244922E+02  0.25469073208E+02  0.59301963793E+02  0.50000036048E+02 0.  0.
        -12    1    1    2    0    0 -0.12743743188E+02 -0.14340244922E+02 -0.25469073208E+02  0.31886036207E+02  0.00000000000E+00 0.  1.
         11    1    3    3    0    0  0.13542423590E+02  0.24324240622E+02  0.77982152502E+01  0.28911556165E+02  0.51100000000E-03 0. -1.
        -11    1    3    3    0    0 -0.63954161827E+01  0.34174543616E+01  0.13426972045E+02  0.15259879456E+02  0.51100000000E-03 0.  1.
         12    1    3    3    0    0  0.55967357809E+01 -0.13401450061E+02  0.42438859135E+01  0.15130528173E+02  0.00000000000E+00 0. -1.
</event>
<event>
 7    1  0.6293596E-013  0.5930194E+02  0.7816164E-02  0.1266605E+00
        -11   -1    0    0    0    0  0.00000000000E+00  0.00000000000E+00  0.45593999997E+02  0.45594000000E+02  0.51100000000E-03 0. -1.
         11   -1    0    0    0    0 -0.00000000000E+00 -0.00000000000E+00 -0.45593999997E+02  0.45594000000E+02  0.51100000000E-03 0.  1.
    9900012    2    1    2    0    0 -0.25747694171E+02  0.11501446409E+02  0.14882661660E+02  0.59301942816E+02  0.49999997791E+02 0.  0.
        -12    1    1    2    0    0  0.25747694171E+02 -0.11501446409E+02 -0.14882661660E+02  0.31886057184E+02  0.00000000000E+00 0.  1.
         11    1    3    3    0    0  0.47567124367E+01  0.38526376171E+01  0.31675490909E+01  0.68922055482E+01  0.51100000000E-03 0. -1.
        -11    1    3    3    0    0 -0.24298747132E+02 -0.13215166608E+02  0.13086141627E+02  0.30599294822E+02  0.51100000000E-03 0.  1.
        -12    1    3    3    0    0 -0.62056594753E+01  0.20863975400E+02 -0.13710290578E+01  0.21810442446E+02  0.00000000000E+00 0.  1.
</event>
<event>
 7    1  0.6293596E-013  0.5930196E+02  0.7816164E-02  0.1266605E+00
        -11   -1    0    0    0    0  0.00000000000E+00  0.00000000000E+00  0.45593999997E+02  0.45594000000E+02  0.51100000000E-03 0. -1.
         11   -1    0    0    0    0 -0.00000000000E+00 -0.00000000000E+00 -0.45593999997E+02  0.45594000000E+02  0.51100000000E-03 0.  1.
    9900012    2    1    2    0    0 -0.10438471227E+02 -0.49043484518E+01  0.29727184872E+02  0.59301955470E+02  0.50000020869E+02 0.  0.
        -12    1    1    2    0    0  0.10438471227E+02  0.49043484518E+01 -0.29727184872E+02  0.31886044530E+02  0.00000000000E+00 0.  1.
         11    1    3    3    0    0 -0.56649796256E+00  0.12371213030E+02  0.57892594756E+01  0.13670528787E+02  0.51100000000E-03 0. -1.
        -11    1    3    3    0    0 -0.11755350740E+02 -0.20467378483E+02  0.23409844445E+01  0.23718812394E+02  0.51100000000E-03 0.  1.
        -12    1    3    3    0    0  0.18833774750E+01  0.31918170008E+01  0.21596940952E+02  0.21912614289E+02  0.00000000000E+00 0.  1.
</event>
<event>
 7    1  0.6293596E-013  0.5930194E+02  0.7816164E-02  0.1266605E+00
        -11   -1    0    0    0    0  0.00000000000E+00  0.00000000000E+00  0.45593999997E+02  0.45594000000E+02  0.51100000000E-03 0. -1.
         11   -1    0    0    0    0 -0.00000000000E+00 -0.00000000000E+00 -0.45593999997E+02  0.45594000000E+02  0.51100000000E-03 0.  1.
    9900012    2    1    2    0    0 -0.17304560751E+02 -0.71032540593E+01  0.25822794541E+02  0.59301940994E+02  0.49999994468E+02 0.  0.
        -12    1    1    2    0    0  0.17304560751E+02  0.71032540593E+01 -0.25822794541E+02  0.31886059006E+02  0.00000000000E+00 0.  1.
         11    1    3    3    0    0  0.41675629670E+01 -0.84545840216E+01  0.34183740064E+02  0.35459507287E+02  0.51100000000E-03 0. -1.
        -11    1    3    3    0    0 -0.12355949865E+02  0.37205868648E+01 -0.45741659852E+01  0.13690699704E+02  0.51100000000E-03 0.  1.
         12    1    3    3    0    0 -0.91161738532E+01 -0.23692569026E+01 -0.37867795377E+01  0.10151734003E+02  0.00000000000E+00 0. -1.
</event>
<event>
 7    1  0.6293596E-013  0.5930204E+02  0.7816164E-02  0.1266604E+00
        -11   -1    0    0    0    0  0.00000000000E+00  0.00000000000E+00  0.45593999997E+02  0.45594000000E+02  0.51100000000E-03 0. -1.
         11   -1    0    0    0    0 -0.00000000000E+00 -0.00000000000E+00 -0.45593999997E+02  0.45594000000E+02  0.51100000000E-03 0.  1.
    9900012    2    1    2    0    0 -0.24042471938E+02 -0.14941258397E+02  0.14677626265E+02  0.59302041144E+02  0.50000177116E+02 0.  0.
        -12    1    1    2    0    0  0.24042471938E+02  0.14941258397E+02 -0.14677626265E+02  0.31885958856E+02  0.00000000000E+00 0.  1.
         11    1    3    3    0    0 -0.23776484723E+02  0.14664893498E+01  0.23279477715E+02  0.33307745342E+02  0.51100000000E-03 0. -1.
        -11    1    3    3    0    0 -0.60374312375E+01 -0.17593470876E+02 -0.59132604846E+01  0.19517874967E+02  0.51100000000E-03 0.  1.
         12    1    3    3    0    0  0.57714440229E+01  0.11857231292E+01 -0.26885909653E+01  0.64764208346E+01  0.00000000000E+00 0. -1.
</event>
<event>
 7    1  0.6293596E-013  0.5930191E+02  0.7816164E-02  0.1266605E+00
        -11   -1    0    0    0    0  0.00000000000E+00  0.00000000000E+00  0.45593999997E+02  0.45594000000E+02  0.51100000000E-03 0. -1.
         11   -1    0    0    0    0 -0.00000000000E+00 -0.00000000000E+00 -0.45593999997E+02  0.45594000000E+02  0.51100000000E-03 0.  1.
    9900012    2    1    2    0    0  0.11632667106E+02 -0.12111681805E+02  0.27105547969E+02  0.59301913523E+02  0.49999944367E+02 0.  0.
        -12    1    1    2    0    0 -0.11632667106E+02  0.12111681805E+02 -0.27105547969E+02  0.31886086477E+02  0.00000000000E+00 0.  1.
         11    1    3    3    0    0 -0.17835831758E+02  0.29804684093E+01  0.84270518955E+01  0.19950320558E+02  0.51100000000E-03 0. -1.
        -11    1    3    3    0    0  0.69482702461E+01  0.48179687034E+00  0.59342957742E+01  0.91502160758E+01  0.51100000000E-03 0.  1.
         12    1    3    3    0    0  0.22520228618E+02 -0.15573947084E+02  0.12744200299E+02  0.30201376890E+02  0.00000000000E+00 0. -1.
</event>
<event>
 7    1  0.6293596E-013  0.5930160E+02  0.7816164E-02  0.1266606E+00
        -11   -1    0    0    0    0  0.00000000000E+00  0.00000000000E+00  0.45593999997E+02  0.45594000000E+02  0.51100000000E-03 0. -1.
         11   -1    0    0    0    0 -0.00000000000E+00 -0.00000000000E+00 -0.45593999997E+02  0.45594000000E+02  0.51100000000E-03 0.  1.
    9900012    2    1    2    0    0  0.14051717389E+01 -0.98821535868E+01  0.30283838826E+02  0.59301602255E+02  0.49999376684E+02 0.  0.
        -12    1    1    2    0    0 -0.14051717389E+01  0.98821535868E+01 -0.30283838826E+02  0.31886397745E+02  0.00000000000E+00 0.  1.
         11    1    3    3    0    0  0.24595509209E+01 -0.26193067707E+02  0.26343926849E+02  0.37230748968E+02  0.51100000000E-03 0. -1.
        -11    1    3    3    0    0  0.20801570703E+01  0.11681467050E+02 -0.38572273227E+01  0.12476454975E+02  0.51100000000E-03 0.  1.
        -12    1    3    3    0    0 -0.31345362523E+01  0.46294470709E+01  0.77971392998E+01  0.95943983115E+01  0.00000000000E+00 0.  1.
</event>
<event>
 7    1  0.6293596E-013  0.5930193E+02  0.7816164E-02  0.1266605E+00
        -11   -1    0    0    0    0  0.00000000000E+00  0.00000000000E+00  0.45593999997E+02  0.45594000000E+02  0.51100000000E-03 0.  1.
         11   -1    0    0    0    0 -0.00000000000E+00 -0.00000000000E+00 -0.45593999997E+02  0.45594000000E+02  0.51100000000E-03 0. -1.
    9900012    2    1    2    0    0  0.25533736307E+02  0.11166549450E+02  0.15493801978E+02  0.59301930688E+02  0.49999975672E+02 0.  0.
        -12    1    1    2    0    0 -0.25533736307E+02 -0.11166549450E+02 -0.15493801978E+02  0.31886069312E+02  0.00000000000E+00 0.  1.
         11    1    3    3    0    0  0.38105906447E+02 -0.22133951859E+01  0.10551349012E+02  0.39601643787E+02  0.51100000000E-03 0. -1.
        -11    1    3    3    0    0 -0.23339769256E+00  0.23682369001E+01  0.14843068635E+01  0.28046724629E+01  0.51100000000E-03 0.  1.
         12    1    3    3    0    0 -0.12338772448E+02  0.11011707736E+02  0.34581461027E+01  0.16895614438E+02  0.00000000000E+00 0. -1.
</event>
<event>
 7    1  0.6293596E-013  0.5930194E+02  0.7816164E-02  0.1266605E+00
        -11   -1    0    0    0    0  0.00000000000E+00  0.00000000000E+00  0.45593999997E+02  0.45594000000E+02  0.51100000000E-03 0.  1.
         11   -1    0    0    0    0 -0.00000000000E+00 -0.00000000000E+00 -0.45593999997E+02  0.45594000000E+02  0.51100000000E-03 0. -1.
    9900012    2    1    2    0    0  0.18578965859E+02  0.14933079413E+02 -0.21178900256E+02  0.59301942715E+02  0.49999997607E+02 0.  0.
        -12    1    1    2    0    0 -0.18578965859E+02 -0.14933079413E+02  0.21178900256E+02  0.31886057285E+02  0.00000000000E+00 0.  1.
         11    1    3    3    0    0  0.13596595467E+02  0.27951276888E+02  0.99794244675E+00  0.31098829196E+02  0.51100000000E-03 0.  1.
        -11    1    3    3    0    0  0.76678590849E+01 -0.76739220690E+01 -0.17587891439E+02  0.20664439707E+02  0.51100000000E-03 0. -1.
        -12    1    3    3    0    0 -0.26854886934E+01 -0.53442754069E+01 -0.45889512630E+01  0.75386738118E+01  0.00000000000E+00 0.  1.
</event>
<event>
 7    1  0.6293596E-013  0.5930194E+02  0.7816164E-02  0.1266605E+00
        -11   -1    0    0    0    0  0.00000000000E+00  0.00000000000E+00  0.45593999997E+02  0.45594000000E+02  0.51100000000E-03 0. -1.
         11   -1    0    0    0    0 -0.00000000000E+00 -0.00000000000E+00 -0.45593999997E+02  0.45594000000E+02  0.51100000000E-03 0.  1.
    9900012    2    1    2    0    0 -0.33881730065E+01 -0.15763475403E+02  0.27509159952E+02  0.59301941066E+02  0.49999994599E+02 0.  0.
        -12    1    1    2    0    0  0.33881730065E+01  0.15763475403E+02 -0.27509159952E+02  0.31886058934E+02  0.00000000000E+00 0.  1.
         11    1    3    3    0    0 -0.22475410930E+02 -0.74477480247E+01  0.68140053141E+01  0.24638257158E+02  0.51100000000E-03 0. -1.
        -11    1    3    3    0    0  0.16479175408E+02 -0.78892843507E+01  0.24169807808E+02  0.30298244824E+02  0.51100000000E-03 0.  1.
         12    1    3    3    0    0  0.26080625157E+01 -0.42644302746E+00 -0.34746531704E+01  0.43654390840E+01  0.00000000000E+00 0. -1.
</event>
<event>
 7    1  0.6293596E-013  0.5930194E+02  0.7816164E-02  0.1266605E+00
        -11   -1    0    0    0    0  0.00000000000E+00  0.00000000000E+00  0.45593999997E+02  0.45594000000E+02  0.51100000000E-03 0. -1.
         11   -1    0    0    0    0 -0.00000000000E+00 -0.00000000000E+00 -0.45593999997E+02  0.45594000000E+02  0.51100000000E-03 0.  1.
    9900012    2    1    2    0    0  0.29612482572E+02  0.77470991624E+01 -0.89333108864E+01  0.59301941716E+02  0.49999995784E+02 0.  0.
        -12    1    1    2    0    0 -0.29612482572E+02 -0.77470991624E+01  0.89333108864E+01  0.31886058284E+02  0.00000000000E+00 0.  1.
         11    1    3    3    0    0  0.28671244525E+02  0.40449674582E+01 -0.22028349203E+02  0.36382003700E+02  0.51100000000E-03 0.  1.
        -11    1    3    3    0    0 -0.30663051093E+01  0.53593630047E+01  0.16363378597E+02  0.17489572842E+02  0.51100000000E-03 0. -1.
         12    1    3    3    0    0  0.40075431564E+01 -0.16572313004E+01 -0.32683402804E+01  0.54303651739E+01  0.00000000000E+00 0. -1.
</event>
<event>
 7    1  0.6293596E-013  0.5930197E+02  0.7816164E-02  0.1266605E+00
        -11   -1    0    0    0    0  0.00000000000E+00  0.00000000000E+00  0.45593999997E+02  0.45594000000E+02  0.51100000000E-03 0.  1.
         11   -1    0    0    0    0 -0.00000000000E+00 -0.00000000000E+00 -0.45593999997E+02  0.45594000000E+02  0.51100000000E-03 0. -1.
    9900012    2    1    2    0    0  0.26621232598E+02 -0.13808931826E+02 -0.10832465101E+02  0.59301969777E+02  0.50000046961E+02 0.  0.
        -12    1    1    2    0    0 -0.26621232598E+02  0.13808931826E+02  0.10832465101E+02  0.31886030223E+02  0.00000000000E+00 0.  1.
         11    1    3    3    0    0 -0.57436622179E+01 -0.20158622010E+02 -0.14179439427E+02  0.25306445813E+02  0.51100000000E-03 0. -1.
        -11    1    3    3    0    0  0.21426689352E+02  0.42341903481E+01  0.57781501505E+01  0.22592441301E+02  0.51100000000E-03 0.  1.
         12    1    3    3    0    0  0.10938205464E+02  0.21154998356E+01 -0.24311758248E+01  0.11403082663E+02  0.00000000000E+00 0. -1.
</event>
<event>
 7    1  0.6293596E-013  0.5930193E+02  0.7816164E-02  0.1266605E+00
        -11   -1    0    0    0    0  0.00000000000E+00  0.00000000000E+00  0.45593999997E+02  0.45594000000E+02  0.51100000000E-03 0.  1.
         11   -1    0    0    0    0 -0.00000000000E+00 -0.00000000000E+00 -0.45593999997E+02  0.45594000000E+02  0.51100000000E-03 0. -1.
    9900012    2    1    2    0    0  0.20644668263E+02 -0.13280226024E+02 -0.20350791456E+02  0.59301930254E+02  0.49999974881E+02 0.  0.
        -12    1    1    2    0    0 -0.20644668263E+02  0.13280226024E+02  0.20350791456E+02  0.31886069746E+02  0.00000000000E+00 0.  1.
         11    1    3    3    0    0  0.27297120926E+02  0.14391852269E+01 -0.25962285722E+02  0.37699394493E+02  0.51100000000E-03 0. -1.
        -11    1    3    3    0    0 -0.20936420102E+01 -0.11014325993E+02  0.93844251522E+01  0.14620743813E+02  0.51100000000E-03 0.  1.
         12    1    3    3    0    0 -0.45588106531E+01 -0.37050852583E+01 -0.37729308865E+01  0.69817919488E+01  0.00000000000E+00 0. -1.
</event>
<event>
 7    1  0.6293596E-013  0.5930194E+02  0.7816164E-02  0.1266605E+00
        -11   -1    0    0    0    0  0.00000000000E+00  0.00000000000E+00  0.45593999997E+02  0.45594000000E+02  0.51100000000E-03 0. -1.
         11   -1    0    0    0    0 -0.00000000000E+00 -0.00000000000E+00 -0.45593999997E+02  0.45594000000E+02  0.51100000000E-03 0.  1.
    9900012    2    1    2    0    0  0.23817691583E+02 -0.46183636978E+01  0.20690790639E+02  0.59301944539E+02  0.50000000932E+02 0.  0.
        -12    1    1    2    0    0 -0.23817691583E+02  0.46183636978E+01 -0.20690790639E+02  0.31886055461E+02  0.00000000000E+00 0.  1.
         11    1    3    3    0    0  0.71187385650E+01 -0.12612414258E+02  0.10355541056E+02  0.17804119270E+02  0.51100000000E-03 0. -1.
        -11    1    3    3    0    0  0.46146271322E+01  0.18074314463E+02  0.16197262145E+02  0.24704795651E+02  0.51100000000E-03 0.  1.
        -12    1    3    3    0    0  0.12084325886E+02 -0.10080263903E+02 -0.58620125614E+01  0.16793029618E+02  0.00000000000E+00 0.  1.
</event>
<event>
 7    1  0.6293596E-013  0.5930200E+02  0.7816164E-02  0.1266605E+00
        -11   -1    0    0    0    0  0.00000000000E+00  0.00000000000E+00  0.45593999997E+02  0.45594000000E+02  0.51100000000E-03 0.  1.
         11   -1    0    0    0    0 -0.00000000000E+00 -0.00000000000E+00 -0.45593999997E+02  0.45594000000E+02  0.51100000000E-03 0. -1.
    9900012    2    1    2    0    0  0.29794789408E+02 -0.16567618694E+01 -0.11235772264E+02  0.59302001283E+02  0.50000104421E+02 0.  0.
        -12    1    1    2    0    0 -0.29794789408E+02  0.16567618694E+01  0.11235772264E+02  0.31885998717E+02  0.00000000000E+00 0.  1.
         11    1    3    3    0    0  0.41970145270E+02 -0.61435206144E+01 -0.54676476519E+01  0.42768342388E+02  0.51100000000E-03 0. -1.
        -11    1    3    3    0    0 -0.68510383149E+01  0.62869348488E+01 -0.13741132635E+01  0.93994927154E+01  0.51100000000E-03 0.  1.
         12    1    3    3    0    0 -0.53243175470E+01 -0.18001761037E+01 -0.43940113486E+01  0.71341661795E+01  0.00000000000E+00 0. -1.
</event>
<event>
 7    1  0.6293596E-013  0.5930195E+02  0.7816164E-02  0.1266605E+00
        -11   -1    0    0    0    0  0.00000000000E+00  0.00000000000E+00  0.45593999997E+02  0.45594000000E+02  0.51100000000E-03 0.  1.
         11   -1    0    0    0    0 -0.00000000000E+00 -0.00000000000E+00 -0.45593999997E+02  0.45594000000E+02  0.51100000000E-03 0. -1.
    9900012    2    1    2    0    0 -0.14915989526E+02 -0.70936624361E+01 -0.27274780541E+02  0.59301945934E+02  0.50000003477E+02 0.  0.
        -12    1    1    2    0    0  0.14915989526E+02  0.70936624361E+01  0.27274780541E+02  0.31886054066E+02  0.00000000000E+00 0.  1.
         11    1    3    3    0    0 -0.52824046928E+01 -0.16365616863E+02  0.14144372009E+00  0.17197593472E+02  0.51100000000E-03 0. -1.
        -11    1    3    3    0    0  0.38699269800E+01  0.12634857282E+02 -0.23317493000E+01  0.13418383227E+02  0.51100000000E-03 0.  1.
         12    1    3    3    0    0 -0.13503511814E+02 -0.33629028556E+01 -0.25084474961E+02  0.28685969236E+02  0.00000000000E+00 0. -1.
</event>
<event>
 7    1  0.6293596E-013  0.5930194E+02  0.7816164E-02  0.1266605E+00
        -11   -1    0    0    0    0  0.00000000000E+00  0.00000000000E+00  0.45593999997E+02  0.45594000000E+02  0.51100000000E-03 0.  1.
         11   -1    0    0    0    0 -0.00000000000E+00 -0.00000000000E+00 -0.45593999997E+02  0.45594000000E+02  0.51100000000E-03 0. -1.
    9900012    2    1    2    0    0 -0.41052408052E+01 -0.23703988412E+02 -0.20928178439E+02  0.59301941582E+02  0.49999995539E+02 0.  0.
        -12    1    1    2    0    0  0.41052408052E+01  0.23703988412E+02  0.20928178439E+02  0.31886058418E+02  0.00000000000E+00 0.  1.
         11    1    3    3    0    0 -0.12060148800E+02 -0.20682844853E+02  0.37015818270E+01  0.24226616944E+02  0.51100000000E-03 0. -1.
        -11    1    3    3    0    0  0.13534687940E+02  0.53064540639E+01 -0.17621221330E+02  0.22844116831E+02  0.51100000000E-03 0.  1.
        -12    1    3    3    0    0 -0.55797799447E+01 -0.83275976227E+01 -0.70085389361E+01  0.12231207807E+02  0.00000000000E+00 0.  1.
</event>
<event>
 7    1  0.6293596E-013  0.5930185E+02  0.7816164E-02  0.1266605E+00
        -11   -1    0    0    0    0  0.00000000000E+00  0.00000000000E+00  0.45593999997E+02  0.45594000000E+02  0.51100000000E-03 0. -1.
         11   -1    0    0    0    0 -0.00000000000E+00 -0.00000000000E+00 -0.45593999997E+02  0.45594000000E+02  0.51100000000E-03 0.  1.
    9900012    2    1    2    0    0  0.23797643932E+02 -0.32354158669E+01  0.20974529878E+02  0.59301848207E+02  0.49999825246E+02 0.  0.
        -12    1    1    2    0    0 -0.23797643932E+02  0.32354158669E+01 -0.20974529878E+02  0.31886151793E+02  0.00000000000E+00 0.  1.
         11    1    3    3    0    0  0.12997608903E+02 -0.62802425229E+01  0.21025582126E+02  0.25504007279E+02  0.51100000000E-03 0. -1.
        -11    1    3    3    0    0 -0.58050259159E+01  0.38056510750E+01 -0.11627268280E+02  0.13541590523E+02  0.51100000000E-03 0.  1.
        -12    1    3    3    0    0  0.16605060946E+02 -0.76082441899E+00  0.11576216033E+02  0.20256250404E+02  0.00000000000E+00 0.  1.
</event>
<event>
 7    1  0.7247830E-013  0.5930193E+02  0.7816164E-02  0.1266605E+00
        -11   -1    0    0    0    0  0.00000000000E+00  0.00000000000E+00  0.45593999997E+02  0.45594000000E+02  0.51100000000E-03 0. -1.
         11   -1    0    0    0    0 -0.00000000000E+00 -0.00000000000E+00 -0.45593999997E+02  0.45594000000E+02  0.51100000000E-03 0.  1.
    9900012    2    1    2    0    0  0.31140689417E+02  0.67283554385E+01 -0.13070856771E+01  0.59301925026E+02  0.49999965346E+02 0.  0.
        -12    1    1    2    0    0 -0.31140689417E+02 -0.67283554385E+01  0.13070856771E+01  0.31886074974E+02  0.00000000000E+00 0.  1.
         11    1    3    3    0    0  0.22726110658E+02  0.12948083354E+02  0.92509722052E+01  0.27743638103E+02  0.51100000000E-03 0. -1.
        -11    1    3    3    0    0  0.96470433265E+01 -0.15347891317E+02 -0.80885272709E+00  0.18146003853E+02  0.51100000000E-03 0.  1.
        -12    1    3    3    0    0 -0.12324645682E+01  0.91281634021E+01 -0.97492051552E+01  0.13412283071E+02  0.00000000000E+00 0.  1.
</event>
<event>
 7    1  0.6293596E-013  0.5930195E+02  0.7816164E-02  0.1266605E+00
        -11   -1    0    0    0    0  0.00000000000E+00  0.00000000000E+00  0.45593999997E+02  0.45594000000E+02  0.51100000000E-03 0.  1.
         11   -1    0    0    0    0 -0.00000000000E+00 -0.00000000000E+00 -0.45593999997E+02  0.45594000000E+02  0.51100000000E-03 0. -1.
    9900012    2    1    2    0    0 -0.87686107685E+01 -0.44533506637E+01 -0.30331486846E+02  0.59301953503E+02  0.50000017281E+02 0.  0.
        -12    1    1    2    0    0  0.87686107685E+01  0.44533506637E+01  0.30331486846E+02  0.31886046497E+02  0.00000000000E+00 0.  1.
         11    1    3    3    0    0 -0.15941869077E+02  0.55946304885E+01 -0.95432722467E+01  0.19404049201E+02  0.51100000000E-03 0. -1.
        -11    1    3    3    0    0  0.18646779374E+02 -0.44342684904E+01 -0.54278463787E+01  0.19920507891E+02  0.51100000000E-03 0.  1.
        -12    1    3    3    0    0 -0.11473521065E+02 -0.56137126618E+01 -0.15360368220E+02  0.19977396411E+02  0.00000000000E+00 0.  1.
</event>
<event>
 7    1  0.6293596E-013  0.5930195E+02  0.7816164E-02  0.1266605E+00
        -11   -1    0    0    0    0  0.00000000000E+00  0.00000000000E+00  0.45593999997E+02  0.45594000000E+02  0.51100000000E-03 0.  1.
         11   -1    0    0    0    0 -0.00000000000E+00 -0.00000000000E+00 -0.45593999997E+02  0.45594000000E+02  0.51100000000E-03 0. -1.
    9900012    2    1    2    0    0 -0.15888164888E+02  0.25278929005E+02  0.11192063848E+02  0.59301947747E+02  0.50000006783E+02 0.  0.
        -12    1    1    2    0    0  0.15888164888E+02 -0.25278929005E+02 -0.11192063848E+02  0.31886052253E+02  0.00000000000E+00 0.  1.
         11    1    3    3    0    0  0.44314078609E+01  0.21746977578E+02  0.53748112631E+01  0.22835433120E+02  0.51100000000E-03 0.  1.
        -11    1    3    3    0    0 -0.45271323075E+01 -0.12437765741E+02 -0.11554990738E+00  0.13236551499E+02  0.51100000000E-03 0. -1.
        -12    1    3    3    0    0 -0.15792440441E+02  0.15969717167E+02  0.59328024920E+01  0.23229963127E+02  0.00000000000E+00 0.  1.
</event>
<event>
 7    1  0.6293596E-013  0.5930195E+02  0.7816164E-02  0.1266605E+00
        -11   -1    0    0    0    0  0.00000000000E+00  0.00000000000E+00  0.45593999997E+02  0.45594000000E+02  0.51100000000E-03 0.  1.
         11   -1    0    0    0    0 -0.00000000000E+00 -0.00000000000E+00 -0.45593999997E+02  0.45594000000E+02  0.51100000000E-03 0. -1.
    9900012    2    1    2    0    0  0.17336645620E+02  0.11715275980E+01 -0.26735532035E+02  0.59301946129E+02  0.50000003832E+02 0.  0.
        -12    1    1    2    0    0 -0.17336645620E+02 -0.11715275980E+01  0.26735532035E+02  0.31886053871E+02  0.00000000000E+00 0.  1.
         11    1    3    3    0    0  0.88929387968E+01 -0.10220780932E+02  0.33607542732E+01  0.13958631482E+02  0.51100000000E-03 0.  1.
        -11    1    3    3    0    0  0.39258343854E+01  0.84801950061E+01 -0.36097155689E+02  0.37287136281E+02  0.51100000000E-03 0. -1.
        -12    1    3    3    0    0  0.45178724381E+01  0.29121135238E+01  0.60008693802E+01  0.80561783657E+01  0.00000000000E+00 0.  1.
</event>
<event>
 7    1  0.6293596E-013  0.5930194E+02  0.7816164E-02  0.1266605E+00
        -11   -1    0    0    0    0  0.00000000000E+00  0.00000000000E+00  0.45593999997E+02  0.45594000000E+02  0.51100000000E-03 0.  1.
         11   -1    0    0    0    0 -0.00000000000E+00 -0.00000000000E+00 -0.45593999997E+02  0.45594000000E+02  0.51100000000E-03 0. -1.
    9900012    2    1    2    0    0 -0.11356966069E+02 -0.28806676877E+02  0.76102156306E+01  0.59301942029E+02  0.49999996354E+02 0.  0.
        -12    1    1    2    0    0  0.11356966069E+02  0.28806676877E+02 -0.76102156306E+01  0.31886057971E+02  0.00000000000E+00 0.  1.
         11    1    3    3    0    0 -0.92755948948E+01 -0.10835263015E+02 -0.20782385446E+02  0.25206093119E+02  0.51100000000E-03 0. -1.
        -11    1    3    3    0    0 -0.13781180135E+01 -0.22220639296E+01  0.73605844784E+01  0.78112087087E+01  0.51100000000E-03 0.  1.
         12    1    3    3    0    0 -0.70325316108E+00 -0.15749349932E+02  0.21032016598E+02  0.26284640201E+02  0.00000000000E+00 0. -1.
</event>
<event>
 7    1  0.6293596E-013  0.5930194E+02  0.7816164E-02  0.1266605E+00
        -11   -1    0    0    0    0  0.00000000000E+00  0.00000000000E+00  0.45593999997E+02  0.45594000000E+02  0.51100000000E-03 0. -1.
         11   -1    0    0    0    0 -0.00000000000E+00 -0.00000000000E+00 -0.45593999997E+02  0.45594000000E+02  0.51100000000E-03 0.  1.
    9900012    2    1    2    0    0  0.12329759401E+02  0.25914994528E+02  0.13896425517E+02  0.59301944263E+02  0.50000000430E+02 0.  0.
        -12    1    1    2    0    0 -0.12329759401E+02 -0.25914994528E+02 -0.13896425517E+02  0.31886055737E+02  0.00000000000E+00 0.  1.
         11    1    3    3    0    0 -0.81054676705E+01  0.21169538444E+02  0.10601692422E+02  0.25024864566E+02  0.51100000000E-03 0. -1.
        -11    1    3    3    0    0  0.25422122237E+02  0.46081728280E+01 -0.32584344213E+01  0.26041062785E+02  0.51100000000E-03 0.  1.
        -12    1    3    3    0    0 -0.49868951654E+01  0.13728325659E+00  0.65531675161E+01  0.82360169121E+01  0.00000000000E+00 0.  1.
</event>
<event>
 7    1  0.6293596E-013  0.5930193E+02  0.7816164E-02  0.1266605E+00
        -11   -1    0    0    0    0  0.00000000000E+00  0.00000000000E+00  0.45593999997E+02  0.45594000000E+02  0.51100000000E-03 0.  1.
         11   -1    0    0    0    0 -0.00000000000E+00 -0.00000000000E+00 -0.45593999997E+02  0.45594000000E+02  0.51100000000E-03 0. -1.
    9900012    2    1    2    0    0 -0.23507616662E+02 -0.20361015862E+02  0.70386354684E+01  0.59301930983E+02  0.49999976210E+02 0.  0.
        -12    1    1    2    0    0  0.23507616662E+02  0.20361015862E+02 -0.70386354684E+01  0.31886069017E+02  0.00000000000E+00 0.  1.
         11    1    3    3    0    0 -0.36629378886E+01 -0.15610069247E+01 -0.23117890511E+01  0.46041530679E+01  0.51100000000E-03 0. -1.
        -11    1    3    3    0    0  0.20734065947E+01  0.10758037107E+02  0.13812857458E+02  0.17630354753E+02  0.51100000000E-03 0.  1.
        -12    1    3    3    0    0 -0.21918085369E+02 -0.29558046044E+02 -0.44624329386E+01  0.37067423162E+02  0.00000000000E+00 0.  1.
</event>
<event>
 7    1  0.6293596E-013  0.5930196E+02  0.7816164E-02  0.1266605E+00
        -11   -1    0    0    0    0  0.00000000000E+00  0.00000000000E+00  0.45593999997E+02  0.45594000000E+02  0.51100000000E-03 0.  1.
         11   -1    0    0    0    0 -0.00000000000E+00 -0.00000000000E+00 -0.45593999997E+02  0.45594000000E+02  0.51100000000E-03 0. -1.
    9900012    2    1    2    0    0  0.19344860549E+02  0.16372014019E+02 -0.19350795961E+02  0.59301956391E+02  0.50000022548E+02 0.  0.
        -12    1    1    2    0    0 -0.19344860549E+02 -0.16372014019E+02  0.19350795961E+02  0.31886043609E+02  0.00000000000E+00 0.  1.
         11    1    3    3    0    0  0.17677356988E+02  0.74092361936E+01 -0.11522559066E+01  0.19201912014E+02  0.51100000000E-03 0. -1.
        -11    1    3    3    0    0  0.19944048474E+01 -0.96182707088E+01  0.44661203045E+01  0.10790505686E+02  0.51100000000E-03 0.  1.
        -12    1    3    3    0    0 -0.32690128715E+00  0.18581048534E+02 -0.22664660359E+02  0.29309538691E+02  0.00000000000E+00 0.  1.
</event>
<event>
 7    1  0.6293596E-013  0.5930193E+02  0.7816164E-02  0.1266605E+00
        -11   -1    0    0    0    0  0.00000000000E+00  0.00000000000E+00  0.45593999997E+02  0.45594000000E+02  0.51100000000E-03 0. -1.
         11   -1    0    0    0    0 -0.00000000000E+00 -0.00000000000E+00 -0.45593999997E+02  0.45594000000E+02  0.51100000000E-03 0.  1.
    9900012    2    1    2    0    0 -0.15634028271E+02  0.18051036818E+02  0.21129573424E+02  0.59301927127E+02  0.49999969177E+02 0.  0.
        -12    1    1    2    0    0  0.15634028271E+02 -0.18051036818E+02 -0.21129573424E+02  0.31886072873E+02  0.00000000000E+00 0.  1.
         11    1    3    3    0    0 -0.17733745089E+02  0.60595347030E+01  0.68092675650E+01  0.19939152458E+02  0.51100000000E-03 0. -1.
        -11    1    3    3    0    0  0.74704503883E+01 -0.11146685839E+01 -0.92022110120E+01  0.11905074667E+02  0.51100000000E-03 0.  1.
         12    1    3    3    0    0 -0.53707335696E+01  0.13106170699E+02  0.23522516871E+02  0.27457700002E+02  0.00000000000E+00 0. -1.
</event>
<event>
 7    1  0.6293596E-013  0.5930194E+02  0.7816164E-02  0.1266605E+00
        -11   -1    0    0    0    0  0.00000000000E+00  0.00000000000E+00  0.45593999997E+02  0.45594000000E+02  0.51100000000E-03 0.  1.
         11   -1    0    0    0    0 -0.00000000000E+00 -0.00000000000E+00 -0.45593999997E+02  0.45594000000E+02  0.51100000000E-03 0. -1.
    9900012    2    1    2    0    0  0.16204458221E+02  0.21823861709E+02  0.16669003522E+02  0.59301935888E+02  0.49999985155E+02 0.  0.
        -12    1    1    2    0    0 -0.16204458221E+02 -0.21823861709E+02 -0.16669003522E+02  0.31886064112E+02  0.00000000000E+00 0.  1.
         11    1    3    3    0    0  0.25828884720E+02  0.49804886683E+01 -0.55127271703E+01  0.26876136522E+02  0.51100000000E-03 0. -1.
        -11    1    3    3    0    0 -0.85186182311E+01  0.18663987283E+02  0.22288019563E+02  0.30293020552E+02  0.51100000000E-03 0.  1.
         12    1    3    3    0    0 -0.11058082684E+01 -0.18206142414E+01 -0.10628887063E+00  0.21327788133E+01  0.00000000000E+00 0. -1.
</event>
<event>
 7    1  0.6293596E-013  0.5930193E+02  0.7816164E-02  0.1266605E+00
        -11   -1    0    0    0    0  0.00000000000E+00  0.00000000000E+00  0.45593999997E+02  0.45594000000E+02  0.51100000000E-03 0.  1.
         11   -1    0    0    0    0 -0.00000000000E+00 -0.00000000000E+00 -0.45593999997E+02  0.45594000000E+02  0.51100000000E-03 0. -1.
    9900012    2    1    2    0    0 -0.72467177934E+01  0.27398650146E+02  0.14612331175E+02  0.59301934533E+02  0.49999982684E+02 0.  0.
        -12    1    1    2    0    0  0.72467177934E+01 -0.27398650146E+02 -0.14612331175E+02  0.31886065467E+02  0.00000000000E+00 0.  1.
         11    1    3    3    0    0 -0.21883025643E+02  0.29046619165E+02  0.80599396941E+01  0.37249637909E+02  0.51100000000E-03 0. -1.
        -11    1    3    3    0    0  0.15824376093E+02  0.24022764604E+01  0.24977048515E+01  0.16199393220E+02  0.51100000000E-03 0.  1.
         12    1    3    3    0    0 -0.11880682433E+01 -0.40502454796E+01  0.40546866293E+01  0.58529034041E+01  0.00000000000E+00 0. -1.
</event>
<event>
 7    1  0.6293596E-013  0.5930197E+02  0.7816164E-02  0.1266605E+00
        -11   -1    0    0    0    0  0.00000000000E+00  0.00000000000E+00  0.45593999997E+02  0.45594000000E+02  0.51100000000E-03 0. -1.
         11   -1    0    0    0    0 -0.00000000000E+00 -0.00000000000E+00 -0.45593999997E+02  0.45594000000E+02  0.51100000000E-03 0.  1.
    9900012    2    1    2    0    0  0.18242908479E+02  0.17127668899E+02  0.19762548378E+02  0.59301967477E+02  0.50000042765E+02 0.  0.
        -12    1    1    2    0    0 -0.18242908479E+02 -0.17127668899E+02 -0.19762548378E+02  0.31886032523E+02  0.00000000000E+00 0.  1.
         11    1    3    3    0    0  0.35821721133E+01 -0.38307443369E+01  0.29233711372E+02  0.29700445116E+02  0.51100000000E-03 0. -1.
        -11    1    3    3    0    0  0.80637209153E+01  0.13937355105E+02 -0.14850911731E-01  0.16101977616E+02  0.51100000000E-03 0.  1.
         12    1    3    3    0    0  0.65970154502E+01  0.70210581309E+01 -0.94563120823E+01  0.13499544745E+02  0.00000000000E+00 0. -1.
</event>
<event>
 7    1  0.6293596E-013  0.5930195E+02  0.7816164E-02  0.1266605E+00
        -11   -1    0    0    0    0  0.00000000000E+00  0.00000000000E+00  0.45593999997E+02  0.45594000000E+02  0.51100000000E-03 0.  1.
         11   -1    0    0    0    0 -0.00000000000E+00 -0.00000000000E+00 -0.45593999997E+02  0.45594000000E+02  0.51100000000E-03 0. -1.
    9900012    2    1    2    0    0 -0.22031388729E+02  0.23049991672E+02  0.18996804253E+00  0.59301948296E+02  0.50000007784E+02 0.  0.
        -12    1    1    2    0    0  0.22031388729E+02 -0.23049991672E+02 -0.18996804253E+00  0.31886051704E+02  0.00000000000E+00 0.  1.
         11    1    3    3    0    0 -0.28325405180E+02  0.23739838011E+02 -0.19462387867E+01  0.37009408710E+02  0.51100000000E-03 0. -1.
        -11    1    3    3    0    0  0.46941210823E+01  0.34425290296E+01 -0.87668050908E+01  0.10523433404E+02  0.51100000000E-03 0.  1.
         12    1    3    3    0    0  0.15998953681E+01 -0.41323753694E+01  0.10903011920E+02  0.11769106181E+02  0.00000000000E+00 0. -1.
</event>
<event>
 7    1  0.6293596E-013  0.5930194E+02  0.7816164E-02  0.1266605E+00
        -11   -1    0    0    0    0  0.00000000000E+00  0.00000000000E+00  0.45593999997E+02  0.45594000000E+02  0.51100000000E-03 0. -1.
         11   -1    0    0    0    0 -0.00000000000E+00 -0.00000000000E+00 -0.45593999997E+02  0.45594000000E+02  0.51100000000E-03 0.  1.
    9900012    2    1    2    0    0  0.93258611029E+01  0.26896073144E+02  0.14364905667E+02  0.59301937987E+02  0.49999988982E+02 0.  0.
        -12    1    1    2    0    0 -0.93258611029E+01 -0.26896073144E+02 -0.14364905667E+02  0.31886062013E+02  0.00000000000E+00 0.  1.
         11    1    3    3    0    0  0.14365625363E+02  0.15370896284E+02 -0.64139417092E+01  0.21994869701E+02  0.51100000000E-03 0. -1.
        -11    1    3    3    0    0 -0.12297445293E+02 -0.45633752698E+01  0.66944058632E+01  0.14726392114E+02  0.51100000000E-03 0.  1.
        -12    1    3    3    0    0  0.72576810326E+01  0.16088552130E+02  0.14084441513E+02  0.22580676171E+02  0.00000000000E+00 0.  1.
</event>
<event>
 7    1  0.6293596E-013  0.5930194E+02  0.7816164E-02  0.1266605E+00
        -11   -1    0    0    0    0  0.00000000000E+00  0.00000000000E+00  0.45593999997E+02  0.45594000000E+02  0.51100000000E-03 0.  1.
         11   -1    0    0    0    0 -0.00000000000E+00 -0.00000000000E+00 -0.45593999997E+02  0.45594000000E+02  0.51100000000E-03 0. -1.
    9900012    2    1    2    0    0  0.15178614082E+02  0.14075567707E+02 -0.24253016534E+02  0.59301941248E+02  0.49999994930E+02 0.  0.
        -12    1    1    2    0    0 -0.15178614082E+02 -0.14075567707E+02  0.24253016534E+02  0.31886058752E+02  0.00000000000E+00 0.  1.
         11    1    3    3    0    0  0.11481902281E+02 -0.87846315204E+01 -0.26602210616E+02  0.30276747528E+02  0.51100000000E-03 0. -1.
        -11    1    3    3    0    0  0.81715471343E+01  0.32159002264E+01  0.60992123627E+00  0.88027382677E+01  0.51100000000E-03 0.  1.
         12    1    3    3    0    0 -0.44748353329E+01  0.19644299001E+02  0.17392728457E+01  0.20222455453E+02  0.00000000000E+00 0. -1.
</event>
<event>
 7    1  0.6293596E-013  0.5930196E+02  0.7816164E-02  0.1266605E+00
        -11   -1    0    0    0    0  0.00000000000E+00  0.00000000000E+00  0.45593999997E+02  0.45594000000E+02  0.51100000000E-03 0. -1.
         11   -1    0    0    0    0 -0.00000000000E+00 -0.00000000000E+00 -0.45593999997E+02  0.45594000000E+02  0.51100000000E-03 0.  1.
    9900012    2    1    2    0    0  0.68773834346E+00  0.27652888036E+02  0.15860789549E+02  0.59301955311E+02  0.50000020579E+02 0.  0.
        -12    1    1    2    0    0 -0.68773834346E+00 -0.27652888036E+02 -0.15860789549E+02  0.31886044689E+02  0.00000000000E+00 0.  1.
         11    1    3    3    0    0  0.36502263359E+01  0.26463508298E+02  0.95640188853E+01  0.28374493498E+02  0.51100000000E-03 0. -1.
        -11    1    3    3    0    0 -0.54763935517E+00 -0.67071732548E+01  0.16489360089E+02  0.17809690574E+02  0.51100000000E-03 0.  1.
        -12    1    3    3    0    0 -0.24148486373E+01  0.78965529928E+01 -0.10192589425E+02  0.13117771240E+02  0.00000000000E+00 0.  1.
</event>
<event>
 7    1  0.6293596E-013  0.5930192E+02  0.7816164E-02  0.1266605E+00
        -11   -1    0    0    0    0  0.00000000000E+00  0.00000000000E+00  0.45593999997E+02  0.45594000000E+02  0.51100000000E-03 0.  1.
         11   -1    0    0    0    0 -0.00000000000E+00 -0.00000000000E+00 -0.45593999997E+02  0.45594000000E+02  0.51100000000E-03 0. -1.
    9900012    2    1    2    0    0 -0.11218191082E+01 -0.12256389277E+02 -0.29415035107E+02  0.59301923939E+02  0.49999963362E+02 0.  0.
        -12    1    1    2    0    0  0.11218191082E+01  0.12256389277E+02  0.29415035107E+02  0.31886076061E+02  0.00000000000E+00 0.  1.
         11    1    3    3    0    0 -0.14700880754E+02 -0.76078022642E+01 -0.38115143683E+02  0.41554286523E+02  0.51100000000E-03 0. -1.
        -11    1    3    3    0    0  0.37002718882E+01 -0.31398022522E+01  0.61194342246E+00  0.48913030210E+01  0.51100000000E-03 0.  1.
         12    1    3    3    0    0  0.98787897573E+01 -0.15087847609E+01  0.80881651530E+01  0.12856334395E+02  0.00000000000E+00 0. -1.
</event>
<event>
 7    1  0.6293596E-013  0.5930194E+02  0.7816164E-02  0.1266605E+00
        -11   -1    0    0    0    0  0.00000000000E+00  0.00000000000E+00  0.45593999997E+02  0.45594000000E+02  0.51100000000E-03 0. -1.
         11   -1    0    0    0    0 -0.00000000000E+00 -0.00000000000E+00 -0.45593999997E+02  0.45594000000E+02  0.51100000000E-03 0.  1.
    9900012    2    1    2    0    0 -0.11962725951E+02  0.20785545604E+02  0.21013682355E+02  0.59301944045E+02  0.50000000032E+02 0.  0.
        -12    1    1    2    0    0  0.11962725951E+02 -0.20785545604E+02 -0.21013682355E+02  0.31886055955E+02  0.00000000000E+00 0.  1.
         11    1    3    3    0    0  0.77054823205E+01  0.10398640548E+01 -0.77659663455E+01  0.10989358880E+02  0.51100000000E-03 0.  1.
        -11    1    3    3    0    0 -0.14762069254E+00  0.15758031570E+02  0.22408737385E+02  0.27395051784E+02  0.51100000000E-03 0. -1.
         12    1    3    3    0    0 -0.19520587579E+02  0.39876499796E+01  0.63709113160E+01  0.20917533382E+02  0.00000000000E+00 0. -1.
</event>
<event>
 7    1  0.6293596E-013  0.5930191E+02  0.7816164E-02  0.1266605E+00
        -11   -1    0    0    0    0  0.00000000000E+00  0.00000000000E+00  0.45593999997E+02  0.45594000000E+02  0.51100000000E-03 0. -1.
         11   -1    0    0    0    0 -0.00000000000E+00 -0.00000000000E+00 -0.45593999997E+02  0.45594000000E+02  0.51100000000E-03 0.  1.
    9900012    2    1    2    0    0  0.46058344734E+01  0.22312886859E+01  0.31472692123E+02  0.59301910402E+02  0.49999938674E+02 0.  0.
        -12    1    1    2    0    0 -0.46058344734E+01 -0.22312886859E+01 -0.31472692123E+02  0.31886089598E+02  0.00000000000E+00 0.  1.
         11    1    3    3    0    0  0.10711003557E+02  0.64957881797E+01  0.30432696859E+02  0.32910027342E+02  0.51100000000E-03 0. -1.
        -11    1    3    3    0    0 -0.62903066789E+01 -0.14651523977E+02  0.13212662339E+01  0.15999401792E+02  0.51100000000E-03 0.  1.
        -12    1    3    3    0    0  0.18513759489E+00  0.10387024483E+02 -0.28127097038E+00  0.10392481268E+02  0.00000000000E+00 0.  1.
</event>
<event>
 7    1  0.6293596E-013  0.5930193E+02  0.7816164E-02  0.1266605E+00
        -11   -1    0    0    0    0  0.00000000000E+00  0.00000000000E+00  0.45593999997E+02  0.45594000000E+02  0.51100000000E-03 0.  1.
         11   -1    0    0    0    0 -0.00000000000E+00 -0.00000000000E+00 -0.45593999997E+02  0.45594000000E+02  0.51100000000E-03 0. -1.
    9900012    2    1    2    0    0 -0.10212621456E+02  0.27143746541E+02 -0.13252951557E+02  0.59301931910E+02  0.49999977900E+02 0.  0.
        -12    1    1    2    0    0  0.10212621456E+02 -0.27143746541E+02  0.13252951557E+02  0.31886068090E+02  0.00000000000E+00 0.  1.
         11    1    3    3    0    0 -0.13044012920E+02  0.59313935214E+00 -0.83971825848E+00  0.13084464619E+02  0.51100000000E-03 0. -1.
        -11    1    3    3    0    0 -0.69865287659E+01  0.29946958028E+02 -0.97637243022E+00  0.30766624493E+02  0.51100000000E-03 0.  1.
        -12    1    3    3    0    0  0.98179202295E+01 -0.33963508388E+01 -0.11436860868E+02  0.15450842798E+02  0.00000000000E+00 0.  1.
</event>
<event>
 7    1  0.6293596E-013  0.5930193E+02  0.7816164E-02  0.1266605E+00
        -11   -1    0    0    0    0  0.00000000000E+00  0.00000000000E+00  0.45593999997E+02  0.45594000000E+02  0.51100000000E-03 0.  1.
         11   -1    0    0    0    0 -0.00000000000E+00 -0.00000000000E+00 -0.45593999997E+02  0.45594000000E+02  0.51100000000E-03 0. -1.
    9900012    2    1    2    0    0 -0.94332165198E+01 -0.22743392293E+02 -0.20260156232E+02  0.59301930981E+02  0.49999976207E+02 0.  0.
        -12    1    1    2    0    0  0.94332165198E+01  0.22743392293E+02  0.20260156232E+02  0.31886069019E+02  0.00000000000E+00 0.  1.
         11    1    3    3    0    0 -0.14006556661E+01  0.10748965812E+01 -0.27407195503E+02  0.27464005617E+02  0.51100000000E-03 0. -1.
        -11    1    3    3    0    0 -0.10900866357E+02 -0.69988831959E+01 -0.87530196482E+00  0.12983813273E+02  0.51100000000E-03 0.  1.
         12    1    3    3    0    0  0.28683055031E+01 -0.16819405678E+02  0.80223412356E+01  0.18854112091E+02  0.00000000000E+00 0. -1.
</event>
<event>
 7    1  0.6293596E-013  0.5930196E+02  0.7816164E-02  0.1266605E+00
        -11   -1    0    0    0    0  0.00000000000E+00  0.00000000000E+00  0.45593999997E+02  0.45594000000E+02  0.51100000000E-03 0.  1.
         11   -1    0    0    0    0 -0.00000000000E+00 -0.00000000000E+00 -0.45593999997E+02  0.45594000000E+02  0.51100000000E-03 0. -1.
    9900012    2    1    2    0    0 -0.28774969950E+02 -0.13718647016E+02 -0.72049521950E+00  0.59301964107E+02  0.50000036620E+02 0.  0.
        -12    1    1    2    0    0  0.28774969950E+02  0.13718647016E+02  0.72049521950E+00  0.31886035893E+02  0.00000000000E+00 0.  1.
         11    1    3    3    0    0 -0.30118949822E+02 -0.10213679972E+01 -0.58170290162E+01  0.30692542381E+02  0.51100000000E-03 0. -1.
        -11    1    3    3    0    0  0.34165475610E+01 -0.18283003365E+02  0.97957584945E+01  0.21021367558E+02  0.51100000000E-03 0.  1.
         12    1    3    3    0    0 -0.20725676888E+01  0.55857243457E+01 -0.46992246978E+01  0.75880541676E+01  0.00000000000E+00 0. -1.
</event>
<event>
 7    1  0.6293596E-013  0.5930196E+02  0.7816164E-02  0.1266605E+00
        -11   -1    0    0    0    0  0.00000000000E+00  0.00000000000E+00  0.45593999997E+02  0.45594000000E+02  0.51100000000E-03 0. -1.
         11   -1    0    0    0    0 -0.00000000000E+00 -0.00000000000E+00 -0.45593999997E+02  0.45594000000E+02  0.51100000000E-03 0.  1.
    9900012    2    1    2    0    0 -0.17351973493E+02 -0.26381602271E+02  0.44316877134E+01  0.59301956368E+02  0.50000022506E+02 0.  0.
        -12    1    1    2    0    0  0.17351973493E+02  0.26381602271E+02 -0.44316877134E+01  0.31886043632E+02  0.00000000000E+00 0.  1.
         11    1    3    3    0    0 -0.25525264011E+02 -0.18653581851E+02  0.10958865062E+01  0.31633782357E+02  0.51100000000E-03 0. -1.
        -11    1    3    3    0    0  0.94261612369E+01 -0.10115160736E+02 -0.80286143801E+01  0.15988359563E+02  0.51100000000E-03 0.  1.
        -12    1    3    3    0    0 -0.12528707191E+01  0.23871403157E+01  0.11364415587E+02  0.11679814449E+02  0.00000000000E+00 0.  1.
</event>
<event>
 7    1  0.6293596E-013  0.5930194E+02  0.7816164E-02  0.1266605E+00
        -11   -1    0    0    0    0  0.00000000000E+00  0.00000000000E+00  0.45593999997E+02  0.45594000000E+02  0.51100000000E-03 0. -1.
         11   -1    0    0    0    0 -0.00000000000E+00 -0.00000000000E+00 -0.45593999997E+02  0.45594000000E+02  0.51100000000E-03 0.  1.
    9900012    2    1    2    0    0 -0.78391635375E+01  0.18710536450E+02  0.24600486612E+02  0.59301943474E+02  0.49999998991E+02 0.  0.
        -12    1    1    2    0    0  0.78391635375E+01 -0.18710536450E+02 -0.24600486612E+02  0.31886056526E+02  0.00000000000E+00 0.  1.
         11    1    3    3    0    0 -0.46381032826E+01  0.12200166912E+00  0.24327389465E+02  0.24765879046E+02  0.51100000000E-03 0. -1.
        -11    1    3    3    0    0  0.11048853272E+02  0.53252832259E+00  0.27585255970E+01  0.11400447745E+02  0.51100000000E-03 0.  1.
        -12    1    3    3    0    0 -0.14249913527E+02  0.18056006458E+02 -0.24854284500E+01  0.23135616684E+02  0.00000000000E+00 0.  1.
</event>
<event>
 7    1  0.6293596E-013  0.5930194E+02  0.7816164E-02  0.1266605E+00
        -11   -1    0    0    0    0  0.00000000000E+00  0.00000000000E+00  0.45593999997E+02  0.45594000000E+02  0.51100000000E-03 0. -1.
         11   -1    0    0    0    0 -0.00000000000E+00 -0.00000000000E+00 -0.45593999997E+02  0.45594000000E+02  0.51100000000E-03 0.  1.
    9900012    2    1    2    0    0 -0.13668273810E+02 -0.21581084655E+01  0.28727024695E+02  0.59301935820E+02  0.49999985031E+02 0.  0.
        -12    1    1    2    0    0  0.13668273810E+02  0.21581084655E+01 -0.28727024695E+02  0.31886064180E+02  0.00000000000E+00 0.  1.
         11    1    3    3    0    0  0.78313217623E+00  0.57426296788E+01  0.36204974651E+01  0.68336735209E+01  0.51100000000E-03 0. -1.
        -11    1    3    3    0    0 -0.29417986388E+02 -0.11310479220E+01  0.18456571859E+02  0.34746830611E+02  0.51100000000E-03 0.  1.
        -12    1    3    3    0    0  0.14966580401E+02 -0.67696902223E+01  0.66499553710E+01  0.17721431687E+02  0.00000000000E+00 0.  1.
</event>
<event>
 7    1  0.6293596E-013  0.5930192E+02  0.7816164E-02  0.1266605E+00
        -11   -1    0    0    0    0  0.00000000000E+00  0.00000000000E+00  0.45593999997E+02  0.45594000000E+02  0.51100000000E-03 0.  1.
         11   -1    0    0    0    0 -0.00000000000E+00 -0.00000000000E+00 -0.45593999997E+02  0.45594000000E+02  0.51100000000E-03 0. -1.
    9900012    2    1    2    0    0  0.19442015064E+01 -0.99429526293E+01 -0.30233758267E+02  0.59301915803E+02  0.49999948524E+02 0.  0.
        -12    1    1    2    0    0 -0.19442015064E+01  0.99429526293E+01  0.30233758267E+02  0.31886084197E+02  0.00000000000E+00 0.  1.
         11    1    3    3    0    0 -0.74317840885E+00  0.19379161928E+02 -0.91396257956E+01  0.21439146231E+02  0.51100000000E-03 0.  1.
        -11    1    3    3    0    0  0.33205698079E+00 -0.26717415570E+02 -0.21543054635E+02  0.34322496410E+02  0.51100000000E-03 0. -1.
        -12    1    3    3    0    0  0.23553229344E+01 -0.26046989878E+01  0.44892216373E+00  0.35402731606E+01  0.00000000000E+00 0.  1.
</event>
<event>
 7    1  0.6293596E-013  0.5930206E+02  0.7816164E-02  0.1266604E+00
        -11   -1    0    0    0    0  0.00000000000E+00  0.00000000000E+00  0.45593999997E+02  0.45594000000E+02  0.51100000000E-03 0.  1.
         11   -1    0    0    0    0 -0.00000000000E+00 -0.00000000000E+00 -0.45593999997E+02  0.45594000000E+02  0.51100000000E-03 0. -1.
    9900012    2    1    2    0    0 -0.70591429978E+01 -0.26659488677E+02 -0.16004799488E+02  0.59302055713E+02  0.50000203688E+02 0.  0.
        -12    1    1    2    0    0  0.70591429978E+01  0.26659488677E+02  0.16004799488E+02  0.31885944287E+02  0.00000000000E+00 0.  1.
         11    1    3    3    0    0 -0.82786905800E+01 -0.31545115096E+02 -0.29642853561E+02  0.44071870526E+02  0.51100000000E-03 0. -1.
        -11    1    3    3    0    0  0.28258394542E+01  0.35034476589E+01  0.76217385214E+01  0.88515768352E+01  0.51100000000E-03 0.  1.
         12    1    3    3    0    0 -0.16062918720E+01  0.13821787604E+01  0.60163155511E+01  0.63786083524E+01  0.00000000000E+00 0. -1.
</event>
<event>
 7    1  0.6293596E-013  0.5930194E+02  0.7816164E-02  0.1266605E+00
        -11   -1    0    0    0    0  0.00000000000E+00  0.00000000000E+00  0.45593999997E+02  0.45594000000E+02  0.51100000000E-03 0. -1.
         11   -1    0    0    0    0 -0.00000000000E+00 -0.00000000000E+00 -0.45593999997E+02  0.45594000000E+02  0.51100000000E-03 0.  1.
    9900012    2    1    2    0    0 -0.18448542214E+02  0.61126963268E+01  0.25278584390E+02  0.59301943566E+02  0.49999999157E+02 0.  0.
        -12    1    1    2    0    0  0.18448542214E+02 -0.61126963268E+01 -0.25278584390E+02  0.31886056434E+02  0.00000000000E+00 0.  1.
         11    1    3    3    0    0  0.45118342162E+01 -0.16429959069E+02  0.45580527931E+01  0.17637348115E+02  0.51100000000E-03 0. -1.
        -11    1    3    3    0    0 -0.50541943635E+01  0.91282221860E+01 -0.10000673141E+01  0.10481863185E+02  0.51100000000E-03 0.  1.
         12    1    3    3    0    0 -0.17906182066E+02  0.13414433209E+02  0.21720598910E+02  0.31182732266E+02  0.00000000000E+00 0. -1.
</event>
<event>
 7    1  0.6293596E-013  0.5930194E+02  0.7816164E-02  0.1266605E+00
        -11   -1    0    0    0    0  0.00000000000E+00  0.00000000000E+00  0.45593999997E+02  0.45594000000E+02  0.51100000000E-03 0. -1.
         11   -1    0    0    0    0 -0.00000000000E+00 -0.00000000000E+00 -0.45593999997E+02  0.45594000000E+02  0.51100000000E-03 0.  1.
    9900012    2    1    2    0    0  0.17397263616E+02  0.26521356032E+02 -0.32670747613E+01  0.59301939024E+02  0.49999990874E+02 0.  0.
        -12    1    1    2    0    0 -0.17397263616E+02 -0.26521356032E+02  0.32670747613E+01  0.31886060976E+02  0.00000000000E+00 0.  1.
         11    1    3    3    0    0  0.48442386918E+01 -0.47616589566E+01  0.14027361950E+02  0.15585471698E+02  0.51100000000E-03 0. -1.
        -11    1    3    3    0    0  0.11994908824E+02  0.28467413342E+02 -0.52493860244E+01  0.31334126986E+02  0.51100000000E-03 0.  1.
        -12    1    3    3    0    0  0.55811609995E+00  0.28156016460E+01 -0.12045050687E+02  0.12382340339E+02  0.00000000000E+00 0.  1.
</event>
<event>
 7    1  0.6293596E-013  0.5930191E+02  0.7816164E-02  0.1266605E+00
        -11   -1    0    0    0    0  0.00000000000E+00  0.00000000000E+00  0.45593999997E+02  0.45594000000E+02  0.51100000000E-03 0.  1.
         11   -1    0    0    0    0 -0.00000000000E+00 -0.00000000000E+00 -0.45593999997E+02  0.45594000000E+02  0.51100000000E-03 0. -1.
    9900012    2    1    2    0    0 -0.16743583774E+02 -0.15345098257E+02 -0.22380863777E+02  0.59301910532E+02  0.49999938912E+02 0.  0.
        -12    1    1    2    0    0  0.16743583774E+02  0.15345098257E+02  0.22380863777E+02  0.31886089468E+02  0.00000000000E+00 0.  1.
         11    1    3    3    0    0  0.60955847673E+01 -0.25212455879E+02 -0.18683592706E+02  0.31967181949E+02  0.51100000000E-03 0. -1.
        -11    1    3    3    0    0 -0.59258680595E+01  0.79512639721E+01 -0.27313481646E+01  0.10285853104E+02  0.51100000000E-03 0.  1.
         12    1    3    3    0    0 -0.16913300482E+02  0.19160936497E+01 -0.96592290719E+00  0.17048875480E+02  0.00000000000E+00 0. -1.
</event>
<event>
 7    1  0.6293596E-013  0.5930190E+02  0.7816164E-02  0.1266605E+00
        -11   -1    0    0    0    0  0.00000000000E+00  0.00000000000E+00  0.45593999997E+02  0.45594000000E+02  0.51100000000E-03 0. -1.
         11   -1    0    0    0    0 -0.00000000000E+00 -0.00000000000E+00 -0.45593999997E+02  0.45594000000E+02  0.51100000000E-03 0.  1.
    9900012    2    1    2    0    0 -0.22558601976E+02  0.91485326403E+01  0.20594592018E+02  0.59301899690E+02  0.49999919139E+02 0.  0.
        -12    1    1    2    0    0  0.22558601976E+02 -0.91485326403E+01 -0.20594592018E+02  0.31886100310E+02  0.00000000000E+00 0.  1.
         11    1    3    3    0    0  0.57701657544E+01  0.13721632823E+02  0.62284248629E+01  0.16136024811E+02  0.51100000000E-03 0. -1.
        -11    1    3    3    0    0 -0.32335948595E+02 -0.93864623079E+01  0.15019655583E+02  0.36868812028E+02  0.51100000000E-03 0.  1.
         12    1    3    3    0    0  0.40071808650E+01  0.48133621253E+01 -0.65348842853E+00  0.62970628518E+01  0.00000000000E+00 0. -1.
</event>
<event>
 7    1  0.6293596E-013  0.5930210E+02  0.7816164E-02  0.1266604E+00
        -11   -1    0    0    0    0  0.00000000000E+00  0.00000000000E+00  0.45593999997E+02  0.45594000000E+02  0.51100000000E-03 0.  1.
         11   -1    0    0    0    0 -0.00000000000E+00 -0.00000000000E+00 -0.45593999997E+02  0.45594000000E+02  0.51100000000E-03 0. -1.
    9900012    2    1    2    0    0  0.17386528820E+02 -0.18526018142E+02 -0.19266702919E+02  0.59302100703E+02  0.50000285737E+02 0.  0.
        -12    1    1    2    0    0 -0.17386528820E+02  0.18526018142E+02  0.19266702919E+02  0.31885899297E+02  0.00000000000E+00 0.  1.
         11    1    3    3    0    0  0.28477753033E+01 -0.26303648794E+02 -0.11807343488E+02  0.28972489098E+02  0.51100000000E-03 0. -1.
        -11    1    3    3    0    0  0.13795760293E+01  0.14056788104E+02 -0.69464485896E+01  0.15740065758E+02  0.51100000000E-03 0.  1.
        -12    1    3    3    0    0  0.13159177488E+02 -0.62791574519E+01 -0.51291084196E+00  0.14589545846E+02  0.00000000000E+00 0.  1.
</event>
<event>
 7    1  0.6293596E-013  0.5930194E+02  0.7816164E-02  0.1266605E+00
        -11   -1    0    0    0    0  0.00000000000E+00  0.00000000000E+00  0.45593999997E+02  0.45594000000E+02  0.51100000000E-03 0. -1.
         11   -1    0    0    0    0 -0.00000000000E+00 -0.00000000000E+00 -0.45593999997E+02  0.45594000000E+02  0.51100000000E-03 0.  1.
    9900012    2    1    2    0    0  0.35298463100E+01 -0.16016053470E+02 -0.27344960469E+02  0.59301942752E+02  0.49999997674E+02 0.  0.
        -12    1    1    2    0    0 -0.35298463100E+01  0.16016053470E+02  0.27344960469E+02  0.31886057248E+02  0.00000000000E+00 0.  1.
         11    1    3    3    0    0 -0.24014340661E+01 -0.23589791680E+01  0.88025503299E+01  0.94242538623E+01  0.51100000000E-03 0. -1.
        -11    1    3    3    0    0  0.17822579031E+02 -0.23827192094E+01 -0.18829598232E+02  0.26036041250E+02  0.51100000000E-03 0.  1.
        -12    1    3    3    0    0 -0.11891298655E+02 -0.11274355093E+02 -0.17317912568E+02  0.23841647640E+02  0.00000000000E+00 0.  1.
</event>
<event>
 7    1  0.6293596E-013  0.5930191E+02  0.7816164E-02  0.1266605E+00
        -11   -1    0    0    0    0  0.00000000000E+00  0.00000000000E+00  0.45593999997E+02  0.45594000000E+02  0.51100000000E-03 0.  1.
         11   -1    0    0    0    0 -0.00000000000E+00 -0.00000000000E+00 -0.45593999997E+02  0.45594000000E+02  0.51100000000E-03 0. -1.
    9900012    2    1    2    0    0  0.83843599101E+01 -0.26280314771E+02 -0.15992827116E+02  0.59301906562E+02  0.49999931671E+02 0.  0.
        -12    1    1    2    0    0 -0.83843599101E+01  0.26280314771E+02  0.15992827116E+02  0.31886093438E+02  0.00000000000E+00 0.  1.
         11    1    3    3    0    0  0.16577665027E+01 -0.28208131001E+02 -0.16582891928E+02  0.32763381225E+02  0.51100000000E-03 0. -1.
        -11    1    3    3    0    0 -0.14701280890E+01  0.40646756809E+01  0.11754690594E+02  0.12524201220E+02  0.51100000000E-03 0.  1.
        -12    1    3    3    0    0  0.81967214964E+01 -0.21368594514E+01 -0.11164625782E+02  0.14014324117E+02  0.00000000000E+00 0.  1.
</event>
<event>
 7    1  0.6293596E-013  0.5930195E+02  0.7816164E-02  0.1266605E+00
        -11   -1    0    0    0    0  0.00000000000E+00  0.00000000000E+00  0.45593999997E+02  0.45594000000E+02  0.51100000000E-03 0.  1.
         11   -1    0    0    0    0 -0.00000000000E+00 -0.00000000000E+00 -0.45593999997E+02  0.45594000000E+02  0.51100000000E-03 0. -1.
    9900012    2    1    2    0    0  0.19122971147E+02 -0.24961355777E+02 -0.52879770395E+01  0.59301952755E+02  0.50000015917E+02 0.  0.
        -12    1    1    2    0    0 -0.19122971147E+02  0.24961355777E+02  0.52879770395E+01  0.31886047245E+02  0.00000000000E+00 0.  1.
         11    1    3    3    0    0  0.13764489461E+02 -0.12780488487E+01 -0.18932269513E+02  0.23441958283E+02  0.51100000000E-03 0. -1.
        -11    1    3    3    0    0 -0.20925621482E+01 -0.16842648945E+02 -0.21465067377E+01  0.17107341444E+02  0.51100000000E-03 0.  1.
         12    1    3    3    0    0  0.74510438343E+01 -0.68406579830E+01  0.15790799211E+02  0.18752653028E+02  0.00000000000E+00 0. -1.
</event>
<event>
 7    1  0.6293596E-013  0.5930202E+02  0.7816164E-02  0.1266605E+00
        -11   -1    0    0    0    0  0.00000000000E+00  0.00000000000E+00  0.45593999997E+02  0.45594000000E+02  0.51100000000E-03 0.  1.
         11   -1    0    0    0    0 -0.00000000000E+00 -0.00000000000E+00 -0.45593999997E+02  0.45594000000E+02  0.51100000000E-03 0. -1.
    9900012    2    1    2    0    0 -0.20636958755E+02 -0.89387104127E+01 -0.22603791990E+02  0.59302015260E+02  0.50000129911E+02 0.  0.
        -12    1    1    2    0    0  0.20636958755E+02  0.89387104127E+01  0.22603791990E+02  0.31885984740E+02  0.00000000000E+00 0.  1.
         11    1    3    3    0    0 -0.83791659313E+00  0.15333340614E+02 -0.20396559038E+02  0.25531021512E+02  0.51100000000E-03 0. -1.
        -11    1    3    3    0    0 -0.33188141747E+00 -0.88679977447E+01 -0.54657495692E+00  0.88910220852E+01  0.51100000000E-03 0.  1.
         12    1    3    3    0    0 -0.19467160744E+02 -0.15404053282E+02 -0.16606579957E+01  0.24879971663E+02  0.00000000000E+00 0. -1.
</event>
<event>
 7    1  0.6293596E-013  0.5930193E+02  0.7816164E-02  0.1266605E+00
        -11   -1    0    0    0    0  0.00000000000E+00  0.00000000000E+00  0.45593999997E+02  0.45594000000E+02  0.51100000000E-03 0.  1.
         11   -1    0    0    0    0 -0.00000000000E+00 -0.00000000000E+00 -0.45593999997E+02  0.45594000000E+02  0.51100000000E-03 0. -1.
    9900012    2    1    2    0    0 -0.14015539542E+02  0.28295531649E+02  0.44327099924E+01  0.59301931289E+02  0.49999976767E+02 0.  0.
        -12    1    1    2    0    0  0.14015539542E+02 -0.28295531649E+02 -0.44327099924E+01  0.31886068711E+02  0.00000000000E+00 0.  1.
         11    1    3    3    0    0  0.76875920467E+01  0.64379109543E+01  0.17221926981E+02  0.19928385236E+02  0.51100000000E-03 0. -1.
        -11    1    3    3    0    0 -0.28466422389E+01  0.92676475431E+01 -0.13581121550E+02  0.16686507299E+02  0.51100000000E-03 0.  1.
         12    1    3    3    0    0 -0.18856489350E+02  0.12589973152E+02  0.79190456157E+00  0.22687038754E+02  0.00000000000E+00 0. -1.
</event>
<event>
 7    1  0.6293596E-013  0.5930197E+02  0.7816164E-02  0.1266605E+00
        -11   -1    0    0    0    0  0.00000000000E+00  0.00000000000E+00  0.45593999997E+02  0.45594000000E+02  0.51100000000E-03 0.  1.
         11   -1    0    0    0    0 -0.00000000000E+00 -0.00000000000E+00 -0.45593999997E+02  0.45594000000E+02  0.51100000000E-03 0. -1.
    9900012    2    1    2    0    0 -0.21681694005E+02  0.20649436176E+02 -0.10964659212E+02  0.59301971383E+02  0.50000049890E+02 0.  0.
        -12    1    1    2    0    0  0.21681694005E+02 -0.20649436176E+02  0.10964659212E+02  0.31886028617E+02  0.00000000000E+00 0.  1.
         11    1    3    3    0    0 -0.79730140538E+01 -0.14846328125E+01 -0.24467181444E+02  0.25776269237E+02  0.51100000000E-03 0. -1.
        -11    1    3    3    0    0  0.28869122656E+00  0.12106272082E+02  0.10539668542E+02  0.16053964606E+02  0.51100000000E-03 0.  1.
         12    1    3    3    0    0 -0.13997371178E+02  0.10027796907E+02  0.29628536896E+01  0.17471737540E+02  0.00000000000E+00 0. -1.
</event>
<event>
 7    1  0.6293596E-013  0.5930200E+02  0.7816164E-02  0.1266605E+00
        -11   -1    0    0    0    0  0.00000000000E+00  0.00000000000E+00  0.45593999997E+02  0.45594000000E+02  0.51100000000E-03 0. -1.
         11   -1    0    0    0    0 -0.00000000000E+00 -0.00000000000E+00 -0.45593999997E+02  0.45594000000E+02  0.51100000000E-03 0.  1.
    9900012    2    1    2    0    0  0.10675336859E+02  0.24520528192E+02  0.17363699541E+02  0.59301997089E+02  0.50000096771E+02 0.  0.
        -12    1    1    2    0    0 -0.10675336859E+02 -0.24520528192E+02 -0.17363699541E+02  0.31886002911E+02  0.00000000000E+00 0.  1.
         11    1    3    3    0    0  0.13896729846E+02  0.89144224422E+01  0.19385611022E+02  0.25463462900E+02  0.51100000000E-03 0. -1.
        -11    1    3    3    0    0 -0.22920770073E+00  0.24229087298E+02  0.92326440154E+00  0.24247755048E+02  0.51100000000E-03 0.  1.
        -12    1    3    3    0    0 -0.29921852860E+01 -0.86229815477E+01 -0.29451758829E+01  0.95907791414E+01  0.00000000000E+00 0.  1.
</event>
<event>
 7    1  0.6293596E-013  0.5930196E+02  0.7816164E-02  0.1266605E+00
        -11   -1    0    0    0    0  0.00000000000E+00  0.00000000000E+00  0.45593999997E+02  0.45594000000E+02  0.51100000000E-03 0.  1.
         11   -1    0    0    0    0 -0.00000000000E+00 -0.00000000000E+00 -0.45593999997E+02  0.45594000000E+02  0.51100000000E-03 0. -1.
    9900012    2    1    2    0    0 -0.16160177548E+02 -0.26265345939E+02 -0.81055381418E+01  0.59301960982E+02  0.50000030921E+02 0.  0.
        -12    1    1    2    0    0  0.16160177548E+02  0.26265345939E+02  0.81055381418E+01  0.31886039018E+02  0.00000000000E+00 0.  1.
         11    1    3    3    0    0 -0.91562031700E+01 -0.18686301434E+02 -0.14904327185E+02  0.25595954502E+02  0.51100000000E-03 0. -1.
        -11    1    3    3    0    0  0.84769596656E+00  0.97697648083E+01 -0.52977120020E+01  0.11145969925E+02  0.51100000000E-03 0.  1.
        -12    1    3    3    0    0 -0.78516703447E+01 -0.17348809314E+02  0.12096501046E+02  0.22560036555E+02  0.00000000000E+00 0.  1.
</event>
<event>
 7    1  0.6293596E-013  0.5930195E+02  0.7816164E-02  0.1266605E+00
        -11   -1    0    0    0    0  0.00000000000E+00  0.00000000000E+00  0.45593999997E+02  0.45594000000E+02  0.51100000000E-03 0. -1.
         11   -1    0    0    0    0 -0.00000000000E+00 -0.00000000000E+00 -0.45593999997E+02  0.45594000000E+02  0.51100000000E-03 0.  1.
    9900012    2    1    2    0    0 -0.42464263252E+01 -0.52738367336E+00  0.31597620990E+02  0.59301954113E+02  0.50000018393E+02 0.  0.
        -12    1    1    2    0    0  0.42464263252E+01  0.52738367336E+00 -0.31597620990E+02  0.31886045887E+02  0.00000000000E+00 0.  1.
         11    1    3    3    0    0  0.15936363941E+02  0.14033572770E+02  0.25054179894E+02  0.32842362746E+02  0.51100000000E-03 0. -1.
        -11    1    3    3    0    0 -0.18194456891E+02 -0.10233017273E+02  0.53694537949E+01  0.21554209296E+02  0.51100000000E-03 0.  1.
         12    1    3    3    0    0 -0.19883333752E+01 -0.43279391705E+01  0.11739873015E+01  0.49053820706E+01  0.00000000000E+00 0. -1.
</event>
<event>
 7    1  0.6293596E-013  0.5930194E+02  0.7816164E-02  0.1266605E+00
        -11   -1    0    0    0    0  0.00000000000E+00  0.00000000000E+00  0.45593999997E+02  0.45594000000E+02  0.51100000000E-03 0.  1.
         11   -1    0    0    0    0 -0.00000000000E+00 -0.00000000000E+00 -0.45593999997E+02  0.45594000000E+02  0.51100000000E-03 0. -1.
    9900012    2    1    2    0    0  0.42718056190E+01  0.31214448579E+02  0.49122849616E+01  0.59301942437E+02  0.49999997099E+02 0.  0.
        -12    1    1    2    0    0 -0.42718056190E+01 -0.31214448579E+02 -0.49122849616E+01  0.31886057563E+02  0.00000000000E+00 0.  1.
         11    1    3    3    0    0  0.19133113945E+02  0.34111230325E+02  0.83863896871E+01  0.39999795197E+02  0.51100000000E-03 0. -1.
        -11    1    3    3    0    0 -0.95238919391E+01  0.39380611969E+01 -0.21824245824E+01  0.10534506205E+02  0.51100000000E-03 0.  1.
         12    1    3    3    0    0 -0.53374163873E+01 -0.68348429425E+01 -0.12916801431E+01  0.87676410358E+01  0.00000000000E+00 0. -1.
</event>
<event>
 7    1  0.6293596E-013  0.5930193E+02  0.7816164E-02  0.1266605E+00
        -11   -1    0    0    0    0  0.00000000000E+00  0.00000000000E+00  0.45593999997E+02  0.45594000000E+02  0.51100000000E-03 0. -1.
         11   -1    0    0    0    0 -0.00000000000E+00 -0.00000000000E+00 -0.45593999997E+02  0.45594000000E+02  0.51100000000E-03 0.  1.
    9900012    2    1    2    0    0 -0.21111269774E+02 -0.19090380499E+02  0.14373340713E+02  0.59301933101E+02  0.49999980072E+02 0.  0.
        -12    1    1    2    0    0  0.21111269774E+02  0.19090380499E+02 -0.14373340713E+02  0.31886066899E+02  0.00000000000E+00 0.  1.
         11    1    3    3    0    0 -0.42984771867E+01  0.10414087521E+02  0.16046936696E+02  0.19606996267E+02  0.51100000000E-03 0. -1.
        -11    1    3    3    0    0 -0.16303841267E+02 -0.15474851947E+02 -0.85660192653E+01  0.24055414550E+02  0.51100000000E-03 0.  1.
         12    1    3    3    0    0 -0.50895132013E+00 -0.14029616073E+02  0.68924232825E+01  0.15639522285E+02  0.00000000000E+00 0. -1.
</event>
<event>
 7    1  0.6293596E-013  0.5930194E+02  0.7816164E-02  0.1266605E+00
        -11   -1    0    0    0    0  0.00000000000E+00  0.00000000000E+00  0.45593999997E+02  0.45594000000E+02  0.51100000000E-03 0. -1.
         11   -1    0    0    0    0 -0.00000000000E+00 -0.00000000000E+00 -0.45593999997E+02  0.45594000000E+02  0.51100000000E-03 0.  1.
    9900012    2    1    2    0    0 -0.60880394677E+00 -0.27904771001E+02  0.15416674694E+02  0.59301941205E+02  0.49999994852E+02 0.  0.
        -12    1    1    2    0    0  0.60880394677E+00  0.27904771001E+02 -0.15416674694E+02  0.31886058795E+02  0.00000000000E+00 0.  1.
         11    1    3    3    0    0  0.14769425554E+02 -0.31558499205E+02 -0.62807905300E+00  0.34849236531E+02  0.51100000000E-03 0. -1.
        -11    1    3    3    0    0 -0.25556016429E+01  0.22887565318E+01 -0.50998473255E+00  0.34683700650E+01  0.51100000000E-03 0.  1.
         12    1    3    3    0    0 -0.12822627858E+02  0.13649716723E+01  0.16554738479E+02  0.20984334609E+02  0.00000000000E+00 0. -1.
</event>
<event>
 7    1  0.6293596E-013  0.5930198E+02  0.7816164E-02  0.1266605E+00
        -11   -1    0    0    0    0  0.00000000000E+00  0.00000000000E+00  0.45593999997E+02  0.45594000000E+02  0.51100000000E-03 0.  1.
         11   -1    0    0    0    0 -0.00000000000E+00 -0.00000000000E+00 -0.45593999997E+02  0.45594000000E+02  0.51100000000E-03 0. -1.
    9900012    2    1    2    0    0  0.60272426721E+01 -0.30876861819E+02 -0.51971140983E+01  0.59301980415E+02  0.50000066362E+02 0.  0.
        -12    1    1    2    0    0 -0.60272426721E+01  0.30876861819E+02  0.51971140983E+01  0.31886019585E+02  0.00000000000E+00 0.  1.
         11    1    3    3    0    0  0.21387655165E+02 -0.18947025087E+02  0.10200199869E+02  0.30339176500E+02  0.51100000000E-03 0. -1.
        -11    1    3    3    0    0  0.19342089110E+01 -0.31644173668E+01 -0.68158614017E+01  0.77595533564E+01  0.51100000000E-03 0.  1.
         12    1    3    3    0    0 -0.17294621403E+02 -0.87654193644E+01 -0.85814525654E+01  0.21203250559E+02  0.00000000000E+00 0. -1.
</event>
<event>
 7    1  0.6293596E-013  0.5930205E+02  0.7816164E-02  0.1266604E+00
        -11   -1    0    0    0    0  0.00000000000E+00  0.00000000000E+00  0.45593999997E+02  0.45594000000E+02  0.51100000000E-03 0.  1.
         11   -1    0    0    0    0 -0.00000000000E+00 -0.00000000000E+00 -0.45593999997E+02  0.45594000000E+02  0.51100000000E-03 0. -1.
    9900012    2    1    2    0    0  0.68837568696E+01  0.26173879693E+02 -0.16859879464E+02  0.59302052901E+02  0.50000198559E+02 0.  0.
        -12    1    1    2    0    0 -0.68837568696E+01 -0.26173879693E+02  0.16859879464E+02  0.31885947099E+02  0.00000000000E+00 0.  1.
         11    1    3    3    0    0  0.88761071312E+01  0.15069606357E+02 -0.10689827279E+02  0.20497578420E+02  0.51100000000E-03 0. -1.
        -11    1    3    3    0    0 -0.35794628694E+01  0.30864652787E+00  0.14765313637E+02  0.15196127934E+02  0.51100000000E-03 0.  1.
        -12    1    3    3    0    0  0.15871126078E+01  0.10795626808E+02 -0.20935365822E+02  0.23608346548E+02  0.00000000000E+00 0.  1.
</event>
<event>
 7    1  0.6293596E-013  0.5930196E+02  0.7816164E-02  0.1266605E+00
        -11   -1    0    0    0    0  0.00000000000E+00  0.00000000000E+00  0.45593999997E+02  0.45594000000E+02  0.51100000000E-03 0.  1.
         11   -1    0    0    0    0 -0.00000000000E+00 -0.00000000000E+00 -0.45593999997E+02  0.45594000000E+02  0.51100000000E-03 0. -1.
    9900012    2    1    2    0    0 -0.17375944490E+02 -0.17779784237E-01 -0.26735668158E+02  0.59301957366E+02  0.50000024326E+02 0.  0.
        -12    1    1    2    0    0  0.17375944490E+02  0.17779784237E-01  0.26735668158E+02  0.31886042634E+02  0.00000000000E+00 0.  1.
         11    1    3    3    0    0 -0.18400766136E+02 -0.81214500504E+01 -0.29938884164E+02  0.36067754720E+02  0.51100000000E-03 0. -1.
        -11    1    3    3    0    0 -0.33188486107E+01  0.69182879131E+01  0.11482195670E+02  0.13810078979E+02  0.51100000000E-03 0.  1.
        -12    1    3    3    0    0  0.43436702570E+01  0.11853823530E+01 -0.82789796636E+01  0.94241236672E+01  0.00000000000E+00 0.  1.
</event>
<event>
 7    1  0.6293596E-013  0.5930197E+02  0.7816164E-02  0.1266605E+00
        -11   -1    0    0    0    0  0.00000000000E+00  0.00000000000E+00  0.45593999997E+02  0.45594000000E+02  0.51100000000E-03 0.  1.
         11   -1    0    0    0    0 -0.00000000000E+00 -0.00000000000E+00 -0.45593999997E+02  0.45594000000E+02  0.51100000000E-03 0. -1.
    9900012    2    1    2    0    0  0.30449596653E+02 -0.50375962336E+01 -0.80102183982E+01  0.59301969972E+02  0.50000047316E+02 0.  0.
        -12    1    1    2    0    0 -0.30449596653E+02  0.50375962336E+01  0.80102183982E+01  0.31886030028E+02  0.00000000000E+00 0.  1.
         11    1    3    3    0    0  0.43104222612E+01  0.72627290655E+01 -0.15553591636E+01  0.85875558768E+01  0.51100000000E-03 0. -1.
        -11    1    3    3    0    0  0.37208145536E+02 -0.66803800288E+01 -0.61251463375E+01  0.38296096269E+02  0.51100000000E-03 0.  1.
        -12    1    3    3    0    0 -0.11068971144E+02 -0.56199452704E+01 -0.32971289711E+00  0.12418317826E+02  0.00000000000E+00 0.  1.
</event>
<event>
 7    1  0.6293596E-013  0.5930193E+02  0.7816164E-02  0.1266605E+00
        -11   -1    0    0    0    0  0.00000000000E+00  0.00000000000E+00  0.45593999997E+02  0.45594000000E+02  0.51100000000E-03 0. -1.
         11   -1    0    0    0    0 -0.00000000000E+00 -0.00000000000E+00 -0.45593999997E+02  0.45594000000E+02  0.51100000000E-03 0.  1.
    9900012    2    1    2    0    0  0.18467584720E+02 -0.20268009818E+02  0.16275052633E+02  0.59301933363E+02  0.49999980550E+02 0.  0.
        -12    1    1    2    0    0 -0.18467584720E+02  0.20268009818E+02 -0.16275052633E+02  0.31886066637E+02  0.00000000000E+00 0.  1.
         11    1    3    3    0    0 -0.14332839379E+02 -0.11157726589E+02  0.16787434416E+01  0.18241253441E+02  0.51100000000E-03 0. -1.
        -11    1    3    3    0    0  0.73379457158E+01  0.42362439504E+01 -0.68979724514E+00  0.85010017430E+01  0.51100000000E-03 0.  1.
         12    1    3    3    0    0  0.25462478383E+02 -0.13346527180E+02  0.15286106437E+02  0.32559678179E+02  0.00000000000E+00 0. -1.
</event>
<event>
 7    1  0.6293596E-013  0.5930195E+02  0.7816164E-02  0.1266605E+00
        -11   -1    0    0    0    0  0.00000000000E+00  0.00000000000E+00  0.45593999997E+02  0.45594000000E+02  0.51100000000E-03 0.  1.
         11   -1    0    0    0    0 -0.00000000000E+00 -0.00000000000E+00 -0.45593999997E+02  0.45594000000E+02  0.51100000000E-03 0. -1.
    9900012    2    1    2    0    0 -0.18886105396E+02  0.13716895241E+02  0.21722844785E+02  0.59301950109E+02  0.50000011091E+02 0.  0.
        -12    1    1    2    0    0  0.18886105396E+02 -0.13716895241E+02 -0.21722844785E+02  0.31886049891E+02  0.00000000000E+00 0.  1.
         11    1    3    3    0    0 -0.10026794156E+02  0.79945963961E+01  0.16064751389E+02  0.20555447211E+02  0.51100000000E-03 0. -1.
        -11    1    3    3    0    0  0.12220662986E+02 -0.51195378615E+01  0.70357101142E+01  0.15001849513E+02  0.51100000000E-03 0.  1.
        -12    1    3    3    0    0 -0.21079974226E+02  0.10841836706E+02 -0.13776167180E+01  0.23744653385E+02  0.00000000000E+00 0.  1.
</event>
<event>
 7    1  0.6293596E-013  0.5930194E+02  0.7816164E-02  0.1266605E+00
        -11   -1    0    0    0    0  0.00000000000E+00  0.00000000000E+00  0.45593999997E+02  0.45594000000E+02  0.51100000000E-03 0.  1.
         11   -1    0    0    0    0 -0.00000000000E+00 -0.00000000000E+00 -0.45593999997E+02  0.45594000000E+02  0.51100000000E-03 0. -1.
    9900012    2    1    2    0    0  0.17112047832E+02 -0.47092486201E+00 -0.26901242008E+02  0.59301940777E+02  0.49999994071E+02 0.  0.
        -12    1    1    2    0    0 -0.17112047832E+02  0.47092486201E+00  0.26901242008E+02  0.31886059223E+02  0.00000000000E+00 0.  1.
         11    1    3    3    0    0  0.17126897692E+02 -0.15951637832E+01  0.74963042730E+01  0.18763521793E+02  0.51100000000E-03 0.  1.
        -11    1    3    3    0    0 -0.10329067435E+02  0.19286234461E+01 -0.12570680980E+02  0.16383871431E+02  0.51100000000E-03 0. -1.
         12    1    3    3    0    0  0.10314217576E+02 -0.80438452491E+00 -0.21826865300E+02  0.24154547553E+02  0.00000000000E+00 0. -1.
</event>
<event>
 7    1  0.6293596E-013  0.5930205E+02  0.7816164E-02  0.1266604E+00
        -11   -1    0    0    0    0  0.00000000000E+00  0.00000000000E+00  0.45593999997E+02  0.45594000000E+02  0.51100000000E-03 0. -1.
         11   -1    0    0    0    0 -0.00000000000E+00 -0.00000000000E+00 -0.45593999997E+02  0.45594000000E+02  0.51100000000E-03 0.  1.
    9900012    2    1    2    0    0  0.31616200369E+02 -0.69297273682E+00 -0.40804133967E+01  0.59302045248E+02  0.50000184600E+02 0.  0.
        -12    1    1    2    0    0 -0.31616200369E+02  0.69297273682E+00  0.40804133967E+01  0.31885954752E+02  0.00000000000E+00 0.  1.
         11    1    3    3    0    0  0.23618700077E+02 -0.49449508413E+01 -0.20033253516E+02  0.31362824791E+02  0.51100000000E-03 0.  1.
        -11    1    3    3    0    0  0.14845765673E+02  0.31887131689E+01  0.14202606056E+02  0.20791312348E+02  0.51100000000E-03 0. -1.
        -12    1    3    3    0    0 -0.68482653812E+01  0.10632649355E+01  0.17502340634E+01  0.71479081088E+01  0.00000000000E+00 0.  1.
</event>
<event>
 7    1  0.6293596E-013  0.5930191E+02  0.7816164E-02  0.1266605E+00
        -11   -1    0    0    0    0  0.00000000000E+00  0.00000000000E+00  0.45593999997E+02  0.45594000000E+02  0.51100000000E-03 0. -1.
         11   -1    0    0    0    0 -0.00000000000E+00 -0.00000000000E+00 -0.45593999997E+02  0.45594000000E+02  0.51100000000E-03 0.  1.
    9900012    2    1    2    0    0 -0.16839934970E+02  0.25638015591E+02  0.87081223187E+01  0.59301911379E+02  0.49999940456E+02 0.  0.
        -12    1    1    2    0    0  0.16839934970E+02 -0.25638015591E+02 -0.87081223187E+01  0.31886088621E+02  0.00000000000E+00 0.  1.
         11    1    3    3    0    0  0.14499954090E+02  0.33043986558E+01  0.10565279382E+02  0.18242610772E+02  0.51100000000E-03 0. -1.
        -11    1    3    3    0    0 -0.19429061953E+02  0.95703870353E+01 -0.71649291915E+01  0.22812649275E+02  0.51100000000E-03 0.  1.
         12    1    3    3    0    0 -0.11910827107E+02  0.12763229900E+02  0.53077721280E+01  0.18246651332E+02  0.00000000000E+00 0. -1.
</event>
<event>
 7    1  0.6293596E-013  0.5930192E+02  0.7816164E-02  0.1266605E+00
        -11   -1    0    0    0    0  0.00000000000E+00  0.00000000000E+00  0.45593999997E+02  0.45594000000E+02  0.51100000000E-03 0. -1.
         11   -1    0    0    0    0 -0.00000000000E+00 -0.00000000000E+00 -0.45593999997E+02  0.45594000000E+02  0.51100000000E-03 0.  1.
    9900012    2    1    2    0    0 -0.25793125606E+02  0.12687277044E+02  0.13801082684E+02  0.59301918231E+02  0.49999952953E+02 0.  0.
        -12    1    1    2    0    0  0.25793125606E+02 -0.12687277044E+02 -0.13801082684E+02  0.31886081769E+02  0.00000000000E+00 0.  1.
         11    1    3    3    0    0 -0.75562567231E+01  0.21898210468E+02 -0.77352760341E-01  0.23165375479E+02  0.51100000000E-03 0. -1.
        -11    1    3    3    0    0 -0.26922297318E+01 -0.15095735190E+02  0.11876030334E+02  0.19395087487E+02  0.51100000000E-03 0.  1.
         12    1    3    3    0    0 -0.15544639151E+02  0.58848017663E+01  0.20024051112E+01  0.16741455265E+02  0.00000000000E+00 0. -1.
</event>
<event>
 7    1  0.6293596E-013  0.5930193E+02  0.7816164E-02  0.1266605E+00
        -11   -1    0    0    0    0  0.00000000000E+00  0.00000000000E+00  0.45593999997E+02  0.45594000000E+02  0.51100000000E-03 0.  1.
         11   -1    0    0    0    0 -0.00000000000E+00 -0.00000000000E+00 -0.45593999997E+02  0.45594000000E+02  0.51100000000E-03 0. -1.
    9900012    2    1    2    0    0  0.41816712115E+01 -0.31526149818E+02 -0.23101911605E+01  0.59301929692E+02  0.49999973856E+02 0.  0.
        -12    1    1    2    0    0 -0.41816712115E+01  0.31526149818E+02  0.23101911605E+01  0.31886070308E+02  0.00000000000E+00 0.  1.
         11    1    3    3    0    0  0.15837565217E+02 -0.19958158992E+02 -0.42866597442E+01  0.25836641314E+02  0.51100000000E-03 0. -1.
        -11    1    3    3    0    0 -0.14845942040E+02  0.53924095567E+01  0.33730116875E+01  0.16151076868E+02  0.51100000000E-03 0.  1.
         12    1    3    3    0    0  0.31900480352E+01 -0.16960400382E+02 -0.13965431038E+01  0.17314211511E+02  0.00000000000E+00 0. -1.
</event>
<event>
 7    1  0.6293596E-013  0.5930194E+02  0.7816164E-02  0.1266605E+00
        -11   -1    0    0    0    0  0.00000000000E+00  0.00000000000E+00  0.45593999997E+02  0.45594000000E+02  0.51100000000E-03 0.  1.
         11   -1    0    0    0    0 -0.00000000000E+00 -0.00000000000E+00 -0.45593999997E+02  0.45594000000E+02  0.51100000000E-03 0. -1.
    9900012    2    1    2    0    0  0.24559377388E+01 -0.31487069763E+01 -0.31635026747E+02  0.59301938733E+02  0.49999990344E+02 0.  0.
        -12    1    1    2    0    0 -0.24559377388E+01  0.31487069763E+01  0.31635026747E+02  0.31886061267E+02  0.00000000000E+00 0.  1.
         11    1    3    3    0    0 -0.86063562579E+01  0.16815479770E+02 -0.14404534779E+02  0.23755427809E+02  0.51100000000E-03 0.  1.
        -11    1    3    3    0    0  0.95288429366E+01 -0.81500410355E+01 -0.19726802097E+02  0.23374531821E+02  0.51100000000E-03 0. -1.
        -12    1    3    3    0    0  0.15334510601E+01 -0.11814145711E+02  0.24963101289E+01  0.12171979103E+02  0.00000000000E+00 0.  1.
</event>
<event>
 7    1  0.6293596E-013  0.5930196E+02  0.7816164E-02  0.1266605E+00
        -11   -1    0    0    0    0  0.00000000000E+00  0.00000000000E+00  0.45593999997E+02  0.45594000000E+02  0.51100000000E-03 0.  1.
         11   -1    0    0    0    0 -0.00000000000E+00 -0.00000000000E+00 -0.45593999997E+02  0.45594000000E+02  0.51100000000E-03 0. -1.
    9900012    2    1    2    0    0 -0.26181821724E+02  0.12422751992E+02 -0.13300647077E+02  0.59301956524E+02  0.50000022791E+02 0.  0.
        -12    1    1    2    0    0  0.26181821724E+02 -0.12422751992E+02  0.13300647077E+02  0.31886043476E+02  0.00000000000E+00 0.  1.
         11    1    3    3    0    0 -0.10940703897E+02 -0.34478471972E+00 -0.11359512059E+02  0.15775182812E+02  0.51100000000E-03 0. -1.
        -11    1    3    3    0    0 -0.35443443670E+01  0.19693623597E+02  0.12579935783E+02  0.23635904297E+02  0.51100000000E-03 0.  1.
        -12    1    3    3    0    0 -0.11696773460E+02 -0.69260868851E+01 -0.14521070800E+02  0.19890869416E+02  0.00000000000E+00 0.  1.
</event>
<event>
 7    1  0.6293596E-013  0.5930194E+02  0.7816164E-02  0.1266605E+00
        -11   -1    0    0    0    0  0.00000000000E+00  0.00000000000E+00  0.45593999997E+02  0.45594000000E+02  0.51100000000E-03 0. -1.
         11   -1    0    0    0    0 -0.00000000000E+00 -0.00000000000E+00 -0.45593999997E+02  0.45594000000E+02  0.51100000000E-03 0.  1.
    9900012    2    1    2    0    0 -0.58863662753E+01 -0.19877596350E+02 -0.24227101651E+02  0.59301943502E+02  0.49999999042E+02 0.  0.
        -12    1    1    2    0    0  0.58863662753E+01  0.19877596350E+02  0.24227101651E+02  0.31886056498E+02  0.00000000000E+00 0.  1.
         11    1    3    3    0    0  0.19996907434E+01 -0.90587775384E+01  0.12614187115E+02  0.15658158589E+02  0.51100000000E-03 0. -1.
        -11    1    3    3    0    0 -0.14122770204E+02 -0.61998384483E+01 -0.21615136437E+02  0.26553808738E+02  0.51100000000E-03 0.  1.
        -12    1    3    3    0    0  0.62367131850E+01 -0.46189803628E+01 -0.15226152329E+02  0.17089976176E+02  0.00000000000E+00 0.  1.
</event>
<event>
 7    1  0.6293596E-013  0.5930194E+02  0.7816164E-02  0.1266605E+00
        -11   -1    0    0    0    0  0.00000000000E+00  0.00000000000E+00  0.45593999997E+02  0.45594000000E+02  0.51100000000E-03 0.  1.
         11   -1    0    0    0    0 -0.00000000000E+00 -0.00000000000E+00 -0.45593999997E+02  0.45594000000E+02  0.51100000000E-03 0. -1.
    9900012    2    1    2    0    0 -0.28516677440E+01  0.98386226345E+01 -0.30195861607E+02  0.59301944075E+02  0.50000000086E+02 0.  0.
        -12    1    1    2    0    0  0.28516677440E+01 -0.98386226345E+01  0.30195861607E+02  0.31886055925E+02  0.00000000000E+00 0.  1.
         11    1    3    3    0    0  0.12622904935E+02  0.15310422092E+02 -0.45062958525E+01  0.20348303522E+02  0.51100000000E-03 0. -1.
        -11    1    3    3    0    0 -0.17833075441E+02  0.48094467938E+01 -0.18797966870E+02  0.26353612976E+02  0.51100000000E-03 0.  1.
        -12    1    3    3    0    0  0.23585027623E+01 -0.10281246251E+02 -0.68915988848E+01  0.12600027577E+02  0.00000000000E+00 0.  1.
</event>
<event>
 7    1  0.6293596E-013  0.5930194E+02  0.7816164E-02  0.1266605E+00
        -11   -1    0    0    0    0  0.00000000000E+00  0.00000000000E+00  0.45593999997E+02  0.45594000000E+02  0.51100000000E-03 0.  1.
         11   -1    0    0    0    0 -0.00000000000E+00 -0.00000000000E+00 -0.45593999997E+02  0.45594000000E+02  0.51100000000E-03 0. -1.
    9900012    2    1    2    0    0  0.25302173425E+02  0.54143663519E+01 -0.18633458306E+02  0.59301935466E+02  0.49999984385E+02 0.  0.
        -12    1    1    2    0    0 -0.25302173425E+02 -0.54143663519E+01  0.18633458306E+02  0.31886064534E+02  0.00000000000E+00 0.  1.
         11    1    3    3    0    0  0.28448454627E+01  0.38330157394E+01 -0.13067400664E+01  0.49490125508E+01  0.51100000000E-03 0. -1.
        -11    1    3    3    0    0 -0.55469146343E+01  0.75657652224E-01 -0.24732403288E+02  0.25346908267E+02  0.51100000000E-03 0.  1.
        -12    1    3    3    0    0  0.28004242597E+02  0.15056929602E+01  0.74056850479E+01  0.29006014648E+02  0.00000000000E+00 0.  1.
</event>
<event>
 7    1  0.6293596E-013  0.5930193E+02  0.7816164E-02  0.1266605E+00
        -11   -1    0    0    0    0  0.00000000000E+00  0.00000000000E+00  0.45593999997E+02  0.45594000000E+02  0.51100000000E-03 0.  1.
         11   -1    0    0    0    0 -0.00000000000E+00 -0.00000000000E+00 -0.45593999997E+02  0.45594000000E+02  0.51100000000E-03 0. -1.
    9900012    2    1    2    0    0 -0.47221651936E+01  0.49887150026E+01 -0.31137361619E+02  0.59301930784E+02  0.49999975846E+02 0.  0.
        -12    1    1    2    0    0  0.47221651936E+01 -0.49887150026E+01  0.31137361619E+02  0.31886069216E+02  0.00000000000E+00 0.  1.
         11    1    3    3    0    0  0.88937141640E+01  0.63445497058E+01 -0.92812617824E+01  0.14335036907E+02  0.51100000000E-03 0. -1.
        -11    1    3    3    0    0 -0.74348129706E+01 -0.18730568610E+02 -0.15628984937E+02  0.25502466837E+02  0.51100000000E-03 0.  1.
         12    1    3    3    0    0 -0.61810663870E+01  0.17374733906E+02 -0.62271148992E+01  0.19464427039E+02  0.00000000000E+00 0. -1.
</event>
<event>
 7    1  0.6293596E-013  0.5930197E+02  0.7816164E-02  0.1266605E+00
        -11   -1    0    0    0    0  0.00000000000E+00  0.00000000000E+00  0.45593999997E+02  0.45594000000E+02  0.51100000000E-03 0.  1.
         11   -1    0    0    0    0 -0.00000000000E+00 -0.00000000000E+00 -0.45593999997E+02  0.45594000000E+02  0.51100000000E-03 0. -1.
    9900012    2    1    2    0    0  0.16926563540E+01 -0.29439507737E+02 -0.12131337752E+02  0.59301967682E+02  0.50000043140E+02 0.  0.
        -12    1    1    2    0    0 -0.16926563540E+01  0.29439507737E+02  0.12131337752E+02  0.31886032318E+02  0.00000000000E+00 0.  1.
         11    1    3    3    0    0  0.38057369499E+01 -0.11122078569E+02 -0.11774451197E+02  0.16637967625E+02  0.51100000000E-03 0. -1.
        -11    1    3    3    0    0 -0.84461548746E+01 -0.60758964163E+01  0.17346770181E+02  0.20227814647E+02  0.51100000000E-03 0.  1.
        -12    1    3    3    0    0  0.63330742787E+01 -0.12241532752E+02 -0.17703656736E+02  0.22436185410E+02  0.00000000000E+00 0.  1.
</event>
<event>
 7    1  0.6293596E-013  0.5930194E+02  0.7816164E-02  0.1266605E+00
        -11   -1    0    0    0    0  0.00000000000E+00  0.00000000000E+00  0.45593999997E+02  0.45594000000E+02  0.51100000000E-03 0.  1.
         11   -1    0    0    0    0 -0.00000000000E+00 -0.00000000000E+00 -0.45593999997E+02  0.45594000000E+02  0.51100000000E-03 0. -1.
    9900012    2    1    2    0    0  0.15754122908E+02  0.70846325290E+01 -0.26801800991E+02  0.59301938107E+02  0.49999989202E+02 0.  0.
        -12    1    1    2    0    0 -0.15754122908E+02 -0.70846325290E+01  0.26801800991E+02  0.31886061893E+02  0.00000000000E+00 0.  1.
         11    1    3    3    0    0  0.82147104609E+01  0.55973805098E+01 -0.29754916932E+02  0.31371439534E+02  0.51100000000E-03 0. -1.
        -11    1    3    3    0    0 -0.66575261005E+01 -0.46143127561E+01 -0.59919636803E+01  0.10075622313E+02  0.51100000000E-03 0.  1.
         12    1    3    3    0    0  0.14196938548E+02  0.61015647754E+01  0.89450796209E+01  0.17854876260E+02  0.00000000000E+00 0. -1.
</event>
<event>
 7    1  0.6293596E-013  0.5930165E+02  0.7816164E-02  0.1266606E+00
        -11   -1    0    0    0    0  0.00000000000E+00  0.00000000000E+00  0.45593999997E+02  0.45594000000E+02  0.51100000000E-03 0.  1.
         11   -1    0    0    0    0 -0.00000000000E+00 -0.00000000000E+00 -0.45593999997E+02  0.45594000000E+02  0.51100000000E-03 0. -1.
    9900012    2    1    2    0    0  0.54514331113E+01 -0.15396933333E+02 -0.27385315389E+02  0.59301652169E+02  0.49999467717E+02 0.  0.
        -12    1    1    2    0    0 -0.54514331113E+01  0.15396933333E+02  0.27385315389E+02  0.31886347831E+02  0.00000000000E+00 0.  1.
         11    1    3    3    0    0  0.15644597045E+02 -0.10908170508E+01 -0.40072934536E+01  0.16186466558E+02  0.51100000000E-03 0. -1.
        -11    1    3    3    0    0 -0.13020430666E+02  0.65748033017E+01 -0.13374159273E+02  0.19789587912E+02  0.51100000000E-03 0.  1.
        -12    1    3    3    0    0  0.28272667324E+01 -0.20880919584E+02 -0.10003862662E+02  0.23325597699E+02  0.00000000000E+00 0.  1.
</event>
<event>
 7    1  0.6293596E-013  0.5930195E+02  0.7816164E-02  0.1266605E+00
        -11   -1    0    0    0    0  0.00000000000E+00  0.00000000000E+00  0.45593999997E+02  0.45594000000E+02  0.51100000000E-03 0. -1.
         11   -1    0    0    0    0 -0.00000000000E+00 -0.00000000000E+00 -0.45593999997E+02  0.45594000000E+02  0.51100000000E-03 0.  1.
    9900012    2    1    2    0    0 -0.17360797884E+02 -0.11581843436E+01  0.26720436598E+02  0.59301946212E+02  0.50000003984E+02 0.  0.
        -12    1    1    2    0    0  0.17360797884E+02  0.11581843436E+01 -0.26720436598E+02  0.31886053788E+02  0.00000000000E+00 0.  1.
         11    1    3    3    0    0 -0.40478120555E+01  0.16123069741E+02  0.10017017687E+02  0.19408214857E+02  0.51100000000E-03 0. -1.
        -11    1    3    3    0    0 -0.15135356636E+02 -0.24488568172E+02  0.13567691436E+02  0.31825323922E+02  0.51100000000E-03 0.  1.
        -12    1    3    3    0    0  0.18223708071E+01  0.72073140871E+01  0.31357274748E+01  0.80684074330E+01  0.00000000000E+00 0.  1.
</event>
<event>
 7    1  0.6293596E-013  0.5930195E+02  0.7816164E-02  0.1266605E+00
        -11   -1    0    0    0    0  0.00000000000E+00  0.00000000000E+00  0.45593999997E+02  0.45594000000E+02  0.51100000000E-03 0.  1.
         11   -1    0    0    0    0 -0.00000000000E+00 -0.00000000000E+00 -0.45593999997E+02  0.45594000000E+02  0.51100000000E-03 0. -1.
    9900012    2    1    2    0    0 -0.26293709457E+02 -0.92705617419E+01 -0.15473124025E+02  0.59301952281E+02  0.50000015052E+02 0.  0.
        -12    1    1    2    0    0  0.26293709457E+02  0.92705617419E+01  0.15473124025E+02  0.31886047719E+02  0.00000000000E+00 0.  1.
         11    1    3    3    0    0  0.95860997119E+01 -0.57905686109E+01  0.88301626422E+01  0.14261688717E+02  0.51100000000E-03 0.  1.
        -11    1    3    3    0    0 -0.31189595719E+02 -0.29817538721E+01 -0.15281196807E+02  0.34859671734E+02  0.51100000000E-03 0. -1.
        -12    1    3    3    0    0 -0.46902134503E+01 -0.49823925887E+00 -0.90220898599E+01  0.10180591830E+02  0.00000000000E+00 0.  1.
</event>
<event>
 7    1  0.6293596E-013  0.5930196E+02  0.7816164E-02  0.1266605E+00
        -11   -1    0    0    0    0  0.00000000000E+00  0.00000000000E+00  0.45593999997E+02  0.45594000000E+02  0.51100000000E-03 0.  1.
         11   -1    0    0    0    0 -0.00000000000E+00 -0.00000000000E+00 -0.45593999997E+02  0.45594000000E+02  0.51100000000E-03 0. -1.
    9900012    2    1    2    0    0  0.47833658224E+01  0.31462225029E+02  0.19918121179E+01  0.59301960611E+02  0.50000030245E+02 0.  0.
        -12    1    1    2    0    0 -0.47833658224E+01 -0.31462225029E+02 -0.19918121179E+01  0.31886039389E+02  0.00000000000E+00 0.  1.
         11    1    3    3    0    0  0.10608151406E+02  0.32728257875E+02 -0.11465714578E+02  0.36264781136E+02  0.51100000000E-03 0. -1.
        -11    1    3    3    0    0  0.12517530263E+01  0.26542179094E+01  0.14577697982E+02  0.14870139107E+02  0.51100000000E-03 0.  1.
         12    1    3    3    0    0 -0.70765386097E+01 -0.39202507551E+01 -0.11201712861E+01  0.81670403689E+01  0.00000000000E+00 0. -1.
</event>
<event>
 7    1  0.6293596E-013  0.5930201E+02  0.7816164E-02  0.1266605E+00
        -11   -1    0    0    0    0  0.00000000000E+00  0.00000000000E+00  0.45593999997E+02  0.45594000000E+02  0.51100000000E-03 0. -1.
         11   -1    0    0    0    0 -0.00000000000E+00 -0.00000000000E+00 -0.45593999997E+02  0.45594000000E+02  0.51100000000E-03 0.  1.
    9900012    2    1    2    0    0  0.30338821736E+02 -0.91641608650E+01  0.35057427901E+01  0.59302012776E+02  0.50000125381E+02 0.  0.
        -12    1    1    2    0    0 -0.30338821736E+02  0.91641608650E+01 -0.35057427901E+01  0.31885987224E+02  0.00000000000E+00 0.  1.
         11    1    3    3    0    0  0.22215999721E+02  0.49864874170E+01  0.22943405498E+02  0.32323606798E+02  0.51100000000E-03 0. -1.
        -11    1    3    3    0    0  0.25402204316E+01 -0.77587203895E+01 -0.15719431251E+02  0.17713017276E+02  0.51100000000E-03 0.  1.
         12    1    3    3    0    0  0.55826015838E+01 -0.63919278925E+01 -0.37182314567E+01  0.92653887016E+01  0.00000000000E+00 0. -1.
</event>
<event>
 7    1  0.6293596E-013  0.5930195E+02  0.7816164E-02  0.1266605E+00
        -11   -1    0    0    0    0  0.00000000000E+00  0.00000000000E+00  0.45593999997E+02  0.45594000000E+02  0.51100000000E-03 0.  1.
         11   -1    0    0    0    0 -0.00000000000E+00 -0.00000000000E+00 -0.45593999997E+02  0.45594000000E+02  0.51100000000E-03 0. -1.
    9900012    2    1    2    0    0  0.18030640734E+02  0.88632768711E+01 -0.24760018276E+02  0.59301949959E+02  0.50000010818E+02 0.  0.
        -12    1    1    2    0    0 -0.18030640734E+02 -0.88632768711E+01  0.24760018276E+02  0.31886050041E+02  0.00000000000E+00 0.  1.
         11    1    3    3    0    0  0.21133582342E+02  0.49035191997E+01 -0.37498953617E+02  0.43322561394E+02  0.51100000000E-03 0. -1.
        -11    1    3    3    0    0  0.28142385877E+01  0.11408780837E+01  0.32615609558E+01  0.44563798940E+01  0.51100000000E-03 0.  1.
         12    1    3    3    0    0 -0.59171801961E+01  0.28188795878E+01  0.94773743848E+01  0.11523008671E+02  0.00000000000E+00 0. -1.
</event>
<event>
 7    1  0.6293596E-013  0.5930190E+02  0.7816164E-02  0.1266605E+00
        -11   -1    0    0    0    0  0.00000000000E+00  0.00000000000E+00  0.45593999997E+02  0.45594000000E+02  0.51100000000E-03 0.  1.
         11   -1    0    0    0    0 -0.00000000000E+00 -0.00000000000E+00 -0.45593999997E+02  0.45594000000E+02  0.51100000000E-03 0. -1.
    9900012    2    1    2    0    0 -0.52087876749E+01  0.21108781472E+02 -0.23324046144E+02  0.59301901888E+02  0.49999923148E+02 0.  0.
        -12    1    1    2    0    0  0.52087876749E+01 -0.21108781472E+02  0.23324046144E+02  0.31886098112E+02  0.00000000000E+00 0.  1.
         11    1    3    3    0    0 -0.76225028151E+01  0.89996227243E+01  0.85272378574E+01  0.14553678026E+02  0.51100000000E-03 0.  1.
        -11    1    3    3    0    0 -0.57717968983E+01  0.14145355166E+01 -0.30657082683E+02  0.31227732371E+02  0.51100000000E-03 0. -1.
        -12    1    3    3    0    0  0.81855120384E+01  0.10694623231E+02 -0.11942013184E+01  0.13520491491E+02  0.00000000000E+00 0.  1.
</event>
<event>
 7    1  0.6293596E-013  0.5930194E+02  0.7816164E-02  0.1266605E+00
        -11   -1    0    0    0    0  0.00000000000E+00  0.00000000000E+00  0.45593999997E+02  0.45594000000E+02  0.51100000000E-03 0.  1.
         11   -1    0    0    0    0 -0.00000000000E+00 -0.00000000000E+00 -0.45593999997E+02  0.45594000000E+02  0.51100000000E-03 0. -1.
    9900012    2    1    2    0    0 -0.22437457718E+02 -0.88797834073E+01 -0.20843001841E+02  0.59301940539E+02  0.49999993637E+02 0.  0.
        -12    1    1    2    0    0  0.22437457718E+02  0.88797834073E+01  0.20843001841E+02  0.31886059461E+02  0.00000000000E+00 0.  1.
         11    1    3    3    0    0 -0.24621444907E+02 -0.39094230245E+01 -0.24392942210E+02  0.34878571754E+02  0.51100000000E-03 0. -1.
        -11    1    3    3    0    0  0.82356713007E+00 -0.12443067159E+02  0.87363549427E+01  0.15226033006E+02  0.51100000000E-03 0.  1.
        -12    1    3    3    0    0  0.13604200588E+01  0.74727067763E+01 -0.51864145735E+01  0.91973357789E+01  0.00000000000E+00 0.  1.
</event>
<event>
 7    1  0.6293596E-013  0.5930197E+02  0.7816164E-02  0.1266605E+00
        -11   -1    0    0    0    0  0.00000000000E+00  0.00000000000E+00  0.45593999997E+02  0.45594000000E+02  0.51100000000E-03 0. -1.
         11   -1    0    0    0    0 -0.00000000000E+00 -0.00000000000E+00 -0.45593999997E+02  0.45594000000E+02  0.51100000000E-03 0.  1.
    9900012    2    1    2    0    0  0.17072796498E+02  0.10738981078E+02  0.24696413194E+02  0.59301969838E+02  0.50000047072E+02 0.  0.
        -12    1    1    2    0    0 -0.17072796498E+02 -0.10738981078E+02 -0.24696413194E+02  0.31886030162E+02  0.00000000000E+00 0.  1.
         11    1    3    3    0    0  0.16970277752E+02 -0.81957671655E+00  0.28074417729E+02  0.32815163630E+02  0.51100000000E-03 0. -1.
        -11    1    3    3    0    0  0.34120341290E+01  0.18114932077E+02 -0.74231899264E-01  0.18433617434E+02  0.51100000000E-03 0.  1.
         12    1    3    3    0    0 -0.33095153832E+01 -0.65563742828E+01 -0.33037726361E+01  0.80531887746E+01  0.00000000000E+00 0. -1.
</event>
<event>
 7    1  0.6293596E-013  0.5930193E+02  0.7816164E-02  0.1266605E+00
        -11   -1    0    0    0    0  0.00000000000E+00  0.00000000000E+00  0.45593999997E+02  0.45594000000E+02  0.51100000000E-03 0.  1.
         11   -1    0    0    0    0 -0.00000000000E+00 -0.00000000000E+00 -0.45593999997E+02  0.45594000000E+02  0.51100000000E-03 0. -1.
    9900012    2    1    2    0    0  0.18831403096E+02  0.19902341700E+02 -0.16309389976E+02  0.59301934876E+02  0.49999983309E+02 0.  0.
        -12    1    1    2    0    0 -0.18831403096E+02 -0.19902341700E+02  0.16309389976E+02  0.31886065124E+02  0.00000000000E+00 0.  1.
         11    1    3    3    0    0  0.25808654822E+02 -0.14613390984E+01 -0.20732154744E+02  0.33136753255E+02  0.51100000000E-03 0. -1.
        -11    1    3    3    0    0 -0.10075326995E+02  0.17488533901E+02  0.58296429079E+01  0.21008230976E+02  0.51100000000E-03 0.  1.
         12    1    3    3    0    0  0.30980752680E+01  0.38751468977E+01 -0.14068781404E+01  0.51569506443E+01  0.00000000000E+00 0. -1.
</event>
<event>
 7    1  0.6293596E-013  0.5930197E+02  0.7816164E-02  0.1266605E+00
        -11   -1    0    0    0    0  0.00000000000E+00  0.00000000000E+00  0.45593999997E+02  0.45594000000E+02  0.51100000000E-03 0. -1.
         11   -1    0    0    0    0 -0.00000000000E+00 -0.00000000000E+00 -0.45593999997E+02  0.45594000000E+02  0.51100000000E-03 0.  1.
    9900012    2    1    2    0    0  0.21673579872E+02 -0.12678019465E+02  0.19653064262E+02  0.59301965801E+02  0.50000039710E+02 0.  0.
        -12    1    1    2    0    0 -0.21673579872E+02  0.12678019465E+02 -0.19653064262E+02  0.31886034199E+02  0.00000000000E+00 0.  1.
         11    1    3    3    0    0  0.16924662009E+01  0.12474978907E+02  0.21231959625E+02  0.24683712248E+02  0.51100000000E-03 0. -1.
        -11    1    3    3    0    0  0.44148143115E+01 -0.14128653729E+02 -0.41448352792E+01  0.15371698063E+02  0.51100000000E-03 0.  1.
         12    1    3    3    0    0  0.15566299359E+02 -0.11024344643E+02  0.25659399165E+01  0.19246555490E+02  0.00000000000E+00 0. -1.
</event>
<event>
 7    1  0.6293596E-013  0.5930196E+02  0.7816164E-02  0.1266605E+00
        -11   -1    0    0    0    0  0.00000000000E+00  0.00000000000E+00  0.45593999997E+02  0.45594000000E+02  0.51100000000E-03 0.  1.
         11   -1    0    0    0    0 -0.00000000000E+00 -0.00000000000E+00 -0.45593999997E+02  0.45594000000E+02  0.51100000000E-03 0. -1.
    9900012    2    1    2    0    0  0.23754457935E+02 -0.11807038930E+02  0.17692919181E+02  0.59301955573E+02  0.50000021055E+02 0.  0.
        -12    1    1    2    0    0 -0.23754457935E+02  0.11807038930E+02 -0.17692919181E+02  0.31886044427E+02  0.00000000000E+00 0.  1.
         11    1    3    3    0    0  0.41540382287E+00  0.28305249563E+01 -0.72130788213E+01  0.77596996210E+01  0.51100000000E-03 0. -1.
        -11    1    3    3    0    0  0.30053488246E+02 -0.55304864751E+01  0.26070196601E+02  0.40167817808E+02  0.51100000000E-03 0.  1.
        -12    1    3    3    0    0 -0.67144341339E+01 -0.91070774108E+01 -0.11641985980E+01  0.11374438144E+02  0.00000000000E+00 0.  1.
</event>
<event>
 7    1  0.6293596E-013  0.5930195E+02  0.7816164E-02  0.1266605E+00
        -11   -1    0    0    0    0  0.00000000000E+00  0.00000000000E+00  0.45593999997E+02  0.45594000000E+02  0.51100000000E-03 0.  1.
         11   -1    0    0    0    0 -0.00000000000E+00 -0.00000000000E+00 -0.45593999997E+02  0.45594000000E+02  0.51100000000E-03 0. -1.
    9900012    2    1    2    0    0 -0.65803780097E+01 -0.30971419727E+02  0.37669300145E+01  0.59301953265E+02  0.50000016846E+02 0.  0.
        -12    1    1    2    0    0  0.65803780097E+01  0.30971419727E+02 -0.37669300145E+01  0.31886046735E+02  0.00000000000E+00 0.  1.
         11    1    3    3    0    0  0.16862945319E+02 -0.11914477419E+02  0.62075272902E+01  0.21560312899E+02  0.51100000000E-03 0. -1.
        -11    1    3    3    0    0 -0.20115287527E+02 -0.19429596035E+02  0.60508012301E+01  0.28613741282E+02  0.51100000000E-03 0.  1.
        -12    1    3    3    0    0 -0.33280358018E+01  0.37265372660E+00 -0.84913985058E+01  0.91278990837E+01  0.00000000000E+00 0.  1.
</event>
<event>
 7    1  0.6293596E-013  0.5930197E+02  0.7816164E-02  0.1266605E+00
        -11   -1    0    0    0    0  0.00000000000E+00  0.00000000000E+00  0.45593999997E+02  0.45594000000E+02  0.51100000000E-03 0. -1.
         11   -1    0    0    0    0 -0.00000000000E+00 -0.00000000000E+00 -0.45593999997E+02  0.45594000000E+02  0.51100000000E-03 0.  1.
    9900012    2    1    2    0    0 -0.53242721344E+01  0.18090954924E+02  0.25711644987E+02  0.59301965255E+02  0.50000038714E+02 0.  0.
        -12    1    1    2    0    0  0.53242721344E+01 -0.18090954924E+02 -0.25711644987E+02  0.31886034745E+02  0.00000000000E+00 0.  1.
         11    1    3    3    0    0 -0.20775293294E+02  0.19046799698E+02  0.19459293798E+02  0.34249927089E+02  0.51100000000E-03 0. -1.
        -11    1    3    3    0    0  0.18983477681E+02 -0.15043496226E+01  0.14954187767E+01  0.19101616953E+02  0.51100000000E-03 0.  1.
         12    1    3    3    0    0 -0.35324565211E+01  0.54850484920E+00  0.47569324117E+01  0.59504212130E+01  0.00000000000E+00 0. -1.
</event>
<event>
 7    1  0.6293596E-013  0.5930194E+02  0.7816164E-02  0.1266605E+00
        -11   -1    0    0    0    0  0.00000000000E+00  0.00000000000E+00  0.45593999997E+02  0.45594000000E+02  0.51100000000E-03 0.  1.
         11   -1    0    0    0    0 -0.00000000000E+00 -0.00000000000E+00 -0.45593999997E+02  0.45594000000E+02  0.51100000000E-03 0. -1.
    9900012    2    1    2    0    0 -0.26966386758E+02 -0.10250105023E+02 -0.13581983463E+02  0.59301938115E+02  0.49999989216E+02 0.  0.
        -12    1    1    2    0    0  0.26966386758E+02  0.10250105023E+02  0.13581983463E+02  0.31886061885E+02  0.00000000000E+00 0.  1.
         11    1    3    3    0    0 -0.24763320459E+02 -0.12816698122E+02 -0.13240580951E+02  0.30867503544E+02  0.51100000000E-03 0. -1.
        -11    1    3    3    0    0  0.59318025344E+01  0.13433349646E+02 -0.17435813653E+01  0.14787874772E+02  0.51100000000E-03 0.  1.
        -12    1    3    3    0    0 -0.81348688334E+01 -0.10866756548E+02  0.14021788532E+01  0.13646559799E+02  0.00000000000E+00 0.  1.
</event>
<event>
 7    1  0.6293596E-013  0.5930194E+02  0.7816164E-02  0.1266605E+00
        -11   -1    0    0    0    0  0.00000000000E+00  0.00000000000E+00  0.45593999997E+02  0.45594000000E+02  0.51100000000E-03 0.  1.
         11   -1    0    0    0    0 -0.00000000000E+00 -0.00000000000E+00 -0.45593999997E+02  0.45594000000E+02  0.51100000000E-03 0. -1.
    9900012    2    1    2    0    0  0.15662218312E+01  0.27919000623E+02 -0.15323091046E+02  0.59301940886E+02  0.49999994270E+02 0.  0.
        -12    1    1    2    0    0 -0.15662218312E+01 -0.27919000623E+02  0.15323091046E+02  0.31886059114E+02  0.00000000000E+00 0.  1.
         11    1    3    3    0    0 -0.10972927402E+02 -0.49252985630E+01 -0.17988359332E+02  0.21638964241E+02  0.51100000000E-03 0. -1.
        -11    1    3    3    0    0  0.10723022531E+02  0.21431246345E+02  0.75369828717E+01  0.25121457824E+02  0.51100000000E-03 0.  1.
         12    1    3    3    0    0  0.18161267019E+01  0.11413052841E+02 -0.48717145857E+01  0.12541518822E+02  0.00000000000E+00 0. -1.
</event>
<event>
 7    1  0.6293596E-013  0.5930195E+02  0.7816164E-02  0.1266605E+00
        -11   -1    0    0    0    0  0.00000000000E+00  0.00000000000E+00  0.45593999997E+02  0.45594000000E+02  0.51100000000E-03 0. -1.
         11   -1    0    0    0    0 -0.00000000000E+00 -0.00000000000E+00 -0.45593999997E+02  0.45594000000E+02  0.51100000000E-03 0.  1.
    9900012    2    1    2    0    0  0.25867508736E+02 -0.54516305437E+01  0.17828968874E+02  0.59301946389E+02  0.50000004306E+02 0.  0.
        -12    1    1    2    0    0 -0.25867508736E+02  0.54516305437E+01 -0.17828968874E+02  0.31886053611E+02  0.00000000000E+00 0.  1.
         11    1    3    3    0    0 -0.28800659275E+01 -0.68959058358E+01  0.20433929646E+02  0.21757614255E+02  0.51100000000E-03 0. -1.
        -11    1    3    3    0    0  0.10556727614E+02  0.61760265157E+01 -0.11465490493E+02  0.16764404968E+02  0.51100000000E-03 0.  1.
         12    1    3    3    0    0  0.18190847050E+02 -0.47317512236E+01  0.88605297208E+01  0.20779927165E+02  0.00000000000E+00 0. -1.
</event>
<event>
 7    1  0.6293596E-013  0.5930194E+02  0.7816164E-02  0.1266605E+00
        -11   -1    0    0    0    0  0.00000000000E+00  0.00000000000E+00  0.45593999997E+02  0.45594000000E+02  0.51100000000E-03 0.  1.
         11   -1    0    0    0    0 -0.00000000000E+00 -0.00000000000E+00 -0.45593999997E+02  0.45594000000E+02  0.51100000000E-03 0. -1.
    9900012    2    1    2    0    0  0.10801190905E+02 -0.23209939426E+02 -0.19009305451E+02  0.59301941810E+02  0.49999995955E+02 0.  0.
        -12    1    1    2    0    0 -0.10801190905E+02  0.23209939426E+02  0.19009305451E+02  0.31886058190E+02  0.00000000000E+00 0.  1.
         11    1    3    3    0    0 -0.74384530842E+01 -0.24223922591E+02 -0.24013438202E+02  0.34910947059E+02  0.51100000000E-03 0. -1.
        -11    1    3    3    0    0  0.19119563780E+02 -0.33432251891E+01  0.44312268554E+01  0.19909059383E+02  0.51100000000E-03 0.  1.
        -12    1    3    3    0    0 -0.87991979074E+00  0.43572083538E+01  0.57290589535E+00  0.44819353679E+01  0.00000000000E+00 0.  1.
</event>
<event>
 7    1  0.6293596E-013  0.5930196E+02  0.7816164E-02  0.1266605E+00
        -11   -1    0    0    0    0  0.00000000000E+00  0.00000000000E+00  0.45593999997E+02  0.45594000000E+02  0.51100000000E-03 0.  1.
         11   -1    0    0    0    0 -0.00000000000E+00 -0.00000000000E+00 -0.45593999997E+02  0.45594000000E+02  0.51100000000E-03 0. -1.
    9900012    2    1    2    0    0  0.13059941644E+01  0.16141653599E+02 -0.27467453397E+02  0.59301959202E+02  0.50000027674E+02 0.  0.
        -12    1    1    2    0    0 -0.13059941644E+01 -0.16141653599E+02  0.27467453397E+02  0.31886040798E+02  0.00000000000E+00 0.  1.
         11    1    3    3    0    0  0.15504807318E+02  0.23753942370E+02 -0.25602304632E+02  0.38211605970E+02  0.51100000000E-03 0. -1.
        -11    1    3    3    0    0 -0.76086233324E+01 -0.10229660114E+02  0.21689964738E+01  0.12932193976E+02  0.51100000000E-03 0.  1.
        -12    1    3    3    0    0 -0.65901898214E+01  0.26173713431E+01 -0.40341452391E+01  0.81581592556E+01  0.00000000000E+00 0.  1.
</event>
<event>
 7    1  0.6293596E-013  0.5930194E+02  0.7816164E-02  0.1266605E+00
        -11   -1    0    0    0    0  0.00000000000E+00  0.00000000000E+00  0.45593999997E+02  0.45594000000E+02  0.51100000000E-03 0.  1.
         11   -1    0    0    0    0 -0.00000000000E+00 -0.00000000000E+00 -0.45593999997E+02  0.45594000000E+02  0.51100000000E-03 0. -1.
    9900012    2    1    2    0    0  0.17363655581E+02 -0.18627355454E+02 -0.19189727967E+02  0.59301944023E+02  0.49999999991E+02 0.  0.
        -12    1    1    2    0    0 -0.17363655581E+02  0.18627355454E+02  0.19189727967E+02  0.31886055977E+02  0.00000000000E+00 0.  1.
         11    1    3    3    0    0 -0.88229779404E+01 -0.38383690997E+00 -0.15910646077E+02  0.18197278076E+02  0.51100000000E-03 0. -1.
        -11    1    3    3    0    0  0.28822235929E+02 -0.12581049630E+02 -0.89195955950E+01  0.32688886178E+02  0.51100000000E-03 0.  1.
        -12    1    3    3    0    0 -0.26356024071E+01 -0.56624689148E+01  0.56405137055E+01  0.84157797690E+01  0.00000000000E+00 0.  1.
</event>
<event>
 7    1  0.6293596E-013  0.5930198E+02  0.7816164E-02  0.1266605E+00
        -11   -1    0    0    0    0  0.00000000000E+00  0.00000000000E+00  0.45593999997E+02  0.45594000000E+02  0.51100000000E-03 0.  1.
         11   -1    0    0    0    0 -0.00000000000E+00 -0.00000000000E+00 -0.45593999997E+02  0.45594000000E+02  0.51100000000E-03 0. -1.
    9900012    2    1    2    0    0 -0.20469289480E+02 -0.20052246429E+02 -0.13986911314E+02  0.59301982896E+02  0.50000070886E+02 0.  0.
        -12    1    1    2    0    0  0.20469289480E+02  0.20052246429E+02  0.13986911314E+02  0.31886017104E+02  0.00000000000E+00 0.  1.
         11    1    3    3    0    0 -0.28337184296E+02 -0.18830309940E+02 -0.19691986329E+02  0.39310951554E+02  0.51100000000E-03 0. -1.
        -11    1    3    3    0    0  0.78628684511E+01  0.40408431111E+01 -0.34022142202E+01  0.94724957212E+01  0.51100000000E-03 0.  1.
         12    1    3    3    0    0  0.50263654792E-02 -0.52627796004E+01  0.91072892348E+01  0.10518535620E+02  0.00000000000E+00 0. -1.
</event>
<event>
 7    1  0.6293596E-013  0.5930195E+02  0.7816164E-02  0.1266605E+00
        -11   -1    0    0    0    0  0.00000000000E+00  0.00000000000E+00  0.45593999997E+02  0.45594000000E+02  0.51100000000E-03 0. -1.
         11   -1    0    0    0    0 -0.00000000000E+00 -0.00000000000E+00 -0.45593999997E+02  0.45594000000E+02  0.51100000000E-03 0.  1.
    9900012    2    1    2    0    0 -0.16674248366E+02  0.15398140017E+02  0.22396137215E+02  0.59301949183E+02  0.50000009402E+02 0.  0.
        -12    1    1    2    0    0  0.16674248366E+02 -0.15398140017E+02 -0.22396137215E+02  0.31886050817E+02  0.00000000000E+00 0.  1.
         11    1    3    3    0    0  0.14629302167E+02  0.10272883185E+02  0.25035575010E+01  0.18050385349E+02  0.51100000000E-03 0. -1.
        -11    1    3    3    0    0 -0.12531924518E+02 -0.43456807956E+01  0.14280025241E+02  0.19489822853E+02  0.51100000000E-03 0.  1.
        -12    1    3    3    0    0 -0.18771626015E+02  0.94709376284E+01  0.56125544725E+01  0.21761740981E+02  0.00000000000E+00 0.  1.
</event>
<event>
 7    1  0.6293596E-013  0.5930194E+02  0.7816164E-02  0.1266605E+00
        -11   -1    0    0    0    0  0.00000000000E+00  0.00000000000E+00  0.45593999997E+02  0.45594000000E+02  0.51100000000E-03 0.  1.
         11   -1    0    0    0    0 -0.00000000000E+00 -0.00000000000E+00 -0.45593999997E+02  0.45594000000E+02  0.51100000000E-03 0. -1.
    9900012    2    1    2    0    0  0.22342029222E+02 -0.16863185416E+02 -0.15270487647E+02  0.59301935880E+02  0.49999985140E+02 0.  0.
        -12    1    1    2    0    0 -0.22342029222E+02  0.16863185416E+02  0.15270487647E+02  0.31886064120E+02  0.00000000000E+00 0.  1.
         11    1    3    3    0    0 -0.82583638634E+01 -0.43964960872E+00 -0.11071914293E+02  0.13819593042E+02  0.51100000000E-03 0. -1.
        -11    1    3    3    0    0  0.23736817651E+02 -0.23737945027E+02 -0.84044906655E+01  0.34605808904E+02  0.51100000000E-03 0.  1.
        -12    1    3    3    0    0  0.68635754343E+01  0.73144092204E+01  0.42059173113E+01  0.10876533934E+02  0.00000000000E+00 0.  1.
</event>
<event>
 7    1  0.6293596E-013  0.5930184E+02  0.7816164E-02  0.1266605E+00
        -11   -1    0    0    0    0  0.00000000000E+00  0.00000000000E+00  0.45593999997E+02  0.45594000000E+02  0.51100000000E-03 0.  1.
         11   -1    0    0    0    0 -0.00000000000E+00 -0.00000000000E+00 -0.45593999997E+02  0.45594000000E+02  0.51100000000E-03 0. -1.
    9900012    2    1    2    0    0  0.13931890091E+02  0.28655647114E+02  0.12180985637E+01  0.59301836274E+02  0.49999803482E+02 0.  0.
        -12    1    1    2    0    0 -0.13931890091E+02 -0.28655647114E+02 -0.12180985637E+01  0.31886163726E+02  0.00000000000E+00 0.  1.
         11    1    3    3    0    0  0.33920465144E+01  0.28233643584E+02  0.38417008925E+01  0.28695004366E+02  0.51100000000E-03 0. -1.
        -11    1    3    3    0    0  0.16469019106E+02  0.15136589520E+01  0.80153626534E+01  0.18378405602E+02  0.51100000000E-03 0.  1.
         12    1    3    3    0    0 -0.59291755294E+01 -0.10916554214E+01 -0.10638964982E+02  0.12228426306E+02  0.00000000000E+00 0. -1.
</event>
<event>
 7    1  0.6293596E-013  0.5930194E+02  0.7816164E-02  0.1266605E+00
        -11   -1    0    0    0    0  0.00000000000E+00  0.00000000000E+00  0.45593999997E+02  0.45594000000E+02  0.51100000000E-03 0.  1.
         11   -1    0    0    0    0 -0.00000000000E+00 -0.00000000000E+00 -0.45593999997E+02  0.45594000000E+02  0.51100000000E-03 0. -1.
    9900012    2    1    2    0    0 -0.11126462976E+01 -0.31166726557E+02 -0.66421276197E+01  0.59301942147E+02  0.49999996570E+02 0.  0.
        -12    1    1    2    0    0  0.11126462976E+01  0.31166726557E+02  0.66421276197E+01  0.31886057853E+02  0.00000000000E+00 0.  1.
         11    1    3    3    0    0 -0.16816955090E+02 -0.21059706676E+01 -0.49284388284E+01  0.17650342787E+02  0.51100000000E-03 0.  1.
        -11    1    3    3    0    0  0.14135718143E+02 -0.18764421375E+02  0.10386275129E+02  0.25686509071E+02  0.51100000000E-03 0. -1.
        -12    1    3    3    0    0  0.15685906500E+01 -0.10296334515E+02 -0.12099963920E+02  0.15965090289E+02  0.00000000000E+00 0.  1.
</event>
<event>
 7    1  0.6293596E-013  0.5930194E+02  0.7816164E-02  0.1266605E+00
        -11   -1    0    0    0    0  0.00000000000E+00  0.00000000000E+00  0.45593999997E+02  0.45594000000E+02  0.51100000000E-03 0.  1.
         11   -1    0    0    0    0 -0.00000000000E+00 -0.00000000000E+00 -0.45593999997E+02  0.45594000000E+02  0.51100000000E-03 0. -1.
    9900012    2    1    2    0    0 -0.30996996338E+02  0.44721911042E+01 -0.59922200604E+01  0.59301937583E+02  0.49999988246E+02 0.  0.
        -12    1    1    2    0    0  0.30996996338E+02 -0.44721911042E+01  0.59922200604E+01  0.31886062417E+02  0.00000000000E+00 0.  1.
         11    1    3    3    0    0 -0.13116294982E+02  0.13356056199E+02 -0.88890532312E+00  0.18740639908E+02  0.51100000000E-03 0. -1.
        -11    1    3    3    0    0 -0.25060574383E+02 -0.16000233096E+02 -0.13025018880E+01  0.29761323206E+02  0.51100000000E-03 0.  1.
        -12    1    3    3    0    0  0.71798730268E+01  0.71163680012E+01 -0.38008128493E+01  0.10799974469E+02  0.00000000000E+00 0.  1.
</event>
<event>
 7    1  0.6293596E-013  0.5930181E+02  0.7816164E-02  0.1266605E+00
        -11   -1    0    0    0    0  0.00000000000E+00  0.00000000000E+00  0.45593999997E+02  0.45594000000E+02  0.51100000000E-03 0.  1.
         11   -1    0    0    0    0 -0.00000000000E+00 -0.00000000000E+00 -0.45593999997E+02  0.45594000000E+02  0.51100000000E-03 0. -1.
    9900012    2    1    2    0    0 -0.20914523100E+02 -0.12527315603E+02 -0.20551845352E+02  0.59301807689E+02  0.49999751350E+02 0.  0.
        -12    1    1    2    0    0  0.20914523100E+02  0.12527315603E+02  0.20551845352E+02  0.31886192311E+02  0.00000000000E+00 0.  1.
         11    1    3    3    0    0 -0.12928377242E+02 -0.26252481557E+02 -0.97701163360E+01  0.30851108562E+02  0.51100000000E-03 0. -1.
        -11    1    3    3    0    0 -0.10205370536E+02  0.57535139508E+01  0.32525299173E+01  0.12158596205E+02  0.51100000000E-03 0.  1.
         12    1    3    3    0    0  0.22192246774E+01  0.79716520029E+01 -0.14034258933E+02  0.16292102922E+02  0.00000000000E+00 0. -1.
</event>
<event>
 7    1  0.6293596E-013  0.5930194E+02  0.7816164E-02  0.1266605E+00
        -11   -1    0    0    0    0  0.00000000000E+00  0.00000000000E+00  0.45593999997E+02  0.45594000000E+02  0.51100000000E-03 0.  1.
         11   -1    0    0    0    0 -0.00000000000E+00 -0.00000000000E+00 -0.45593999997E+02  0.45594000000E+02  0.51100000000E-03 0. -1.
    9900012    2    1    2    0    0  0.88926080789E+01  0.10620666484E+02 -0.28720092113E+02  0.59301941510E+02  0.49999995409E+02 0.  0.
        -12    1    1    2    0    0 -0.88926080789E+01 -0.10620666484E+02  0.28720092113E+02  0.31886058490E+02  0.00000000000E+00 0.  1.
         11    1    3    3    0    0  0.95280464400E+01  0.17952503371E+02 -0.35311125428E+02  0.40742503918E+02  0.51100000000E-03 0. -1.
        -11    1    3    3    0    0  0.32639094671E+00 -0.99766219707E+01  0.10006439345E+02  0.14133943032E+02  0.51100000000E-03 0.  1.
        -12    1    3    3    0    0 -0.96182930782E+00  0.26447850841E+01 -0.34154060300E+01  0.44254945609E+01  0.00000000000E+00 0.  1.
</event>
<event>
 7    1  0.6293596E-013  0.5930194E+02  0.7816164E-02  0.1266605E+00
        -11   -1    0    0    0    0  0.00000000000E+00  0.00000000000E+00  0.45593999997E+02  0.45594000000E+02  0.51100000000E-03 0.  1.
         11   -1    0    0    0    0 -0.00000000000E+00 -0.00000000000E+00 -0.45593999997E+02  0.45594000000E+02  0.51100000000E-03 0. -1.
    9900012    2    1    2    0    0 -0.17490372627E+02  0.45179314118E+01 -0.26275388950E+02  0.59301938730E+02  0.49999990338E+02 0.  0.
        -12    1    1    2    0    0  0.17490372627E+02 -0.45179314118E+01  0.26275388950E+02  0.31886061270E+02  0.00000000000E+00 0.  1.
         11    1    3    3    0    0 -0.67160123787E+00 -0.85168251962E+01 -0.52430504438E+01  0.10023818527E+02  0.51100000000E-03 0. -1.
        -11    1    3    3    0    0 -0.17842129821E+02  0.88551992008E+01  0.68515357307E+01  0.21064180297E+02  0.51100000000E-03 0.  1.
        -12    1    3    3    0    0  0.10233584323E+01  0.41795574073E+01 -0.27883874236E+02  0.28213939906E+02  0.00000000000E+00 0.  1.
</event>
<event>
 7    1  0.6293596E-013  0.5930188E+02  0.7816164E-02  0.1266605E+00
        -11   -1    0    0    0    0  0.00000000000E+00  0.00000000000E+00  0.45593999997E+02  0.45594000000E+02  0.51100000000E-03 0.  1.
         11   -1    0    0    0    0 -0.00000000000E+00 -0.00000000000E+00 -0.45593999997E+02  0.45594000000E+02  0.51100000000E-03 0. -1.
    9900012    2    1    2    0    0 -0.19697437200E+02  0.37309533627E+01 -0.24795475911E+02  0.59301879651E+02  0.49999882592E+02 0.  0.
        -12    1    1    2    0    0  0.19697437200E+02 -0.37309533627E+01  0.24795475911E+02  0.31886120349E+02  0.00000000000E+00 0.  1.
         11    1    3    3    0    0 -0.51750579096E+01  0.13460114566E+02 -0.97428519955E+01  0.17403421324E+02  0.51100000000E-03 0. -1.
        -11    1    3    3    0    0 -0.18495138155E+02 -0.20289741230E+02 -0.13205284115E+02  0.30465115516E+02  0.51100000000E-03 0.  1.
        -12    1    3    3    0    0  0.39727588646E+01  0.10560580027E+02 -0.18473398004E+01  0.11433342811E+02  0.00000000000E+00 0.  1.
</event>
<event>
 7    1  0.6293596E-013  0.5930194E+02  0.7816164E-02  0.1266605E+00
        -11   -1    0    0    0    0  0.00000000000E+00  0.00000000000E+00  0.45593999997E+02  0.45594000000E+02  0.51100000000E-03 0.  1.
         11   -1    0    0    0    0 -0.00000000000E+00 -0.00000000000E+00 -0.45593999997E+02  0.45594000000E+02  0.51100000000E-03 0. -1.
    9900012    2    1    2    0    0 -0.75034600636E+01  0.19744339604E+01 -0.30927666044E+02  0.59301939890E+02  0.49999992454E+02 0.  0.
        -12    1    1    2    0    0  0.75034600636E+01 -0.19744339604E+01  0.30927666044E+02  0.31886060110E+02  0.00000000000E+00 0.  1.
         11    1    3    3    0    0  0.15393746805E+02 -0.92104639312E+01 -0.17219085964E+02  0.24865578783E+02  0.51100000000E-03 0. -1.
        -11    1    3    3    0    0 -0.15215325693E+02  0.96816923434E+01 -0.18024719001E+02  0.25497682206E+02  0.51100000000E-03 0.  1.
        -12    1    3    3    0    0 -0.76818811755E+01  0.15032055482E+01  0.43161389200E+01  0.89386789008E+01  0.00000000000E+00 0.  1.
</event>
<event>
 7    1  0.6293596E-013  0.5930193E+02  0.7816164E-02  0.1266605E+00
        -11   -1    0    0    0    0  0.00000000000E+00  0.00000000000E+00  0.45593999997E+02  0.45594000000E+02  0.51100000000E-03 0.  1.
         11   -1    0    0    0    0 -0.00000000000E+00 -0.00000000000E+00 -0.45593999997E+02  0.45594000000E+02  0.51100000000E-03 0. -1.
    9900012    2    1    2    0    0  0.27406516106E+00 -0.40472310934E+01 -0.31626984389E+02  0.59301931996E+02  0.49999978057E+02 0.  0.
        -12    1    1    2    0    0 -0.27406516106E+00  0.40472310934E+01  0.31626984389E+02  0.31886068004E+02  0.00000000000E+00 0.  1.
         11    1    3    3    0    0  0.64646058470E+01 -0.10491328246E+02 -0.11569200423E+02  0.16902825084E+02  0.51100000000E-03 0. -1.
        -11    1    3    3    0    0 -0.33874416200E+00  0.21299052724E+02 -0.10027733877E+02  0.23543997993E+02  0.51100000000E-03 0.  1.
        -12    1    3    3    0    0 -0.58517965240E+01 -0.14854955571E+02 -0.10030050089E+02  0.18855108919E+02  0.00000000000E+00 0.  1.
</event>
<event>
 7    1  0.6293596E-013  0.5930191E+02  0.7816164E-02  0.1266605E+00
        -11   -1    0    0    0    0  0.00000000000E+00  0.00000000000E+00  0.45593999997E+02  0.45594000000E+02  0.51100000000E-03 0.  1.
         11   -1    0    0    0    0 -0.00000000000E+00 -0.00000000000E+00 -0.45593999997E+02  0.45594000000E+02  0.51100000000E-03 0. -1.
    9900012    2    1    2    0    0  0.30175819616E+01  0.15723262868E+02 -0.27575275477E+02  0.59301911909E+02  0.49999941424E+02 0.  0.
        -12    1    1    2    0    0 -0.30175819616E+01 -0.15723262868E+02  0.27575275477E+02  0.31886088091E+02  0.00000000000E+00 0.  1.
         11    1    3    3    0    0 -0.40612529734E+01  0.32884842788E+01 -0.42654710753E+01  0.67455280239E+01  0.51100000000E-03 0. -1.
        -11    1    3    3    0    0  0.34037367997E+01 -0.16630053149E+02 -0.39103865255E+01  0.17419391923E+02  0.51100000000E-03 0.  1.
        -12    1    3    3    0    0  0.36750981353E+01  0.29064831738E+02 -0.19399417876E+02  0.35136991962E+02  0.00000000000E+00 0.  1.
</event>
<event>
 7    1  0.6293596E-013  0.5930195E+02  0.7816164E-02  0.1266605E+00
        -11   -1    0    0    0    0  0.00000000000E+00  0.00000000000E+00  0.45593999997E+02  0.45594000000E+02  0.51100000000E-03 0. -1.
         11   -1    0    0    0    0 -0.00000000000E+00 -0.00000000000E+00 -0.45593999997E+02  0.45594000000E+02  0.51100000000E-03 0.  1.
    9900012    2    1    2    0    0 -0.10149111475E+02  0.27031475312E+02  0.13528314179E+02  0.59301946531E+02  0.50000004566E+02 0.  0.
        -12    1    1    2    0    0  0.10149111475E+02 -0.27031475312E+02 -0.13528314179E+02  0.31886053469E+02  0.00000000000E+00 0.  1.
         11    1    3    3    0    0 -0.49940511553E+01  0.20021858826E+02 -0.14121545630E+02  0.25004668145E+02  0.51100000000E-03 0. -1.
        -11    1    3    3    0    0  0.35380096052E+01 -0.42841483797E+01  0.46768712430E+01  0.72625452970E+01  0.51100000000E-03 0.  1.
         12    1    3    3    0    0 -0.86930699253E+01  0.11293764866E+02  0.22972988566E+02  0.27034733090E+02  0.00000000000E+00 0. -1.
</event>
<event>
 7    1  0.6293596E-013  0.5930191E+02  0.7816164E-02  0.1266605E+00
        -11   -1    0    0    0    0  0.00000000000E+00  0.00000000000E+00  0.45593999997E+02  0.45594000000E+02  0.51100000000E-03 0.  1.
         11   -1    0    0    0    0 -0.00000000000E+00 -0.00000000000E+00 -0.45593999997E+02  0.45594000000E+02  0.51100000000E-03 0. -1.
    9900012    2    1    2    0    0  0.20855967267E+02 -0.21621764977E+02 -0.10688802902E+02  0.59301912143E+02  0.49999941850E+02 0.  0.
        -12    1    1    2    0    0 -0.20855967267E+02  0.21621764977E+02  0.10688802902E+02  0.31886087857E+02  0.00000000000E+00 0.  1.
         11    1    3    3    0    0  0.23048282807E+01 -0.12758972873E+01 -0.41890166831E+01  0.49485359778E+01  0.51100000000E-03 0. -1.
        -11    1    3    3    0    0 -0.11279300836E+02 -0.80915809414E+01  0.10954789504E+02  0.17683430742E+02  0.51100000000E-03 0.  1.
        -12    1    3    3    0    0  0.29830439822E+02 -0.12254286748E+02 -0.17454575723E+02  0.36669945423E+02  0.00000000000E+00 0.  1.
</event>
<event>
 7    1  0.6293596E-013  0.5930193E+02  0.7816164E-02  0.1266605E+00
        -11   -1    0    0    0    0  0.00000000000E+00  0.00000000000E+00  0.45593999997E+02  0.45594000000E+02  0.51100000000E-03 0.  1.
         11   -1    0    0    0    0 -0.00000000000E+00 -0.00000000000E+00 -0.45593999997E+02  0.45594000000E+02  0.51100000000E-03 0. -1.
    9900012    2    1    2    0    0  0.32092787568E+01  0.25242849942E+02 -0.19215113627E+02  0.59301928824E+02  0.49999972273E+02 0.  0.
        -12    1    1    2    0    0 -0.32092787568E+01 -0.25242849942E+02  0.19215113627E+02  0.31886071176E+02  0.00000000000E+00 0.  1.
         11    1    3    3    0    0 -0.42981961021E+01 -0.82207736116E+01  0.28782989052E+01  0.97128890323E+01  0.51100000000E-03 0.  1.
        -11    1    3    3    0    0 -0.30225650402E+01  0.26954023594E+02 -0.36376514652E+01  0.27365814363E+02  0.51100000000E-03 0. -1.
         12    1    3    3    0    0  0.10530039899E+02  0.65095999597E+01 -0.18455761067E+02  0.22223225429E+02  0.00000000000E+00 0. -1.
</event>
<event>
 7    1  0.6293596E-013  0.5930194E+02  0.7816164E-02  0.1266605E+00
        -11   -1    0    0    0    0  0.00000000000E+00  0.00000000000E+00  0.45593999997E+02  0.45594000000E+02  0.51100000000E-03 0.  1.
         11   -1    0    0    0    0 -0.00000000000E+00 -0.00000000000E+00 -0.45593999997E+02  0.45594000000E+02  0.51100000000E-03 0. -1.
    9900012    2    1    2    0    0 -0.23544817935E+02  0.21327272996E+02  0.27403546497E+01  0.59301943978E+02  0.49999999910E+02 0.  0.
        -12    1    1    2    0    0  0.23544817935E+02 -0.21327272996E+02 -0.27403546497E+01  0.31886056022E+02  0.00000000000E+00 0.  1.
         11    1    3    3    0    0 -0.15305603013E+02 -0.11771992280E+02  0.25031735680E+01  0.19470674461E+02  0.51100000000E-03 0. -1.
        -11    1    3    3    0    0 -0.49974229639E+01  0.13969595340E+02  0.10215542308E+02  0.18013359907E+02  0.51100000000E-03 0.  1.
         12    1    3    3    0    0 -0.32417919582E+01  0.19129669936E+02 -0.99783612267E+01  0.21817909609E+02  0.00000000000E+00 0. -1.
</event>
<event>
 7    1  0.6293596E-013  0.5930193E+02  0.7816164E-02  0.1266605E+00
        -11   -1    0    0    0    0  0.00000000000E+00  0.00000000000E+00  0.45593999997E+02  0.45594000000E+02  0.51100000000E-03 0. -1.
         11   -1    0    0    0    0 -0.00000000000E+00 -0.00000000000E+00 -0.45593999997E+02  0.45594000000E+02  0.51100000000E-03 0.  1.
    9900012    2    1    2    0    0 -0.26357922619E+02  0.21034905057E+01  0.17820123244E+02  0.59301928597E+02  0.49999971858E+02 0.  0.
        -12    1    1    2    0    0  0.26357922619E+02 -0.21034905057E+01 -0.17820123244E+02  0.31886071403E+02  0.00000000000E+00 0.  1.
         11    1    3    3    0    0 -0.22110386315E+02 -0.19117526745E+02 -0.28645101423E+00  0.29230652854E+02  0.51100000000E-03 0. -1.
        -11    1    3    3    0    0 -0.55308904130E+01  0.42462992507E+01  0.57137825269E+01  0.90149385529E+01  0.51100000000E-03 0.  1.
         12    1    3    3    0    0  0.12833541085E+01  0.16974718000E+02  0.12392791732E+02  0.21056337190E+02  0.00000000000E+00 0. -1.
</event>
<event>
 7    1  0.6293596E-013  0.5930188E+02  0.7816164E-02  0.1266605E+00
        -11   -1    0    0    0    0  0.00000000000E+00  0.00000000000E+00  0.45593999997E+02  0.45594000000E+02  0.51100000000E-03 0.  1.
         11   -1    0    0    0    0 -0.00000000000E+00 -0.00000000000E+00 -0.45593999997E+02  0.45594000000E+02  0.51100000000E-03 0. -1.
    9900012    2    1    2    0    0 -0.63916006589E+01 -0.67737161460E+01 -0.30495717747E+02  0.59301880915E+02  0.49999884897E+02 0.  0.
        -12    1    1    2    0    0  0.63916006589E+01  0.67737161460E+01  0.30495717747E+02  0.31886119085E+02  0.00000000000E+00 0.  1.
         11    1    3    3    0    0  0.17133966913E+02  0.43421668901E+01 -0.19592566779E+01  0.17783866916E+02  0.51100000000E-03 0. -1.
        -11    1    3    3    0    0 -0.15148219047E+02 -0.13676228717E+02 -0.14737654160E+02  0.25173522254E+02  0.51100000000E-03 0.  1.
        -12    1    3    3    0    0 -0.83773485247E+01  0.25603456814E+01 -0.13798806909E+02  0.16344491746E+02  0.00000000000E+00 0.  1.
</event>
<event>
 7    1  0.6293596E-013  0.5930194E+02  0.7816164E-02  0.1266605E+00
        -11   -1    0    0    0    0  0.00000000000E+00  0.00000000000E+00  0.45593999997E+02  0.45594000000E+02  0.51100000000E-03 0. -1.
         11   -1    0    0    0    0 -0.00000000000E+00 -0.00000000000E+00 -0.45593999997E+02  0.45594000000E+02  0.51100000000E-03 0.  1.
    9900012    2    1    2    0    0  0.20695314730E+02 -0.46047032134E+01  0.23816409058E+02  0.59301942171E+02  0.49999996613E+02 0.  0.
        -12    1    1    2    0    0 -0.20695314730E+02  0.46047032134E+01 -0.23816409058E+02  0.31886057829E+02  0.00000000000E+00 0.  1.
         11    1    3    3    0    0 -0.54162391380E+01 -0.99248444853E+01  0.24797661893E+02  0.27253664342E+02  0.51100000000E-03 0. -1.
        -11    1    3    3    0    0  0.62802210863E+01 -0.59163413852E+01 -0.30731294477E+01  0.91590609312E+01  0.51100000000E-03 0.  1.
         12    1    3    3    0    0  0.19831332782E+02  0.11236482657E+02  0.20918766130E+01  0.22889216898E+02  0.00000000000E+00 0. -1.
</event>
<event>
 7    1  0.6293596E-013  0.5930195E+02  0.7816164E-02  0.1266605E+00
        -11   -1    0    0    0    0  0.00000000000E+00  0.00000000000E+00  0.45593999997E+02  0.45594000000E+02  0.51100000000E-03 0. -1.
         11   -1    0    0    0    0 -0.00000000000E+00 -0.00000000000E+00 -0.45593999997E+02  0.45594000000E+02  0.51100000000E-03 0.  1.
    9900012    2    1    2    0    0  0.28874059134E+02 -0.81764418384E+01  0.10777511041E+02  0.59301949190E+02  0.50000009415E+02 0.  0.
        -12    1    1    2    0    0 -0.28874059134E+02  0.81764418384E+01 -0.10777511041E+02  0.31886050810E+02  0.00000000000E+00 0.  1.
         11    1    3    3    0    0  0.11145254916E+02 -0.33175847213E+01  0.14055661137E+02  0.18242387063E+02  0.51100000000E-03 0. -1.
        -11    1    3    3    0    0  0.17940631857E+02 -0.17575808980E+01 -0.18318916222E+02  0.25700934883E+02  0.51100000000E-03 0.  1.
        -12    1    3    3    0    0 -0.21182763861E+00 -0.31012762191E+01  0.15040766127E+02  0.15358627244E+02  0.00000000000E+00 0.  1.
</event>
<event>
 7    1  0.7674316E-013  0.5930194E+02  0.7816164E-02  0.1266605E+00
        -11   -1    0    0    0    0  0.00000000000E+00  0.00000000000E+00  0.45593999997E+02  0.45594000000E+02  0.51100000000E-03 0. -1.
         11   -1    0    0    0    0 -0.00000000000E+00 -0.00000000000E+00 -0.45593999997E+02  0.45594000000E+02  0.51100000000E-03 0.  1.
    9900012    2    1    2    0    0  0.14683812545E+01  0.86083126984E+01  0.30666946964E+02  0.59301939925E+02  0.49999992517E+02 0.  0.
        -12    1    1    2    0    0 -0.14683812545E+01 -0.86083126984E+01 -0.30666946964E+02  0.31886060075E+02  0.00000000000E+00 0.  1.
         11    1    3    3    0    0 -0.51204075480E+01  0.38506743104E+01  0.36705477107E+02  0.37260412183E+02  0.51100000000E-03 0. -1.
        -11    1    3    3    0    0  0.50596262436E+01 -0.40186709781E+01 -0.10305686940E+02  0.12163746040E+02  0.51100000000E-03 0.  1.
         12    1    3    3    0    0  0.15291625589E+01  0.87763093662E+01  0.42671567973E+01  0.98777817022E+01  0.00000000000E+00 0. -1.
</event>
<event>
 7    1  0.6293596E-013  0.5930200E+02  0.7816164E-02  0.1266605E+00
        -11   -1    0    0    0    0  0.00000000000E+00  0.00000000000E+00  0.45593999997E+02  0.45594000000E+02  0.51100000000E-03 0. -1.
         11   -1    0    0    0    0 -0.00000000000E+00 -0.00000000000E+00 -0.45593999997E+02  0.45594000000E+02  0.51100000000E-03 0.  1.
    9900012    2    1    2    0    0 -0.19104808285E+02 -0.53598589887E+01  0.24959875859E+02  0.59301996944E+02  0.50000096506E+02 0.  0.
        -12    1    1    2    0    0  0.19104808285E+02  0.53598589887E+01 -0.24959875859E+02  0.31886003056E+02  0.00000000000E+00 0.  1.
         11    1    3    3    0    0 -0.26657422043E+02 -0.19564428941E+02  0.24871367629E+02  0.41375958693E+02  0.51100000000E-03 0. -1.
        -11    1    3    3    0    0 -0.14383374465E+01  0.35697075991E+01  0.97995822001E+00  0.39713908555E+01  0.51100000000E-03 0.  1.
         12    1    3    3    0    0  0.89909512051E+01  0.10634862353E+02 -0.89144998926E+00  0.13954647395E+02  0.00000000000E+00 0. -1.
</event>
<event>
 7    1  0.6293596E-013  0.5930196E+02  0.7816164E-02  0.1266605E+00
        -11   -1    0    0    0    0  0.00000000000E+00  0.00000000000E+00  0.45593999997E+02  0.45594000000E+02  0.51100000000E-03 0.  1.
         11   -1    0    0    0    0 -0.00000000000E+00 -0.00000000000E+00 -0.45593999997E+02  0.45594000000E+02  0.51100000000E-03 0. -1.
    9900012    2    1    2    0    0 -0.12200940946E+02 -0.15611520039E+02 -0.24982737935E+02  0.59301957401E+02  0.50000024390E+02 0.  0.
        -12    1    1    2    0    0  0.12200940946E+02  0.15611520039E+02  0.24982737935E+02  0.31886042599E+02  0.00000000000E+00 0.  1.
         11    1    3    3    0    0  0.21976049335E+01 -0.13225352635E+01 -0.50718865198E+01  0.56835376394E+01  0.51100000000E-03 0. -1.
        -11    1    3    3    0    0 -0.49857044453E+01  0.13964524291E+02  0.40775831789E+01  0.15378292243E+02  0.51100000000E-03 0.  1.
        -12    1    3    3    0    0 -0.94128414340E+01 -0.28253509066E+02 -0.23988434594E+02  0.38240127519E+02  0.00000000000E+00 0.  1.
</event>
<event>
 7    1  0.6293596E-013  0.5930196E+02  0.7816164E-02  0.1266605E+00
        -11   -1    0    0    0    0  0.00000000000E+00  0.00000000000E+00  0.45593999997E+02  0.45594000000E+02  0.51100000000E-03 0.  1.
         11   -1    0    0    0    0 -0.00000000000E+00 -0.00000000000E+00 -0.45593999997E+02  0.45594000000E+02  0.51100000000E-03 0. -1.
    9900012    2    1    2    0    0  0.21097150904E+02 -0.23166580250E+02  0.59109749875E+01  0.59301955372E+02  0.50000020689E+02 0.  0.
        -12    1    1    2    0    0 -0.21097150904E+02  0.23166580250E+02 -0.59109749875E+01  0.31886044628E+02  0.00000000000E+00 0.  1.
         11    1    3    3    0    0 -0.10381903221E+02 -0.16874919995E+02  0.13529056524E+02  0.23991294463E+02  0.51100000000E-03 0. -1.
        -11    1    3    3    0    0  0.16794248020E+02  0.30188360183E+01 -0.30610476882E+01  0.17335805452E+02  0.51100000000E-03 0.  1.
         12    1    3    3    0    0  0.14684806105E+02 -0.93104962726E+01 -0.45570338485E+01  0.17974855456E+02  0.00000000000E+00 0. -1.
</event>
<event>
 7    1  0.6293596E-013  0.5930175E+02  0.7816164E-02  0.1266605E+00
        -11   -1    0    0    0    0  0.00000000000E+00  0.00000000000E+00  0.45593999997E+02  0.45594000000E+02  0.51100000000E-03 0. -1.
         11   -1    0    0    0    0 -0.00000000000E+00 -0.00000000000E+00 -0.45593999997E+02  0.45594000000E+02  0.51100000000E-03 0.  1.
    9900012    2    1    2    0    0  0.16228634401E+02  0.23773375689E+02  0.13718279677E+02  0.59301746481E+02  0.49999639721E+02 0.  0.
        -12    1    1    2    0    0 -0.16228634401E+02 -0.23773375689E+02 -0.13718279677E+02  0.31886253519E+02  0.00000000000E+00 0.  1.
         11    1    3    3    0    0 -0.28972865242E+01  0.66419645117E+01  0.27673233952E+02  0.28606255250E+02  0.51100000000E-03 0. -1.
        -11    1    3    3    0    0  0.13238353363E+02  0.16804620681E+02 -0.11693682433E+02  0.24380145305E+02  0.51100000000E-03 0.  1.
         12    1    3    3    0    0  0.58875675623E+01  0.32679049674E+00 -0.22612718420E+01  0.63153459266E+01  0.00000000000E+00 0. -1.
</event>
<event>
 7    1  0.6293596E-013  0.5930196E+02  0.7816164E-02  0.1266605E+00
        -11   -1    0    0    0    0  0.00000000000E+00  0.00000000000E+00  0.45593999997E+02  0.45594000000E+02  0.51100000000E-03 0. -1.
         11   -1    0    0    0    0 -0.00000000000E+00 -0.00000000000E+00 -0.45593999997E+02  0.45594000000E+02  0.51100000000E-03 0.  1.
    9900012    2    1    2    0    0 -0.19633647503E+02 -0.23566718122E+02  0.87091570342E+01  0.59301957073E+02  0.50000023791E+02 0.  0.
        -12    1    1    2    0    0  0.19633647503E+02  0.23566718122E+02 -0.87091570342E+01  0.31886042927E+02  0.00000000000E+00 0.  1.
         11    1    3    3    0    0  0.38945460988E-01 -0.32192356294E+02  0.60055479070E+01  0.32747762159E+02  0.51100000000E-03 0. -1.
        -11    1    3    3    0    0 -0.33959594859E+00  0.54227855739E+01 -0.29178834198E+01  0.61673310841E+01  0.51100000000E-03 0.  1.
         12    1    3    3    0    0 -0.19332997015E+02  0.32028525983E+01  0.56214925469E+01  0.20386863830E+02  0.00000000000E+00 0. -1.
</event>
<event>
 7    1  0.6293596E-013  0.5930194E+02  0.7816164E-02  0.1266605E+00
        -11   -1    0    0    0    0  0.00000000000E+00  0.00000000000E+00  0.45593999997E+02  0.45594000000E+02  0.51100000000E-03 0.  1.
         11   -1    0    0    0    0 -0.00000000000E+00 -0.00000000000E+00 -0.45593999997E+02  0.45594000000E+02  0.51100000000E-03 0. -1.
    9900012    2    1    2    0    0  0.14490061925E+02  0.25273045659E+02 -0.12962715387E+02  0.59301941578E+02  0.49999995533E+02 0.  0.
        -12    1    1    2    0    0 -0.14490061925E+02 -0.25273045659E+02  0.12962715387E+02  0.31886058422E+02  0.00000000000E+00 0.  1.
         11    1    3    3    0    0 -0.49339924746E+01  0.22843515585E+02  0.54809800143E+01  0.24004408516E+02  0.51100000000E-03 0.  1.
        -11    1    3    3    0    0  0.12055551016E+01 -0.20063072061E+01 -0.16251368144E+02  0.16419062048E+02  0.51100000000E-03 0. -1.
        -12    1    3    3    0    0  0.18218499298E+02  0.44358372799E+01 -0.21923272569E+01  0.18878471015E+02  0.00000000000E+00 0.  1.
</event>
<event>
 7    1  0.6293596E-013  0.5930205E+02  0.7816164E-02  0.1266604E+00
        -11   -1    0    0    0    0  0.00000000000E+00  0.00000000000E+00  0.45593999997E+02  0.45594000000E+02  0.51100000000E-03 0. -1.
         11   -1    0    0    0    0 -0.00000000000E+00 -0.00000000000E+00 -0.45593999997E+02  0.45594000000E+02  0.51100000000E-03 0.  1.
    9900012    2    1    2    0    0 -0.16171713530E+02  0.21335237627E+01  0.27397766750E+02  0.59302049097E+02  0.50000191620E+02 0.  0.
        -12    1    1    2    0    0  0.16171713530E+02 -0.21335237627E+01 -0.27397766750E+02  0.31885950903E+02  0.00000000000E+00 0.  1.
         11    1    3    3    0    0 -0.19320617690E+02  0.19983348988E+02  0.11950840066E+02  0.30256289978E+02  0.51100000000E-03 0. -1.
        -11    1    3    3    0    0  0.40820474313E+01 -0.86294122065E+01  0.17145460939E+02  0.19623880791E+02  0.51100000000E-03 0.  1.
         12    1    3    3    0    0 -0.93314327118E+00 -0.92204130185E+01 -0.16985342551E+01  0.94218783272E+01  0.00000000000E+00 0. -1.
</event>
<event>
 7    1  0.6293596E-013  0.5930194E+02  0.7816164E-02  0.1266605E+00
        -11   -1    0    0    0    0  0.00000000000E+00  0.00000000000E+00  0.45593999997E+02  0.45594000000E+02  0.51100000000E-03 0.  1.
         11   -1    0    0    0    0 -0.00000000000E+00 -0.00000000000E+00 -0.45593999997E+02  0.45594000000E+02  0.51100000000E-03 0. -1.
    9900012    2    1    2    0    0  0.14478806630E+02  0.14867941631E+02 -0.24208040875E+02  0.59301940777E+02  0.49999994072E+02 0.  0.
        -12    1    1    2    0    0 -0.14478806630E+02 -0.14867941631E+02  0.24208040875E+02  0.31886059223E+02  0.00000000000E+00 0.  1.
         11    1    3    3    0    0 -0.11363036599E+01  0.12423933955E+02 -0.21025779821E+02  0.24448491534E+02  0.51100000000E-03 0. -1.
        -11    1    3    3    0    0  0.15293309840E+02 -0.12263492813E+02 -0.44044920231E+01  0.20091742883E+02  0.51100000000E-03 0.  1.
        -12    1    3    3    0    0  0.32180045004E+00  0.14707500488E+02  0.12222309698E+01  0.14761706361E+02  0.00000000000E+00 0.  1.
</event>
<event>
 7    1  0.6293596E-013  0.5930196E+02  0.7816164E-02  0.1266605E+00
        -11   -1    0    0    0    0  0.00000000000E+00  0.00000000000E+00  0.45593999997E+02  0.45594000000E+02  0.51100000000E-03 0.  1.
         11   -1    0    0    0    0 -0.00000000000E+00 -0.00000000000E+00 -0.45593999997E+02  0.45594000000E+02  0.51100000000E-03 0. -1.
    9900012    2    1    2    0    0 -0.26712381290E+02  0.98031508632E+01 -0.14389804017E+02  0.59301960098E+02  0.50000029308E+02 0.  0.
        -12    1    1    2    0    0  0.26712381290E+02 -0.98031508632E+01  0.14389804017E+02  0.31886039902E+02  0.00000000000E+00 0.  1.
         11    1    3    3    0    0 -0.27781395895E+02  0.17407162505E+02  0.12872502428E+01  0.32809636965E+02  0.51100000000E-03 0. -1.
        -11    1    3    3    0    0 -0.37215517085E+01 -0.10056922206E+02 -0.89468257805E+00  0.10760673239E+02  0.51100000000E-03 0.  1.
         12    1    3    3    0    0  0.47905663139E+01  0.24529105641E+01 -0.14782371681E+02  0.15731649894E+02  0.00000000000E+00 0. -1.
</event>
<event>
 7    1  0.6293596E-013  0.5930202E+02  0.7816164E-02  0.1266605E+00
        -11   -1    0    0    0    0  0.00000000000E+00  0.00000000000E+00  0.45593999997E+02  0.45594000000E+02  0.51100000000E-03 0.  1.
         11   -1    0    0    0    0 -0.00000000000E+00 -0.00000000000E+00 -0.45593999997E+02  0.45594000000E+02  0.51100000000E-03 0. -1.
    9900012    2    1    2    0    0  0.19745185552E+02 -0.19815636779E+02 -0.15303076838E+02  0.59302016024E+02  0.50000131303E+02 0.  0.
        -12    1    1    2    0    0 -0.19745185552E+02  0.19815636779E+02  0.15303076838E+02  0.31885983976E+02  0.00000000000E+00 0.  1.
         11    1    3    3    0    0  0.17764723494E+02  0.10998230499E+02 -0.13954752781E+02  0.25125317916E+02  0.51100000000E-03 0. -1.
        -11    1    3    3    0    0  0.57587556549E+01 -0.13411644480E+02  0.47572169927E+01  0.15351436028E+02  0.51100000000E-03 0.  1.
         12    1    3    3    0    0 -0.37782935975E+01 -0.17402222799E+02 -0.61055410490E+01  0.18825262079E+02  0.00000000000E+00 0. -1.
</event>
<event>
 7    1  0.6293596E-013  0.5930191E+02  0.7816164E-02  0.1266605E+00
        -11   -1    0    0    0    0  0.00000000000E+00  0.00000000000E+00  0.45593999997E+02  0.45594000000E+02  0.51100000000E-03 0. -1.
         11   -1    0    0    0    0 -0.00000000000E+00 -0.00000000000E+00 -0.45593999997E+02  0.45594000000E+02  0.51100000000E-03 0.  1.
    9900012    2    1    2    0    0  0.17495871555E+02 -0.12320241454E+02  0.23639567219E+02  0.59301905707E+02  0.49999930113E+02 0.  0.
        -12    1    1    2    0    0 -0.17495871555E+02  0.12320241454E+02 -0.23639567219E+02  0.31886094293E+02  0.00000000000E+00 0.  1.
         11    1    3    3    0    0 -0.10932552378E+01 -0.11084019915E+02 -0.42410521046E+01  0.11917937226E+02  0.51100000000E-03 0.  1.
        -11    1    3    3    0    0  0.27975347207E+02  0.21632510323E+01  0.22953588768E+02  0.36251440578E+02  0.51100000000E-03 0. -1.
         12    1    3    3    0    0 -0.93862204145E+01 -0.33994725707E+01  0.49270305556E+01  0.11132527904E+02  0.00000000000E+00 0. -1.
</event>
<event>
 7    1  0.6293596E-013  0.5930193E+02  0.7816164E-02  0.1266605E+00
        -11   -1    0    0    0    0  0.00000000000E+00  0.00000000000E+00  0.45593999997E+02  0.45594000000E+02  0.51100000000E-03 0.  1.
         11   -1    0    0    0    0 -0.00000000000E+00 -0.00000000000E+00 -0.45593999997E+02  0.45594000000E+02  0.51100000000E-03 0. -1.
    9900012    2    1    2    0    0  0.12204217014E+02 -0.17464454990E+02 -0.23722806231E+02  0.59301927233E+02  0.49999969370E+02 0.  0.
        -12    1    1    2    0    0 -0.12204217014E+02  0.17464454990E+02  0.23722806231E+02  0.31886072767E+02  0.00000000000E+00 0.  1.
         11    1    3    3    0    0 -0.14811489084E+02  0.41876281540E+00 -0.19164659024E+01  0.14940830398E+02  0.51100000000E-03 0. -1.
        -11    1    3    3    0    0  0.25308765767E+02 -0.61695036918E+01 -0.10808434074E+02  0.28203167337E+02  0.51100000000E-03 0.  1.
         12    1    3    3    0    0  0.17069403306E+01 -0.11713714114E+02 -0.10997906255E+02  0.16157929497E+02  0.00000000000E+00 0. -1.
</event>
<event>
 7    1  0.6293596E-013  0.5930194E+02  0.7816164E-02  0.1266605E+00
        -11   -1    0    0    0    0  0.00000000000E+00  0.00000000000E+00  0.45593999997E+02  0.45594000000E+02  0.51100000000E-03 0.  1.
         11   -1    0    0    0    0 -0.00000000000E+00 -0.00000000000E+00 -0.45593999997E+02  0.45594000000E+02  0.51100000000E-03 0. -1.
    9900012    2    1    2    0    0 -0.25616416716E+01  0.27853502391E+02 -0.15308206094E+02  0.59301940706E+02  0.49999993942E+02 0.  0.
        -12    1    1    2    0    0  0.25616416716E+01 -0.27853502391E+02  0.15308206094E+02  0.31886059294E+02  0.00000000000E+00 0.  1.
         11    1    3    3    0    0 -0.35994152415E+01  0.29021091638E+02 -0.12781232379E+02  0.31914564878E+02  0.51100000000E-03 0. -1.
        -11    1    3    3    0    0 -0.38802833528E+00 -0.11579044399E+02  0.67167247845E+01  0.13391759678E+02  0.51100000000E-03 0.  1.
        -12    1    3    3    0    0  0.14258019052E+01  0.10411455152E+02 -0.92436985002E+01  0.13995616150E+02  0.00000000000E+00 0.  1.
</event>
<event>
 7    1  0.6293596E-013  0.5930194E+02  0.7816164E-02  0.1266605E+00
        -11   -1    0    0    0    0  0.00000000000E+00  0.00000000000E+00  0.45593999997E+02  0.45594000000E+02  0.51100000000E-03 0. -1.
         11   -1    0    0    0    0 -0.00000000000E+00 -0.00000000000E+00 -0.45593999997E+02  0.45594000000E+02  0.51100000000E-03 0.  1.
    9900012    2    1    2    0    0  0.15937752892E+02  0.79983246313E+00  0.27605601148E+02  0.59301938563E+02  0.49999990034E+02 0.  0.
        -12    1    1    2    0    0 -0.15937752892E+02 -0.79983246313E+00 -0.27605601148E+02  0.31886061437E+02  0.00000000000E+00 0.  1.
         11    1    3    3    0    0 -0.72789852285E+01 -0.48312602152E+01  0.16407719813E+02  0.18588651671E+02  0.51100000000E-03 0. -1.
        -11    1    3    3    0    0  0.13981902228E+02  0.11206622247E+01 -0.99519558326E+01  0.17198572583E+02  0.51100000000E-03 0.  1.
         12    1    3    3    0    0  0.92348358923E+01  0.45104304536E+01  0.21149837168E+02  0.23514714310E+02  0.00000000000E+00 0. -1.
</event>
<event>
 7    1  0.6293596E-013  0.5930195E+02  0.7816164E-02  0.1266605E+00
        -11   -1    0    0    0    0  0.00000000000E+00  0.00000000000E+00  0.45593999997E+02  0.45594000000E+02  0.51100000000E-03 0.  1.
         11   -1    0    0    0    0 -0.00000000000E+00 -0.00000000000E+00 -0.45593999997E+02  0.45594000000E+02  0.51100000000E-03 0. -1.
    9900012    2    1    2    0    0 -0.17487205000E+01 -0.10392454917E+02 -0.30094172768E+02  0.59301946980E+02  0.50000005384E+02 0.  0.
        -12    1    1    2    0    0  0.17487205000E+01  0.10392454917E+02  0.30094172768E+02  0.31886053020E+02  0.00000000000E+00 0.  1.
         11    1    3    3    0    0  0.16745527477E+02 -0.75978213220E+01 -0.30903089821E+02  0.35960263348E+02  0.51100000000E-03 0. -1.
        -11    1    3    3    0    0 -0.10974156122E+02 -0.68179332887E+01  0.49818400293E+01  0.13846842502E+02  0.51100000000E-03 0.  1.
        -12    1    3    3    0    0 -0.75200918543E+01  0.40232996939E+01 -0.41729229769E+01  0.94948411306E+01  0.00000000000E+00 0.  1.
</event>
<event>
 7    1  0.6293596E-013  0.5930196E+02  0.7816164E-02  0.1266605E+00
        -11   -1    0    0    0    0  0.00000000000E+00  0.00000000000E+00  0.45593999997E+02  0.45594000000E+02  0.51100000000E-03 0. -1.
         11   -1    0    0    0    0 -0.00000000000E+00 -0.00000000000E+00 -0.45593999997E+02  0.45594000000E+02  0.51100000000E-03 0.  1.
    9900012    2    1    2    0    0 -0.30373120865E+00 -0.28685700515E+02 -0.13919704707E+02  0.59301955312E+02  0.50000020580E+02 0.  0.
        -12    1    1    2    0    0  0.30373120865E+00  0.28685700515E+02  0.13919704707E+02  0.31886044688E+02  0.00000000000E+00 0.  1.
         11    1    3    3    0    0  0.96553868413E+01 -0.17163988722E+02  0.14694224204E+02  0.24571309064E+02  0.51100000000E-03 0. -1.
        -11    1    3    3    0    0 -0.59079787101E+01 -0.54472916999E+01 -0.25600015049E+02  0.26831659846E+02  0.51100000000E-03 0.  1.
         12    1    3    3    0    0 -0.40511393398E+01 -0.60744200934E+01 -0.30139138615E+01  0.78989864025E+01  0.00000000000E+00 0. -1.
</event>
<event>
 7    1  0.6293596E-013  0.5930196E+02  0.7816164E-02  0.1266605E+00
        -11   -1    0    0    0    0  0.00000000000E+00  0.00000000000E+00  0.45593999997E+02  0.45594000000E+02  0.51100000000E-03 0. -1.
         11   -1    0    0    0    0 -0.00000000000E+00 -0.00000000000E+00 -0.45593999997E+02  0.45594000000E+02  0.51100000000E-03 0.  1.
    9900012    2    1    2    0    0 -0.74713774150E+01  0.27896946802E+02  0.13515111797E+02  0.59301962801E+02  0.50000034239E+02 0.  0.
        -12    1    1    2    0    0  0.74713774150E+01 -0.27896946802E+02 -0.13515111797E+02  0.31886037199E+02  0.00000000000E+00 0.  1.
         11    1    3    3    0    0 -0.35412821183E+01  0.19180262225E+02  0.29848868599E+02  0.35656389259E+02  0.51100000000E-03 0. -1.
        -11    1    3    3    0    0 -0.67464136906E+01  0.33936613400E+01 -0.15873695556E+01  0.77169150146E+01  0.51100000000E-03 0.  1.
         12    1    3    3    0    0  0.28163183939E+01  0.53230232366E+01 -0.14746387247E+02  0.15928658528E+02  0.00000000000E+00 0. -1.
</event>
<event>
 7    1  0.6293596E-013  0.5930196E+02  0.7816164E-02  0.1266605E+00
        -11   -1    0    0    0    0  0.00000000000E+00  0.00000000000E+00  0.45593999997E+02  0.45594000000E+02  0.51100000000E-03 0.  1.
         11   -1    0    0    0    0 -0.00000000000E+00 -0.00000000000E+00 -0.45593999997E+02  0.45594000000E+02  0.51100000000E-03 0. -1.
    9900012    2    1    2    0    0  0.26858666812E+02 -0.71700215212E+01 -0.15618007294E+02  0.59301963191E+02  0.50000034950E+02 0.  0.
        -12    1    1    2    0    0 -0.26858666812E+02  0.71700215212E+01  0.15618007294E+02  0.31886036809E+02  0.00000000000E+00 0.  1.
         11    1    3    3    0    0  0.26911147366E+02  0.12870345105E+02 -0.10769586737E+02  0.31714974924E+02  0.51100000000E-03 0. -1.
        -11    1    3    3    0    0  0.54977160339E+01 -0.17590455585E+02 -0.87216977709E+01  0.20389139794E+02  0.51100000000E-03 0.  1.
         12    1    3    3    0    0 -0.55501965878E+01 -0.24499110408E+01  0.38732772144E+01  0.71978484737E+01  0.00000000000E+00 0. -1.
</event>
<event>
 7    1  0.6293596E-013  0.5930189E+02  0.7816164E-02  0.1266605E+00
        -11   -1    0    0    0    0  0.00000000000E+00  0.00000000000E+00  0.45593999997E+02  0.45594000000E+02  0.51100000000E-03 0. -1.
         11   -1    0    0    0    0 -0.00000000000E+00 -0.00000000000E+00 -0.45593999997E+02  0.45594000000E+02  0.51100000000E-03 0.  1.
    9900012    2    1    2    0    0 -0.12138528620E+02  0.18672587537E+02  0.22819175325E+02  0.59301887586E+02  0.49999897064E+02 0.  0.
        -12    1    1    2    0    0  0.12138528620E+02 -0.18672587537E+02 -0.22819175325E+02  0.31886112414E+02  0.00000000000E+00 0.  1.
         11    1    3    3    0    0 -0.10194564073E+02 -0.48230393233E+01 -0.33145489605E+01  0.11754874735E+02  0.51100000000E-03 0.  1.
        -11    1    3    3    0    0  0.89303710910E+01  0.26876254857E+02  0.19165571623E+02  0.34196545716E+02  0.51100000000E-03 0. -1.
        -12    1    3    3    0    0 -0.10874335638E+02 -0.33806279971E+01  0.69681526619E+01  0.13350467136E+02  0.00000000000E+00 0.  1.
</event>
<event>
 7    1  0.6293596E-013  0.5930204E+02  0.7816164E-02  0.1266604E+00
        -11   -1    0    0    0    0  0.00000000000E+00  0.00000000000E+00  0.45593999997E+02  0.45594000000E+02  0.51100000000E-03 0.  1.
         11   -1    0    0    0    0 -0.00000000000E+00 -0.00000000000E+00 -0.45593999997E+02  0.45594000000E+02  0.51100000000E-03 0. -1.
    9900012    2    1    2    0    0  0.26651766295E+02 -0.15334264936E+02 -0.84414595226E+01  0.59302038094E+02  0.50000171554E+02 0.  0.
        -12    1    1    2    0    0 -0.26651766295E+02  0.15334264936E+02  0.84414595226E+01  0.31885961906E+02  0.00000000000E+00 0.  1.
         11    1    3    3    0    0  0.35031674206E+02  0.29134550734E+01 -0.10998243243E+02  0.36832971274E+02  0.51100000000E-03 0. -1.
        -11    1    3    3    0    0 -0.47093255307E+01 -0.54331616963E+01  0.52079984723E+01  0.88780764426E+01  0.51100000000E-03 0.  1.
         12    1    3    3    0    0 -0.36705823801E+01 -0.12814558314E+02 -0.26512147517E+01  0.13590990378E+02  0.00000000000E+00 0. -1.
</event>
<event>
 7    1  0.6293596E-013  0.5930195E+02  0.7816164E-02  0.1266605E+00
        -11   -1    0    0    0    0  0.00000000000E+00  0.00000000000E+00  0.45593999997E+02  0.45594000000E+02  0.51100000000E-03 0. -1.
         11   -1    0    0    0    0 -0.00000000000E+00 -0.00000000000E+00 -0.45593999997E+02  0.45594000000E+02  0.51100000000E-03 0.  1.
    9900012    2    1    2    0    0  0.24105367955E+02  0.33648893750E+01  0.20599243422E+02  0.59301951730E+02  0.50000014047E+02 0.  0.
        -12    1    1    2    0    0 -0.24105367955E+02 -0.33648893750E+01 -0.20599243422E+02  0.31886048270E+02  0.00000000000E+00 0.  1.
         11    1    3    3    0    0 -0.44765643968E+01 -0.11428163739E+02  0.17710376930E+02  0.21547621829E+02  0.51100000000E-03 0. -1.
        -11    1    3    3    0    0  0.68565807541E+01  0.12773472958E+02 -0.37001295135E+01  0.14962127848E+02  0.51100000000E-03 0.  1.
         12    1    3    3    0    0  0.21725351598E+02  0.20195801555E+01  0.65889960054E+01  0.22792202053E+02  0.00000000000E+00 0. -1.
</event>
<event>
 7    1  0.6293596E-013  0.5930195E+02  0.7816164E-02  0.1266605E+00
        -11   -1    0    0    0    0  0.00000000000E+00  0.00000000000E+00  0.45593999997E+02  0.45594000000E+02  0.51100000000E-03 0.  1.
         11   -1    0    0    0    0 -0.00000000000E+00 -0.00000000000E+00 -0.45593999997E+02  0.45594000000E+02  0.51100000000E-03 0. -1.
    9900012    2    1    2    0    0 -0.61871581380E+01  0.31277241954E+02  0.41667930037E+00  0.59301946439E+02  0.50000004397E+02 0.  0.
        -12    1    1    2    0    0  0.61871581380E+01 -0.31277241954E+02 -0.41667930037E+00  0.31886053561E+02  0.00000000000E+00 0.  1.
         11    1    3    3    0    0  0.11270847062E+02  0.10956607533E+02 -0.19292039791E+02  0.24884976224E+02  0.51100000000E-03 0. -1.
        -11    1    3    3    0    0 -0.14967923496E+02  0.12227478993E+02  0.10860095995E+02  0.22169611218E+02  0.51100000000E-03 0.  1.
         12    1    3    3    0    0 -0.24900817046E+01  0.80931554277E+01  0.88486230967E+01  0.12247358996E+02  0.00000000000E+00 0. -1.
</event>
<event>
 7    1  0.6293596E-013  0.5930196E+02  0.7816164E-02  0.1266605E+00
        -11   -1    0    0    0    0  0.00000000000E+00  0.00000000000E+00  0.45593999997E+02  0.45594000000E+02  0.51100000000E-03 0.  1.
         11   -1    0    0    0    0 -0.00000000000E+00 -0.00000000000E+00 -0.45593999997E+02  0.45594000000E+02  0.51100000000E-03 0. -1.
    9900012    2    1    2    0    0 -0.14172681039E+02 -0.28431493855E+02 -0.27395423881E+01  0.59301955667E+02  0.50000021228E+02 0.  0.
        -12    1    1    2    0    0  0.14172681039E+02  0.28431493855E+02  0.27395423881E+01  0.31886044333E+02  0.00000000000E+00 0.  1.
         11    1    3    3    0    0  0.13008565909E+01 -0.18537999482E+02  0.14471328092E+01  0.18639845662E+02  0.51100000000E-03 0. -1.
        -11    1    3    3    0    0  0.73235780649E+00  0.23774353138E+01  0.13493878658E+02  0.13721272103E+02  0.51100000000E-03 0.  1.
        -12    1    3    3    0    0 -0.16205895437E+02 -0.12270929687E+02 -0.17680553855E+02  0.26940837903E+02  0.00000000000E+00 0.  1.
</event>
<event>
 7    1  0.6293596E-013  0.5930193E+02  0.7816164E-02  0.1266605E+00
        -11   -1    0    0    0    0  0.00000000000E+00  0.00000000000E+00  0.45593999997E+02  0.45594000000E+02  0.51100000000E-03 0.  1.
         11   -1    0    0    0    0 -0.00000000000E+00 -0.00000000000E+00 -0.45593999997E+02  0.45594000000E+02  0.51100000000E-03 0. -1.
    9900012    2    1    2    0    0  0.29698688957E+02  0.11263558692E+02  0.28002983813E+01  0.59301928571E+02  0.49999971810E+02 0.  0.
        -12    1    1    2    0    0 -0.29698688957E+02 -0.11263558692E+02 -0.28002983813E+01  0.31886071429E+02  0.00000000000E+00 0.  1.
         11    1    3    3    0    0  0.37355635089E+01 -0.46409324136E+01 -0.36868633827E+00  0.59689712911E+01  0.51100000000E-03 0. -1.
        -11    1    3    3    0    0  0.37765284526E+02  0.15445864140E+02 -0.98206195150E+00  0.40813672713E+02  0.51100000000E-03 0.  1.
        -12    1    3    3    0    0 -0.11802159078E+02  0.45862696539E+00  0.41510466710E+01  0.12519284567E+02  0.00000000000E+00 0.  1.
</event>
<event>
 7    1  0.6293596E-013  0.5930194E+02  0.7816164E-02  0.1266605E+00
        -11   -1    0    0    0    0  0.00000000000E+00  0.00000000000E+00  0.45593999997E+02  0.45594000000E+02  0.51100000000E-03 0.  1.
         11   -1    0    0    0    0 -0.00000000000E+00 -0.00000000000E+00 -0.45593999997E+02  0.45594000000E+02  0.51100000000E-03 0. -1.
    9900012    2    1    2    0    0 -0.11786778027E+02  0.24424995672E+02 -0.16769386043E+02  0.59301939440E+02  0.49999991632E+02 0.  0.
        -12    1    1    2    0    0  0.11786778027E+02 -0.24424995672E+02  0.16769386043E+02  0.31886060560E+02  0.00000000000E+00 0.  1.
         11    1    3    3    0    0 -0.98761478446E+01  0.18533179100E+02 -0.31633962347E+02  0.37970048694E+02  0.51100000000E-03 0. -1.
        -11    1    3    3    0    0 -0.94006347284E+00  0.84060834401E+01  0.27098606750E+01  0.88819650570E+01  0.51100000000E-03 0.  1.
         12    1    3    3    0    0 -0.97056670923E+00 -0.25142668681E+01  0.12154715629E+02  0.12449925689E+02  0.00000000000E+00 0. -1.
</event>
<event>
 7    1  0.6293596E-013  0.5930201E+02  0.7816164E-02  0.1266605E+00
        -11   -1    0    0    0    0  0.00000000000E+00  0.00000000000E+00  0.45593999997E+02  0.45594000000E+02  0.51100000000E-03 0.  1.
         11   -1    0    0    0    0 -0.00000000000E+00 -0.00000000000E+00 -0.45593999997E+02  0.45594000000E+02  0.51100000000E-03 0. -1.
    9900012    2    1    2    0    0 -0.20075952261E+02 -0.14990308009E+02 -0.19722147644E+02  0.59302010896E+02  0.50000121952E+02 0.  0.
        -12    1    1    2    0    0  0.20075952261E+02  0.14990308009E+02  0.19722147644E+02  0.31885989104E+02  0.00000000000E+00 0.  1.
         11    1    3    3    0    0  0.82833872229E+01 -0.14129804248E+02 -0.22114492590E+02  0.27519386889E+02  0.51100000000E-03 0. -1.
        -11    1    3    3    0    0 -0.25153262746E+02 -0.57909547748E+01  0.19411074656E+01  0.25884158909E+02  0.51100000000E-03 0.  1.
         12    1    3    3    0    0 -0.32060767379E+01  0.49304510140E+01  0.45123748001E+00  0.58984650981E+01  0.00000000000E+00 0. -1.
</event>
<event>
 7    1  0.6293596E-013  0.5930206E+02  0.7816164E-02  0.1266604E+00
        -11   -1    0    0    0    0  0.00000000000E+00  0.00000000000E+00  0.45593999997E+02  0.45594000000E+02  0.51100000000E-03 0. -1.
         11   -1    0    0    0    0 -0.00000000000E+00 -0.00000000000E+00 -0.45593999997E+02  0.45594000000E+02  0.51100000000E-03 0.  1.
    9900012    2    1    2    0    0  0.99123716401E+01  0.24438060062E+02  0.17923145456E+02  0.59302062125E+02  0.50000215380E+02 0.  0.
        -12    1    1    2    0    0 -0.99123716401E+01 -0.24438060062E+02 -0.17923145456E+02  0.31885937875E+02  0.00000000000E+00 0.  1.
         11    1    3    3    0    0 -0.78508371966E+01 -0.43529737712E+01  0.19241567784E+02  0.21232568294E+02  0.51100000000E-03 0. -1.
        -11    1    3    3    0    0  0.14025632689E+02  0.27482211161E+02  0.43450886412E+01  0.31158788458E+02  0.51100000000E-03 0.  1.
         12    1    3    3    0    0  0.37375761479E+01  0.13088226731E+01 -0.56635109687E+01  0.69107053724E+01  0.00000000000E+00 0. -1.
</event>
<event>
 7    1  0.6293596E-013  0.5930186E+02  0.7816164E-02  0.1266605E+00
        -11   -1    0    0    0    0  0.00000000000E+00  0.00000000000E+00  0.45593999997E+02  0.45594000000E+02  0.51100000000E-03 0.  1.
         11   -1    0    0    0    0 -0.00000000000E+00 -0.00000000000E+00 -0.45593999997E+02  0.45594000000E+02  0.51100000000E-03 0. -1.
    9900012    2    1    2    0    0  0.47446417188E+01 -0.74401942918E+01 -0.30640785751E+02  0.59301860886E+02  0.49999848369E+02 0.  0.
        -12    1    1    2    0    0 -0.47446417188E+01  0.74401942918E+01  0.30640785751E+02  0.31886139114E+02  0.00000000000E+00 0.  1.
         11    1    3    3    0    0  0.51006324610E+00 -0.17334035078E+02 -0.26831456256E+02  0.31947706986E+02  0.51100000000E-03 0. -1.
        -11    1    3    3    0    0 -0.71851732261E+01  0.13340104355E+02 -0.18200264770E+01  0.15260982771E+02  0.51100000000E-03 0.  1.
         12    1    3    3    0    0  0.11419751699E+02 -0.34462635696E+01 -0.19893030189E+01  0.12093171129E+02  0.00000000000E+00 0. -1.
</event>
<event>
 7    1  0.6293596E-013  0.5930205E+02  0.7816164E-02  0.1266604E+00
        -11   -1    0    0    0    0  0.00000000000E+00  0.00000000000E+00  0.45593999997E+02  0.45594000000E+02  0.51100000000E-03 0. -1.
         11   -1    0    0    0    0 -0.00000000000E+00 -0.00000000000E+00 -0.45593999997E+02  0.45594000000E+02  0.51100000000E-03 0.  1.
    9900012    2    1    2    0    0  0.24196593203E+02 -0.10706984473E+02  0.17793235454E+02  0.59302049065E+02  0.50000191562E+02 0.  0.
        -12    1    1    2    0    0 -0.24196593203E+02  0.10706984473E+02 -0.17793235454E+02  0.31885950935E+02  0.00000000000E+00 0.  1.
         11    1    3    3    0    0  0.32038421345E+01  0.57427591475E+01 -0.48217382953E+01  0.81543269187E+01  0.51100000000E-03 0. -1.
        -11    1    3    3    0    0 -0.50383709051E+00 -0.59496097481E-01  0.24070927809E+02  0.24076273745E+02  0.51100000000E-03 0.  1.
         12    1    3    3    0    0  0.21496588159E+02 -0.16390247523E+02 -0.14559540592E+01  0.27071448401E+02  0.00000000000E+00 0. -1.
</event>
<event>
 7    1  0.6293596E-013  0.5930195E+02  0.7816164E-02  0.1266605E+00
        -11   -1    0    0    0    0  0.00000000000E+00  0.00000000000E+00  0.45593999997E+02  0.45594000000E+02  0.51100000000E-03 0.  1.
         11   -1    0    0    0    0 -0.00000000000E+00 -0.00000000000E+00 -0.45593999997E+02  0.45594000000E+02  0.51100000000E-03 0. -1.
    9900012    2    1    2    0    0  0.63273533095E+01 -0.10605339337E+02 -0.29397478531E+02  0.59301947150E+02  0.50000005695E+02 0.  0.
        -12    1    1    2    0    0 -0.63273533095E+01  0.10605339337E+02  0.29397478531E+02  0.31886052850E+02  0.00000000000E+00 0.  1.
         11    1    3    3    0    0  0.14350348163E+02  0.20542104235E+01 -0.34334766527E+02  0.37269672196E+02  0.51100000000E-03 0. -1.
        -11    1    3    3    0    0 -0.11562685612E+02 -0.95729425716E+01 -0.27829903692E+00  0.15013806268E+02  0.51100000000E-03 0.  1.
         12    1    3    3    0    0  0.35396907587E+01 -0.30866071890E+01  0.52155870327E+01  0.70184686864E+01  0.00000000000E+00 0. -1.
</event>
<event>
 7    1  0.6293596E-013  0.5930189E+02  0.7816164E-02  0.1266605E+00
        -11   -1    0    0    0    0  0.00000000000E+00  0.00000000000E+00  0.45593999997E+02  0.45594000000E+02  0.51100000000E-03 0.  1.
         11   -1    0    0    0    0 -0.00000000000E+00 -0.00000000000E+00 -0.45593999997E+02  0.45594000000E+02  0.51100000000E-03 0. -1.
    9900012    2    1    2    0    0 -0.82322615781E+01 -0.10415550745E+02 -0.28990863611E+02  0.59301890157E+02  0.49999901753E+02 0.  0.
        -12    1    1    2    0    0  0.82322615781E+01  0.10415550745E+02  0.28990863611E+02  0.31886109843E+02  0.00000000000E+00 0.  1.
         11    1    3    3    0    0 -0.16650228904E+02 -0.53276224392E+01 -0.25822214484E+02  0.31183336007E+02  0.51100000000E-03 0. -1.
        -11    1    3    3    0    0  0.15543175625E+02 -0.10697982980E+02 -0.22895470658E+01  0.19007345274E+02  0.51100000000E-03 0.  1.
        -12    1    3    3    0    0 -0.71252082987E+01  0.56100546740E+01 -0.87910206141E+00  0.91112088759E+01  0.00000000000E+00 0.  1.
</event>
<event>
 7    1  0.6293596E-013  0.5930196E+02  0.7816164E-02  0.1266605E+00
        -11   -1    0    0    0    0  0.00000000000E+00  0.00000000000E+00  0.45593999997E+02  0.45594000000E+02  0.51100000000E-03 0.  1.
         11   -1    0    0    0    0 -0.00000000000E+00 -0.00000000000E+00 -0.45593999997E+02  0.45594000000E+02  0.51100000000E-03 0. -1.
    9900012    2    1    2    0    0  0.14102454909E+02 -0.26662615451E+02 -0.10341445107E+02  0.59301956281E+02  0.50000022346E+02 0.  0.
        -12    1    1    2    0    0 -0.14102454909E+02  0.26662615451E+02  0.10341445107E+02  0.31886043719E+02  0.00000000000E+00 0.  1.
         11    1    3    3    0    0  0.57264060414E+01 -0.15801243111E+02 -0.15399283367E+02  0.22794932298E+02  0.51100000000E-03 0. -1.
        -11    1    3    3    0    0 -0.74400630600E+01  0.12286238227E+01  0.13036180309E+02  0.15060081413E+02  0.51100000000E-03 0.  1.
         12    1    3    3    0    0  0.15816111928E+02 -0.12089996163E+02 -0.79783420496E+01  0.21446942570E+02  0.00000000000E+00 0. -1.
</event>
<event>
 7    1  0.6293596E-013  0.5930195E+02  0.7816164E-02  0.1266605E+00
        -11   -1    0    0    0    0  0.00000000000E+00  0.00000000000E+00  0.45593999997E+02  0.45594000000E+02  0.51100000000E-03 0.  1.
         11   -1    0    0    0    0 -0.00000000000E+00 -0.00000000000E+00 -0.45593999997E+02  0.45594000000E+02  0.51100000000E-03 0. -1.
    9900012    2    1    2    0    0 -0.63567116592E+01  0.30957255149E+02 -0.42379825192E+01  0.59301954066E+02  0.50000018306E+02 0.  0.
        -12    1    1    2    0    0  0.63567116592E+01 -0.30957255149E+02  0.42379825192E+01  0.31886045934E+02  0.00000000000E+00 0.  1.
         11    1    3    3    0    0  0.67438036323E+01 -0.61079411826E+01  0.41719603820E+01  0.10009549771E+02  0.51100000000E-03 0. -1.
        -11    1    3    3    0    0 -0.16373950797E+02  0.23700498464E+02  0.59387358233E+01  0.29412386431E+02  0.51100000000E-03 0.  1.
         12    1    3    3    0    0  0.32734355057E+01  0.13364697868E+02 -0.14348678724E+02  0.19880017863E+02  0.00000000000E+00 0. -1.
</event>
<event>
 7    1  0.6293596E-013  0.5930195E+02  0.7816164E-02  0.1266605E+00
        -11   -1    0    0    0    0  0.00000000000E+00  0.00000000000E+00  0.45593999997E+02  0.45594000000E+02  0.51100000000E-03 0.  1.
         11   -1    0    0    0    0 -0.00000000000E+00 -0.00000000000E+00 -0.45593999997E+02  0.45594000000E+02  0.51100000000E-03 0. -1.
    9900012    2    1    2    0    0  0.17562365286E+02  0.15645167429E+02 -0.21529327176E+02  0.59301954981E+02  0.50000019976E+02 0.  0.
        -12    1    1    2    0    0 -0.17562365286E+02 -0.15645167429E+02  0.21529327176E+02  0.31886045019E+02  0.00000000000E+00 0.  1.
         11    1    3    3    0    0  0.56238518173E+01 -0.49760263886E+01 -0.13947367740E+02  0.15840379257E+02  0.51100000000E-03 0. -1.
        -11    1    3    3    0    0  0.75514819566E-01  0.28374926744E+02 -0.28386036206E+01  0.28516659008E+02  0.51100000000E-03 0.  1.
        -12    1    3    3    0    0  0.11862998649E+02 -0.77537329265E+01 -0.47433558158E+01  0.14944916716E+02  0.00000000000E+00 0.  1.
</event>
<event>
 7    1  0.6293596E-013  0.5930196E+02  0.7816164E-02  0.1266605E+00
        -11   -1    0    0    0    0  0.00000000000E+00  0.00000000000E+00  0.45593999997E+02  0.45594000000E+02  0.51100000000E-03 0.  1.
         11   -1    0    0    0    0 -0.00000000000E+00 -0.00000000000E+00 -0.45593999997E+02  0.45594000000E+02  0.51100000000E-03 0. -1.
    9900012    2    1    2    0    0  0.17768524810E+02 -0.25274691865E+02 -0.78859921724E+01  0.59301962376E+02  0.50000033463E+02 0.  0.
        -12    1    1    2    0    0 -0.17768524810E+02  0.25274691865E+02  0.78859921724E+01  0.31886037624E+02  0.00000000000E+00 0.  1.
         11    1    3    3    0    0  0.99868964684E+01 -0.31377901981E+02 -0.85394149651E+00  0.32939946116E+02  0.51100000000E-03 0. -1.
        -11    1    3    3    0    0 -0.47281394254E+01  0.25000429115E+01 -0.11431162799E+02  0.12620499205E+02  0.51100000000E-03 0.  1.
         12    1    3    3    0    0  0.12509767767E+02  0.36031672047E+01  0.43991121232E+01  0.13741517055E+02  0.00000000000E+00 0. -1.
</event>
<event>
 7    1  0.6293596E-013  0.5930193E+02  0.7816164E-02  0.1266605E+00
        -11   -1    0    0    0    0  0.00000000000E+00  0.00000000000E+00  0.45593999997E+02  0.45594000000E+02  0.51100000000E-03 0.  1.
         11   -1    0    0    0    0 -0.00000000000E+00 -0.00000000000E+00 -0.45593999997E+02  0.45594000000E+02  0.51100000000E-03 0. -1.
    9900012    2    1    2    0    0 -0.22427772986E+02  0.52685049386E+01  0.22044482190E+02  0.59301931876E+02  0.49999977838E+02 0.  0.
        -12    1    1    2    0    0  0.22427772986E+02 -0.52685049386E+01 -0.22044482190E+02  0.31886068124E+02  0.00000000000E+00 0.  1.
         11    1    3    3    0    0 -0.91076808636E+01 -0.72436263378E+01  0.32856335026E+02  0.34856258044E+02  0.51100000000E-03 0.  1.
        -11    1    3    3    0    0 -0.40735817558E+01  0.91679501260E+01 -0.27833641084E+00  0.10036077384E+02  0.51100000000E-03 0. -1.
         12    1    3    3    0    0 -0.92465103663E+01  0.33441811504E+01 -0.10533516425E+02  0.14409596448E+02  0.00000000000E+00 0. -1.
</event>
<event>
 7    1  0.6293596E-013  0.5930168E+02  0.7816164E-02  0.1266606E+00
        -11   -1    0    0    0    0  0.00000000000E+00  0.00000000000E+00  0.45593999997E+02  0.45594000000E+02  0.51100000000E-03 0.  1.
         11   -1    0    0    0    0 -0.00000000000E+00 -0.00000000000E+00 -0.45593999997E+02  0.45594000000E+02  0.51100000000E-03 0. -1.
    9900012    2    1    2    0    0 -0.53304860398E+01  0.26629679911E+02 -0.16708783187E+02  0.59301680532E+02  0.49999519446E+02 0.  0.
        -12    1    1    2    0    0  0.53304860398E+01 -0.26629679911E+02  0.16708783187E+02  0.31886319468E+02  0.00000000000E+00 0.  1.
         11    1    3    3    0    0 -0.73014511858E+01  0.12677363446E+02 -0.21669761690E+02  0.26145846808E+02  0.51100000000E-03 0. -1.
        -11    1    3    3    0    0  0.12251371028E+02  0.96183698762E+01  0.12261356357E+02  0.19822966255E+02  0.51100000000E-03 0.  1.
        -12    1    3    3    0    0 -0.10280405882E+02  0.43339465894E+01 -0.73003778538E+01  0.13332867469E+02  0.00000000000E+00 0.  1.
</event>
<event>
 7    1  0.6293596E-013  0.5930193E+02  0.7816164E-02  0.1266605E+00
        -11   -1    0    0    0    0  0.00000000000E+00  0.00000000000E+00  0.45593999997E+02  0.45594000000E+02  0.51100000000E-03 0. -1.
         11   -1    0    0    0    0 -0.00000000000E+00 -0.00000000000E+00 -0.45593999997E+02  0.45594000000E+02  0.51100000000E-03 0.  1.
    9900012    2    1    2    0    0  0.22586177030E+02 -0.20634936290E+02  0.89880736362E+01  0.59301930060E+02  0.49999974527E+02 0.  0.
        -12    1    1    2    0    0 -0.22586177030E+02  0.20634936290E+02 -0.89880736362E+01  0.31886069940E+02  0.00000000000E+00 0.  1.
         11    1    3    3    0    0  0.12227579986E+02  0.16183708646E+01  0.11972105964E+02  0.17189070890E+02  0.51100000000E-03 0.  1.
        -11    1    3    3    0    0  0.20292752810E+02 -0.22890106597E+02  0.25977476351E+01  0.30700180612E+02  0.51100000000E-03 0. -1.
        -12    1    3    3    0    0 -0.99341557663E+01  0.63679944231E+00 -0.55817799628E+01  0.11412678558E+02  0.00000000000E+00 0.  1.
</event>
<event>
 7    1  0.6293596E-013  0.5930196E+02  0.7816164E-02  0.1266605E+00
        -11   -1    0    0    0    0  0.00000000000E+00  0.00000000000E+00  0.45593999997E+02  0.45594000000E+02  0.51100000000E-03 0.  1.
         11   -1    0    0    0    0 -0.00000000000E+00 -0.00000000000E+00 -0.45593999997E+02  0.45594000000E+02  0.51100000000E-03 0. -1.
    9900012    2    1    2    0    0 -0.74744860936E+01 -0.20094895109E+02 -0.23601844910E+02  0.59301955483E+02  0.50000020891E+02 0.  0.
        -12    1    1    2    0    0  0.74744860936E+01  0.20094895109E+02  0.23601844910E+02  0.31886044517E+02  0.00000000000E+00 0.  1.
         11    1    3    3    0    0  0.11260889021E+02 -0.63318125826E+01 -0.43265855637E+01  0.13624199610E+02  0.51100000000E-03 0.  1.
        -11    1    3    3    0    0 -0.27837452376E+02 -0.12596786677E+02 -0.88959604027E+01  0.31823590324E+02  0.51100000000E-03 0. -1.
        -12    1    3    3    0    0  0.91020772618E+01 -0.11662958499E+01 -0.10379298943E+02  0.13854165548E+02  0.00000000000E+00 0.  1.
</event>
<event>
 7    1  0.6293596E-013  0.5930194E+02  0.7816164E-02  0.1266605E+00
        -11   -1    0    0    0    0  0.00000000000E+00  0.00000000000E+00  0.45593999997E+02  0.45594000000E+02  0.51100000000E-03 0.  1.
         11   -1    0    0    0    0 -0.00000000000E+00 -0.00000000000E+00 -0.45593999997E+02  0.45594000000E+02  0.51100000000E-03 0. -1.
    9900012    2    1    2    0    0  0.19779907707E+02  0.20848031753E+02 -0.13814317750E+02  0.59301944243E+02  0.50000000393E+02 0.  0.
        -12    1    1    2    0    0 -0.19779907707E+02 -0.20848031753E+02  0.13814317750E+02  0.31886055757E+02  0.00000000000E+00 0.  1.
         11    1    3    3    0    0 -0.11737180842E+02  0.18864608678E+02  0.44412470788E+01  0.22657439188E+02  0.51100000000E-03 0. -1.
        -11    1    3    3    0    0  0.25533070665E+02  0.28964066915E+01 -0.15319252590E+02  0.29916657058E+02  0.51100000000E-03 0.  1.
         12    1    3    3    0    0  0.59840178831E+01 -0.91298361703E+00 -0.29363122388E+01  0.67278479972E+01  0.00000000000E+00 0. -1.
</event>
<event>
 7    1  0.6293596E-013  0.5930195E+02  0.7816164E-02  0.1266605E+00
        -11   -1    0    0    0    0  0.00000000000E+00  0.00000000000E+00  0.45593999997E+02  0.45594000000E+02  0.51100000000E-03 0.  1.
         11   -1    0    0    0    0 -0.00000000000E+00 -0.00000000000E+00 -0.45593999997E+02  0.45594000000E+02  0.51100000000E-03 0. -1.
    9900012    2    1    2    0    0 -0.29269527551E+02 -0.29081440762E+01 -0.12310879327E+02  0.59301948272E+02  0.50000007740E+02 0.  0.
        -12    1    1    2    0    0  0.29269527551E+02  0.29081440762E+01  0.12310879327E+02  0.31886051728E+02  0.00000000000E+00 0.  1.
         11    1    3    3    0    0 -0.26101469100E+02 -0.12761119750E+02 -0.15688502336E+02  0.33019115255E+02  0.51100000000E-03 0. -1.
        -11    1    3    3    0    0 -0.12398465714E+02  0.11232293626E+02  0.20043549179E+01  0.16849445423E+02  0.51100000000E-03 0.  1.
         12    1    3    3    0    0  0.92304072624E+01 -0.13793179524E+01  0.13732680912E+01  0.94333875938E+01  0.00000000000E+00 0. -1.
</event>
<event>
 7    1  0.6293596E-013  0.5930195E+02  0.7816164E-02  0.1266605E+00
        -11   -1    0    0    0    0  0.00000000000E+00  0.00000000000E+00  0.45593999997E+02  0.45594000000E+02  0.51100000000E-03 0.  1.
         11   -1    0    0    0    0 -0.00000000000E+00 -0.00000000000E+00 -0.45593999997E+02  0.45594000000E+02  0.51100000000E-03 0. -1.
    9900012    2    1    2    0    0 -0.19345304728E+02  0.24872215412E+02 -0.48839024328E+01  0.59301946348E+02  0.50000004232E+02 0.  0.
        -12    1    1    2    0    0  0.19345304728E+02 -0.24872215412E+02  0.48839024328E+01  0.31886053652E+02  0.00000000000E+00 0.  1.
         11    1    3    3    0    0 -0.18450065415E+01 -0.55765719075E+01 -0.12893024192E+02  0.14168001851E+02  0.51100000000E-03 0. -1.
        -11    1    3    3    0    0 -0.22849183356E+02  0.30612677914E+02  0.39225271473E+01  0.38400617815E+02  0.51100000000E-03 0.  1.
        -12    1    3    3    0    0  0.53488851698E+01 -0.16389059474E+00  0.40865946119E+01  0.67333266821E+01  0.00000000000E+00 0.  1.
</event>
<event>
 7    1  0.6293596E-013  0.5930196E+02  0.7816164E-02  0.1266605E+00
        -11   -1    0    0    0    0  0.00000000000E+00  0.00000000000E+00  0.45593999997E+02  0.45594000000E+02  0.51100000000E-03 0.  1.
         11   -1    0    0    0    0 -0.00000000000E+00 -0.00000000000E+00 -0.45593999997E+02  0.45594000000E+02  0.51100000000E-03 0. -1.
    9900012    2    1    2    0    0 -0.25949614932E+01  0.31375911139E+02 -0.50535254057E+01  0.59301956909E+02  0.50000023492E+02 0.  0.
        -12    1    1    2    0    0  0.25949614932E+01 -0.31375911139E+02  0.50535254057E+01  0.31886043091E+02  0.00000000000E+00 0.  1.
         11    1    3    3    0    0  0.65122297168E+01 -0.50881433606E+01 -0.17614350283E+01  0.84499107902E+01  0.51100000000E-03 0. -1.
        -11    1    3    3    0    0 -0.21473906024E+02  0.22335596467E+02 -0.68735188217E+01  0.31737245796E+02  0.51100000000E-03 0.  1.
        -12    1    3    3    0    0  0.12366714814E+02  0.14128458033E+02  0.35814284443E+01  0.19114800323E+02  0.00000000000E+00 0.  1.
</event>
<event>
 7    1  0.6293596E-013  0.5930194E+02  0.7816164E-02  0.1266605E+00
        -11   -1    0    0    0    0  0.00000000000E+00  0.00000000000E+00  0.45593999997E+02  0.45594000000E+02  0.51100000000E-03 0. -1.
         11   -1    0    0    0    0 -0.00000000000E+00 -0.00000000000E+00 -0.45593999997E+02  0.45594000000E+02  0.51100000000E-03 0.  1.
    9900012    2    1    2    0    0  0.11456540096E+02  0.29583868627E+02 -0.32036147536E+01  0.59301941269E+02  0.49999994969E+02 0.  0.
        -12    1    1    2    0    0 -0.11456540096E+02 -0.29583868627E+02  0.32036147536E+01  0.31886058731E+02  0.00000000000E+00 0.  1.
         11    1    3    3    0    0 -0.32402234120E+01  0.33826237491E+02 -0.99308575582E+01  0.35402476222E+02  0.51100000000E-03 0. -1.
        -11    1    3    3    0    0  0.17052255878E+02  0.23828755111E-01  0.80397751746E+01  0.18852532548E+02  0.51100000000E-03 0.  1.
         12    1    3    3    0    0 -0.23554923705E+01 -0.42661976186E+01 -0.13125323699E+01  0.50469324991E+01  0.00000000000E+00 0. -1.
</event>
<event>
 7    1  0.6293596E-013  0.5930197E+02  0.7816164E-02  0.1266605E+00
        -11   -1    0    0    0    0  0.00000000000E+00  0.00000000000E+00  0.45593999997E+02  0.45594000000E+02  0.51100000000E-03 0. -1.
         11   -1    0    0    0    0 -0.00000000000E+00 -0.00000000000E+00 -0.45593999997E+02  0.45594000000E+02  0.51100000000E-03 0.  1.
    9900012    2    1    2    0    0  0.12044570083E+02  0.27638523088E+02  0.10380730913E+02  0.59301965420E+02  0.50000039014E+02 0.  0.
        -12    1    1    2    0    0 -0.12044570083E+02 -0.27638523088E+02 -0.10380730913E+02  0.31886034580E+02  0.00000000000E+00 0.  1.
         11    1    3    3    0    0  0.14338952967E+02 -0.35275077018E+01 -0.99523616080E+01  0.17807256515E+02  0.51100000000E-03 0. -1.
        -11    1    3    3    0    0 -0.74116644978E+01  0.29635360687E+02  0.15341419581E+02  0.34184009839E+02  0.51100000000E-03 0.  1.
        -12    1    3    3    0    0  0.51172816146E+01  0.15306701026E+01  0.49916729398E+01  0.73106990653E+01  0.00000000000E+00 0.  1.
</event>
<event>
 7    1  0.6293596E-013  0.5930196E+02  0.7816164E-02  0.1266605E+00
        -11   -1    0    0    0    0  0.00000000000E+00  0.00000000000E+00  0.45593999997E+02  0.45594000000E+02  0.51100000000E-03 0.  1.
         11   -1    0    0    0    0 -0.00000000000E+00 -0.00000000000E+00 -0.45593999997E+02  0.45594000000E+02  0.51100000000E-03 0. -1.
    9900012    2    1    2    0    0 -0.10739100076E+02  0.18557912826E+02  0.23600743031E+02  0.59301961198E+02  0.50000031314E+02 0.  0.
        -12    1    1    2    0    0  0.10739100076E+02 -0.18557912826E+02 -0.23600743031E+02  0.31886038802E+02  0.00000000000E+00 0.  1.
         11    1    3    3    0    0 -0.16177571585E+02  0.88774122905E+01 -0.31005154719E+01  0.18711907113E+02  0.51100000000E-03 0. -1.
        -11    1    3    3    0    0 -0.32163159866E+01  0.37559009683E+00  0.27657467939E+02  0.27846387369E+02  0.51100000000E-03 0.  1.
        -12    1    3    3    0    0  0.86547874953E+01  0.93049104391E+01 -0.95620943687E+00  0.12743666715E+02  0.00000000000E+00 0.  1.
</event>
<event>
 7    1  0.6293596E-013  0.5930179E+02  0.7816164E-02  0.1266605E+00
        -11   -1    0    0    0    0  0.00000000000E+00  0.00000000000E+00  0.45593999997E+02  0.45594000000E+02  0.51100000000E-03 0.  1.
         11   -1    0    0    0    0 -0.00000000000E+00 -0.00000000000E+00 -0.45593999997E+02  0.45594000000E+02  0.51100000000E-03 0. -1.
    9900012    2    1    2    0    0 -0.24311374848E+02 -0.19734468287E+02  0.60198266365E+01  0.59301788273E+02  0.49999715940E+02 0.  0.
        -12    1    1    2    0    0  0.24311374848E+02  0.19734468287E+02 -0.60198266365E+01  0.31886211727E+02  0.00000000000E+00 0.  1.
         11    1    3    3    0    0  0.64223427578E+01  0.81643379022E+01 -0.31327710850E+01  0.10849753675E+02  0.51100000000E-03 0.  1.
        -11    1    3    3    0    0 -0.14632896577E+02 -0.23639423442E+02  0.13970316535E+02  0.31114526306E+02  0.51100000000E-03 0. -1.
         12    1    3    3    0    0 -0.16100821029E+02 -0.42593827466E+01 -0.48177188138E+01  0.17337508292E+02  0.00000000000E+00 0. -1.
</event>
<event>
 7    1  0.6293596E-013  0.5930193E+02  0.7816164E-02  0.1266605E+00
        -11   -1    0    0    0    0  0.00000000000E+00  0.00000000000E+00  0.45593999997E+02  0.45594000000E+02  0.51100000000E-03 0. -1.
         11   -1    0    0    0    0 -0.00000000000E+00 -0.00000000000E+00 -0.45593999997E+02  0.45594000000E+02  0.51100000000E-03 0.  1.
    9900012    2    1    2    0    0  0.45853040255E+01 -0.14944274140E+02  0.27791453390E+02  0.59301933700E+02  0.49999981165E+02 0.  0.
        -12    1    1    2    0    0 -0.45853040255E+01  0.14944274140E+02 -0.27791453390E+02  0.31886066300E+02  0.00000000000E+00 0.  1.
         11    1    3    3    0    0 -0.86351620781E+01  0.21477980936E+01 -0.85833230409E+01  0.12363352921E+02  0.51100000000E-03 0. -1.
        -11    1    3    3    0    0  0.12135299366E+02 -0.15853743090E+02  0.13721939463E+02  0.24225983645E+02  0.51100000000E-03 0.  1.
         12    1    3    3    0    0  0.10851667380E+01 -0.12383291436E+01  0.22652836967E+02  0.22712597134E+02  0.00000000000E+00 0. -1.
</event>
<event>
 7    1  0.6293596E-013  0.5930195E+02  0.7816164E-02  0.1266605E+00
        -11   -1    0    0    0    0  0.00000000000E+00  0.00000000000E+00  0.45593999997E+02  0.45594000000E+02  0.51100000000E-03 0.  1.
         11   -1    0    0    0    0 -0.00000000000E+00 -0.00000000000E+00 -0.45593999997E+02  0.45594000000E+02  0.51100000000E-03 0. -1.
    9900012    2    1    2    0    0 -0.24403929523E+02 -0.13380482135E+01 -0.20478726273E+02  0.59301946952E+02  0.50000005333E+02 0.  0.
        -12    1    1    2    0    0  0.24403929523E+02  0.13380482135E+01  0.20478726273E+02  0.31886053048E+02  0.00000000000E+00 0.  1.
         11    1    3    3    0    0 -0.13378949630E+02  0.13473703155E+01 -0.30012478473E+02  0.32887088109E+02  0.51100000000E-03 0. -1.
        -11    1    3    3    0    0 -0.11007867948E+02 -0.59981467030E+01  0.15290812591E+02  0.19772705191E+02  0.51100000000E-03 0.  1.
        -12    1    3    3    0    0 -0.17111945240E-01  0.33127281741E+01 -0.57570603917E+01  0.66421536513E+01  0.00000000000E+00 0.  1.
</event>
<event>
 7    1  0.6293596E-013  0.5930195E+02  0.7816164E-02  0.1266605E+00
        -11   -1    0    0    0    0  0.00000000000E+00  0.00000000000E+00  0.45593999997E+02  0.45594000000E+02  0.51100000000E-03 0.  1.
         11   -1    0    0    0    0 -0.00000000000E+00 -0.00000000000E+00 -0.45593999997E+02  0.45594000000E+02  0.51100000000E-03 0. -1.
    9900012    2    1    2    0    0 -0.25330591820E+02  0.19210978609E+02 -0.24535199685E+01  0.59301947543E+02  0.50000006410E+02 0.  0.
        -12    1    1    2    0    0  0.25330591820E+02 -0.19210978609E+02  0.24535199685E+01  0.31886052457E+02  0.00000000000E+00 0.  1.
         11    1    3    3    0    0 -0.15755492143E+02 -0.89930536645E+01 -0.63894791751E+01  0.19233720162E+02  0.51100000000E-03 0. -1.
        -11    1    3    3    0    0 -0.14694453171E+02  0.20435435908E+02 -0.65914300521E+01  0.26018857491E+02  0.51100000000E-03 0.  1.
         12    1    3    3    0    0  0.51193534938E+01  0.77685963654E+01  0.10527389259E+02  0.14049369889E+02  0.00000000000E+00 0. -1.
</event>
<event>
 7    1  0.6293596E-013  0.5930194E+02  0.7816164E-02  0.1266605E+00
        -11   -1    0    0    0    0  0.00000000000E+00  0.00000000000E+00  0.45593999997E+02  0.45594000000E+02  0.51100000000E-03 0.  1.
         11   -1    0    0    0    0 -0.00000000000E+00 -0.00000000000E+00 -0.45593999997E+02  0.45594000000E+02  0.51100000000E-03 0. -1.
    9900012    2    1    2    0    0 -0.21038029303E+02  0.59874631424E+01 -0.23200693260E+02  0.59301944120E+02  0.50000000169E+02 0.  0.
        -12    1    1    2    0    0  0.21038029303E+02 -0.59874631424E+01  0.23200693260E+02  0.31886055880E+02  0.00000000000E+00 0.  1.
         11    1    3    3    0    0 -0.14800885373E+02  0.15499613042E+01 -0.27267760275E+02  0.31064438488E+02  0.51100000000E-03 0. -1.
        -11    1    3    3    0    0 -0.96708819757E+01  0.13864654672E+02  0.61541933278E+01  0.17989683241E+02  0.51100000000E-03 0.  1.
         12    1    3    3    0    0  0.34337380463E+01 -0.94271528333E+01 -0.20871263129E+01  0.10247822391E+02  0.00000000000E+00 0. -1.
</event>
<event>
 7    1  0.6293596E-013  0.5930194E+02  0.7816164E-02  0.1266605E+00
        -11   -1    0    0    0    0  0.00000000000E+00  0.00000000000E+00  0.45593999997E+02  0.45594000000E+02  0.51100000000E-03 0. -1.
         11   -1    0    0    0    0 -0.00000000000E+00 -0.00000000000E+00 -0.45593999997E+02  0.45594000000E+02  0.51100000000E-03 0.  1.
    9900012    2    1    2    0    0  0.51178393655E+01  0.57295181497E+01  0.30946745253E+02  0.59301941922E+02  0.49999996160E+02 0.  0.
        -12    1    1    2    0    0 -0.51178393655E+01 -0.57295181497E+01 -0.30946745253E+02  0.31886058078E+02  0.00000000000E+00 0.  1.
         11    1    3    3    0    0  0.12577032981E+02 -0.12124003705E+01  0.20794086005E+02  0.24331988951E+02  0.51100000000E-03 0. -1.
        -11    1    3    3    0    0 -0.16396323986E+02  0.13277541149E+02  0.17634763793E+01  0.21171735603E+02  0.51100000000E-03 0.  1.
        -12    1    3    3    0    0  0.89371303706E+01 -0.63356226288E+01  0.83891828681E+01  0.13798217369E+02  0.00000000000E+00 0.  1.
</event>
<event>
 7    1  0.6293596E-013  0.5930195E+02  0.7816164E-02  0.1266605E+00
        -11   -1    0    0    0    0  0.00000000000E+00  0.00000000000E+00  0.45593999997E+02  0.45594000000E+02  0.51100000000E-03 0.  1.
         11   -1    0    0    0    0 -0.00000000000E+00 -0.00000000000E+00 -0.45593999997E+02  0.45594000000E+02  0.51100000000E-03 0. -1.
    9900012    2    1    2    0    0 -0.18127679065E+02 -0.10667261452E+02 -0.23964914393E+02  0.59301947610E+02  0.50000006534E+02 0.  0.
        -12    1    1    2    0    0  0.18127679065E+02  0.10667261452E+02  0.23964914393E+02  0.31886052390E+02  0.00000000000E+00 0.  1.
         11    1    3    3    0    0 -0.40950375076E+01  0.10857058175E+02 -0.78670401293E+01  0.14019107142E+02  0.51100000000E-03 0. -1.
        -11    1    3    3    0    0 -0.13305175669E+01 -0.23573200313E+02  0.12974217916E+01  0.23646339116E+02  0.51100000000E-03 0.  1.
        -12    1    3    3    0    0 -0.12702123991E+02  0.20488806872E+01 -0.17395296055E+02  0.21636501352E+02  0.00000000000E+00 0.  1.
</event>
<event>
 7    1  0.6293596E-013  0.5930193E+02  0.7816164E-02  0.1266605E+00
        -11   -1    0    0    0    0  0.00000000000E+00  0.00000000000E+00  0.45593999997E+02  0.45594000000E+02  0.51100000000E-03 0.  1.
         11   -1    0    0    0    0 -0.00000000000E+00 -0.00000000000E+00 -0.45593999997E+02  0.45594000000E+02  0.51100000000E-03 0. -1.
    9900012    2    1    2    0    0 -0.10224289270E+02 -0.18761801913E+02 -0.23668124173E+02  0.59301930879E+02  0.49999976020E+02 0.  0.
        -12    1    1    2    0    0  0.10224289270E+02  0.18761801913E+02  0.23668124173E+02  0.31886069121E+02  0.00000000000E+00 0.  1.
         11    1    3    3    0    0  0.17520509190E+02 -0.97316426024E+00 -0.54156847756E+01  0.18364229709E+02  0.51100000000E-03 0. -1.
        -11    1    3    3    0    0 -0.13776829186E+02 -0.33120250796E+01 -0.14867934673E+02  0.20538403401E+02  0.51100000000E-03 0.  1.
         12    1    3    3    0    0 -0.13967969274E+02 -0.14476612573E+02 -0.33845047252E+01  0.20399297769E+02  0.00000000000E+00 0. -1.
</event>
<event>
 7    1  0.6293596E-013  0.5930192E+02  0.7816164E-02  0.1266605E+00
        -11   -1    0    0    0    0  0.00000000000E+00  0.00000000000E+00  0.45593999997E+02  0.45594000000E+02  0.51100000000E-03 0. -1.
         11   -1    0    0    0    0 -0.00000000000E+00 -0.00000000000E+00 -0.45593999997E+02  0.45594000000E+02  0.51100000000E-03 0.  1.
    9900012    2    1    2    0    0  0.27835063316E+02  0.15444937264E+02  0.18399640627E+01  0.59301916756E+02  0.49999950262E+02 0.  0.
        -12    1    1    2    0    0 -0.27835063316E+02 -0.15444937264E+02 -0.18399640627E+01  0.31886083244E+02  0.00000000000E+00 0.  1.
         11    1    3    3    0    0  0.35217919793E+02  0.15513306432E+02  0.38439611387E+01  0.38674805603E+02  0.51100000000E-03 0. -1.
        -11    1    3    3    0    0  0.17631782279E+01 -0.48120573966E+01  0.57721288624E+01  0.77189484852E+01  0.51100000000E-03 0.  1.
         12    1    3    3    0    0 -0.91460347043E+01  0.47436882292E+01 -0.77761259383E+01  0.12908162667E+02  0.00000000000E+00 0. -1.
</event>
<event>
 7    1  0.6293596E-013  0.5930190E+02  0.7816164E-02  0.1266605E+00
        -11   -1    0    0    0    0  0.00000000000E+00  0.00000000000E+00  0.45593999997E+02  0.45594000000E+02  0.51100000000E-03 0.  1.
         11   -1    0    0    0    0 -0.00000000000E+00 -0.00000000000E+00 -0.45593999997E+02  0.45594000000E+02  0.51100000000E-03 0. -1.
    9900012    2    1    2    0    0 -0.12887429872E+02  0.28616401575E+02  0.56337586317E+01  0.59301897634E+02  0.49999915389E+02 0.  0.
        -12    1    1    2    0    0  0.12887429872E+02 -0.28616401575E+02 -0.56337586317E+01  0.31886102366E+02  0.00000000000E+00 0.  1.
         11    1    3    3    0    0 -0.23704914479E+02  0.20695389480E+02 -0.39525563396E+01  0.31715056646E+02  0.51100000000E-03 0. -1.
        -11    1    3    3    0    0  0.16153996786E+02  0.58171946406E+01  0.12418164230E+02  0.21189671275E+02  0.51100000000E-03 0.  1.
        -12    1    3    3    0    0 -0.53365121785E+01  0.21038174538E+01 -0.28318492585E+01  0.63971697127E+01  0.00000000000E+00 0.  1.
</event>
<event>
 7    1  0.6293596E-013  0.5930193E+02  0.7816164E-02  0.1266605E+00
        -11   -1    0    0    0    0  0.00000000000E+00  0.00000000000E+00  0.45593999997E+02  0.45594000000E+02  0.51100000000E-03 0.  1.
         11   -1    0    0    0    0 -0.00000000000E+00 -0.00000000000E+00 -0.45593999997E+02  0.45594000000E+02  0.51100000000E-03 0. -1.
    9900012    2    1    2    0    0 -0.12600380667E+02  0.24677534725E+02 -0.15778809678E+02  0.59301934895E+02  0.49999983343E+02 0.  0.
        -12    1    1    2    0    0  0.12600380667E+02 -0.24677534725E+02  0.15778809678E+02  0.31886065105E+02  0.00000000000E+00 0.  1.
         11    1    3    3    0    0 -0.70286725708E+00 -0.32605582461E+01  0.11441078573E+02  0.11917363032E+02  0.51100000000E-03 0.  1.
        -11    1    3    3    0    0 -0.13999877981E+02  0.26663523058E+02 -0.12743195231E+02  0.32700597400E+02  0.51100000000E-03 0. -1.
         12    1    3    3    0    0  0.21023645704E+01  0.12745699130E+01 -0.14476693020E+02  0.14683974463E+02  0.00000000000E+00 0. -1.
</event>
<event>
 7    1  0.6293596E-013  0.5930188E+02  0.7816164E-02  0.1266605E+00
        -11   -1    0    0    0    0  0.00000000000E+00  0.00000000000E+00  0.45593999997E+02  0.45594000000E+02  0.51100000000E-03 0.  1.
         11   -1    0    0    0    0 -0.00000000000E+00 -0.00000000000E+00 -0.45593999997E+02  0.45594000000E+02  0.51100000000E-03 0. -1.
    9900012    2    1    2    0    0 -0.11826754226E+02  0.24576654887E+02  0.16517883409E+02  0.59301881496E+02  0.49999885956E+02 0.  0.
        -12    1    1    2    0    0  0.11826754226E+02 -0.24576654887E+02 -0.16517883409E+02  0.31886118504E+02  0.00000000000E+00 0.  1.
         11    1    3    3    0    0  0.32690087366E+01 -0.76464769604E+01  0.13546256517E+02  0.15895159449E+02  0.51100000000E-03 0.  1.
        -11    1    3    3    0    0 -0.12732666942E+02  0.10713819250E+02 -0.87461420640E+01  0.18798982197E+02  0.51100000000E-03 0. -1.
         12    1    3    3    0    0 -0.23630960209E+01  0.21509312597E+02  0.11717768956E+02  0.24607739850E+02  0.00000000000E+00 0. -1.
</event>
<event>
 7    1  0.6293596E-013  0.5930205E+02  0.7816164E-02  0.1266604E+00
        -11   -1    0    0    0    0  0.00000000000E+00  0.00000000000E+00  0.45593999997E+02  0.45594000000E+02  0.51100000000E-03 0.  1.
         11   -1    0    0    0    0 -0.00000000000E+00 -0.00000000000E+00 -0.45593999997E+02  0.45594000000E+02  0.51100000000E-03 0. -1.
    9900012    2    1    2    0    0 -0.19643487638E+02 -0.40447142157E+01 -0.24788856993E+02  0.59302050889E+02  0.50000194889E+02 0.  0.
        -12    1    1    2    0    0  0.19643487638E+02  0.40447142157E+01  0.24788856993E+02  0.31885949111E+02  0.00000000000E+00 0.  1.
         11    1    3    3    0    0 -0.80667560734E+01  0.11579972927E+02  0.23789207087E+01  0.14311798997E+02  0.51100000000E-03 0. -1.
        -11    1    3    3    0    0  0.20951766366E+01 -0.84373163887E+01 -0.28200154763E+02  0.29509774684E+02  0.51100000000E-03 0.  1.
         12    1    3    3    0    0 -0.13671908201E+02 -0.71873707539E+01  0.10323770604E+01  0.15480477208E+02  0.00000000000E+00 0. -1.
</event>
<event>
 7    1  0.1281812E-012  0.5930194E+02  0.7816164E-02  0.1266605E+00
        -11   -1    0    0    0    0  0.00000000000E+00  0.00000000000E+00  0.45593999997E+02  0.45594000000E+02  0.51100000000E-03 0. -1.
         11   -1    0    0    0    0 -0.00000000000E+00 -0.00000000000E+00 -0.45593999997E+02  0.45594000000E+02  0.51100000000E-03 0.  1.
    9900012    2    1    2    0    0 -0.22444197622E+02 -0.10804588615E+01  0.22623252518E+02  0.59301937955E+02  0.49999988925E+02 0.  0.
        -12    1    1    2    0    0  0.22444197622E+02  0.10804588615E+01 -0.22623252518E+02  0.31886062045E+02  0.00000000000E+00 0.  1.
         11    1    3    3    0    0 -0.27438293528E+02  0.38112723268E+01  0.28954839810E+02  0.40072041340E+02  0.51100000000E-03 0. -1.
        -11    1    3    3    0    0  0.57844973094E+01  0.52090963406E+01 -0.43122694289E+01  0.88989191308E+01  0.51100000000E-03 0.  1.
        -12    1    3    3    0    0 -0.79040140325E+00 -0.10100827529E+02 -0.20193178637E+01  0.10330977484E+02  0.00000000000E+00 0.  1.
</event>
<event>
 7    1  0.6293596E-013  0.5930193E+02  0.7816164E-02  0.1266605E+00
        -11   -1    0    0    0    0  0.00000000000E+00  0.00000000000E+00  0.45593999997E+02  0.45594000000E+02  0.51100000000E-03 0. -1.
         11   -1    0    0    0    0 -0.00000000000E+00 -0.00000000000E+00 -0.45593999997E+02  0.45594000000E+02  0.51100000000E-03 0.  1.
    9900012    2    1    2    0    0 -0.29191000575E+00  0.23687376129E+02  0.21343482503E+02  0.59301933377E+02  0.49999980575E+02 0.  0.
        -12    1    1    2    0    0  0.29191000575E+00 -0.23687376129E+02 -0.21343482503E+02  0.31886066623E+02  0.00000000000E+00 0.  1.
         11    1    3    3    0    0  0.10955598112E+02 -0.23416883484E+01  0.28989410759E+01  0.11572056599E+02  0.51100000000E-03 0. -1.
        -11    1    3    3    0    0 -0.56505034363E+01  0.10326532331E+02  0.26661547175E+02  0.29144528768E+02  0.51100000000E-03 0.  1.
        -12    1    3    3    0    0 -0.55970046812E+01  0.15702532146E+02 -0.82170057477E+01  0.18585348010E+02  0.00000000000E+00 0.  1.
</event>
<event>
 7    1  0.6293596E-013  0.5930193E+02  0.7816164E-02  0.1266605E+00
        -11   -1    0    0    0    0  0.00000000000E+00  0.00000000000E+00  0.45593999997E+02  0.45594000000E+02  0.51100000000E-03 0. -1.
         11   -1    0    0    0    0 -0.00000000000E+00 -0.00000000000E+00 -0.45593999997E+02  0.45594000000E+02  0.51100000000E-03 0.  1.
    9900012    2    1    2    0    0 -0.16452639986E+02 -0.10981641130E+02  0.25008713524E+02  0.59301928486E+02  0.49999971656E+02 0.  0.
        -12    1    1    2    0    0  0.16452639986E+02  0.10981641130E+02 -0.25008713524E+02  0.31886071514E+02  0.00000000000E+00 0.  1.
         11    1    3    3    0    0  0.49312817445E+01  0.11850259095E+02  0.11177847356E+02  0.17020295298E+02  0.51100000000E-03 0. -1.
        -11    1    3    3    0    0 -0.87198611390E+01 -0.25488283070E+02  0.81029436177E+01  0.28130877122E+02  0.51100000000E-03 0.  1.
        -12    1    3    3    0    0 -0.12664060592E+02  0.26563828441E+01  0.57279225506E+01  0.14150756066E+02  0.00000000000E+00 0.  1.
</event>
<event>
 7    1  0.6293596E-013  0.5930197E+02  0.7816164E-02  0.1266605E+00
        -11   -1    0    0    0    0  0.00000000000E+00  0.00000000000E+00  0.45593999997E+02  0.45594000000E+02  0.51100000000E-03 0.  1.
         11   -1    0    0    0    0 -0.00000000000E+00 -0.00000000000E+00 -0.45593999997E+02  0.45594000000E+02  0.51100000000E-03 0. -1.
    9900012    2    1    2    0    0 -0.17896632251E+02  0.16516933226E+02 -0.20582043235E+02  0.59301968060E+02  0.50000043829E+02 0.  0.
        -12    1    1    2    0    0  0.17896632251E+02 -0.16516933226E+02  0.20582043235E+02  0.31886031940E+02  0.00000000000E+00 0.  1.
         11    1    3    3    0    0 -0.23731496344E+02  0.16501594781E+01  0.13131364530E+01  0.23825013592E+02  0.51100000000E-03 0. -1.
        -11    1    3    3    0    0  0.24868460091E+01  0.82602514950E+01  0.32844876220E+01  0.92306022032E+01  0.51100000000E-03 0.  1.
         12    1    3    3    0    0  0.33480180840E+01  0.66065222531E+01 -0.25179667310E+02  0.26246352265E+02  0.00000000000E+00 0. -1.
</event>
<event>
 7    1  0.6293596E-013  0.5930190E+02  0.7816164E-02  0.1266605E+00
        -11   -1    0    0    0    0  0.00000000000E+00  0.00000000000E+00  0.45593999997E+02  0.45594000000E+02  0.51100000000E-03 0.  1.
         11   -1    0    0    0    0 -0.00000000000E+00 -0.00000000000E+00 -0.45593999997E+02  0.45594000000E+02  0.51100000000E-03 0. -1.
    9900012    2    1    2    0    0 -0.30217454181E+01 -0.18875608993E+02 -0.25520649428E+02  0.59301904167E+02  0.49999927304E+02 0.  0.
        -12    1    1    2    0    0  0.30217454181E+01  0.18875608993E+02  0.25520649428E+02  0.31886095833E+02  0.00000000000E+00 0.  1.
         11    1    3    3    0    0 -0.43728077517E+01 -0.30236333781E+02 -0.10243060050E+02  0.32222315367E+02  0.51100000000E-03 0. -1.
        -11    1    3    3    0    0  0.11147463646E+01  0.14831854938E+02 -0.17487937421E+02  0.22957668346E+02  0.51100000000E-03 0.  1.
        -12    1    3    3    0    0  0.23631596892E+00 -0.34711301505E+01  0.22103480437E+01  0.41219204545E+01  0.00000000000E+00 0.  1.
</event>
<event>
 7    1  0.6293596E-013  0.5930194E+02  0.7816164E-02  0.1266605E+00
        -11   -1    0    0    0    0  0.00000000000E+00  0.00000000000E+00  0.45593999997E+02  0.45594000000E+02  0.51100000000E-03 0.  1.
         11   -1    0    0    0    0 -0.00000000000E+00 -0.00000000000E+00 -0.45593999997E+02  0.45594000000E+02  0.51100000000E-03 0. -1.
    9900012    2    1    2    0    0  0.19170687081E+02  0.25451197889E+02  0.12007911440E+01  0.59301943227E+02  0.49999998540E+02 0.  0.
        -12    1    1    2    0    0 -0.19170687081E+02 -0.25451197889E+02 -0.12007911440E+01  0.31886056773E+02  0.00000000000E+00 0.  1.
         11    1    3    3    0    0  0.67756374277E+01  0.59932304738E+01  0.69977796207E+01  0.11436651343E+02  0.51100000000E-03 0. -1.
        -11    1    3    3    0    0 -0.87327265352E+01 -0.56745580988E+01 -0.10391521272E+02  0.14712064334E+02  0.51100000000E-03 0.  1.
        -12    1    3    3    0    0  0.21127776189E+02  0.25132525514E+02  0.45945327950E+01  0.33153227550E+02  0.00000000000E+00 0.  1.
</event>
<event>
 7    1  0.6293596E-013  0.5930200E+02  0.7816164E-02  0.1266605E+00
        -11   -1    0    0    0    0  0.00000000000E+00  0.00000000000E+00  0.45593999997E+02  0.45594000000E+02  0.51100000000E-03 0. -1.
         11   -1    0    0    0    0 -0.00000000000E+00 -0.00000000000E+00 -0.45593999997E+02  0.45594000000E+02  0.51100000000E-03 0.  1.
    9900012    2    1    2    0    0 -0.29411122106E+01  0.42891962681E+01  0.31459018773E+02  0.59301996679E+02  0.50000096023E+02 0.  0.
        -12    1    1    2    0    0  0.29411122106E+01 -0.42891962681E+01 -0.31459018773E+02  0.31886003321E+02  0.00000000000E+00 0.  1.
         11    1    3    3    0    0  0.45382778033E+01 -0.15637353278E+01  0.17847658974E+02  0.18481887476E+02  0.51100000000E-03 0. -1.
        -11    1    3    3    0    0 -0.21415366860E+02  0.10409876374E+02  0.88842487144E+01  0.25414825188E+02  0.51100000000E-03 0.  1.
        -12    1    3    3    0    0  0.13935976846E+02 -0.45569447781E+01  0.47271110846E+01  0.15405284014E+02  0.00000000000E+00 0.  1.
</event>
<event>
 7    1  0.6293596E-013  0.5930203E+02  0.7816164E-02  0.1266604E+00
        -11   -1    0    0    0    0  0.00000000000E+00  0.00000000000E+00  0.45593999997E+02  0.45594000000E+02  0.51100000000E-03 0.  1.
         11   -1    0    0    0    0 -0.00000000000E+00 -0.00000000000E+00 -0.45593999997E+02  0.45594000000E+02  0.51100000000E-03 0. -1.
    9900012    2    1    2    0    0 -0.63486870452E+01 -0.27922586972E+02 -0.14026352476E+02  0.59302027314E+02  0.50000151893E+02 0.  0.
        -12    1    1    2    0    0  0.63486870452E+01  0.27922586972E+02  0.14026352476E+02  0.31885972686E+02  0.00000000000E+00 0.  1.
         11    1    3    3    0    0  0.57158787082E+01  0.40688949177E+01 -0.10568621680E+02  0.12685540577E+02  0.51100000000E-03 0. -1.
        -11    1    3    3    0    0 -0.11211423223E+02 -0.28476404757E+02 -0.15313357423E+02  0.34221346472E+02  0.51100000000E-03 0.  1.
        -12    1    3    3    0    0 -0.85314253033E+00 -0.35150771325E+01  0.11855626628E+02  0.12395140264E+02  0.00000000000E+00 0.  1.
</event>
<event>
 7    1  0.6293596E-013  0.5930192E+02  0.7816164E-02  0.1266605E+00
        -11   -1    0    0    0    0  0.00000000000E+00  0.00000000000E+00  0.45593999997E+02  0.45594000000E+02  0.51100000000E-03 0.  1.
         11   -1    0    0    0    0 -0.00000000000E+00 -0.00000000000E+00 -0.45593999997E+02  0.45594000000E+02  0.51100000000E-03 0. -1.
    9900012    2    1    2    0    0  0.14712747738E+02  0.27725234142E+02 -0.56186164859E+01  0.59301915175E+02  0.49999947380E+02 0.  0.
        -12    1    1    2    0    0 -0.14712747738E+02 -0.27725234142E+02  0.56186164859E+01  0.31886084825E+02  0.00000000000E+00 0.  1.
         11    1    3    3    0    0  0.23570531905E+02  0.14652971603E+02  0.14513676316E+02  0.31319743797E+02  0.51100000000E-03 0. -1.
        -11    1    3    3    0    0 -0.14869046861E+01 -0.14601227301E+01 -0.62078974300E+01  0.65483459511E+01  0.51100000000E-03 0.  1.
         12    1    3    3    0    0 -0.73708794811E+01  0.14532385270E+02 -0.13924395372E+02  0.21433825427E+02  0.00000000000E+00 0. -1.
</event>
<event>
 7    1  0.6293596E-013  0.5930196E+02  0.7816164E-02  0.1266605E+00
        -11   -1    0    0    0    0  0.00000000000E+00  0.00000000000E+00  0.45593999997E+02  0.45594000000E+02  0.51100000000E-03 0.  1.
         11   -1    0    0    0    0 -0.00000000000E+00 -0.00000000000E+00 -0.45593999997E+02  0.45594000000E+02  0.51100000000E-03 0. -1.
    9900012    2    1    2    0    0  0.54300168432E+01 -0.30192869529E+02 -0.86962569153E+01  0.59301963281E+02  0.50000035113E+02 0.  0.
        -12    1    1    2    0    0 -0.54300168432E+01  0.30192869529E+02  0.86962569153E+01  0.31886036719E+02  0.00000000000E+00 0.  1.
         11    1    3    3    0    0  0.75068322231E+01 -0.66152382080E+01 -0.80063037017E+01  0.12814632488E+02  0.51100000000E-03 0. -1.
        -11    1    3    3    0    0 -0.17271136602E+02 -0.25878704152E+02 -0.66195232923E+00  0.31119731188E+02  0.51100000000E-03 0.  1.
        -12    1    3    3    0    0  0.15194321222E+02  0.23010728307E+01 -0.28000884361E-01  0.15367599605E+02  0.00000000000E+00 0.  1.
</event>
<event>
 7    1  0.6293596E-013  0.5930194E+02  0.7816164E-02  0.1266605E+00
        -11   -1    0    0    0    0  0.00000000000E+00  0.00000000000E+00  0.45593999997E+02  0.45594000000E+02  0.51100000000E-03 0.  1.
         11   -1    0    0    0    0 -0.00000000000E+00 -0.00000000000E+00 -0.45593999997E+02  0.45594000000E+02  0.51100000000E-03 0. -1.
    9900012    2    1    2    0    0 -0.12050510898E+02 -0.11760550913E+02 -0.27077579107E+02  0.59301942530E+02  0.49999997269E+02 0.  0.
        -12    1    1    2    0    0  0.12050510898E+02  0.11760550913E+02  0.27077579107E+02  0.31886057470E+02  0.00000000000E+00 0.  1.
         11    1    3    3    0    0 -0.16969653561E+02 -0.17494689778E+02 -0.32235885923E+02  0.40412691743E+02  0.51100000000E-03 0. -1.
        -11    1    3    3    0    0  0.57073717459E+01  0.10954557578E+02  0.14489942899E+01  0.12436880987E+02  0.51100000000E-03 0.  1.
        -12    1    3    3    0    0 -0.78822908318E+00 -0.52204187128E+01  0.37093125260E+01  0.64523698003E+01  0.00000000000E+00 0.  1.
</event>
<event>
 7    1  0.6293596E-013  0.5930193E+02  0.7816164E-02  0.1266605E+00
        -11   -1    0    0    0    0  0.00000000000E+00  0.00000000000E+00  0.45593999997E+02  0.45594000000E+02  0.51100000000E-03 0.  1.
         11   -1    0    0    0    0 -0.00000000000E+00 -0.00000000000E+00 -0.45593999997E+02  0.45594000000E+02  0.51100000000E-03 0. -1.
    9900012    2    1    2    0    0  0.10276640978E+02  0.23440875673E+02 -0.19016775865E+02  0.59301925197E+02  0.49999965657E+02 0.  0.
        -12    1    1    2    0    0 -0.10276640978E+02 -0.23440875673E+02  0.19016775865E+02  0.31886074803E+02  0.00000000000E+00 0.  1.
         11    1    3    3    0    0 -0.13575361233E+02 -0.70972021117E+00 -0.33901675133E+01  0.14010259505E+02  0.51100000000E-03 0. -1.
        -11    1    3    3    0    0  0.23286116340E+02  0.24361653972E+02 -0.21115722492E+02  0.39769424626E+02  0.51100000000E-03 0.  1.
         12    1    3    3    0    0  0.56588587043E+00 -0.21105808833E+00  0.54891141407E+01  0.55222410655E+01  0.00000000000E+00 0. -1.
</event>
<event>
 7    1  0.6293596E-013  0.5930194E+02  0.7816164E-02  0.1266605E+00
        -11   -1    0    0    0    0  0.00000000000E+00  0.00000000000E+00  0.45593999997E+02  0.45594000000E+02  0.51100000000E-03 0.  1.
         11   -1    0    0    0    0 -0.00000000000E+00 -0.00000000000E+00 -0.45593999997E+02  0.45594000000E+02  0.51100000000E-03 0. -1.
    9900012    2    1    2    0    0 -0.70336586843E+01 -0.40505981594E+01 -0.30835707245E+02  0.59301944408E+02  0.50000000693E+02 0.  0.
        -12    1    1    2    0    0  0.70336586843E+01  0.40505981594E+01  0.30835707245E+02  0.31886055592E+02  0.00000000000E+00 0.  1.
         11    1    3    3    0    0 -0.13377216605E+00 -0.96773164346E+01 -0.36962030734E+01  0.10360032133E+02  0.51100000000E-03 0. -1.
        -11    1    3    3    0    0 -0.22592674588E+02  0.18844683403E+01 -0.83094236362E+01  0.24145945568E+02  0.51100000000E-03 0.  1.
        -12    1    3    3    0    0  0.15692788069E+02  0.37422499349E+01 -0.18830080535E+02  0.24795966707E+02  0.00000000000E+00 0.  1.
</event>
<event>
 7    1  0.6293596E-013  0.5930199E+02  0.7816164E-02  0.1266605E+00
        -11   -1    0    0    0    0  0.00000000000E+00  0.00000000000E+00  0.45593999997E+02  0.45594000000E+02  0.51100000000E-03 0.  1.
         11   -1    0    0    0    0 -0.00000000000E+00 -0.00000000000E+00 -0.45593999997E+02  0.45594000000E+02  0.51100000000E-03 0. -1.
    9900012    2    1    2    0    0 -0.17471220369E+02  0.16052541966E+02 -0.21302341047E+02  0.59301993997E+02  0.50000091131E+02 0.  0.
        -12    1    1    2    0    0  0.17471220369E+02 -0.16052541966E+02  0.21302341047E+02  0.31886006003E+02  0.00000000000E+00 0.  1.
         11    1    3    3    0    0 -0.39278572454E-03 -0.33182028245E+01 -0.18825992540E+02  0.19116183341E+02  0.51100000000E-03 0. -1.
        -11    1    3    3    0    0 -0.26213382441E+02  0.14284942910E+02 -0.33170136293E+01  0.30036704091E+02  0.51100000000E-03 0.  1.
        -12    1    3    3    0    0  0.87425548582E+01  0.50858018807E+01  0.84066512259E+00  0.10149106565E+02  0.00000000000E+00 0.  1.
</event>
<event>
 7    1  0.6293596E-013  0.5930197E+02  0.7816164E-02  0.1266605E+00
        -11   -1    0    0    0    0  0.00000000000E+00  0.00000000000E+00  0.45593999997E+02  0.45594000000E+02  0.51100000000E-03 0. -1.
         11   -1    0    0    0    0 -0.00000000000E+00 -0.00000000000E+00 -0.45593999997E+02  0.45594000000E+02  0.51100000000E-03 0.  1.
    9900012    2    1    2    0    0  0.11521348316E+02  0.12919270050E+02  0.26778166365E+02  0.59301965447E+02  0.50000039063E+02 0.  0.
        -12    1    1    2    0    0 -0.11521348316E+02 -0.12919270050E+02 -0.26778166365E+02  0.31886034553E+02  0.00000000000E+00 0.  1.
         11    1    3    3    0    0 -0.37596537439E+00 -0.94108215039E+01  0.12509786727E+02  0.15658852946E+02  0.51100000000E-03 0. -1.
        -11    1    3    3    0    0  0.13783969706E+02  0.28942417524E+02  0.16950086106E+02  0.36262470575E+02  0.51100000000E-03 0.  1.
        -12    1    3    3    0    0 -0.18866560158E+01 -0.66123259703E+01 -0.26817064680E+01  0.73806419260E+01  0.00000000000E+00 0.  1.
</event>
<event>
 7    1  0.6293596E-013  0.5930185E+02  0.7816164E-02  0.1266605E+00
        -11   -1    0    0    0    0  0.00000000000E+00  0.00000000000E+00  0.45593999997E+02  0.45594000000E+02  0.51100000000E-03 0.  1.
         11   -1    0    0    0    0 -0.00000000000E+00 -0.00000000000E+00 -0.45593999997E+02  0.45594000000E+02  0.51100000000E-03 0. -1.
    9900012    2    1    2    0    0  0.21868062550E+02  0.15224529553E+02 -0.17513659924E+02  0.59301847147E+02  0.49999823313E+02 0.  0.
        -12    1    1    2    0    0 -0.21868062550E+02 -0.15224529553E+02  0.17513659924E+02  0.31886152853E+02  0.00000000000E+00 0.  1.
         11    1    3    3    0    0  0.14370650618E+02  0.10139982232E+02 -0.29296947904E+02  0.34170835454E+02  0.51100000000E-03 0. -1.
        -11    1    3    3    0    0  0.95423793165E+01 -0.55310618377E+01  0.81933842958E+01  0.13739766903E+02  0.51100000000E-03 0.  1.
        -12    1    3    3    0    0 -0.20449673849E+01  0.10615609159E+02  0.35899036840E+01  0.11391244791E+02  0.00000000000E+00 0.  1.
</event>
<event>
 7    1  0.6293596E-013  0.5930192E+02  0.7816164E-02  0.1266605E+00
        -11   -1    0    0    0    0  0.00000000000E+00  0.00000000000E+00  0.45593999997E+02  0.45594000000E+02  0.51100000000E-03 0.  1.
         11   -1    0    0    0    0 -0.00000000000E+00 -0.00000000000E+00 -0.45593999997E+02  0.45594000000E+02  0.51100000000E-03 0. -1.
    9900012    2    1    2    0    0 -0.31375599880E+02  0.36392186411E+01 -0.43646520592E+01  0.59301915766E+02  0.49999948458E+02 0.  0.
        -12    1    1    2    0    0  0.31375599880E+02 -0.36392186411E+01  0.43646520592E+01  0.31886084234E+02  0.00000000000E+00 0.  1.
         11    1    3    3    0    0 -0.53220029025E+01 -0.11902715777E+02 -0.65617367153E+01  0.14596394991E+02  0.51100000000E-03 0. -1.
        -11    1    3    3    0    0 -0.15087030511E+02  0.24417021205E+02  0.74470482385E+01  0.29652452545E+02  0.51100000000E-03 0.  1.
        -12    1    3    3    0    0 -0.10966566466E+02 -0.88750867869E+01 -0.52499635824E+01  0.15053068230E+02  0.00000000000E+00 0.  1.
</event>
<event>
 7    1  0.6293596E-013  0.5930195E+02  0.7816164E-02  0.1266605E+00
        -11   -1    0    0    0    0  0.00000000000E+00  0.00000000000E+00  0.45593999997E+02  0.45594000000E+02  0.51100000000E-03 0. -1.
         11   -1    0    0    0    0 -0.00000000000E+00 -0.00000000000E+00 -0.45593999997E+02  0.45594000000E+02  0.51100000000E-03 0.  1.
    9900012    2    1    2    0    0 -0.25802763155E+02 -0.13576732980E+02 -0.12907743664E+02  0.59301951149E+02  0.50000012988E+02 0.  0.
        -12    1    1    2    0    0  0.25802763155E+02  0.13576732980E+02  0.12907743664E+02  0.31886048851E+02  0.00000000000E+00 0.  1.
         11    1    3    3    0    0 -0.33354608044E+02 -0.56224912523E+01  0.74891995164E+01  0.34644341462E+02  0.51100000000E-03 0. -1.
        -11    1    3    3    0    0  0.38711070593E+01 -0.21173033851E-01 -0.21619576634E+01  0.44339575282E+01  0.51100000000E-03 0.  1.
         12    1    3    3    0    0  0.36807378297E+01 -0.79330686938E+01 -0.18234985516E+02  0.20223652159E+02  0.00000000000E+00 0. -1.
</event>
<event>
 7    1  0.6293596E-013  0.5930198E+02  0.7816164E-02  0.1266605E+00
        -11   -1    0    0    0    0  0.00000000000E+00  0.00000000000E+00  0.45593999997E+02  0.45594000000E+02  0.51100000000E-03 0.  1.
         11   -1    0    0    0    0 -0.00000000000E+00 -0.00000000000E+00 -0.45593999997E+02  0.45594000000E+02  0.51100000000E-03 0. -1.
    9900012    2    1    2    0    0 -0.14426191691E+02  0.26598415479E+02 -0.10056220632E+02  0.59301979770E+02  0.50000065185E+02 0.  0.
        -12    1    1    2    0    0  0.14426191691E+02 -0.26598415479E+02  0.10056220632E+02  0.31886020230E+02  0.00000000000E+00 0.  1.
         11    1    3    3    0    0 -0.92024059362E+01  0.14831997529E+02  0.13223819778E+02  0.21898443677E+02  0.51100000000E-03 0. -1.
        -11    1    3    3    0    0  0.43533870832E+01  0.17393249156E+02 -0.16645029482E+02  0.24464956612E+02  0.51100000000E-03 0.  1.
        -12    1    3    3    0    0 -0.95771728380E+01 -0.56268312053E+01 -0.66350109274E+01  0.12938579481E+02  0.00000000000E+00 0.  1.
</event>
<event>
 7    1  0.6293596E-013  0.5930195E+02  0.7816164E-02  0.1266605E+00
        -11   -1    0    0    0    0  0.00000000000E+00  0.00000000000E+00  0.45593999997E+02  0.45594000000E+02  0.51100000000E-03 0.  1.
         11   -1    0    0    0    0 -0.00000000000E+00 -0.00000000000E+00 -0.45593999997E+02  0.45594000000E+02  0.51100000000E-03 0. -1.
    9900012    2    1    2    0    0  0.58033372496E+01  0.28091199810E+02 -0.13925730012E+02  0.59301949973E+02  0.50000010842E+02 0.  0.
        -12    1    1    2    0    0 -0.58033372496E+01 -0.28091199810E+02  0.13925730012E+02  0.31886050027E+02  0.00000000000E+00 0.  1.
         11    1    3    3    0    0 -0.54292413039E+01 -0.51091076103E+01 -0.12052689429E+02  0.14172048703E+02  0.51100000000E-03 0. -1.
        -11    1    3    3    0    0 -0.44068344656E+01  0.28352935812E+02 -0.19040676886E+01  0.28756471153E+02  0.51100000000E-03 0.  1.
        -12    1    3    3    0    0  0.15639413019E+02  0.48473716079E+01  0.31027105888E-01  0.16373430116E+02  0.00000000000E+00 0.  1.
</event>
<event>
 7    1  0.6293596E-013  0.5930195E+02  0.7816164E-02  0.1266605E+00
        -11   -1    0    0    0    0  0.00000000000E+00  0.00000000000E+00  0.45593999997E+02  0.45594000000E+02  0.51100000000E-03 0.  1.
         11   -1    0    0    0    0 -0.00000000000E+00 -0.00000000000E+00 -0.45593999997E+02  0.45594000000E+02  0.51100000000E-03 0. -1.
    9900012    2    1    2    0    0 -0.19385252081E+02  0.40547514453E+01 -0.24989819114E+02  0.59301951846E+02  0.50000014258E+02 0.  0.
        -12    1    1    2    0    0  0.19385252081E+02 -0.40547514453E+01  0.24989819114E+02  0.31886048154E+02  0.00000000000E+00 0.  1.
         11    1    3    3    0    0 -0.21542025096E+02 -0.18237177107E+02 -0.16089914398E+02  0.32489056922E+02  0.51100000000E-03 0. -1.
        -11    1    3    3    0    0  0.12850250845E+01  0.23499409018E+02 -0.92431582809E+01  0.25284570175E+02  0.51100000000E-03 0.  1.
        -12    1    3    3    0    0  0.87174793045E+00 -0.12074804654E+01  0.34325356456E+00  0.15283247489E+01  0.00000000000E+00 0.  1.
</event>
<event>
 7    1  0.6293596E-013  0.5930193E+02  0.7816164E-02  0.1266605E+00
        -11   -1    0    0    0    0  0.00000000000E+00  0.00000000000E+00  0.45593999997E+02  0.45594000000E+02  0.51100000000E-03 0. -1.
         11   -1    0    0    0    0 -0.00000000000E+00 -0.00000000000E+00 -0.45593999997E+02  0.45594000000E+02  0.51100000000E-03 0.  1.
    9900012    2    1    2    0    0  0.31687087497E+02 -0.28310348472E+01  0.21529301306E+01  0.59301931247E+02  0.49999976691E+02 0.  0.
        -12    1    1    2    0    0 -0.31687087497E+02  0.28310348472E+01 -0.21529301306E+01  0.31886068753E+02  0.00000000000E+00 0.  1.
         11    1    3    3    0    0  0.78572862754E+01 -0.10567348435E+02  0.15698144552E+02  0.20489937608E+02  0.51100000000E-03 0. -1.
        -11    1    3    3    0    0  0.28906452533E+02  0.99256124458E+01 -0.96548310929E+01  0.32051779111E+02  0.51100000000E-03 0.  1.
        -12    1    3    3    0    0 -0.50766513114E+01 -0.21892988583E+01 -0.38903833282E+01  0.67602145283E+01  0.00000000000E+00 0.  1.
</event>
<event>
 7    1  0.6293596E-013  0.5930194E+02  0.7816164E-02  0.1266605E+00
        -11   -1    0    0    0    0  0.00000000000E+00  0.00000000000E+00  0.45593999997E+02  0.45594000000E+02  0.51100000000E-03 0. -1.
         11   -1    0    0    0    0 -0.00000000000E+00 -0.00000000000E+00 -0.45593999997E+02  0.45594000000E+02  0.51100000000E-03 0.  1.
    9900012    2    1    2    0    0  0.13016383833E+02 -0.25890655258E+02 -0.13302950264E+02  0.59301940923E+02  0.49999994337E+02 0.  0.
        -12    1    1    2    0    0 -0.13016383833E+02  0.25890655258E+02  0.13302950264E+02  0.31886059077E+02  0.00000000000E+00 0.  1.
         11    1    3    3    0    0  0.98426038549E+01 -0.10195886602E+02 -0.26493099097E+02  0.30045253439E+02  0.51100000000E-03 0. -1.
        -11    1    3    3    0    0 -0.88472919375E+01 -0.65869302738E+01  0.57845736033E+01  0.12454859176E+02  0.51100000000E-03 0.  1.
         12    1    3    3    0    0  0.12021071916E+02 -0.91078383822E+01  0.74055752293E+01  0.16801828307E+02  0.00000000000E+00 0. -1.
</event>
<event>
 7    1  0.6293596E-013  0.5930195E+02  0.7816164E-02  0.1266605E+00
        -11   -1    0    0    0    0  0.00000000000E+00  0.00000000000E+00  0.45593999997E+02  0.45594000000E+02  0.51100000000E-03 0. -1.
         11   -1    0    0    0    0 -0.00000000000E+00 -0.00000000000E+00 -0.45593999997E+02  0.45594000000E+02  0.51100000000E-03 0.  1.
    9900012    2    1    2    0    0 -0.20232996220E+02  0.14508418391E+02  0.19921143770E+02  0.59301948044E+02  0.50000007324E+02 0.  0.
        -12    1    1    2    0    0  0.20232996220E+02 -0.14508418391E+02 -0.19921143770E+02  0.31886051956E+02  0.00000000000E+00 0.  1.
         11    1    3    3    0    0 -0.14055625832E+02 -0.14972194573E+02  0.15143474304E+02  0.25515721470E+02  0.51100000000E-03 0. -1.
        -11    1    3    3    0    0 -0.68252308717E+01  0.18217993150E+02 -0.35350490604E+01  0.19773103524E+02  0.51100000000E-03 0.  1.
        -12    1    3    3    0    0  0.64786048323E+00  0.11262619815E+02  0.83127185257E+01  0.14013123049E+02  0.00000000000E+00 0.  1.
</event>
<event>
 7    1  0.6293596E-013  0.5930190E+02  0.7816164E-02  0.1266605E+00
        -11   -1    0    0    0    0  0.00000000000E+00  0.00000000000E+00  0.45593999997E+02  0.45594000000E+02  0.51100000000E-03 0. -1.
         11   -1    0    0    0    0 -0.00000000000E+00 -0.00000000000E+00 -0.45593999997E+02  0.45594000000E+02  0.51100000000E-03 0.  1.
    9900012    2    1    2    0    0  0.10656716896E+01  0.24965368405E+02  0.19807022933E+02  0.59301899059E+02  0.49999917988E+02 0.  0.
        -12    1    1    2    0    0 -0.10656716896E+01 -0.24965368405E+02 -0.19807022933E+02  0.31886100941E+02  0.00000000000E+00 0.  1.
         11    1    3    3    0    0 -0.13548711198E+01  0.14167775616E+02  0.34755862754E+02  0.37557043783E+02  0.51100000000E-03 0. -1.
        -11    1    3    3    0    0 -0.26866476528E+01 -0.95598148995E+00 -0.17381478670E+01  0.33396308911E+01  0.51100000000E-03 0.  1.
         12    1    3    3    0    0  0.51071904623E+01  0.11753574280E+02 -0.13210691954E+02  0.18405224385E+02  0.00000000000E+00 0. -1.
</event>
<event>
 7    1  0.6293596E-013  0.5930194E+02  0.7816164E-02  0.1266605E+00
        -11   -1    0    0    0    0  0.00000000000E+00  0.00000000000E+00  0.45593999997E+02  0.45594000000E+02  0.51100000000E-03 0.  1.
         11   -1    0    0    0    0 -0.00000000000E+00 -0.00000000000E+00 -0.45593999997E+02  0.45594000000E+02  0.51100000000E-03 0. -1.
    9900012    2    1    2    0    0  0.20354307552E+02  0.70609915309E+01 -0.23506703151E+02  0.59301944579E+02  0.50000001005E+02 0.  0.
        -12    1    1    2    0    0 -0.20354307552E+02 -0.70609915309E+01  0.23506703151E+02  0.31886055421E+02  0.00000000000E+00 0.  1.
         11    1    3    3    0    0  0.76347356345E+01  0.13002094032E+02  0.74220203526E+01  0.16805654518E+02  0.51100000000E-03 0. -1.
        -11    1    3    3    0    0 -0.57928617372E+01 -0.82532694749E+01 -0.76087630414E+01  0.12631982402E+02  0.51100000000E-03 0.  1.
         12    1    3    3    0    0  0.18512433654E+02  0.23121669742E+01 -0.23319960462E+02  0.29864307658E+02  0.00000000000E+00 0. -1.
</event>
<event>
 7    1  0.6293596E-013  0.5930194E+02  0.7816164E-02  0.1266605E+00
        -11   -1    0    0    0    0  0.00000000000E+00  0.00000000000E+00  0.45593999997E+02  0.45594000000E+02  0.51100000000E-03 0.  1.
         11   -1    0    0    0    0 -0.00000000000E+00 -0.00000000000E+00 -0.45593999997E+02  0.45594000000E+02  0.51100000000E-03 0. -1.
    9900012    2    1    2    0    0  0.12404112790E+01 -0.58465876015E+01 -0.31320908551E+02  0.59301944753E+02  0.50000001323E+02 0.  0.
        -12    1    1    2    0    0 -0.12404112790E+01  0.58465876015E+01  0.31320908551E+02  0.31886055247E+02  0.00000000000E+00 0.  1.
         11    1    3    3    0    0  0.34384224957E+01  0.97794778753E+00 -0.20151008776E+02  0.20465636713E+02  0.51100000000E-03 0. -1.
        -11    1    3    3    0    0  0.97326886659E+01  0.27377678961E+01  0.89933289866E+01  0.13531465857E+02  0.51100000000E-03 0.  1.
        -12    1    3    3    0    0 -0.11930699883E+02 -0.95623032852E+01 -0.20163228762E+02  0.25304842183E+02  0.00000000000E+00 0.  1.
</event>
<event>
 7    1  0.6293596E-013  0.5930196E+02  0.7816164E-02  0.1266605E+00
        -11   -1    0    0    0    0  0.00000000000E+00  0.00000000000E+00  0.45593999997E+02  0.45594000000E+02  0.51100000000E-03 0.  1.
         11   -1    0    0    0    0 -0.00000000000E+00 -0.00000000000E+00 -0.45593999997E+02  0.45594000000E+02  0.51100000000E-03 0. -1.
    9900012    2    1    2    0    0 -0.23266190194E+02  0.21353761676E+02  0.44069351829E+01  0.59301955692E+02  0.50000021273E+02 0.  0.
        -12    1    1    2    0    0  0.23266190194E+02 -0.21353761676E+02 -0.44069351829E+01  0.31886044308E+02  0.00000000000E+00 0.  1.
         11    1    3    3    0    0 -0.65281124950E+01  0.19219431472E+02  0.52227264029E+01  0.20958999742E+02  0.51100000000E-03 0. -1.
        -11    1    3    3    0    0  0.77911121632E+01 -0.67093975684E+01  0.52898904159E+01  0.11562888279E+02  0.51100000000E-03 0.  1.
        -12    1    3    3    0    0 -0.24529189863E+02  0.88437277727E+01 -0.61056816360E+01  0.26780067671E+02  0.00000000000E+00 0.  1.
</event>
<event>
 7    1  0.6293596E-013  0.5930194E+02  0.7816164E-02  0.1266605E+00
        -11   -1    0    0    0    0  0.00000000000E+00  0.00000000000E+00  0.45593999997E+02  0.45594000000E+02  0.51100000000E-03 0. -1.
         11   -1    0    0    0    0 -0.00000000000E+00 -0.00000000000E+00 -0.45593999997E+02  0.45594000000E+02  0.51100000000E-03 0.  1.
    9900012    2    1    2    0    0 -0.13635386796E+02 -0.27982107704E+02  0.69136647045E+01  0.59301939029E+02  0.49999990883E+02 0.  0.
        -12    1    1    2    0    0  0.13635386796E+02  0.27982107704E+02 -0.69136647045E+01  0.31886060971E+02  0.00000000000E+00 0.  1.
         11    1    3    3    0    0  0.37597783305E+01 -0.23211819253E+01  0.18586966980E+02  0.19104951201E+02  0.51100000000E-03 0. -1.
        -11    1    3    3    0    0  0.14615496769E+01 -0.17088464482E+02 -0.88253183124E+01  0.19288286326E+02  0.51100000000E-03 0.  1.
         12    1    3    3    0    0 -0.18856714803E+02 -0.85724612965E+01 -0.28479839626E+01  0.20908701502E+02  0.00000000000E+00 0. -1.
</event>
<event>
 7    1  0.6293596E-013  0.5930194E+02  0.7816164E-02  0.1266605E+00
        -11   -1    0    0    0    0  0.00000000000E+00  0.00000000000E+00  0.45593999997E+02  0.45594000000E+02  0.51100000000E-03 0.  1.
         11   -1    0    0    0    0 -0.00000000000E+00 -0.00000000000E+00 -0.45593999997E+02  0.45594000000E+02  0.51100000000E-03 0. -1.
    9900012    2    1    2    0    0 -0.13112696666E+02 -0.27805360107E+02 -0.84640423706E+01  0.59301939130E+02  0.49999991068E+02 0.  0.
        -12    1    1    2    0    0  0.13112696666E+02  0.27805360107E+02  0.84640423706E+01  0.31886060870E+02  0.00000000000E+00 0.  1.
         11    1    3    3    0    0  0.11132534903E+02  0.31684004932E+01  0.84563563379E+00  0.11605481245E+02  0.51100000000E-03 0. -1.
        -11    1    3    3    0    0 -0.26889585476E+02 -0.15687641194E+02 -0.79092766401E+01  0.32120220275E+02  0.51100000000E-03 0.  1.
        -12    1    3    3    0    0  0.26443539068E+01 -0.15286119406E+02 -0.14004013643E+01  0.15576237609E+02  0.00000000000E+00 0.  1.
</event>
<event>
 7    1  0.6293596E-013  0.5930173E+02  0.7816164E-02  0.1266605E+00
        -11   -1    0    0    0    0  0.00000000000E+00  0.00000000000E+00  0.45593999997E+02  0.45594000000E+02  0.51100000000E-03 0. -1.
         11   -1    0    0    0    0 -0.00000000000E+00 -0.00000000000E+00 -0.45593999997E+02  0.45594000000E+02  0.51100000000E-03 0.  1.
    9900012    2    1    2    0    0 -0.23208885187E+02 -0.31009721453E+01  0.21644064281E+02  0.59301734956E+02  0.49999618702E+02 0.  0.
        -12    1    1    2    0    0  0.23208885187E+02  0.31009721453E+01 -0.21644064281E+02  0.31886265044E+02  0.00000000000E+00 0.  1.
         11    1    3    3    0    0 -0.12932708784E+02 -0.14116617337E+02 -0.53835270771E+01  0.19887589235E+02  0.51100000000E-03 0.  1.
        -11    1    3    3    0    0  0.79857922685E+01  0.48123659883E+01  0.10187974415E+02  0.13810378978E+02  0.51100000000E-03 0. -1.
         12    1    3    3    0    0 -0.18261968672E+02  0.62032792037E+01  0.16839616943E+02  0.25603766743E+02  0.00000000000E+00 0. -1.
</event>
<event>
 7    1  0.6293596E-013  0.5930193E+02  0.7816164E-02  0.1266605E+00
        -11   -1    0    0    0    0  0.00000000000E+00  0.00000000000E+00  0.45593999997E+02  0.45594000000E+02  0.51100000000E-03 0. -1.
         11   -1    0    0    0    0 -0.00000000000E+00 -0.00000000000E+00 -0.45593999997E+02  0.45594000000E+02  0.51100000000E-03 0.  1.
    9900012    2    1    2    0    0 -0.18213406642E+02  0.95422843034E+01  0.24370841802E+02  0.59301932489E+02  0.49999978955E+02 0.  0.
        -12    1    1    2    0    0  0.18213406642E+02 -0.95422843034E+01 -0.24370841802E+02  0.31886067511E+02  0.00000000000E+00 0.  1.
         11    1    3    3    0    0  0.27399399129E+01 -0.10759026531E+02 -0.24116767804E+01  0.11361342693E+02  0.51100000000E-03 0.  1.
        -11    1    3    3    0    0 -0.35466578509E+01  0.12867688411E+02  0.25727354311E+02  0.28983666902E+02  0.51100000000E-03 0. -1.
        -12    1    3    3    0    0 -0.17406688704E+02  0.74336224237E+01  0.10551642710E+01  0.18956922894E+02  0.00000000000E+00 0.  1.
</event>
<event>
 7    1  0.6293596E-013  0.5930193E+02  0.7816164E-02  0.1266605E+00
        -11   -1    0    0    0    0  0.00000000000E+00  0.00000000000E+00  0.45593999997E+02  0.45594000000E+02  0.51100000000E-03 0.  1.
         11   -1    0    0    0    0 -0.00000000000E+00 -0.00000000000E+00 -0.45593999997E+02  0.45594000000E+02  0.51100000000E-03 0. -1.
    9900012    2    1    2    0    0  0.11838928891E+02  0.13567979876E+02 -0.26314848397E+02  0.59301928411E+02  0.49999971519E+02 0.  0.
        -12    1    1    2    0    0 -0.11838928891E+02 -0.13567979876E+02  0.26314848397E+02  0.31886071589E+02  0.00000000000E+00 0.  1.
         11    1    3    3    0    0  0.18138412944E+02 -0.43993624175E+01  0.65223398526E+00  0.18675701413E+02  0.51100000000E-03 0. -1.
        -11    1    3    3    0    0  0.57237708885E+01  0.17314586561E+02 -0.17899717152E+02  0.25553010299E+02  0.51100000000E-03 0.  1.
         12    1    3    3    0    0 -0.12023254942E+02  0.65275573328E+00 -0.90673652308E+01  0.15073216700E+02  0.00000000000E+00 0. -1.
</event>
<event>
 7    1  0.6293596E-013  0.5930191E+02  0.7816164E-02  0.1266605E+00
        -11   -1    0    0    0    0  0.00000000000E+00  0.00000000000E+00  0.45593999997E+02  0.45594000000E+02  0.51100000000E-03 0.  1.
         11   -1    0    0    0    0 -0.00000000000E+00 -0.00000000000E+00 -0.45593999997E+02  0.45594000000E+02  0.51100000000E-03 0. -1.
    9900012    2    1    2    0    0  0.14162468690E+02  0.27093035587E+02 -0.90617269898E+01  0.59301905966E+02  0.49999930584E+02 0.  0.
        -12    1    1    2    0    0 -0.14162468690E+02 -0.27093035587E+02  0.90617269898E+01  0.31886094034E+02  0.00000000000E+00 0.  1.
         11    1    3    3    0    0  0.37581827049E+01  0.20258794034E+02 -0.21931942002E+02  0.30092403580E+02  0.51100000000E-03 0. -1.
        -11    1    3    3    0    0 -0.31582615702E+01 -0.15063732369E+00  0.13574351003E+02  0.13937729843E+02  0.51100000000E-03 0.  1.
        -12    1    3    3    0    0  0.13562547556E+02  0.69848788761E+01 -0.70413599062E+00  0.15271772543E+02  0.00000000000E+00 0.  1.
</event>
<event>
 7    1  0.6293596E-013  0.5930191E+02  0.7816164E-02  0.1266605E+00
        -11   -1    0    0    0    0  0.00000000000E+00  0.00000000000E+00  0.45593999997E+02  0.45594000000E+02  0.51100000000E-03 0. -1.
         11   -1    0    0    0    0 -0.00000000000E+00 -0.00000000000E+00 -0.45593999997E+02  0.45594000000E+02  0.51100000000E-03 0.  1.
    9900012    2    1    2    0    0 -0.30902917315E+02 -0.55287008163E+01 -0.55826216505E+01  0.59301913759E+02  0.49999944797E+02 0.  0.
        -12    1    1    2    0    0  0.30902917315E+02  0.55287008163E+01  0.55826216505E+01  0.31886086241E+02  0.00000000000E+00 0.  1.
         11    1    3    3    0    0  0.26047236197E+01 -0.14880135318E+02  0.14637670802E+01  0.15177141580E+02  0.51100000000E-03 0.  1.
        -11    1    3    3    0    0 -0.13232697585E+02  0.91729913093E+01  0.88384874785E+01  0.18367550629E+02  0.51100000000E-03 0. -1.
         12    1    3    3    0    0 -0.20274943350E+02  0.17844319215E+00 -0.15884876209E+02  0.25757221550E+02  0.00000000000E+00 0. -1.
</event>
<event>
 7    1  0.6293596E-013  0.5930195E+02  0.7816164E-02  0.1266605E+00
        -11   -1    0    0    0    0  0.00000000000E+00  0.00000000000E+00  0.45593999997E+02  0.45594000000E+02  0.51100000000E-03 0.  1.
         11   -1    0    0    0    0 -0.00000000000E+00 -0.00000000000E+00 -0.45593999997E+02  0.45594000000E+02  0.51100000000E-03 0. -1.
    9900012    2    1    2    0    0  0.27995490035E+02  0.71936540047E+01 -0.13461959176E+02  0.59301945601E+02  0.50000002870E+02 0.  0.
        -12    1    1    2    0    0 -0.27995490035E+02 -0.71936540047E+01  0.13461959176E+02  0.31886054399E+02  0.00000000000E+00 0.  1.
         11    1    3    3    0    0  0.13374663102E+02  0.95785447505E+01 -0.27546122298E+02  0.32084559940E+02  0.51100000000E-03 0. -1.
        -11    1    3    3    0    0  0.77282330832E+01 -0.10182775094E+02  0.65095546464E+01  0.14345340608E+02  0.51100000000E-03 0.  1.
        -12    1    3    3    0    0  0.68925938505E+01  0.77978843487E+01  0.75746084753E+01  0.12872045053E+02  0.00000000000E+00 0.  1.
</event>
<event>
 7    1  0.6293596E-013  0.5930191E+02  0.7816164E-02  0.1266605E+00
        -11   -1    0    0    0    0  0.00000000000E+00  0.00000000000E+00  0.45593999997E+02  0.45594000000E+02  0.51100000000E-03 0. -1.
         11   -1    0    0    0    0 -0.00000000000E+00 -0.00000000000E+00 -0.45593999997E+02  0.45594000000E+02  0.51100000000E-03 0.  1.
    9900012    2    1    2    0    0  0.27352647767E+02  0.14760639477E+02 -0.71189217867E+01  0.59301907968E+02  0.49999934237E+02 0.  0.
        -12    1    1    2    0    0 -0.27352647767E+02 -0.14760639477E+02  0.71189217867E+01  0.31886092032E+02  0.00000000000E+00 0.  1.
         11    1    3    3    0    0  0.22004323271E+02 -0.72623498898E+01  0.42220894653E+01  0.23553301430E+02  0.51100000000E-03 0.  1.
        -11    1    3    3    0    0 -0.22809794723E+01  0.18566192002E+02  0.31905684641E+01  0.18975934238E+02  0.51100000000E-03 0. -1.
        -12    1    3    3    0    0  0.76293039681E+01  0.34567973650E+01 -0.14531579716E+02  0.16772672301E+02  0.00000000000E+00 0.  1.
</event>
<event>
 7    1  0.6293596E-013  0.5930194E+02  0.7816164E-02  0.1266605E+00
        -11   -1    0    0    0    0  0.00000000000E+00  0.00000000000E+00  0.45593999997E+02  0.45594000000E+02  0.51100000000E-03 0.  1.
         11   -1    0    0    0    0 -0.00000000000E+00 -0.00000000000E+00 -0.45593999997E+02  0.45594000000E+02  0.51100000000E-03 0. -1.
    9900012    2    1    2    0    0 -0.25634797914E+02  0.25115387030E+01 -0.18795480537E+02  0.59301940673E+02  0.49999993882E+02 0.  0.
        -12    1    1    2    0    0  0.25634797914E+02 -0.25115387030E+01  0.18795480537E+02  0.31886059327E+02  0.00000000000E+00 0.  1.
         11    1    3    3    0    0 -0.43570663069E+01  0.21597871800E+02 -0.10472909658E+02  0.24395366979E+02  0.51100000000E-03 0.  1.
        -11    1    3    3    0    0 -0.24032487393E+02 -0.16174610156E+02 -0.98788654876E+01  0.30606705925E+02  0.51100000000E-03 0. -1.
         12    1    3    3    0    0  0.27547557857E+01 -0.29117229403E+01  0.15562946085E+01  0.42998677687E+01  0.00000000000E+00 0. -1.
</event>
<event>
 7    1  0.6293596E-013  0.5930200E+02  0.7816164E-02  0.1266605E+00
        -11   -1    0    0    0    0  0.00000000000E+00  0.00000000000E+00  0.45593999997E+02  0.45594000000E+02  0.51100000000E-03 0. -1.
         11   -1    0    0    0    0 -0.00000000000E+00 -0.00000000000E+00 -0.45593999997E+02  0.45594000000E+02  0.51100000000E-03 0.  1.
    9900012    2    1    2    0    0  0.25463138708E+02 -0.12634092578E+02  0.14447324253E+02  0.59302001408E+02  0.50000104648E+02 0.  0.
        -12    1    1    2    0    0 -0.25463138708E+02  0.12634092578E+02 -0.14447324253E+02  0.31885998592E+02  0.00000000000E+00 0.  1.
         11    1    3    3    0    0  0.35394794004E+02  0.38801434790E+01  0.49434921059E+01  0.35948366729E+02  0.51100000000E-03 0. -1.
        -11    1    3    3    0    0 -0.55116954562E+01 -0.18156922827E+01  0.39993990920E+01  0.70477456413E+01  0.51100000000E-03 0.  1.
         12    1    3    3    0    0 -0.44199598401E+01 -0.14698543774E+02  0.55044330551E+01  0.16305889038E+02  0.00000000000E+00 0. -1.
</event>
<event>
 7    1  0.6293596E-013  0.5930195E+02  0.7816164E-02  0.1266605E+00
        -11   -1    0    0    0    0  0.00000000000E+00  0.00000000000E+00  0.45593999997E+02  0.45594000000E+02  0.51100000000E-03 0.  1.
         11   -1    0    0    0    0 -0.00000000000E+00 -0.00000000000E+00 -0.45593999997E+02  0.45594000000E+02  0.51100000000E-03 0. -1.
    9900012    2    1    2    0    0 -0.62112555369E+01  0.89065122048E+01 -0.29980240767E+02  0.59301945188E+02  0.50000002117E+02 0.  0.
        -12    1    1    2    0    0  0.62112555369E+01 -0.89065122048E+01  0.29980240767E+02  0.31886054812E+02  0.00000000000E+00 0.  1.
         11    1    3    3    0    0 -0.44537629370E+01  0.13977646338E+02 -0.41431692398E+01  0.15243898880E+02  0.51100000000E-03 0. -1.
        -11    1    3    3    0    0 -0.12474655201E+02 -0.15123858019E+02 -0.20653343787E+02  0.28476458937E+02  0.51100000000E-03 0.  1.
        -12    1    3    3    0    0  0.10717162601E+02  0.10052723886E+02 -0.51837277403E+01  0.15581587372E+02  0.00000000000E+00 0.  1.
</event>
<event>
 7    1  0.6293596E-013  0.5930190E+02  0.7816164E-02  0.1266605E+00
        -11   -1    0    0    0    0  0.00000000000E+00  0.00000000000E+00  0.45593999997E+02  0.45594000000E+02  0.51100000000E-03 0.  1.
         11   -1    0    0    0    0 -0.00000000000E+00 -0.00000000000E+00 -0.45593999997E+02  0.45594000000E+02  0.51100000000E-03 0. -1.
    9900012    2    1    2    0    0  0.20286650205E+02 -0.38281100184E+01 -0.24300638384E+02  0.59301895993E+02  0.49999912396E+02 0.  0.
        -12    1    1    2    0    0 -0.20286650205E+02  0.38281100184E+01  0.24300638384E+02  0.31886104007E+02  0.00000000000E+00 0.  1.
         11    1    3    3    0    0  0.90685152341E+01  0.10374733185E+02 -0.25598390876E+02  0.29071475244E+02  0.51100000000E-03 0.  1.
        -11    1    3    3    0    0  0.14956530834E+02 -0.90399962268E+01 -0.77869305935E+01  0.19132580451E+02  0.51100000000E-03 0. -1.
        -12    1    3    3    0    0 -0.37383958625E+01 -0.51628469764E+01  0.90846830847E+01  0.11097840298E+02  0.00000000000E+00 0.  1.
</event>
<event>
 7    1  0.6293596E-013  0.5930195E+02  0.7816164E-02  0.1266605E+00
        -11   -1    0    0    0    0  0.00000000000E+00  0.00000000000E+00  0.45593999997E+02  0.45594000000E+02  0.51100000000E-03 0.  1.
         11   -1    0    0    0    0 -0.00000000000E+00 -0.00000000000E+00 -0.45593999997E+02  0.45594000000E+02  0.51100000000E-03 0. -1.
    9900012    2    1    2    0    0  0.25573996007E+02  0.44328293266E+01  0.18521362749E+02  0.59301950924E+02  0.50000012577E+02 0.  0.
        -12    1    1    2    0    0 -0.25573996007E+02 -0.44328293266E+01 -0.18521362749E+02  0.31886049076E+02  0.00000000000E+00 0.  1.
         11    1    3    3    0    0  0.38116091048E+01  0.23123744308E+02  0.37752539988E+01  0.23737911825E+02  0.51100000000E-03 0. -1.
        -11    1    3    3    0    0  0.17522586013E+02 -0.13395564155E+02  0.17586974819E+02  0.28209640961E+02  0.51100000000E-03 0.  1.
         12    1    3    3    0    0  0.42398008888E+01 -0.52953508264E+01 -0.28408660686E+01  0.73543981379E+01  0.00000000000E+00 0. -1.
</event>
<event>
 7    1  0.6293596E-013  0.5930195E+02  0.7816164E-02  0.1266605E+00
        -11   -1    0    0    0    0  0.00000000000E+00  0.00000000000E+00  0.45593999997E+02  0.45594000000E+02  0.51100000000E-03 0.  1.
         11   -1    0    0    0    0 -0.00000000000E+00 -0.00000000000E+00 -0.45593999997E+02  0.45594000000E+02  0.51100000000E-03 0. -1.
    9900012    2    1    2    0    0  0.57633792093E+01  0.52012207567E+01 -0.30926542861E+02  0.59301948338E+02  0.50000007861E+02 0.  0.
        -12    1    1    2    0    0 -0.57633792093E+01 -0.52012207567E+01  0.30926542861E+02  0.31886051662E+02  0.00000000000E+00 0.  1.
         11    1    3    3    0    0  0.11230523261E+02  0.16815905504E+02 -0.15599149476E+02  0.25538848746E+02  0.51100000000E-03 0. -1.
        -11    1    3    3    0    0  0.27723731464E+01 -0.18219837062E+02 -0.13949127029E+02  0.23113343777E+02  0.51100000000E-03 0.  1.
        -12    1    3    3    0    0 -0.82395171985E+01  0.66051523144E+01 -0.13782663557E+01  0.10649755814E+02  0.00000000000E+00 0.  1.
</event>
<event>
 7    1  0.6293596E-013  0.5930195E+02  0.7816164E-02  0.1266605E+00
        -11   -1    0    0    0    0  0.00000000000E+00  0.00000000000E+00  0.45593999997E+02  0.45594000000E+02  0.51100000000E-03 0.  1.
         11   -1    0    0    0    0 -0.00000000000E+00 -0.00000000000E+00 -0.45593999997E+02  0.45594000000E+02  0.51100000000E-03 0. -1.
    9900012    2    1    2    0    0  0.70340996739E+01  0.24352680177E+02 -0.19343963083E+02  0.59301945089E+02  0.50000001936E+02 0.  0.
        -12    1    1    2    0    0 -0.70340996739E+01 -0.24352680177E+02  0.19343963083E+02  0.31886054911E+02  0.00000000000E+00 0.  1.
         11    1    3    3    0    0  0.84190314288E+01  0.14151300710E+02 -0.21153896794E+02  0.26807214548E+02  0.51100000000E-03 0. -1.
        -11    1    3    3    0    0 -0.15992251425E+02  0.49226844683E+01 -0.76813213766E+00  0.16750371795E+02  0.51100000000E-03 0.  1.
        -12    1    3    3    0    0  0.14607319670E+02  0.52786949983E+01  0.25780658483E+01  0.15744358747E+02  0.00000000000E+00 0.  1.
</event>
<event>
 7    1  0.6293596E-013  0.5930193E+02  0.7816164E-02  0.1266605E+00
        -11   -1    0    0    0    0  0.00000000000E+00  0.00000000000E+00  0.45593999997E+02  0.45594000000E+02  0.51100000000E-03 0. -1.
         11   -1    0    0    0    0 -0.00000000000E+00 -0.00000000000E+00 -0.45593999997E+02  0.45594000000E+02  0.51100000000E-03 0.  1.
    9900012    2    1    2    0    0  0.22853953263E+02  0.17496123228E+02  0.13722381105E+02  0.59301933279E+02  0.49999980397E+02 0.  0.
        -12    1    1    2    0    0 -0.22853953263E+02 -0.17496123228E+02 -0.13722381105E+02  0.31886066721E+02  0.00000000000E+00 0.  1.
         11    1    3    3    0    0  0.17700942358E+02  0.13110550833E+01  0.19215476280E+02  0.26158684117E+02  0.51100000000E-03 0. -1.
        -11    1    3    3    0    0 -0.40261633113E+01 -0.78699306132E+00 -0.12077687251E+02  0.12755386261E+02  0.51100000000E-03 0.  1.
        -12    1    3    3    0    0  0.91791742160E+01  0.16972061206E+02  0.65845920765E+01  0.20387862901E+02  0.00000000000E+00 0.  1.
</event>
<event>
 7    1  0.6293596E-013  0.5930194E+02  0.7816164E-02  0.1266605E+00
        -11   -1    0    0    0    0  0.00000000000E+00  0.00000000000E+00  0.45593999997E+02  0.45594000000E+02  0.51100000000E-03 0. -1.
         11   -1    0    0    0    0 -0.00000000000E+00 -0.00000000000E+00 -0.45593999997E+02  0.45594000000E+02  0.51100000000E-03 0.  1.
    9900012    2    1    2    0    0 -0.22775724533E+02 -0.15708285481E+02  0.15850452029E+02  0.59301942071E+02  0.49999996431E+02 0.  0.
        -12    1    1    2    0    0  0.22775724533E+02  0.15708285481E+02 -0.15850452029E+02  0.31886057929E+02  0.00000000000E+00 0.  1.
         11    1    3    3    0    0 -0.15294151195E+02 -0.19840023890E+02  0.21125065284E+02  0.32768979115E+02  0.51100000000E-03 0. -1.
        -11    1    3    3    0    0 -0.12679622451E+01  0.14153012270E+02 -0.30617525163E+01  0.14535811408E+02  0.51100000000E-03 0.  1.
        -12    1    3    3    0    0 -0.62136110929E+01 -0.10021273860E+02 -0.22128607388E+01  0.11997151547E+02  0.00000000000E+00 0.  1.
</event>
<event>
 7    1  0.6293596E-013  0.5930194E+02  0.7816164E-02  0.1266605E+00
        -11   -1    0    0    0    0  0.00000000000E+00  0.00000000000E+00  0.45593999997E+02  0.45594000000E+02  0.51100000000E-03 0.  1.
         11   -1    0    0    0    0 -0.00000000000E+00 -0.00000000000E+00 -0.45593999997E+02  0.45594000000E+02  0.51100000000E-03 0. -1.
    9900012    2    1    2    0    0 -0.21478108911E+02 -0.23139614257E+02  0.44688006540E+01  0.59301935809E+02  0.49999985010E+02 0.  0.
        -12    1    1    2    0    0  0.21478108911E+02  0.23139614257E+02 -0.44688006540E+01  0.31886064191E+02  0.00000000000E+00 0.  1.
         11    1    3    3    0    0 -0.10241481620E+02 -0.51871692382E+00 -0.13370780668E+02  0.16850364653E+02  0.51100000000E-03 0. -1.
        -11    1    3    3    0    0  0.63936099683E+01 -0.17987636623E+02  0.14373097620E+02  0.23896009189E+02  0.51100000000E-03 0.  1.
         12    1    3    3    0    0 -0.17630237260E+02 -0.46332607098E+01  0.34664837019E+01  0.18555561966E+02  0.00000000000E+00 0. -1.
</event>
<event>
 7    1  0.6646868E-013  0.5930193E+02  0.7816164E-02  0.1266605E+00
        -11   -1    0    0    0    0  0.00000000000E+00  0.00000000000E+00  0.45593999997E+02  0.45594000000E+02  0.51100000000E-03 0.  1.
         11   -1    0    0    0    0 -0.00000000000E+00 -0.00000000000E+00 -0.45593999997E+02  0.45594000000E+02  0.51100000000E-03 0. -1.
    9900012    2    1    2    0    0  0.48309350636E+01  0.26874646217E+02 -0.16466226418E+02  0.59301934778E+02  0.49999983131E+02 0.  0.
        -12    1    1    2    0    0 -0.48309350636E+01 -0.26874646217E+02  0.16466226418E+02  0.31886065222E+02  0.00000000000E+00 0.  1.
         11    1    3    3    0    0 -0.55035719489E+01 -0.53408843122E+01 -0.80930074175E+01  0.11149489619E+02  0.51100000000E-03 0. -1.
        -11    1    3    3    0    0  0.17564927357E+02  0.26501337482E+02 -0.16539953439E+02  0.35838772599E+02  0.51100000000E-03 0.  1.
        -12    1    3    3    0    0 -0.72304203447E+01  0.57141930472E+01  0.81667344380E+01  0.12313672560E+02  0.00000000000E+00 0.  1.
</event>
<event>
 7    1  0.6293596E-013  0.5930181E+02  0.7816164E-02  0.1266605E+00
        -11   -1    0    0    0    0  0.00000000000E+00  0.00000000000E+00  0.45593999997E+02  0.45594000000E+02  0.51100000000E-03 0.  1.
         11   -1    0    0    0    0 -0.00000000000E+00 -0.00000000000E+00 -0.45593999997E+02  0.45594000000E+02  0.51100000000E-03 0. -1.
    9900012    2    1    2    0    0 -0.20991364642E+02 -0.18594345366E+02 -0.15177013405E+02  0.59301814825E+02  0.49999764365E+02 0.  0.
        -12    1    1    2    0    0  0.20991364642E+02  0.18594345366E+02  0.15177013405E+02  0.31886185175E+02  0.00000000000E+00 0.  1.
         11    1    3    3    0    0 -0.62279554767E+01 -0.18526495254E+02 -0.25890656873E+02  0.32439860810E+02  0.51100000000E-03 0. -1.
        -11    1    3    3    0    0 -0.18617033137E+02  0.32120164112E+01  0.56875224389E+01  0.19729644801E+02  0.51100000000E-03 0.  1.
        -12    1    3    3    0    0  0.38536239717E+01 -0.32798665230E+01  0.50261210289E+01  0.71323092138E+01  0.00000000000E+00 0.  1.
</event>
<event>
 7    1  0.6293596E-013  0.5930196E+02  0.7816164E-02  0.1266605E+00
        -11   -1    0    0    0    0  0.00000000000E+00  0.00000000000E+00  0.45593999997E+02  0.45594000000E+02  0.51100000000E-03 0.  1.
         11   -1    0    0    0    0 -0.00000000000E+00 -0.00000000000E+00 -0.45593999997E+02  0.45594000000E+02  0.51100000000E-03 0. -1.
    9900012    2    1    2    0    0 -0.59388918130E+01 -0.14426043720E+02 -0.27808966733E+02  0.59301955966E+02  0.50000021773E+02 0.  0.
        -12    1    1    2    0    0  0.59388918130E+01  0.14426043720E+02  0.27808966733E+02  0.31886044034E+02  0.00000000000E+00 0.  1.
         11    1    3    3    0    0  0.10386206054E+02 -0.19198297004E+02 -0.49476175503E+01  0.22381394142E+02  0.51100000000E-03 0. -1.
        -11    1    3    3    0    0 -0.15581684567E+02 -0.32358747142E+01 -0.39897177630E+01  0.16406633634E+02  0.51100000000E-03 0.  1.
         12    1    3    3    0    0 -0.74341329997E+00  0.80081279981E+01 -0.18871631420E+02  0.20513928190E+02  0.00000000000E+00 0. -1.
</event>
<event>
 7    1  0.6293596E-013  0.5930196E+02  0.7816164E-02  0.1266605E+00
        -11   -1    0    0    0    0  0.00000000000E+00  0.00000000000E+00  0.45593999997E+02  0.45594000000E+02  0.51100000000E-03 0.  1.
         11   -1    0    0    0    0 -0.00000000000E+00 -0.00000000000E+00 -0.45593999997E+02  0.45594000000E+02  0.51100000000E-03 0. -1.
    9900012    2    1    2    0    0 -0.15656861600E+02 -0.90413422466E+01 -0.26264740964E+02  0.59301955989E+02  0.50000021814E+02 0.  0.
        -12    1    1    2    0    0  0.15656861600E+02  0.90413422466E+01  0.26264740964E+02  0.31886044011E+02  0.00000000000E+00 0.  1.
         11    1    3    3    0    0 -0.19866321750E+02 -0.81474875405E+01 -0.51585974229E+01  0.22083102607E+02  0.51100000000E-03 0. -1.
        -11    1    3    3    0    0  0.15497132606E+02  0.43320897040E+01 -0.18483784392E+02  0.24506701245E+02  0.51100000000E-03 0.  1.
        -12    1    3    3    0    0 -0.11287672456E+02 -0.52259444101E+01 -0.26223591487E+01  0.12712152137E+02  0.00000000000E+00 0.  1.
</event>
<event>
 7    1  0.6293596E-013  0.5930195E+02  0.7816164E-02  0.1266605E+00
        -11   -1    0    0    0    0  0.00000000000E+00  0.00000000000E+00  0.45593999997E+02  0.45594000000E+02  0.51100000000E-03 0. -1.
         11   -1    0    0    0    0 -0.00000000000E+00 -0.00000000000E+00 -0.45593999997E+02  0.45594000000E+02  0.51100000000E-03 0.  1.
    9900012    2    1    2    0    0  0.22180943697E+02 -0.58398120180E+01  0.22150000395E+02  0.59301949990E+02  0.50000010874E+02 0.  0.
        -12    1    1    2    0    0 -0.22180943697E+02  0.58398120180E+01 -0.22150000395E+02  0.31886050010E+02  0.00000000000E+00 0.  1.
         11    1    3    3    0    0  0.33308743765E+02 -0.23933939742E+01  0.14351291194E+02  0.36347768915E+02  0.51100000000E-03 0. -1.
        -11    1    3    3    0    0 -0.68203677320E+01  0.91158554884E+00 -0.51726230595E+01  0.86083932176E+01  0.51100000000E-03 0.  1.
         12    1    3    3    0    0 -0.43074323354E+01 -0.43580035926E+01  0.12971332261E+02  0.14345787858E+02  0.00000000000E+00 0. -1.
</event>
<event>
 7    1  0.6293596E-013  0.5930193E+02  0.7816164E-02  0.1266605E+00
        -11   -1    0    0    0    0  0.00000000000E+00  0.00000000000E+00  0.45593999997E+02  0.45594000000E+02  0.51100000000E-03 0. -1.
         11   -1    0    0    0    0 -0.00000000000E+00 -0.00000000000E+00 -0.45593999997E+02  0.45594000000E+02  0.51100000000E-03 0.  1.
    9900012    2    1    2    0    0 -0.59052801904E+01  0.12441691849E+02  0.28758533144E+02  0.59301933156E+02  0.49999980173E+02 0.  0.
        -12    1    1    2    0    0  0.59052801904E+01 -0.12441691849E+02 -0.28758533144E+02  0.31886066844E+02  0.00000000000E+00 0.  1.
         11    1    3    3    0    0 -0.78087133786E+01  0.10063885261E+02  0.32556518947E+02  0.34959758543E+02  0.51100000000E-03 0. -1.
        -11    1    3    3    0    0  0.29995930703E+01  0.19778123978E+01 -0.13806255129E+02  0.14266113045E+02  0.51100000000E-03 0.  1.
        -12    1    3    3    0    0 -0.10961598821E+01  0.39999419040E+00  0.10008269325E+02  0.10076061568E+02  0.00000000000E+00 0.  1.
</event>
<event>
 7    1  0.6293596E-013  0.5930190E+02  0.7816164E-02  0.1266605E+00
        -11   -1    0    0    0    0  0.00000000000E+00  0.00000000000E+00  0.45593999997E+02  0.45594000000E+02  0.51100000000E-03 0. -1.
         11   -1    0    0    0    0 -0.00000000000E+00 -0.00000000000E+00 -0.45593999997E+02  0.45594000000E+02  0.51100000000E-03 0.  1.
    9900012    2    1    2    0    0  0.51854156241E+00 -0.25027241420E+02  0.19750745455E+02  0.59301895747E+02  0.49999911947E+02 0.  0.
        -12    1    1    2    0    0 -0.51854156241E+00  0.25027241420E+02 -0.19750745455E+02  0.31886104253E+02  0.00000000000E+00 0.  1.
         11    1    3    3    0    0  0.79306331668E+00 -0.16132927156E+02 -0.59057027716E+01  0.17198186344E+02  0.51100000000E-03 0. -1.
        -11    1    3    3    0    0  0.13852858680E+02 -0.66572237362E+01  0.22833589257E+02  0.27524409532E+02  0.51100000000E-03 0.  1.
        -12    1    3    3    0    0 -0.14127380434E+02 -0.22370905272E+01  0.28228589696E+01  0.14579299871E+02  0.00000000000E+00 0.  1.
</event>
<event>
 7    1  0.6293596E-013  0.5930193E+02  0.7816164E-02  0.1266605E+00
        -11   -1    0    0    0    0  0.00000000000E+00  0.00000000000E+00  0.45593999997E+02  0.45594000000E+02  0.51100000000E-03 0.  1.
         11   -1    0    0    0    0 -0.00000000000E+00 -0.00000000000E+00 -0.45593999997E+02  0.45594000000E+02  0.51100000000E-03 0. -1.
    9900012    2    1    2    0    0  0.20868812708E+02  0.20930243580E+02 -0.11964069476E+02  0.59301930963E+02  0.49999976174E+02 0.  0.
        -12    1    1    2    0    0 -0.20868812708E+02 -0.20930243580E+02  0.11964069476E+02  0.31886069037E+02  0.00000000000E+00 0.  1.
         11    1    3    3    0    0  0.70298455930E+01 -0.68240621743E+01 -0.16466389787E+02  0.19160598803E+02  0.51100000000E-03 0. -1.
        -11    1    3    3    0    0  0.55599902900E+01  0.30320548196E+02  0.11484719499E+01  0.30847497841E+02  0.51100000000E-03 0.  1.
        -12    1    3    3    0    0  0.82789768249E+01 -0.25662424416E+01  0.33538483607E+01  0.92938343197E+01  0.00000000000E+00 0.  1.
</event>
<event>
 7    1  0.6293596E-013  0.5930199E+02  0.7816164E-02  0.1266605E+00
        -11   -1    0    0    0    0  0.00000000000E+00  0.00000000000E+00  0.45593999997E+02  0.45594000000E+02  0.51100000000E-03 0. -1.
         11   -1    0    0    0    0 -0.00000000000E+00 -0.00000000000E+00 -0.45593999997E+02  0.45594000000E+02  0.51100000000E-03 0.  1.
    9900012    2    1    2    0    0 -0.14607772120E+02  0.25614200294E+02  0.12134395002E+02  0.59301987313E+02  0.50000078941E+02 0.  0.
        -12    1    1    2    0    0  0.14607772120E+02 -0.25614200294E+02 -0.12134395002E+02  0.31886012687E+02  0.00000000000E+00 0.  1.
         11    1    3    3    0    0  0.13329170037E+02  0.82839736719E+01  0.95708348185E+01  0.18381835410E+02  0.51100000000E-03 0. -1.
        -11    1    3    3    0    0 -0.11980276409E+02  0.18838756769E+02  0.84134257541E+01  0.23858154007E+02  0.51100000000E-03 0.  1.
         12    1    3    3    0    0 -0.15956665748E+02 -0.15085301465E+01 -0.58498655707E+01  0.17061997896E+02  0.00000000000E+00 0. -1.
</event>
<event>
 7    1  0.6293596E-013  0.5930192E+02  0.7816164E-02  0.1266605E+00
        -11   -1    0    0    0    0  0.00000000000E+00  0.00000000000E+00  0.45593999997E+02  0.45594000000E+02  0.51100000000E-03 0.  1.
         11   -1    0    0    0    0 -0.00000000000E+00 -0.00000000000E+00 -0.45593999997E+02  0.45594000000E+02  0.51100000000E-03 0. -1.
    9900012    2    1    2    0    0 -0.13008405047E+01  0.16704765362E+02 -0.27128965906E+02  0.59301918978E+02  0.49999954314E+02 0.  0.
        -12    1    1    2    0    0  0.13008405047E+01 -0.16704765362E+02  0.27128965906E+02  0.31886081022E+02  0.00000000000E+00 0.  1.
         11    1    3    3    0    0 -0.94473999171E+01 -0.44697804695E+01 -0.82956521977E+01  0.13343543318E+02  0.51100000000E-03 0. -1.
        -11    1    3    3    0    0  0.46654649171E+01  0.24297806999E+02 -0.26953637517E+02  0.36587546563E+02  0.51100000000E-03 0.  1.
        -12    1    3    3    0    0  0.34810944953E+01 -0.31232611678E+01  0.81203238078E+01  0.93708290962E+01  0.00000000000E+00 0.  1.
</event>
<event>
 7    1  0.6293596E-013  0.5930191E+02  0.7816164E-02  0.1266605E+00
        -11   -1    0    0    0    0  0.00000000000E+00  0.00000000000E+00  0.45593999997E+02  0.45594000000E+02  0.51100000000E-03 0. -1.
         11   -1    0    0    0    0 -0.00000000000E+00 -0.00000000000E+00 -0.45593999997E+02  0.45594000000E+02  0.51100000000E-03 0.  1.
    9900012    2    1    2    0    0 -0.18785720148E+02 -0.14791525274E+02  0.21095736674E+02  0.59301912011E+02  0.49999941609E+02 0.  0.
        -12    1    1    2    0    0  0.18785720148E+02  0.14791525274E+02 -0.21095736674E+02  0.31886087989E+02  0.00000000000E+00 0.  1.
         11    1    3    3    0    0  0.62770694644E+01 -0.22052629835E+02  0.31782473010E+01  0.23147815012E+02  0.51100000000E-03 0. -1.
        -11    1    3    3    0    0 -0.95812611395E+01  0.33654715992E+01 -0.22813926908E+01  0.10408252350E+02  0.51100000000E-03 0.  1.
         12    1    3    3    0    0 -0.15481528473E+02  0.38956329618E+01  0.20198882064E+02  0.25745844649E+02  0.00000000000E+00 0. -1.
</event>
<event>
 7    1  0.6293596E-013  0.5930209E+02  0.7816164E-02  0.1266604E+00
        -11   -1    0    0    0    0  0.00000000000E+00  0.00000000000E+00  0.45593999997E+02  0.45594000000E+02  0.51100000000E-03 0.  1.
         11   -1    0    0    0    0 -0.00000000000E+00 -0.00000000000E+00 -0.45593999997E+02  0.45594000000E+02  0.51100000000E-03 0. -1.
    9900012    2    1    2    0    0 -0.29228511769E+02 -0.36769533115E+00 -0.12738522749E+02  0.59302093052E+02  0.50000271783E+02 0.  0.
        -12    1    1    2    0    0  0.29228511769E+02  0.36769533115E+00  0.12738522749E+02  0.31885906948E+02  0.00000000000E+00 0.  1.
         11    1    3    3    0    0 -0.52457354940E+01 -0.60779252778E+01 -0.43779773001E+01  0.91447034975E+01  0.51100000000E-03 0. -1.
        -11    1    3    3    0    0 -0.22910978026E+02  0.16415617743E+01  0.14334547446E+02  0.27075577370E+02  0.51100000000E-03 0.  1.
        -12    1    3    3    0    0 -0.10717982494E+01  0.40686681724E+01 -0.22695092896E+02  0.23081812184E+02  0.00000000000E+00 0.  1.
</event>
<event>
 7    1  0.6293596E-013  0.5930195E+02  0.7816164E-02  0.1266605E+00
        -11   -1    0    0    0    0  0.00000000000E+00  0.00000000000E+00  0.45593999997E+02  0.45594000000E+02  0.51100000000E-03 0. -1.
         11   -1    0    0    0    0 -0.00000000000E+00 -0.00000000000E+00 -0.45593999997E+02  0.45594000000E+02  0.51100000000E-03 0.  1.
    9900012    2    1    2    0    0 -0.17516286141E+01  0.30269238201E+02  0.98704248213E+01  0.59301948657E+02  0.50000008443E+02 0.  0.
        -12    1    1    2    0    0  0.17516286141E+01 -0.30269238201E+02 -0.98704248213E+01  0.31886051343E+02  0.00000000000E+00 0.  1.
         11    1    3    3    0    0  0.15017323189E+02 -0.32598281090E+01  0.84968494186E+01  0.17559696050E+02  0.51100000000E-03 0.  1.
        -11    1    3    3    0    0 -0.68409154126E+01  0.22642185598E+02 -0.71630998852E+01  0.24713896750E+02  0.51100000000E-03 0. -1.
         12    1    3    3    0    0 -0.99280363909E+01  0.10886880712E+02  0.85366752879E+01  0.17028355857E+02  0.00000000000E+00 0. -1.
</event>
<event>
 7    1  0.6293596E-013  0.5930194E+02  0.7816164E-02  0.1266605E+00
        -11   -1    0    0    0    0  0.00000000000E+00  0.00000000000E+00  0.45593999997E+02  0.45594000000E+02  0.51100000000E-03 0. -1.
         11   -1    0    0    0    0 -0.00000000000E+00 -0.00000000000E+00 -0.45593999997E+02  0.45594000000E+02  0.51100000000E-03 0.  1.
    9900012    2    1    2    0    0  0.26086231071E+02  0.90258900416E+01 -0.15961290850E+02  0.59301938027E+02  0.49999989057E+02 0.  0.
        -12    1    1    2    0    0 -0.26086231071E+02 -0.90258900416E+01  0.15961290850E+02  0.31886061973E+02  0.00000000000E+00 0.  1.
         11    1    3    3    0    0  0.12796843017E+02  0.17337399768E+02 -0.21333747824E+02  0.30322820093E+02  0.51100000000E-03 0. -1.
        -11    1    3    3    0    0 -0.53395387280E+01 -0.82682446475E+01  0.15916868817E+01  0.99703566019E+01  0.51100000000E-03 0.  1.
         12    1    3    3    0    0  0.18628926781E+02 -0.43265078828E-01  0.37807700923E+01  0.19008761332E+02  0.00000000000E+00 0. -1.
</event>
<event>
 7    1  0.6293596E-013  0.5930194E+02  0.7816164E-02  0.1266605E+00
        -11   -1    0    0    0    0  0.00000000000E+00  0.00000000000E+00  0.45593999997E+02  0.45594000000E+02  0.51100000000E-03 0. -1.
         11   -1    0    0    0    0 -0.00000000000E+00 -0.00000000000E+00 -0.45593999997E+02  0.45594000000E+02  0.51100000000E-03 0.  1.
    9900012    2    1    2    0    0  0.50024880153E+01  0.30986425944E+02  0.56158343544E+01  0.59301936044E+02  0.49999985440E+02 0.  0.
        -12    1    1    2    0    0 -0.50024880153E+01 -0.30986425944E+02 -0.56158343544E+01  0.31886063956E+02  0.00000000000E+00 0.  1.
         11    1    3    3    0    0  0.58167415178E+00  0.19392058875E+02 -0.22228177703E+01  0.19527703688E+02  0.51100000000E-03 0. -1.
        -11    1    3    3    0    0  0.18596781728E+02  0.15146651417E+00 -0.25987692567E+01  0.18778094542E+02  0.51100000000E-03 0.  1.
        -12    1    3    3    0    0 -0.14175967864E+02  0.11442900555E+02  0.10437421381E+02  0.20996137814E+02  0.00000000000E+00 0.  1.
</event>
<event>
 7    1  0.6293596E-013  0.5930184E+02  0.7816164E-02  0.1266605E+00
        -11   -1    0    0    0    0  0.00000000000E+00  0.00000000000E+00  0.45593999997E+02  0.45594000000E+02  0.51100000000E-03 0. -1.
         11   -1    0    0    0    0 -0.00000000000E+00 -0.00000000000E+00 -0.45593999997E+02  0.45594000000E+02  0.51100000000E-03 0.  1.
    9900012    2    1    2    0    0 -0.95468851526E+01  0.41517370509E+01  0.30138799807E+02  0.59301840143E+02  0.49999810538E+02 0.  0.
        -12    1    1    2    0    0  0.95468851526E+01 -0.41517370509E+01 -0.30138799807E+02  0.31886159857E+02  0.00000000000E+00 0.  1.
         11    1    3    3    0    0 -0.21272881076E+02  0.90983998406E+01  0.19421662214E+02  0.30207901489E+02  0.51100000000E-03 0. -1.
        -11    1    3    3    0    0  0.18068873031E+02 -0.10422002679E+01  0.11743916848E+02  0.21575215809E+02  0.51100000000E-03 0.  1.
         12    1    3    3    0    0 -0.63428771074E+01 -0.39044625218E+01 -0.10267792551E+01  0.75187228452E+01  0.00000000000E+00 0. -1.
</event>
<event>
 7    1  0.6293596E-013  0.5930195E+02  0.7816164E-02  0.1266605E+00
        -11   -1    0    0    0    0  0.00000000000E+00  0.00000000000E+00  0.45593999997E+02  0.45594000000E+02  0.51100000000E-03 0. -1.
         11   -1    0    0    0    0 -0.00000000000E+00 -0.00000000000E+00 -0.45593999997E+02  0.45594000000E+02  0.51100000000E-03 0.  1.
    9900012    2    1    2    0    0 -0.19503431603E+02  0.92971826637E+01  0.23449925837E+02  0.59301945500E+02  0.50000002686E+02 0.  0.
        -12    1    1    2    0    0  0.19503431603E+02 -0.92971826637E+01 -0.23449925837E+02  0.31886054500E+02  0.00000000000E+00 0.  1.
         11    1    3    3    0    0  0.46290700597E+01  0.70515209495E+01  0.28126414090E+02  0.29364049570E+02  0.51100000000E-03 0. -1.
        -11    1    3    3    0    0 -0.24231872189E+01  0.32735501073E+01 -0.69812072174E+01  0.80824019373E+01  0.51100000000E-03 0.  1.
         12    1    3    3    0    0 -0.21709314444E+02 -0.10278883931E+01  0.23047189647E+01  0.21855493993E+02  0.00000000000E+00 0. -1.
</event>
<event>
 7    1  0.6293596E-013  0.5930195E+02  0.7816164E-02  0.1266605E+00
        -11   -1    0    0    0    0  0.00000000000E+00  0.00000000000E+00  0.45593999997E+02  0.45594000000E+02  0.51100000000E-03 0.  1.
         11   -1    0    0    0    0 -0.00000000000E+00 -0.00000000000E+00 -0.45593999997E+02  0.45594000000E+02  0.51100000000E-03 0. -1.
    9900012    2    1    2    0    0 -0.50233371238E+01  0.21559842471E+02 -0.22949062033E+02  0.59301950207E+02  0.50000011269E+02 0.  0.
        -12    1    1    2    0    0  0.50233371238E+01 -0.21559842471E+02  0.22949062033E+02  0.31886049793E+02  0.00000000000E+00 0.  1.
         11    1    3    3    0    0  0.79289662739E+01 -0.85098633219E+01 -0.17894330249E+02  0.21342289832E+02  0.51100000000E-03 0. -1.
        -11    1    3    3    0    0 -0.54788975167E+01  0.12287691319E+02  0.70483002709E+01  0.15188291969E+02  0.51100000000E-03 0.  1.
         12    1    3    3    0    0 -0.74734058810E+01  0.17782014473E+02 -0.12103032054E+02  0.22771368406E+02  0.00000000000E+00 0. -1.
</event>
<event>
 7    1  0.6293596E-013  0.5930194E+02  0.7816164E-02  0.1266605E+00
        -11   -1    0    0    0    0  0.00000000000E+00  0.00000000000E+00  0.45593999997E+02  0.45594000000E+02  0.51100000000E-03 0. -1.
         11   -1    0    0    0    0 -0.00000000000E+00 -0.00000000000E+00 -0.45593999997E+02  0.45594000000E+02  0.51100000000E-03 0.  1.
    9900012    2    1    2    0    0  0.30230521483E+02  0.95692297549E+01  0.33564850853E+01  0.59301943809E+02  0.49999999602E+02 0.  0.
        -12    1    1    2    0    0 -0.30230521483E+02 -0.95692297549E+01 -0.33564850853E+01  0.31886056191E+02  0.00000000000E+00 0.  1.
         11    1    3    3    0    0  0.20228591690E+02  0.13379995934E+02 -0.72014078763E+01  0.25299812027E+02  0.51100000000E-03 0. -1.
        -11    1    3    3    0    0 -0.10399228066E+02  0.29614450491E+01  0.39889365364E+01  0.11525003953E+02  0.51100000000E-03 0.  1.
        -12    1    3    3    0    0  0.20401157860E+02 -0.67722112284E+01  0.65689564252E+01  0.22477127830E+02  0.00000000000E+00 0.  1.
</event>
<event>
 7    1  0.6293596E-013  0.5930190E+02  0.7816164E-02  0.1266605E+00
        -11   -1    0    0    0    0  0.00000000000E+00  0.00000000000E+00  0.45593999997E+02  0.45594000000E+02  0.51100000000E-03 0.  1.
         11   -1    0    0    0    0 -0.00000000000E+00 -0.00000000000E+00 -0.45593999997E+02  0.45594000000E+02  0.51100000000E-03 0. -1.
    9900012    2    1    2    0    0  0.10393526388E+02  0.80171660296E+01 -0.29058959651E+02  0.59301898358E+02  0.49999916709E+02 0.  0.
        -12    1    1    2    0    0 -0.10393526388E+02 -0.80171660296E+01  0.29058959651E+02  0.31886101642E+02  0.00000000000E+00 0.  1.
         11    1    3    3    0    0 -0.50231054530E+01  0.11533367300E+02 -0.24283354599E+02  0.27348335608E+02  0.51100000000E-03 0. -1.
        -11    1    3    3    0    0  0.18233739106E+02  0.57972530936E+01  0.31667019781E+01  0.19393436697E+02  0.51100000000E-03 0.  1.
         12    1    3    3    0    0 -0.28171072654E+01 -0.93134543637E+01 -0.79423070301E+01  0.12560126054E+02  0.00000000000E+00 0. -1.
</event>
<event>
 7    1  0.6293596E-013  0.5930191E+02  0.7816164E-02  0.1266605E+00
        -11   -1    0    0    0    0  0.00000000000E+00  0.00000000000E+00  0.45593999997E+02  0.45594000000E+02  0.51100000000E-03 0. -1.
         11   -1    0    0    0    0 -0.00000000000E+00 -0.00000000000E+00 -0.45593999997E+02  0.45594000000E+02  0.51100000000E-03 0.  1.
    9900012    2    1    2    0    0  0.19512387382E+01 -0.31825873303E+02  0.16998388801E+00  0.59301914655E+02  0.49999946432E+02 0.  0.
        -12    1    1    2    0    0 -0.19512387382E+01  0.31825873303E+02 -0.16998388801E+00  0.31886085345E+02  0.00000000000E+00 0.  1.
         11    1    3    3    0    0 -0.28842918754E+01 -0.46014472764E+01  0.16496744252E+02  0.17367643129E+02  0.51100000000E-03 0. -1.
        -11    1    3    3    0    0  0.38574292543E+00 -0.10343901222E+01 -0.15309692735E+02  0.15349444694E+02  0.51100000000E-03 0.  1.
         12    1    3    3    0    0  0.44497876882E+01 -0.26190035904E+02 -0.10170676296E+01  0.26584826832E+02  0.00000000000E+00 0. -1.
</event>
<event>
 7    1  0.6293596E-013  0.5930195E+02  0.7816164E-02  0.1266605E+00
        -11   -1    0    0    0    0  0.00000000000E+00  0.00000000000E+00  0.45593999997E+02  0.45594000000E+02  0.51100000000E-03 0.  1.
         11   -1    0    0    0    0 -0.00000000000E+00 -0.00000000000E+00 -0.45593999997E+02  0.45594000000E+02  0.51100000000E-03 0. -1.
    9900012    2    1    2    0    0 -0.17791714373E+02  0.13384129504E+02 -0.22826309472E+02  0.59301946199E+02  0.50000003960E+02 0.  0.
        -12    1    1    2    0    0  0.17791714373E+02 -0.13384129504E+02  0.22826309472E+02  0.31886053801E+02  0.00000000000E+00 0.  1.
         11    1    3    3    0    0  0.24898321684E+01  0.45307588691E+01 -0.35191070423E+00  0.51817836274E+01  0.51100000000E-03 0. -1.
        -11    1    3    3    0    0  0.48704504243E+01 -0.11736611560E+02 -0.16894382086E+02  0.21139760750E+02  0.51100000000E-03 0.  1.
        -12    1    3    3    0    0 -0.25151996965E+02  0.20589982195E+02 -0.55800166813E+01  0.32980401821E+02  0.00000000000E+00 0.  1.
</event>
<event>
 7    1  0.6293596E-013  0.5930197E+02  0.7816164E-02  0.1266605E+00
        -11   -1    0    0    0    0  0.00000000000E+00  0.00000000000E+00  0.45593999997E+02  0.45594000000E+02  0.51100000000E-03 0.  1.
         11   -1    0    0    0    0 -0.00000000000E+00 -0.00000000000E+00 -0.45593999997E+02  0.45594000000E+02  0.51100000000E-03 0. -1.
    9900012    2    1    2    0    0  0.16672794154E+02 -0.17699743993E+01 -0.27122024121E+02  0.59301967530E+02  0.50000042862E+02 0.  0.
        -12    1    1    2    0    0 -0.16672794154E+02  0.17699743993E+01  0.27122024121E+02  0.31886032470E+02  0.00000000000E+00 0.  1.
         11    1    3    3    0    0  0.87923758473E+00 -0.17990218479E+02 -0.13642804255E+02  0.22595289949E+02  0.51100000000E-03 0. -1.
        -11    1    3    3    0    0  0.13308249846E+02  0.10670009008E+02  0.45711824677E+01  0.17659397374E+02  0.51100000000E-03 0.  1.
        -12    1    3    3    0    0  0.24853067228E+01  0.55502350719E+01 -0.18050402334E+02  0.19047280207E+02  0.00000000000E+00 0.  1.
</event>
<event>
 7    1  0.6293596E-013  0.5930190E+02  0.7816164E-02  0.1266605E+00
        -11   -1    0    0    0    0  0.00000000000E+00  0.00000000000E+00  0.45593999997E+02  0.45594000000E+02  0.51100000000E-03 0. -1.
         11   -1    0    0    0    0 -0.00000000000E+00 -0.00000000000E+00 -0.45593999997E+02  0.45594000000E+02  0.51100000000E-03 0.  1.
    9900012    2    1    2    0    0 -0.30220368557E+02  0.90556282827E+00  0.10130770239E+02  0.59301902318E+02  0.49999923931E+02 0.  0.
        -12    1    1    2    0    0  0.30220368557E+02 -0.90556282827E+00 -0.10130770239E+02  0.31886097682E+02  0.00000000000E+00 0.  1.
         11    1    3    3    0    0 -0.15988901858E+02 -0.78998749454E+01  0.12235671601E+02  0.21627867823E+02  0.51100000000E-03 0. -1.
        -11    1    3    3    0    0 -0.15781815331E+01  0.10708388512E+02 -0.15657971225E+02  0.19035028359E+02  0.51100000000E-03 0.  1.
        -12    1    3    3    0    0 -0.12653285166E+02 -0.19029507380E+01  0.13553069864E+02  0.18639006136E+02  0.00000000000E+00 0.  1.
</event>
<event>
 7    1  0.6293596E-013  0.5930195E+02  0.7816164E-02  0.1266605E+00
        -11   -1    0    0    0    0  0.00000000000E+00  0.00000000000E+00  0.45593999997E+02  0.45594000000E+02  0.51100000000E-03 0. -1.
         11   -1    0    0    0    0 -0.00000000000E+00 -0.00000000000E+00 -0.45593999997E+02  0.45594000000E+02  0.51100000000E-03 0.  1.
    9900012    2    1    2    0    0  0.22892760991E+02 -0.91791650838E+01  0.20208526619E+02  0.59301950926E+02  0.50000012580E+02 0.  0.
        -12    1    1    2    0    0 -0.22892760991E+02  0.91791650838E+01 -0.20208526619E+02  0.31886049074E+02  0.00000000000E+00 0.  1.
         11    1    3    3    0    0  0.24913131275E+02 -0.21552659454E+02  0.70555477113E+01  0.33689196981E+02  0.51100000000E-03 0. -1.
        -11    1    3    3    0    0 -0.51406864228E+01 -0.19933497038E+01  0.86117501991E+01  0.10225572927E+02  0.51100000000E-03 0.  1.
         12    1    3    3    0    0  0.31203161390E+01  0.14366844074E+02  0.45412287090E+01  0.15387181017E+02  0.00000000000E+00 0. -1.
</event>
<event>
 7    1  0.6293596E-013  0.5930194E+02  0.7816164E-02  0.1266605E+00
        -11   -1    0    0    0    0  0.00000000000E+00  0.00000000000E+00  0.45593999997E+02  0.45594000000E+02  0.51100000000E-03 0.  1.
         11   -1    0    0    0    0 -0.00000000000E+00 -0.00000000000E+00 -0.45593999997E+02  0.45594000000E+02  0.51100000000E-03 0. -1.
    9900012    2    1    2    0    0 -0.20753651722E+02  0.23815415743E+02  0.43396724282E+01  0.59301939666E+02  0.49999992046E+02 0.  0.
        -12    1    1    2    0    0  0.20753651722E+02 -0.23815415743E+02 -0.43396724282E+01  0.31886060334E+02  0.00000000000E+00 0.  1.
         11    1    3    3    0    0 -0.14810310354E+02  0.25466257721E+02 -0.69440157386E+01  0.30267060147E+02  0.51100000000E-03 0. -1.
        -11    1    3    3    0    0  0.94003079408E+01 -0.36976604960E+01  0.39483113966E+00  0.10109123326E+02  0.51100000000E-03 0.  1.
        -12    1    3    3    0    0 -0.15343649309E+02  0.20468185184E+01  0.10888857027E+02  0.18925756194E+02  0.00000000000E+00 0.  1.
</event>
<event>
 7    1  0.6293596E-013  0.5930195E+02  0.7816164E-02  0.1266605E+00
        -11   -1    0    0    0    0  0.00000000000E+00  0.00000000000E+00  0.45593999997E+02  0.45594000000E+02  0.51100000000E-03 0.  1.
         11   -1    0    0    0    0 -0.00000000000E+00 -0.00000000000E+00 -0.45593999997E+02  0.45594000000E+02  0.51100000000E-03 0. -1.
    9900012    2    1    2    0    0  0.13713777727E+02 -0.28742633143E+02  0.15854612994E+01  0.59301947452E+02  0.50000006245E+02 0.  0.
        -12    1    1    2    0    0 -0.13713777727E+02  0.28742633143E+02 -0.15854612994E+01  0.31886052548E+02  0.00000000000E+00 0.  1.
         11    1    3    3    0    0  0.10840655836E+02 -0.18846863420E+02 -0.11655098165E+02  0.24669118209E+02  0.51100000000E-03 0. -1.
        -11    1    3    3    0    0 -0.99028543269E+01 -0.32045054364E+01  0.16813707531E+02  0.19774633754E+02  0.51100000000E-03 0.  1.
        -12    1    3    3    0    0  0.12775976218E+02 -0.66912642871E+01 -0.35731480661E+01  0.14858195489E+02  0.00000000000E+00 0.  1.
</event>
<event>
 7    1  0.6293596E-013  0.5930196E+02  0.7816164E-02  0.1266605E+00
        -11   -1    0    0    0    0  0.00000000000E+00  0.00000000000E+00  0.45593999997E+02  0.45594000000E+02  0.51100000000E-03 0. -1.
         11   -1    0    0    0    0 -0.00000000000E+00 -0.00000000000E+00 -0.45593999997E+02  0.45594000000E+02  0.51100000000E-03 0.  1.
    9900012    2    1    2    0    0 -0.64621086061E+01 -0.31167978554E+02 -0.18755877747E+01  0.59301959727E+02  0.50000028632E+02 0.  0.
        -12    1    1    2    0    0  0.64621086061E+01  0.31167978554E+02  0.18755877747E+01  0.31886040273E+02  0.00000000000E+00 0.  1.
         11    1    3    3    0    0  0.85048707862E+01  0.12954577062E+01  0.73023474620E+00  0.86339029879E+01  0.51100000000E-03 0. -1.
        -11    1    3    3    0    0 -0.10595847063E+02 -0.11211663399E+01 -0.13501368969E+02  0.17199300952E+02  0.51100000000E-03 0.  1.
        -12    1    3    3    0    0 -0.43711323296E+01 -0.31342269920E+02  0.10895546448E+02  0.33468755788E+02  0.00000000000E+00 0.  1.
</event>
<event>
 7    1  0.6293596E-013  0.5930192E+02  0.7816164E-02  0.1266605E+00
        -11   -1    0    0    0    0  0.00000000000E+00  0.00000000000E+00  0.45593999997E+02  0.45594000000E+02  0.51100000000E-03 0.  1.
         11   -1    0    0    0    0 -0.00000000000E+00 -0.00000000000E+00 -0.45593999997E+02  0.45594000000E+02  0.51100000000E-03 0. -1.
    9900012    2    1    2    0    0 -0.22060003203E+02  0.19352939844E+02  0.12471643256E+02  0.59301922984E+02  0.49999961622E+02 0.  0.
        -12    1    1    2    0    0  0.22060003203E+02 -0.19352939844E+02 -0.12471643256E+02  0.31886077016E+02  0.00000000000E+00 0.  1.
         11    1    3    3    0    0  0.20251029280E+00  0.29790486592E+01 -0.15581764545E+01  0.33680343610E+01  0.51100000000E-03 0. -1.
        -11    1    3    3    0    0 -0.33853974199E+02  0.16337350478E+00  0.11931026122E+02  0.35895231502E+02  0.51100000000E-03 0.  1.
        -12    1    3    3    0    0  0.11591460703E+02  0.16210517680E+02  0.20987935883E+01  0.20038657121E+02  0.00000000000E+00 0.  1.
</event>
<event>
 7    1  0.6293596E-013  0.5930218E+02  0.7816164E-02  0.1266604E+00
        -11   -1    0    0    0    0  0.00000000000E+00  0.00000000000E+00  0.45593999997E+02  0.45594000000E+02  0.51100000000E-03 0.  1.
         11   -1    0    0    0    0 -0.00000000000E+00 -0.00000000000E+00 -0.45593999997E+02  0.45594000000E+02  0.51100000000E-03 0. -1.
    9900012    2    1    2    0    0  0.24436509422E+02 -0.20426458937E+02  0.15238376582E+01  0.59302183425E+02  0.50000436602E+02 0.  0.
        -12    1    1    2    0    0 -0.24436509422E+02  0.20426458937E+02 -0.15238376582E+01  0.31885816575E+02  0.00000000000E+00 0.  1.
         11    1    3    3    0    0  0.21831943179E+02 -0.10619477445E+02 -0.15389877296E+02  0.28744658071E+02  0.51100000000E-03 0. -1.
        -11    1    3    3    0    0 -0.20673360877E+01  0.60003439796E+01 -0.75810110450E+00  0.63916135614E+01  0.51100000000E-03 0.  1.
         12    1    3    3    0    0  0.46719023306E+01 -0.15807325471E+02  0.17671816059E+02  0.24165911792E+02  0.00000000000E+00 0. -1.
</event>
<event>
 7    1  0.6293596E-013  0.5930194E+02  0.7816164E-02  0.1266605E+00
        -11   -1    0    0    0    0  0.00000000000E+00  0.00000000000E+00  0.45593999997E+02  0.45594000000E+02  0.51100000000E-03 0.  1.
         11   -1    0    0    0    0 -0.00000000000E+00 -0.00000000000E+00 -0.45593999997E+02  0.45594000000E+02  0.51100000000E-03 0. -1.
    9900012    2    1    2    0    0  0.11383417954E+02  0.22708524568E+02 -0.19273340450E+02  0.59301938085E+02  0.49999989161E+02 0.  0.
        -12    1    1    2    0    0 -0.11383417954E+02 -0.22708524568E+02  0.19273340450E+02  0.31886061915E+02  0.00000000000E+00 0.  1.
         11    1    3    3    0    0 -0.90878343207E+01 -0.53051783122E+01 -0.54469774781E+01  0.11849186194E+02  0.51100000000E-03 0.  1.
        -11    1    3    3    0    0  0.24587595046E+02  0.94397074548E+01 -0.89015709562E+01  0.27801004887E+02  0.51100000000E-03 0. -1.
         12    1    3    3    0    0 -0.41163427715E+01  0.18573995425E+02 -0.49247920157E+01  0.19651747003E+02  0.00000000000E+00 0. -1.
</event>
<event>
 7    1  0.6293596E-013  0.5930195E+02  0.7816164E-02  0.1266605E+00
        -11   -1    0    0    0    0  0.00000000000E+00  0.00000000000E+00  0.45593999997E+02  0.45594000000E+02  0.51100000000E-03 0. -1.
         11   -1    0    0    0    0 -0.00000000000E+00 -0.00000000000E+00 -0.45593999997E+02  0.45594000000E+02  0.51100000000E-03 0.  1.
    9900012    2    1    2    0    0 -0.27174823229E+01  0.16955173687E+02  0.26867403459E+02  0.59301952996E+02  0.50000016355E+02 0.  0.
        -12    1    1    2    0    0  0.27174823229E+01 -0.16955173687E+02 -0.26867403459E+02  0.31886047004E+02  0.00000000000E+00 0.  1.
         11    1    3    3    0    0 -0.17673295776E+01  0.81822021589E+01  0.77463187150E+01  0.11405145326E+02  0.51100000000E-03 0. -1.
        -11    1    3    3    0    0  0.20324883744E+02 -0.98964569169E+00  0.68750046311E+01  0.21478966147E+02  0.51100000000E-03 0.  1.
        -12    1    3    3    0    0 -0.21275036489E+02  0.97626172203E+01  0.12246080113E+02  0.26417841523E+02  0.00000000000E+00 0.  1.
</event>
<event>
 7    1  0.6293596E-013  0.5930195E+02  0.7816164E-02  0.1266605E+00
        -11   -1    0    0    0    0  0.00000000000E+00  0.00000000000E+00  0.45593999997E+02  0.45594000000E+02  0.51100000000E-03 0. -1.
         11   -1    0    0    0    0 -0.00000000000E+00 -0.00000000000E+00 -0.45593999997E+02  0.45594000000E+02  0.51100000000E-03 0.  1.
    9900012    2    1    2    0    0  0.22725404943E+02 -0.17473484836E+02  0.13962584733E+02  0.59301945453E+02  0.50000002599E+02 0.  0.
        -12    1    1    2    0    0 -0.22725404943E+02  0.17473484836E+02 -0.13962584733E+02  0.31886054547E+02  0.00000000000E+00 0.  1.
         11    1    3    3    0    0 -0.31414894868E+01  0.65453978312E+01  0.12979173851E+02  0.14871790178E+02  0.51100000000E-03 0.  1.
        -11    1    3    3    0    0  0.10496111647E+02 -0.25322098478E+02  0.62778167949E+01  0.28120953309E+02  0.51100000000E-03 0. -1.
        -12    1    3    3    0    0  0.15370782783E+02  0.13032158115E+01 -0.52944059126E+01  0.16309201966E+02  0.00000000000E+00 0.  1.
</event>
<event>
 7    1  0.6293596E-013  0.5930201E+02  0.7816164E-02  0.1266605E+00
        -11   -1    0    0    0    0  0.00000000000E+00  0.00000000000E+00  0.45593999997E+02  0.45594000000E+02  0.51100000000E-03 0.  1.
         11   -1    0    0    0    0 -0.00000000000E+00 -0.00000000000E+00 -0.45593999997E+02  0.45594000000E+02  0.51100000000E-03 0. -1.
    9900012    2    1    2    0    0 -0.13428836192E+02 -0.27009763601E+02  0.10337101118E+02  0.59302005727E+02  0.50000112525E+02 0.  0.
        -12    1    1    2    0    0  0.13428836192E+02  0.27009763601E+02 -0.10337101118E+02  0.31885994273E+02  0.00000000000E+00 0.  1.
         11    1    3    3    0    0 -0.26352174315E+02 -0.21071655663E+02  0.35861043293E+01  0.33930987431E+02  0.51100000000E-03 0. -1.
        -11    1    3    3    0    0  0.12532830967E+02  0.42311870947E+01  0.12711842033E+00  0.13228414706E+02  0.51100000000E-03 0.  1.
        -12    1    3    3    0    0  0.39050715583E+00 -0.10169295032E+02  0.66238783688E+01  0.12142603590E+02  0.00000000000E+00 0.  1.
</event>
<event>
 7    1  0.6293596E-013  0.5930195E+02  0.7816164E-02  0.1266605E+00
        -11   -1    0    0    0    0  0.00000000000E+00  0.00000000000E+00  0.45593999997E+02  0.45594000000E+02  0.51100000000E-03 0. -1.
         11   -1    0    0    0    0 -0.00000000000E+00 -0.00000000000E+00 -0.45593999997E+02  0.45594000000E+02  0.51100000000E-03 0.  1.
    9900012    2    1    2    0    0 -0.22591344317E+02  0.20264902224E+02  0.97818881892E+01  0.59301946046E+02  0.50000003681E+02 0.  0.
        -12    1    1    2    0    0  0.22591344317E+02 -0.20264902224E+02 -0.97818881892E+01  0.31886053954E+02  0.00000000000E+00 0.  1.
         11    1    3    3    0    0  0.23442447747E-01  0.48043972602E+01  0.22504572267E+02  0.23011704756E+02  0.51100000000E-03 0. -1.
        -11    1    3    3    0    0  0.87660425938E+00 -0.39126808230E+00 -0.73916626569E+01  0.74537375078E+01  0.51100000000E-03 0.  1.
         12    1    3    3    0    0 -0.23491391024E+02  0.15851773046E+02 -0.53310214212E+01  0.28836503782E+02  0.00000000000E+00 0. -1.
</event>
<event>
 7    1  0.6293596E-013  0.5930194E+02  0.7816164E-02  0.1266605E+00
        -11   -1    0    0    0    0  0.00000000000E+00  0.00000000000E+00  0.45593999997E+02  0.45594000000E+02  0.51100000000E-03 0.  1.
         11   -1    0    0    0    0 -0.00000000000E+00 -0.00000000000E+00 -0.45593999997E+02  0.45594000000E+02  0.51100000000E-03 0. -1.
    9900012    2    1    2    0    0 -0.14079989886E+01  0.16977604562E+02 -0.26953653703E+02  0.59301937751E+02  0.49999988553E+02 0.  0.
        -12    1    1    2    0    0  0.14079989886E+01 -0.16977604562E+02  0.26953653703E+02  0.31886062249E+02  0.00000000000E+00 0.  1.
         11    1    3    3    0    0 -0.16208914236E+02  0.18541071942E+02  0.28228226319E+01  0.24788476704E+02  0.51100000000E-03 0. -1.
        -11    1    3    3    0    0  0.87400728508E+01 -0.53820734312E+01 -0.16652632654E+02  0.19561844556E+02  0.51100000000E-03 0.  1.
         12    1    3    3    0    0  0.60608423966E+01  0.38186060518E+01 -0.13123843681E+02  0.14951616491E+02  0.00000000000E+00 0. -1.
</event>
<event>
 7    1  0.6293596E-013  0.5930194E+02  0.7816164E-02  0.1266605E+00
        -11   -1    0    0    0    0  0.00000000000E+00  0.00000000000E+00  0.45593999997E+02  0.45594000000E+02  0.51100000000E-03 0.  1.
         11   -1    0    0    0    0 -0.00000000000E+00 -0.00000000000E+00 -0.45593999997E+02  0.45594000000E+02  0.51100000000E-03 0. -1.
    9900012    2    1    2    0    0 -0.18848290464E+02 -0.22712098873E+02 -0.12067459371E+02  0.59301936206E+02  0.49999985735E+02 0.  0.
        -12    1    1    2    0    0  0.18848290464E+02  0.22712098873E+02  0.12067459371E+02  0.31886063794E+02  0.00000000000E+00 0.  1.
         11    1    3    3    0    0  0.37175197495E+01 -0.23287965436E+02  0.30599130234E+01  0.23780503679E+02  0.51100000000E-03 0. -1.
        -11    1    3    3    0    0 -0.24802124550E+02 -0.36138418870E+01 -0.17139145496E+02  0.30363720852E+02  0.51100000000E-03 0.  1.
         12    1    3    3    0    0  0.22363143368E+01  0.41897084506E+01  0.20117731015E+01  0.51577116754E+01  0.00000000000E+00 0. -1.
</event>
<event>
 7    1  0.6293596E-013  0.5930188E+02  0.7816164E-02  0.1266605E+00
        -11   -1    0    0    0    0  0.00000000000E+00  0.00000000000E+00  0.45593999997E+02  0.45594000000E+02  0.51100000000E-03 0. -1.
         11   -1    0    0    0    0 -0.00000000000E+00 -0.00000000000E+00 -0.45593999997E+02  0.45594000000E+02  0.51100000000E-03 0.  1.
    9900012    2    1    2    0    0  0.13932592099E+02 -0.25790133533E+02  0.12548964436E+02  0.59301880470E+02  0.49999884086E+02 0.  0.
        -12    1    1    2    0    0 -0.13932592099E+02  0.25790133533E+02 -0.12548964436E+02  0.31886119530E+02  0.00000000000E+00 0.  1.
         11    1    3    3    0    0  0.19060983429E+02 -0.14857977573E+01 -0.83417929029E+01  0.20859391011E+02  0.51100000000E-03 0. -1.
        -11    1    3    3    0    0 -0.99438178371E+01 -0.94074444759E+01  0.17849314449E+02  0.22493944770E+02  0.51100000000E-03 0.  1.
        -12    1    3    3    0    0  0.48154265072E+01 -0.14896891300E+02  0.30414428894E+01  0.15948544689E+02  0.00000000000E+00 0.  1.
</event>
<event>
 7    1  0.6293596E-013  0.5930195E+02  0.7816164E-02  0.1266605E+00
        -11   -1    0    0    0    0  0.00000000000E+00  0.00000000000E+00  0.45593999997E+02  0.45594000000E+02  0.51100000000E-03 0.  1.
         11   -1    0    0    0    0 -0.00000000000E+00 -0.00000000000E+00 -0.45593999997E+02  0.45594000000E+02  0.51100000000E-03 0. -1.
    9900012    2    1    2    0    0 -0.34900841948E+01  0.29737482675E+02 -0.10964573825E+02  0.59301945953E+02  0.50000003511E+02 0.  0.
        -12    1    1    2    0    0  0.34900841948E+01 -0.29737482675E+02  0.10964573825E+02  0.31886054047E+02  0.00000000000E+00 0.  1.
         11    1    3    3    0    0 -0.13460735400E+02  0.35210775619E+02 -0.61860977239E+01  0.38200234588E+02  0.51100000000E-03 0. -1.
        -11    1    3    3    0    0 -0.41006557627E+01 -0.37729672907E+01  0.12310468390E+01  0.57066747272E+01  0.51100000000E-03 0.  1.
         12    1    3    3    0    0  0.14071306968E+02 -0.17003256534E+01 -0.60095229400E+01  0.15395036638E+02  0.00000000000E+00 0. -1.
</event>
<event>
 7    1  0.6293596E-013  0.5930196E+02  0.7816164E-02  0.1266605E+00
        -11   -1    0    0    0    0  0.00000000000E+00  0.00000000000E+00  0.45593999997E+02  0.45594000000E+02  0.51100000000E-03 0.  1.
         11   -1    0    0    0    0 -0.00000000000E+00 -0.00000000000E+00 -0.45593999997E+02  0.45594000000E+02  0.51100000000E-03 0. -1.
    9900012    2    1    2    0    0  0.25363669473E+02  0.16574931855E+02 -0.99335601202E+01  0.59301957414E+02  0.50000024413E+02 0.  0.
        -12    1    1    2    0    0 -0.25363669473E+02 -0.16574931855E+02  0.99335601202E+01  0.31886042586E+02  0.00000000000E+00 0.  1.
         11    1    3    3    0    0  0.59238064111E+01  0.42459963867E+01 -0.14688138215E+02  0.16396992779E+02  0.51100000000E-03 0. -1.
        -11    1    3    3    0    0  0.17610922918E+02 -0.78628592726E+01  0.10328850185E+02  0.21878169676E+02  0.51100000000E-03 0.  1.
        -12    1    3    3    0    0  0.18289401440E+01  0.20191794741E+02 -0.55742720906E+01  0.21026794959E+02  0.00000000000E+00 0.  1.
</event>
<event>
 7    1  0.6293596E-013  0.5930195E+02  0.7816164E-02  0.1266605E+00
        -11   -1    0    0    0    0  0.00000000000E+00  0.00000000000E+00  0.45593999997E+02  0.45594000000E+02  0.51100000000E-03 0. -1.
         11   -1    0    0    0    0 -0.00000000000E+00 -0.00000000000E+00 -0.45593999997E+02  0.45594000000E+02  0.51100000000E-03 0.  1.
    9900012    2    1    2    0    0 -0.76024101266E+01 -0.19854556246E+02  0.23763835614E+02  0.59301954046E+02  0.50000018271E+02 0.  0.
        -12    1    1    2    0    0  0.76024101266E+01  0.19854556246E+02 -0.23763835614E+02  0.31886045954E+02  0.00000000000E+00 0.  1.
         11    1    3    3    0    0  0.61976087304E+01 -0.53533049237E+01  0.32515356655E+02  0.33530831279E+02  0.51100000000E-03 0. -1.
        -11    1    3    3    0    0 -0.51718116276E+01 -0.14711652478E+02 -0.52028905656E+01  0.16439295138E+02  0.51100000000E-03 0.  1.
         12    1    3    3    0    0 -0.86282072294E+01  0.21040115529E+00 -0.35486304755E+01  0.93318276287E+01  0.00000000000E+00 0. -1.
</event>
<event>
 7    1  0.6293596E-013  0.5930198E+02  0.7816164E-02  0.1266605E+00
        -11   -1    0    0    0    0  0.00000000000E+00  0.00000000000E+00  0.45593999997E+02  0.45594000000E+02  0.51100000000E-03 0. -1.
         11   -1    0    0    0    0 -0.00000000000E+00 -0.00000000000E+00 -0.45593999997E+02  0.45594000000E+02  0.51100000000E-03 0.  1.
    9900012    2    1    2    0    0 -0.18700872415E+02 -0.25820836688E+02  0.52909559455E+00  0.59301981457E+02  0.50000068262E+02 0.  0.
        -12    1    1    2    0    0  0.18700872415E+02  0.25820836688E+02 -0.52909559455E+00  0.31886018543E+02  0.00000000000E+00 0.  1.
         11    1    3    3    0    0 -0.18315725546E+02 -0.35225292196E+02 -0.97936465464E+01  0.40892572987E+02  0.51100000000E-03 0. -1.
        -11    1    3    3    0    0 -0.70511103864E-02  0.35297534111E+01 -0.24828330055E+01  0.43155149004E+01  0.51100000000E-03 0.  1.
         12    1    3    3    0    0 -0.37809575897E+00  0.58747020967E+01  0.12805575146E+02  0.14093893570E+02  0.00000000000E+00 0. -1.
</event>
<event>
 7    1  0.6293596E-013  0.5930198E+02  0.7816164E-02  0.1266605E+00
        -11   -1    0    0    0    0  0.00000000000E+00  0.00000000000E+00  0.45593999997E+02  0.45594000000E+02  0.51100000000E-03 0. -1.
         11   -1    0    0    0    0 -0.00000000000E+00 -0.00000000000E+00 -0.45593999997E+02  0.45594000000E+02  0.51100000000E-03 0.  1.
    9900012    2    1    2    0    0 -0.26562106158E+02  0.19667803216E+01 -0.17530100303E+02  0.59301982296E+02  0.50000069792E+02 0.  0.
        -12    1    1    2    0    0  0.26562106158E+02 -0.19667803216E+01  0.17530100303E+02  0.31886017704E+02  0.00000000000E+00 0.  1.
         11    1    3    3    0    0 -0.15255253238E+02 -0.10837682163E+02 -0.27449912893E+01  0.18913304404E+02  0.51100000000E-03 0. -1.
        -11    1    3    3    0    0  0.90441701879E+01  0.81947858120E+01  0.34438257117E+01  0.12681146032E+02  0.51100000000E-03 0.  1.
        -12    1    3    3    0    0 -0.20351023107E+02  0.46096766729E+01 -0.18228934726E+02  0.27707531860E+02  0.00000000000E+00 0.  1.
</event>
<event>
 7    1  0.6293596E-013  0.5930196E+02  0.7816164E-02  0.1266605E+00
        -11   -1    0    0    0    0  0.00000000000E+00  0.00000000000E+00  0.45593999997E+02  0.45594000000E+02  0.51100000000E-03 0. -1.
         11   -1    0    0    0    0 -0.00000000000E+00 -0.00000000000E+00 -0.45593999997E+02  0.45594000000E+02  0.51100000000E-03 0.  1.
    9900012    2    1    2    0    0  0.28437118842E+02  0.16447360595E+01 -0.14329855854E+02  0.59301958327E+02  0.50000026079E+02 0.  0.
        -12    1    1    2    0    0 -0.28437118842E+02 -0.16447360595E+01  0.14329855854E+02  0.31886041673E+02  0.00000000000E+00 0.  1.
         11    1    3    3    0    0  0.70219862353E+01  0.45790254323E+01 -0.13891189524E+02  0.16224700652E+02  0.51100000000E-03 0. -1.
        -11    1    3    3    0    0  0.14157671699E+02 -0.19395605644E+02 -0.49770931524E+01  0.24523471262E+02  0.51100000000E-03 0.  1.
        -12    1    3    3    0    0  0.72574609081E+01  0.16461316271E+02  0.45384268224E+01  0.18553786413E+02  0.00000000000E+00 0.  1.
</event>
<event>
 7    1  0.6293596E-013  0.5930194E+02  0.7816164E-02  0.1266605E+00
        -11   -1    0    0    0    0  0.00000000000E+00  0.00000000000E+00  0.45593999997E+02  0.45594000000E+02  0.51100000000E-03 0.  1.
         11   -1    0    0    0    0 -0.00000000000E+00 -0.00000000000E+00 -0.45593999997E+02  0.45594000000E+02  0.51100000000E-03 0. -1.
    9900012    2    1    2    0    0 -0.23435763565E+02  0.20849763177E+02 -0.57247660496E+01  0.59301943726E+02  0.49999999450E+02 0.  0.
        -12    1    1    2    0    0  0.23435763565E+02 -0.20849763177E+02  0.57247660496E+01  0.31886056274E+02  0.00000000000E+00 0.  1.
         11    1    3    3    0    0 -0.10762143275E+02 -0.43168088115E+01 -0.21656291875E+02  0.24565291454E+02  0.51100000000E-03 0. -1.
        -11    1    3    3    0    0 -0.14571301944E+02  0.16717802308E+02  0.12159084547E+02  0.25291324434E+02  0.51100000000E-03 0.  1.
        -12    1    3    3    0    0  0.18976816547E+01  0.84487696802E+01  0.37724412783E+01  0.94453278382E+01  0.00000000000E+00 0.  1.
</event>
<event>
 7    1  0.6293596E-013  0.5930192E+02  0.7816164E-02  0.1266605E+00
        -11   -1    0    0    0    0  0.00000000000E+00  0.00000000000E+00  0.45593999997E+02  0.45594000000E+02  0.51100000000E-03 0. -1.
         11   -1    0    0    0    0 -0.00000000000E+00 -0.00000000000E+00 -0.45593999997E+02  0.45594000000E+02  0.51100000000E-03 0.  1.
    9900012    2    1    2    0    0 -0.61184475612E+01  0.92275060730E+00  0.31279952016E+02  0.59301917341E+02  0.49999951329E+02 0.  0.
        -12    1    1    2    0    0  0.61184475612E+01 -0.92275060730E+00 -0.31279952016E+02  0.31886082659E+02  0.00000000000E+00 0.  1.
         11    1    3    3    0    0 -0.57838698511E+01  0.19660217604E+02  0.54947516697E+01  0.21217200637E+02  0.51100000000E-03 0. -1.
        -11    1    3    3    0    0 -0.35868653145E+01 -0.22573576720E+02  0.19574270849E+02  0.30092923558E+02  0.51100000000E-03 0.  1.
         12    1    3    3    0    0  0.32522876043E+01  0.38361097233E+01  0.62109294972E+01  0.79917931460E+01  0.00000000000E+00 0. -1.
</event>
<event>
 7    1  0.6293596E-013  0.5930183E+02  0.7816164E-02  0.1266605E+00
        -11   -1    0    0    0    0  0.00000000000E+00  0.00000000000E+00  0.45593999997E+02  0.45594000000E+02  0.51100000000E-03 0. -1.
         11   -1    0    0    0    0 -0.00000000000E+00 -0.00000000000E+00 -0.45593999997E+02  0.45594000000E+02  0.51100000000E-03 0.  1.
    9900012    2    1    2    0    0  0.30580387762E+02  0.90264286819E+01  0.30245091026E+00  0.59301827338E+02  0.49999787186E+02 0.  0.
        -12    1    1    2    0    0 -0.30580387762E+02 -0.90264286819E+01 -0.30245091026E+00  0.31886172662E+02  0.00000000000E+00 0.  1.
         11    1    3    3    0    0  0.26566188577E+02 -0.32637092518E+01  0.14047187679E+02  0.30228093812E+02  0.51100000000E-03 0. -1.
        -11    1    3    3    0    0  0.20271278786E+01 -0.56799312953E+01 -0.81688015580E+01  0.10153826181E+02  0.51100000000E-03 0.  1.
         12    1    3    3    0    0  0.19870713070E+01  0.17970069229E+02 -0.55759352108E+01  0.18919907345E+02  0.00000000000E+00 0. -1.
</event>
<event>
 7    1  0.6293596E-013  0.5930194E+02  0.7816164E-02  0.1266605E+00
        -11   -1    0    0    0    0  0.00000000000E+00  0.00000000000E+00  0.45593999997E+02  0.45594000000E+02  0.51100000000E-03 0.  1.
         11   -1    0    0    0    0 -0.00000000000E+00 -0.00000000000E+00 -0.45593999997E+02  0.45594000000E+02  0.51100000000E-03 0. -1.
    9900012    2    1    2    0    0  0.24776652023E-02 -0.51776156766E+01 -0.31462880015E+02  0.59301944598E+02  0.50000001041E+02 0.  0.
        -12    1    1    2    0    0 -0.24776652023E-02  0.51776156766E+01  0.31462880015E+02  0.31886055402E+02  0.00000000000E+00 0.  1.
         11    1    3    3    0    0 -0.15822224727E+02  0.92583654740E+01 -0.16698415293E+02  0.24797120803E+02  0.51100000000E-03 0. -1.
        -11    1    3    3    0    0 -0.44298487320E+01 -0.91209191507E+01 -0.34987965143E+01  0.10726430126E+02  0.51100000000E-03 0.  1.
         12    1    3    3    0    0  0.20254551124E+02 -0.53150619998E+01 -0.11265668208E+02  0.23778393669E+02  0.00000000000E+00 0. -1.
</event>
<event>
 7    1  0.6293596E-013  0.5930195E+02  0.7816164E-02  0.1266605E+00
        -11   -1    0    0    0    0  0.00000000000E+00  0.00000000000E+00  0.45593999997E+02  0.45594000000E+02  0.51100000000E-03 0. -1.
         11   -1    0    0    0    0 -0.00000000000E+00 -0.00000000000E+00 -0.45593999997E+02  0.45594000000E+02  0.51100000000E-03 0.  1.
    9900012    2    1    2    0    0  0.92785072720E+01 -0.22792856879E+02  0.20275967280E+02  0.59301954917E+02  0.50000019859E+02 0.  0.
        -12    1    1    2    0    0 -0.92785072720E+01  0.22792856879E+02 -0.20275967280E+02  0.31886045083E+02  0.00000000000E+00 0.  1.
         11    1    3    3    0    0 -0.13180019498E+02 -0.88360762162E+01 -0.42343153167E+01  0.16423111256E+02  0.51100000000E-03 0. -1.
        -11    1    3    3    0    0  0.96251677679E+01  0.60578827236E+01  0.88268967261E+01  0.14396385092E+02  0.51100000000E-03 0.  1.
         12    1    3    3    0    0  0.12833359002E+02 -0.20014663386E+02  0.15683385871E+02  0.28482458568E+02  0.00000000000E+00 0. -1.
</event>
<event>
 7    1  0.6293596E-013  0.5930206E+02  0.7816164E-02  0.1266604E+00
        -11   -1    0    0    0    0  0.00000000000E+00  0.00000000000E+00  0.45593999997E+02  0.45594000000E+02  0.51100000000E-03 0.  1.
         11   -1    0    0    0    0 -0.00000000000E+00 -0.00000000000E+00 -0.45593999997E+02  0.45594000000E+02  0.51100000000E-03 0. -1.
    9900012    2    1    2    0    0 -0.90697482546E+01  0.18066790432E+02 -0.24658550289E+02  0.59302057137E+02  0.50000206284E+02 0.  0.
        -12    1    1    2    0    0  0.90697482546E+01 -0.18066790432E+02  0.24658550289E+02  0.31885942863E+02  0.00000000000E+00 0.  1.
         11    1    3    3    0    0 -0.82905196428E+01  0.94822460225E+01 -0.24097806813E+02  0.27190991138E+02  0.51100000000E-03 0. -1.
        -11    1    3    3    0    0  0.44102830640E+00 -0.11738367336E+02 -0.19484155980E+00  0.11748265284E+02  0.51100000000E-03 0.  1.
        -12    1    3    3    0    0 -0.12202569183E+01  0.20322911746E+02 -0.36590191524E+00  0.20362800716E+02  0.00000000000E+00 0.  1.
</event>
<event>
 7    1  0.6293596E-013  0.5930196E+02  0.7816164E-02  0.1266605E+00
        -11   -1    0    0    0    0  0.00000000000E+00  0.00000000000E+00  0.45593999997E+02  0.45594000000E+02  0.51100000000E-03 0.  1.
         11   -1    0    0    0    0 -0.00000000000E+00 -0.00000000000E+00 -0.45593999997E+02  0.45594000000E+02  0.51100000000E-03 0. -1.
    9900012    2    1    2    0    0  0.30089540494E+02  0.37439811015E-01  0.10551672409E+02  0.59301958548E+02  0.50000026481E+02 0.  0.
        -12    1    1    2    0    0 -0.30089540494E+02 -0.37439811015E-01 -0.10551672409E+02  0.31886041452E+02  0.00000000000E+00 0.  1.
         11    1    3    3    0    0  0.10635721859E+02 -0.14159493075E+02  0.18594900851E+02  0.25678398734E+02  0.51100000000E-03 0.  1.
        -11    1    3    3    0    0  0.11566366391E+02  0.10077262460E+02 -0.15651583810E+02  0.21915841901E+02  0.51100000000E-03 0. -1.
         12    1    3    3    0    0  0.78874522441E+01  0.41196704261E+01  0.76083553686E+01  0.11707717913E+02  0.00000000000E+00 0. -1.
</event>
<event>
 7    1  0.6293596E-013  0.5930194E+02  0.7816164E-02  0.1266605E+00
        -11   -1    0    0    0    0  0.00000000000E+00  0.00000000000E+00  0.45593999997E+02  0.45594000000E+02  0.51100000000E-03 0. -1.
         11   -1    0    0    0    0 -0.00000000000E+00 -0.00000000000E+00 -0.45593999997E+02  0.45594000000E+02  0.51100000000E-03 0.  1.
    9900012    2    1    2    0    0  0.87180706319E+01 -0.22721350059E+02  0.20602340491E+02  0.59301938190E+02  0.49999989353E+02 0.  0.
        -12    1    1    2    0    0 -0.87180706319E+01  0.22721350059E+02 -0.20602340491E+02  0.31886061810E+02  0.00000000000E+00 0.  1.
         11    1    3    3    0    0  0.20711997703E+02  0.55887843225E+01  0.99484278219E+01  0.23647253021E+02  0.51100000000E-03 0.  1.
        -11    1    3    3    0    0 -0.17636469953E+01 -0.18792775923E+02  0.14669393834E+01  0.18932268460E+02  0.51100000000E-03 0. -1.
        -12    1    3    3    0    0 -0.10230280076E+02 -0.95173584581E+01  0.91869732855E+01  0.16722416709E+02  0.00000000000E+00 0.  1.
</event>
<event>
 7    1  0.6293596E-013  0.5930193E+02  0.7816164E-02  0.1266605E+00
        -11   -1    0    0    0    0  0.00000000000E+00  0.00000000000E+00  0.45593999997E+02  0.45594000000E+02  0.51100000000E-03 0. -1.
         11   -1    0    0    0    0 -0.00000000000E+00 -0.00000000000E+00 -0.45593999997E+02  0.45594000000E+02  0.51100000000E-03 0.  1.
    9900012    2    1    2    0    0 -0.27633610245E-02  0.28807528591E+02  0.13669221083E+02  0.59301932256E+02  0.49999978532E+02 0.  0.
        -12    1    1    2    0    0  0.27633610245E-02 -0.28807528591E+02 -0.13669221083E+02  0.31886067744E+02  0.00000000000E+00 0.  1.
         11    1    3    3    0    0 -0.13358425192E+02  0.24366095963E+02  0.73670520609E+01  0.28747654033E+02  0.51100000000E-03 0. -1.
        -11    1    3    3    0    0  0.13188270871E+02 -0.28076635357E+01  0.14370834737E+02  0.19706200912E+02  0.51100000000E-03 0.  1.
         12    1    3    3    0    0  0.16739095924E+00  0.72490961638E+01 -0.80686657150E+01  0.10848077311E+02  0.00000000000E+00 0. -1.
</event>
<event>
 7    1  0.6293596E-013  0.5930194E+02  0.7816164E-02  0.1266605E+00
        -11   -1    0    0    0    0  0.00000000000E+00  0.00000000000E+00  0.45593999997E+02  0.45594000000E+02  0.51100000000E-03 0.  1.
         11   -1    0    0    0    0 -0.00000000000E+00 -0.00000000000E+00 -0.45593999997E+02  0.45594000000E+02  0.51100000000E-03 0. -1.
    9900012    2    1    2    0    0  0.18277340662E+02  0.81825819957E+01 -0.24813402583E+02  0.59301940702E+02  0.49999993936E+02 0.  0.
        -12    1    1    2    0    0 -0.18277340662E+02 -0.81825819957E+01  0.24813402583E+02  0.31886059298E+02  0.00000000000E+00 0.  1.
         11    1    3    3    0    0  0.61966132979E+01 -0.64216170770E+00 -0.25029845001E+01  0.67138155837E+01  0.51100000000E-03 0. -1.
        -11    1    3    3    0    0 -0.53878210720E+01  0.10472879181E+02 -0.30888291804E+02  0.33057470942E+02  0.51100000000E-03 0.  1.
        -12    1    3    3    0    0  0.17468548436E+02 -0.16481354780E+01  0.85778737210E+01  0.19530654177E+02  0.00000000000E+00 0.  1.
</event>
<event>
 7    1  0.6293596E-013  0.5930194E+02  0.7816164E-02  0.1266605E+00
        -11   -1    0    0    0    0  0.00000000000E+00  0.00000000000E+00  0.45593999997E+02  0.45594000000E+02  0.51100000000E-03 0. -1.
         11   -1    0    0    0    0 -0.00000000000E+00 -0.00000000000E+00 -0.45593999997E+02  0.45594000000E+02  0.51100000000E-03 0.  1.
    9900012    2    1    2    0    0  0.16678096886E+02  0.31151881645E+01  0.26997362267E+02  0.59301939058E+02  0.49999990936E+02 0.  0.
        -12    1    1    2    0    0 -0.16678096886E+02 -0.31151881645E+01 -0.26997362267E+02  0.31886060942E+02  0.00000000000E+00 0.  1.
         11    1    3    3    0    0  0.10209715177E+02 -0.52157406898E+01  0.10270551189E+02  0.15392415565E+02  0.51100000000E-03 0. -1.
        -11    1    3    3    0    0 -0.30232913717E+01  0.89954033367E+01 -0.11039750842E+02  0.14557941847E+02  0.51100000000E-03 0.  1.
        -12    1    3    3    0    0  0.94916730811E+01 -0.66447448236E+00  0.27766561921E+02  0.29351581646E+02  0.00000000000E+00 0.  1.
</event>
<event>
 7    1  0.6293596E-013  0.5930194E+02  0.7816164E-02  0.1266605E+00
        -11   -1    0    0    0    0  0.00000000000E+00  0.00000000000E+00  0.45593999997E+02  0.45594000000E+02  0.51100000000E-03 0. -1.
         11   -1    0    0    0    0 -0.00000000000E+00 -0.00000000000E+00 -0.45593999997E+02  0.45594000000E+02  0.51100000000E-03 0.  1.
    9900012    2    1    2    0    0 -0.24325034690E+02  0.19405229784E+02 -0.69606333156E+01  0.59301942360E+02  0.49999996959E+02 0.  0.
        -12    1    1    2    0    0  0.24325034690E+02 -0.19405229784E+02  0.69606333156E+01  0.31886057640E+02  0.00000000000E+00 0.  1.
         11    1    3    3    0    0  0.18842616762E+01  0.39265498800E+01  0.13499103520E+02  0.14184288214E+02  0.51100000000E-03 0. -1.
        -11    1    3    3    0    0 -0.90241545083E+01  0.11619017306E+02 -0.23019765998E+02  0.27319343964E+02  0.51100000000E-03 0.  1.
        -12    1    3    3    0    0 -0.17185141858E+02  0.38596625978E+01  0.25600291622E+01  0.17798310183E+02  0.00000000000E+00 0.  1.
</event>
<event>
 7    1  0.6293596E-013  0.5930192E+02  0.7816164E-02  0.1266605E+00
        -11   -1    0    0    0    0  0.00000000000E+00  0.00000000000E+00  0.45593999997E+02  0.45594000000E+02  0.51100000000E-03 0.  1.
         11   -1    0    0    0    0 -0.00000000000E+00 -0.00000000000E+00 -0.45593999997E+02  0.45594000000E+02  0.51100000000E-03 0. -1.
    9900012    2    1    2    0    0 -0.10425864295E+02  0.25630989350E+02 -0.15845364283E+02  0.59301924189E+02  0.49999963819E+02 0.  0.
        -12    1    1    2    0    0  0.10425864295E+02 -0.25630989350E+02  0.15845364283E+02  0.31886075811E+02  0.00000000000E+00 0.  1.
         11    1    3    3    0    0 -0.18126700610E+02  0.22832738778E+02 -0.19850855405E+01  0.29220742632E+02  0.51100000000E-03 0. -1.
        -11    1    3    3    0    0  0.11431805080E+02  0.11637043975E+02 -0.12139585285E+02  0.20334121348E+02  0.51100000000E-03 0.  1.
        -12    1    3    3    0    0 -0.37309687648E+01 -0.88387934029E+01 -0.17206934578E+01  0.97470602091E+01  0.00000000000E+00 0.  1.
</event>
<event>
 7    1  0.6293596E-013  0.5930193E+02  0.7816164E-02  0.1266605E+00
        -11   -1    0    0    0    0  0.00000000000E+00  0.00000000000E+00  0.45593999997E+02  0.45594000000E+02  0.51100000000E-03 0.  1.
         11   -1    0    0    0    0 -0.00000000000E+00 -0.00000000000E+00 -0.45593999997E+02  0.45594000000E+02  0.51100000000E-03 0. -1.
    9900012    2    1    2    0    0  0.18740556736E+02  0.25674039010E+02  0.25212131722E+01  0.59301933109E+02  0.49999980088E+02 0.  0.
        -12    1    1    2    0    0 -0.18740556736E+02 -0.25674039010E+02 -0.25212131722E+01  0.31886066891E+02  0.00000000000E+00 0.  1.
         11    1    3    3    0    0 -0.11752025425E+00 -0.71438742420E+01 -0.12913268873E+02  0.14758091457E+02  0.51100000000E-03 0. -1.
        -11    1    3    3    0    0  0.10260340242E+02  0.12565016214E+02  0.15649908577E+02  0.22540493629E+02  0.51100000000E-03 0.  1.
         12    1    3    3    0    0  0.85977367488E+01  0.20252897038E+02 -0.21542653108E+00  0.22003348023E+02  0.00000000000E+00 0. -1.
</event>
<event>
 7    1  0.6293596E-013  0.5930194E+02  0.7816164E-02  0.1266605E+00
        -11   -1    0    0    0    0  0.00000000000E+00  0.00000000000E+00  0.45593999997E+02  0.45594000000E+02  0.51100000000E-03 0.  1.
         11   -1    0    0    0    0 -0.00000000000E+00 -0.00000000000E+00 -0.45593999997E+02  0.45594000000E+02  0.51100000000E-03 0. -1.
    9900012    2    1    2    0    0 -0.18647490947E+02  0.14136801769E+02  0.21659698815E+02  0.59301942927E+02  0.49999997993E+02 0.  0.
        -12    1    1    2    0    0  0.18647490947E+02 -0.14136801769E+02 -0.21659698815E+02  0.31886057073E+02  0.00000000000E+00 0.  1.
         11    1    3    3    0    0  0.79881647419E+01  0.99498265208E+01 -0.74405116365E+01  0.14770613982E+02  0.51100000000E-03 0. -1.
        -11    1    3    3    0    0 -0.18928684886E+02  0.93782355028E+01  0.28144062960E+02  0.35189980006E+02  0.51100000000E-03 0.  1.
         12    1    3    3    0    0 -0.77069708028E+01 -0.51912602542E+01  0.95614749181E+00  0.93413489394E+01  0.00000000000E+00 0. -1.
</event>
<event>
 7    1  0.6293596E-013  0.5930192E+02  0.7816164E-02  0.1266605E+00
        -11   -1    0    0    0    0  0.00000000000E+00  0.00000000000E+00  0.45593999997E+02  0.45594000000E+02  0.51100000000E-03 0.  1.
         11   -1    0    0    0    0 -0.00000000000E+00 -0.00000000000E+00 -0.45593999997E+02  0.45594000000E+02  0.51100000000E-03 0. -1.
    9900012    2    1    2    0    0  0.15187114014E+02 -0.28127283090E+01 -0.27895554344E+02  0.59301924280E+02  0.49999963986E+02 0.  0.
        -12    1    1    2    0    0 -0.15187114014E+02  0.28127283090E+01  0.27895554344E+02  0.31886075720E+02  0.00000000000E+00 0.  1.
         11    1    3    3    0    0  0.10194221320E+02 -0.37635603491E+01 -0.32621048235E+02  0.34383416395E+02  0.51100000000E-03 0. -1.
        -11    1    3    3    0    0  0.96686264589E+00  0.11412855724E+02 -0.23090527759E+01  0.11684169809E+02  0.51100000000E-03 0.  1.
         12    1    3    3    0    0  0.40260300480E+01 -0.10462023684E+02  0.70345466663E+01  0.13234338076E+02  0.00000000000E+00 0. -1.
</event>
<event>
 7    1  0.6293596E-013  0.5930193E+02  0.7816164E-02  0.1266605E+00
        -11   -1    0    0    0    0  0.00000000000E+00  0.00000000000E+00  0.45593999997E+02  0.45594000000E+02  0.51100000000E-03 0.  1.
         11   -1    0    0    0    0 -0.00000000000E+00 -0.00000000000E+00 -0.45593999997E+02  0.45594000000E+02  0.51100000000E-03 0. -1.
    9900012    2    1    2    0    0 -0.31756345353E+02 -0.20845950272E+01 -0.19774289202E+01  0.59301933580E+02  0.49999980946E+02 0.  0.
        -12    1    1    2    0    0  0.31756345353E+02  0.20845950272E+01  0.19774289202E+01  0.31886066420E+02  0.00000000000E+00 0.  1.
         11    1    3    3    0    0 -0.57978633006E+01  0.53933730617E-01 -0.74912432646E+01  0.94729537954E+01  0.51100000000E-03 0. -1.
        -11    1    3    3    0    0 -0.35972707156E+02  0.18644241686E+01  0.11088049995E+02  0.37688945203E+02  0.51100000000E-03 0.  1.
        -12    1    3    3    0    0  0.10014225103E+02 -0.40029529264E+01 -0.55742356503E+01  0.12140034581E+02  0.00000000000E+00 0.  1.
</event>
<event>
 7    1  0.6293596E-013  0.5930195E+02  0.7816164E-02  0.1266605E+00
        -11   -1    0    0    0    0  0.00000000000E+00  0.00000000000E+00  0.45593999997E+02  0.45594000000E+02  0.51100000000E-03 0. -1.
         11   -1    0    0    0    0 -0.00000000000E+00 -0.00000000000E+00 -0.45593999997E+02  0.45594000000E+02  0.51100000000E-03 0.  1.
    9900012    2    1    2    0    0 -0.29842987130E+02  0.90147939118E+01 -0.66970199185E+01  0.59301945589E+02  0.50000002847E+02 0.  0.
        -12    1    1    2    0    0  0.29842987130E+02 -0.90147939118E+01  0.66970199185E+01  0.31886054411E+02  0.00000000000E+00 0.  1.
         11    1    3    3    0    0 -0.25094155248E+02  0.13216805939E+02  0.32888101875E+01  0.28552002724E+02  0.51100000000E-03 0. -1.
        -11    1    3    3    0    0 -0.44097041512E+01 -0.27420156190E+01 -0.19980127513E+02  0.20643876479E+02  0.51100000000E-03 0.  1.
        -12    1    3    3    0    0 -0.33912773070E+00 -0.14599964085E+01  0.99942974075E+01  0.10106066386E+02  0.00000000000E+00 0.  1.
</event>
<event>
 7    1  0.6293596E-013  0.5930195E+02  0.7816164E-02  0.1266605E+00
        -11   -1    0    0    0    0  0.00000000000E+00  0.00000000000E+00  0.45593999997E+02  0.45594000000E+02  0.51100000000E-03 0.  1.
         11   -1    0    0    0    0 -0.00000000000E+00 -0.00000000000E+00 -0.45593999997E+02  0.45594000000E+02  0.51100000000E-03 0. -1.
    9900012    2    1    2    0    0  0.78984093229E+00 -0.98335668231E+01 -0.30321564145E+02  0.59301950741E+02  0.50000012244E+02 0.  0.
        -12    1    1    2    0    0 -0.78984093229E+00  0.98335668231E+01  0.30321564145E+02  0.31886049259E+02  0.00000000000E+00 0.  1.
         11    1    3    3    0    0  0.18056160005E+02 -0.15631751567E+02 -0.29928249944E+02  0.38289381245E+02  0.51100000000E-03 0. -1.
        -11    1    3    3    0    0 -0.11378976412E+02 -0.71262745393E+00  0.26803400143E+01  0.11712094813E+02  0.51100000000E-03 0.  1.
         12    1    3    3    0    0 -0.58873426608E+01  0.65108121981E+01 -0.30736542151E+01  0.93004746824E+01  0.00000000000E+00 0. -1.
</event>
<event>
 7    1  0.6293596E-013  0.5930196E+02  0.7816164E-02  0.1266605E+00
        -11   -1    0    0    0    0  0.00000000000E+00  0.00000000000E+00  0.45593999997E+02  0.45594000000E+02  0.51100000000E-03 0.  1.
         11   -1    0    0    0    0 -0.00000000000E+00 -0.00000000000E+00 -0.45593999997E+02  0.45594000000E+02  0.51100000000E-03 0. -1.
    9900012    2    1    2    0    0 -0.12218788459E+02 -0.29401029348E+02 -0.17320301001E+01  0.59301964712E+02  0.50000037722E+02 0.  0.
        -12    1    1    2    0    0  0.12218788459E+02  0.29401029348E+02  0.17320301001E+01  0.31886035288E+02  0.00000000000E+00 0.  1.
         11    1    3    3    0    0 -0.71539606405E+01  0.68128746186E+01 -0.66863404049E+01  0.11929021824E+02  0.51100000000E-03 0. -1.
        -11    1    3    3    0    0 -0.80971731516E+01 -0.30270368387E+02  0.15449495151E+02  0.34936318009E+02  0.51100000000E-03 0.  1.
         12    1    3    3    0    0  0.30323453328E+01 -0.59435355803E+01 -0.10495184846E+02  0.12436624879E+02  0.00000000000E+00 0. -1.
</event>
<event>
 7    1  0.6293596E-013  0.5930194E+02  0.7816164E-02  0.1266605E+00
        -11   -1    0    0    0    0  0.00000000000E+00  0.00000000000E+00  0.45593999997E+02  0.45594000000E+02  0.51100000000E-03 0.  1.
         11   -1    0    0    0    0 -0.00000000000E+00 -0.00000000000E+00 -0.45593999997E+02  0.45594000000E+02  0.51100000000E-03 0. -1.
    9900012    2    1    2    0    0 -0.26782374095E+02 -0.10587894831E+02 -0.13686551438E+02  0.59301940830E+02  0.49999994168E+02 0.  0.
        -12    1    1    2    0    0  0.26782374095E+02  0.10587894831E+02  0.13686551438E+02  0.31886059170E+02  0.00000000000E+00 0.  1.
         11    1    3    3    0    0 -0.22597220742E+01 -0.21317440442E+02 -0.38002133906E+01  0.21771110053E+02  0.51100000000E-03 0. -1.
        -11    1    3    3    0    0  0.38665190538E+01  0.60475036568E+01 -0.37990857397E+01  0.81212882470E+01  0.51100000000E-03 0.  1.
         12    1    3    3    0    0 -0.28389171075E+02  0.46820419547E+01 -0.60872523074E+01  0.29409542530E+02  0.00000000000E+00 0. -1.
</event>
<event>
 7    1  0.6293596E-013  0.5930195E+02  0.7816164E-02  0.1266605E+00
        -11   -1    0    0    0    0  0.00000000000E+00  0.00000000000E+00  0.45593999997E+02  0.45594000000E+02  0.51100000000E-03 0. -1.
         11   -1    0    0    0    0 -0.00000000000E+00 -0.00000000000E+00 -0.45593999997E+02  0.45594000000E+02  0.51100000000E-03 0.  1.
    9900012    2    1    2    0    0 -0.24851405727E+02 -0.16501183693E+02 -0.11262267031E+02  0.59301951506E+02  0.50000013639E+02 0.  0.
        -12    1    1    2    0    0  0.24851405727E+02  0.16501183693E+02  0.11262267031E+02  0.31886048494E+02  0.00000000000E+00 0.  1.
         11    1    3    3    0    0 -0.32127922194E+02 -0.13085448906E+02 -0.95676735323E+01  0.35985729597E+02  0.51100000000E-03 0. -1.
        -11    1    3    3    0    0  0.13261945046E+01 -0.77846624864E+01 -0.96461583073E+01  0.12466279808E+02  0.51100000000E-03 0.  1.
         12    1    3    3    0    0  0.59503219626E+01  0.43689276991E+01  0.79515648086E+01  0.10849942101E+02  0.00000000000E+00 0. -1.
</event>
<event>
 7    1  0.6293596E-013  0.5930195E+02  0.7816164E-02  0.1266605E+00
        -11   -1    0    0    0    0  0.00000000000E+00  0.00000000000E+00  0.45593999997E+02  0.45594000000E+02  0.51100000000E-03 0. -1.
         11   -1    0    0    0    0 -0.00000000000E+00 -0.00000000000E+00 -0.45593999997E+02  0.45594000000E+02  0.51100000000E-03 0.  1.
    9900012    2    1    2    0    0  0.10187913636E+02  0.26010182762E+02 -0.15375212870E+02  0.59301947213E+02  0.50000005809E+02 0.  0.
        -12    1    1    2    0    0 -0.10187913636E+02 -0.26010182762E+02  0.15375212870E+02  0.31886052787E+02  0.00000000000E+00 0.  1.
         11    1    3    3    0    0  0.12668365933E+02  0.81454407064E+01  0.13696015180E+02  0.20357223086E+02  0.51100000000E-03 0. -1.
        -11    1    3    3    0    0  0.31147145033E+01  0.15551991024E+02 -0.28806834490E+02  0.32884640561E+02  0.51100000000E-03 0.  1.
         12    1    3    3    0    0 -0.55951668004E+01  0.23127510316E+01 -0.26439355958E+00  0.60600835648E+01  0.00000000000E+00 0. -1.
</event>
<event>
 7    1  0.6293596E-013  0.5930191E+02  0.7816164E-02  0.1266605E+00
        -11   -1    0    0    0    0  0.00000000000E+00  0.00000000000E+00  0.45593999997E+02  0.45594000000E+02  0.51100000000E-03 0.  1.
         11   -1    0    0    0    0 -0.00000000000E+00 -0.00000000000E+00 -0.45593999997E+02  0.45594000000E+02  0.51100000000E-03 0. -1.
    9900012    2    1    2    0    0  0.18376661406E+02 -0.26048190497E+02  0.71605793437E+00  0.59301911316E+02  0.49999940341E+02 0.  0.
        -12    1    1    2    0    0 -0.18376661406E+02  0.26048190497E+02 -0.71605793437E+00  0.31886088684E+02  0.00000000000E+00 0.  1.
         11    1    3    3    0    0  0.12724161135E+02 -0.13873204974E+02 -0.16568365630E+02  0.25077496541E+02  0.51100000000E-03 0. -1.
        -11    1    3    3    0    0 -0.84587155471E+01  0.25305777574E+00  0.12015336854E+02  0.14696333792E+02  0.51100000000E-03 0.  1.
         12    1    3    3    0    0  0.14111215819E+02 -0.12428043299E+02  0.52690867098E+01  0.19528080983E+02  0.00000000000E+00 0. -1.
</event>
<event>
 7    1  0.6293596E-013  0.5930192E+02  0.7816164E-02  0.1266605E+00
        -11   -1    0    0    0    0  0.00000000000E+00  0.00000000000E+00  0.45593999997E+02  0.45594000000E+02  0.51100000000E-03 0.  1.
         11   -1    0    0    0    0 -0.00000000000E+00 -0.00000000000E+00 -0.45593999997E+02  0.45594000000E+02  0.51100000000E-03 0. -1.
    9900012    2    1    2    0    0 -0.94181220222E+01 -0.30264830076E+02 -0.34729280319E+01  0.59301918537E+02  0.49999953512E+02 0.  0.
        -12    1    1    2    0    0  0.94181220222E+01  0.30264830076E+02  0.34729280319E+01  0.31886081463E+02  0.00000000000E+00 0.  1.
         11    1    3    3    0    0 -0.12235389672E+01  0.50371448641E+01 -0.78380862417E+01  0.93970991364E+01  0.51100000000E-03 0. -1.
        -11    1    3    3    0    0 -0.61178873124E+01 -0.42112496660E+02  0.44290496381E+01  0.42784429423E+02  0.51100000000E-03 0.  1.
         12    1    3    3    0    0 -0.20766957426E+01  0.68105217207E+01 -0.63891428309E-01  0.71203899774E+01  0.00000000000E+00 0. -1.
</event>
<event>
 7    1  0.6293596E-013  0.5930193E+02  0.7816164E-02  0.1266605E+00
        -11   -1    0    0    0    0  0.00000000000E+00  0.00000000000E+00  0.45593999997E+02  0.45594000000E+02  0.51100000000E-03 0.  1.
         11   -1    0    0    0    0 -0.00000000000E+00 -0.00000000000E+00 -0.45593999997E+02  0.45594000000E+02  0.51100000000E-03 0. -1.
    9900012    2    1    2    0    0  0.10519861767E+02  0.26145573807E+02  0.14915201666E+02  0.59301925264E+02  0.49999965780E+02 0.  0.
        -12    1    1    2    0    0 -0.10519861767E+02 -0.26145573807E+02 -0.14915201666E+02  0.31886074736E+02  0.00000000000E+00 0.  1.
         11    1    3    3    0    0  0.11115953043E+02 -0.25937123365E+01  0.30664629188E+01  0.11819261856E+02  0.51100000000E-03 0. -1.
        -11    1    3    3    0    0 -0.15822933074E+02  0.19504989607E+02 -0.15999482402E+01  0.25166836617E+02  0.51100000000E-03 0.  1.
         12    1    3    3    0    0  0.15226841799E+02  0.92342965363E+01  0.13448686988E+02  0.22315826791E+02  0.00000000000E+00 0. -1.
</event>
<event>
 7    1  0.6293596E-013  0.5930199E+02  0.7816164E-02  0.1266605E+00
        -11   -1    0    0    0    0  0.00000000000E+00  0.00000000000E+00  0.45593999997E+02  0.45594000000E+02  0.51100000000E-03 0. -1.
         11   -1    0    0    0    0 -0.00000000000E+00 -0.00000000000E+00 -0.45593999997E+02  0.45594000000E+02  0.51100000000E-03 0.  1.
    9900012    2    1    2    0    0 -0.31336947805E+02  0.58345183245E+01  0.81942588778E+00  0.59301994283E+02  0.50000091653E+02 0.  0.
        -12    1    1    2    0    0  0.31336947805E+02 -0.58345183245E+01 -0.81942588778E+00  0.31886005717E+02  0.00000000000E+00 0.  1.
         11    1    3    3    0    0 -0.35717164010E+02 -0.58917551633E+01  0.12770112266E+02  0.38386252114E+02  0.51100000000E-03 0. -1.
        -11    1    3    3    0    0  0.37491837023E+01 -0.37424136227E+00 -0.67488673771E+01  0.77294014105E+01  0.51100000000E-03 0.  1.
         12    1    3    3    0    0  0.63103250269E+00  0.12100514850E+02 -0.52018190014E+01  0.13186340758E+02  0.00000000000E+00 0. -1.
</event>
<event>
 7    1  0.6293596E-013  0.5930192E+02  0.7816164E-02  0.1266605E+00
        -11   -1    0    0    0    0  0.00000000000E+00  0.00000000000E+00  0.45593999997E+02  0.45594000000E+02  0.51100000000E-03 0.  1.
         11   -1    0    0    0    0 -0.00000000000E+00 -0.00000000000E+00 -0.45593999997E+02  0.45594000000E+02  0.51100000000E-03 0. -1.
    9900012    2    1    2    0    0 -0.29692432128E+02 -0.10589615175E+02  0.47897231322E+01  0.59301922742E+02  0.49999961180E+02 0.  0.
        -12    1    1    2    0    0  0.29692432128E+02  0.10589615175E+02 -0.47897231322E+01  0.31886077258E+02  0.00000000000E+00 0.  1.
         11    1    3    3    0    0 -0.22898200529E+02 -0.87631533924E+01 -0.28891282542E+01  0.24687395715E+02  0.51100000000E-03 0. -1.
        -11    1    3    3    0    0  0.17853356683E+01  0.84064970719E+01  0.16504425864E+02  0.18607866343E+02  0.51100000000E-03 0.  1.
        -12    1    3    3    0    0 -0.85795672666E+01 -0.10232958855E+02 -0.88255744774E+01  0.16006660684E+02  0.00000000000E+00 0.  1.
</event>
<event>
 7    1  0.6293596E-013  0.5930193E+02  0.7816164E-02  0.1266605E+00
        -11   -1    0    0    0    0  0.00000000000E+00  0.00000000000E+00  0.45593999997E+02  0.45594000000E+02  0.51100000000E-03 0. -1.
         11   -1    0    0    0    0 -0.00000000000E+00 -0.00000000000E+00 -0.45593999997E+02  0.45594000000E+02  0.51100000000E-03 0.  1.
    9900012    2    1    2    0    0 -0.65817836089E+01 -0.28258856733E+01  0.31071139040E+02  0.59301934289E+02  0.49999982239E+02 0.  0.
        -12    1    1    2    0    0  0.65817836089E+01  0.28258856733E+01 -0.31071139040E+02  0.31886065711E+02  0.00000000000E+00 0.  1.
         11    1    3    3    0    0  0.39813468263E+01 -0.22631392880E+01  0.22023257117E+02  0.22494372103E+02  0.51100000000E-03 0. -1.
        -11    1    3    3    0    0 -0.44874572709E+01 -0.82585075340E+01 -0.11013140031E+02  0.14478586708E+02  0.51100000000E-03 0.  1.
        -12    1    3    3    0    0 -0.60756731643E+01  0.76957611487E+01  0.20061021954E+02  0.22328975478E+02  0.00000000000E+00 0.  1.
</event>
<event>
 7    1  0.6293596E-013  0.5930194E+02  0.7816164E-02  0.1266605E+00
        -11   -1    0    0    0    0  0.00000000000E+00  0.00000000000E+00  0.45593999997E+02  0.45594000000E+02  0.51100000000E-03 0.  1.
         11   -1    0    0    0    0 -0.00000000000E+00 -0.00000000000E+00 -0.45593999997E+02  0.45594000000E+02  0.51100000000E-03 0. -1.
    9900012    2    1    2    0    0 -0.22868254470E+02 -0.18343994704E+02 -0.12540395209E+02  0.59301941664E+02  0.49999995690E+02 0.  0.
        -12    1    1    2    0    0  0.22868254470E+02  0.18343994704E+02  0.12540395209E+02  0.31886058336E+02  0.00000000000E+00 0.  1.
         11    1    3    3    0    0 -0.92892353236E+01 -0.21847996156E+02 -0.14940993027E+02  0.28050991102E+02  0.51100000000E-03 0. -1.
        -11    1    3    3    0    0 -0.36316721614E+01  0.12636516454E+02 -0.69054293834E+01  0.14851112619E+02  0.51100000000E-03 0.  1.
        -12    1    3    3    0    0 -0.99473469847E+01 -0.91325150022E+01  0.93060272018E+01  0.16399837944E+02  0.00000000000E+00 0.  1.
</event>
<event>
 7    1  0.6293596E-013  0.5930194E+02  0.7816164E-02  0.1266605E+00
        -11   -1    0    0    0    0  0.00000000000E+00  0.00000000000E+00  0.45593999997E+02  0.45594000000E+02  0.51100000000E-03 0.  1.
         11   -1    0    0    0    0 -0.00000000000E+00 -0.00000000000E+00 -0.45593999997E+02  0.45594000000E+02  0.51100000000E-03 0. -1.
    9900012    2    1    2    0    0 -0.29581680873E+02 -0.17768198320E+01  0.11768077676E+02  0.59301943735E+02  0.49999999466E+02 0.  0.
        -12    1    1    2    0    0  0.29581680873E+02  0.17768198320E+01 -0.11768077676E+02  0.31886056265E+02  0.00000000000E+00 0.  1.
         11    1    3    3    0    0 -0.96324765091E+01  0.58880254595E+01  0.25744148497E+02  0.28110756476E+02  0.51100000000E-03 0. -1.
        -11    1    3    3    0    0  0.86922221343E+00 -0.54269326153E+01  0.81396496797E+00  0.55560493246E+01  0.51100000000E-03 0.  1.
         12    1    3    3    0    0 -0.20818426577E+02 -0.22379126762E+01 -0.14790035789E+02  0.25635137935E+02  0.00000000000E+00 0. -1.
</event>
<event>
 7    1  0.6293596E-013  0.5930180E+02  0.7816164E-02  0.1266605E+00
        -11   -1    0    0    0    0  0.00000000000E+00  0.00000000000E+00  0.45593999997E+02  0.45594000000E+02  0.51100000000E-03 0.  1.
         11   -1    0    0    0    0 -0.00000000000E+00 -0.00000000000E+00 -0.45593999997E+02  0.45594000000E+02  0.51100000000E-03 0. -1.
    9900012    2    1    2    0    0  0.72644947882E+01  0.29183067921E+02 -0.10597415797E+02  0.59301802996E+02  0.49999742791E+02 0.  0.
        -12    1    1    2    0    0 -0.72644947882E+01 -0.29183067921E+02  0.10597415797E+02  0.31886197004E+02  0.00000000000E+00 0.  1.
         11    1    3    3    0    0 -0.10079111254E+02  0.12547934282E+02 -0.10755741741E+02  0.19357818035E+02  0.51100000000E-03 0.  1.
        -11    1    3    3    0    0  0.63321575192E+01 -0.89787567970E+01 -0.41260293863E+01  0.11736200886E+02  0.51100000000E-03 0. -1.
         12    1    3    3    0    0  0.11011448523E+02  0.25613890436E+02  0.42843553297E+01  0.28207784075E+02  0.00000000000E+00 0. -1.
</event>
<event>
 7    1  0.6293596E-013  0.5930194E+02  0.7816164E-02  0.1266605E+00
        -11   -1    0    0    0    0  0.00000000000E+00  0.00000000000E+00  0.45593999997E+02  0.45594000000E+02  0.51100000000E-03 0. -1.
         11   -1    0    0    0    0 -0.00000000000E+00 -0.00000000000E+00 -0.45593999997E+02  0.45594000000E+02  0.51100000000E-03 0.  1.
    9900012    2    1    2    0    0  0.13480128023E+02  0.26007311840E+02 -0.12594712746E+02  0.59301938628E+02  0.49999990152E+02 0.  0.
        -12    1    1    2    0    0 -0.13480128023E+02 -0.26007311840E+02  0.12594712746E+02  0.31886061372E+02  0.00000000000E+00 0.  1.
         11    1    3    3    0    0  0.76912251496E+01  0.20594430528E+02 -0.30191666026E+02  0.37347318655E+02  0.51100000000E-03 0. -1.
        -11    1    3    3    0    0  0.50106564643E+01 -0.71707613983E+00  0.25070168859E+01  0.56485405478E+01  0.51100000000E-03 0.  1.
         12    1    3    3    0    0  0.77824640935E+00  0.61299574521E+01  0.15089936394E+02  0.16306079425E+02  0.00000000000E+00 0. -1.
</event>
<event>
 7    1  0.6293596E-013  0.5930195E+02  0.7816164E-02  0.1266605E+00
        -11   -1    0    0    0    0  0.00000000000E+00  0.00000000000E+00  0.45593999997E+02  0.45594000000E+02  0.51100000000E-03 0.  1.
         11   -1    0    0    0    0 -0.00000000000E+00 -0.00000000000E+00 -0.45593999997E+02  0.45594000000E+02  0.51100000000E-03 0. -1.
    9900012    2    1    2    0    0 -0.17945684901E+01  0.31466183549E+02 -0.48352056784E+01  0.59301946667E+02  0.50000004814E+02 0.  0.
        -12    1    1    2    0    0  0.17945684901E+01 -0.31466183549E+02  0.48352056784E+01  0.31886053333E+02  0.00000000000E+00 0.  1.
         11    1    3    3    0    0  0.12995340071E+02  0.14246014573E+02 -0.15594964689E+02  0.24799812876E+02  0.51100000000E-03 0. -1.
        -11    1    3    3    0    0 -0.10703000365E+02 -0.37498142671E+01  0.26203563720E+01  0.11639655993E+02  0.51100000000E-03 0.  1.
        -12    1    3    3    0    0 -0.40869081961E+01  0.20969983243E+02  0.81394026381E+01  0.22862477799E+02  0.00000000000E+00 0.  1.
</event>
<event>
 7    1  0.6293596E-013  0.5930192E+02  0.7816164E-02  0.1266605E+00
        -11   -1    0    0    0    0  0.00000000000E+00  0.00000000000E+00  0.45593999997E+02  0.45594000000E+02  0.51100000000E-03 0.  1.
         11   -1    0    0    0    0 -0.00000000000E+00 -0.00000000000E+00 -0.45593999997E+02  0.45594000000E+02  0.51100000000E-03 0. -1.
    9900012    2    1    2    0    0  0.51672708249E+01  0.16610229241E+02 -0.26723055062E+02  0.59301920356E+02  0.49999956828E+02 0.  0.
        -12    1    1    2    0    0 -0.51672708249E+01 -0.16610229241E+02  0.26723055062E+02  0.31886079644E+02  0.00000000000E+00 0.  1.
         11    1    3    3    0    0 -0.38186900695E+00  0.27673990748E+02 -0.19816760077E+02  0.34039676381E+02  0.51100000000E-03 0. -1.
        -11    1    3    3    0    0  0.62579101184E+01 -0.17104254595E+02 -0.49581494811E+01  0.18875916159E+02  0.51100000000E-03 0.  1.
        -12    1    3    3    0    0 -0.70877028655E+00  0.60404930884E+01 -0.19481455035E+01  0.63863278160E+01  0.00000000000E+00 0.  1.
</event>
<event>
 7    1  0.6293596E-013  0.5930160E+02  0.7816164E-02  0.1266606E+00
        -11   -1    0    0    0    0  0.00000000000E+00  0.00000000000E+00  0.45593999997E+02  0.45594000000E+02  0.51100000000E-03 0. -1.
         11   -1    0    0    0    0 -0.00000000000E+00 -0.00000000000E+00 -0.45593999997E+02  0.45594000000E+02  0.51100000000E-03 0.  1.
    9900012    2    1    2    0    0 -0.29125389663E+01  0.31397575502E+02  0.47383500271E+01  0.59301598641E+02  0.49999370094E+02 0.  0.
        -12    1    1    2    0    0  0.29125389663E+01 -0.31397575502E+02 -0.47383500271E+01  0.31886401359E+02  0.00000000000E+00 0.  1.
         11    1    3    3    0    0 -0.22942510765E+01  0.13013315774E+02 -0.17190418132E+02  0.21682261211E+02  0.51100000000E-03 0. -1.
        -11    1    3    3    0    0  0.11870181470E+02  0.86697582701E+01  0.11592283199E+02  0.18720228274E+02  0.51100000000E-03 0.  1.
         12    1    3    3    0    0 -0.12488469360E+02  0.97145014583E+01  0.10336484960E+02  0.18899109155E+02  0.00000000000E+00 0. -1.
</event>
<event>
 7    1  0.6293596E-013  0.5930194E+02  0.7816164E-02  0.1266605E+00
        -11   -1    0    0    0    0  0.00000000000E+00  0.00000000000E+00  0.45593999997E+02  0.45594000000E+02  0.51100000000E-03 0. -1.
         11   -1    0    0    0    0 -0.00000000000E+00 -0.00000000000E+00 -0.45593999997E+02  0.45594000000E+02  0.51100000000E-03 0.  1.
    9900012    2    1    2    0    0 -0.70529250472E+01  0.16460888065E+02  0.26382122372E+02  0.59301937708E+02  0.49999988475E+02 0.  0.
        -12    1    1    2    0    0  0.70529250472E+01 -0.16460888065E+02 -0.26382122372E+02  0.31886062292E+02  0.00000000000E+00 0.  1.
         11    1    3    3    0    0 -0.51613447456E+01  0.31070209005E+02  0.18651416693E+02  0.36604271774E+02  0.51100000000E-03 0. -1.
        -11    1    3    3    0    0  0.54923118846E+01 -0.72651476332E+01 -0.92696509381E+00  0.91546231226E+01  0.51100000000E-03 0.  1.
         12    1    3    3    0    0 -0.73838921862E+01 -0.73441733069E+01  0.86576707735E+01  0.13543042812E+02  0.00000000000E+00 0. -1.
</event>
<event>
 7    1  0.6293596E-013  0.5930199E+02  0.7816164E-02  0.1266605E+00
        -11   -1    0    0    0    0  0.00000000000E+00  0.00000000000E+00  0.45593999997E+02  0.45594000000E+02  0.51100000000E-03 0. -1.
         11   -1    0    0    0    0 -0.00000000000E+00 -0.00000000000E+00 -0.45593999997E+02  0.45594000000E+02  0.51100000000E-03 0.  1.
    9900012    2    1    2    0    0  0.42199330450E+01 -0.25589746877E+02  0.18549241110E+02  0.59301994827E+02  0.50000092646E+02 0.  0.
        -12    1    1    2    0    0 -0.42199330450E+01  0.25589746877E+02 -0.18549241110E+02  0.31886005173E+02  0.00000000000E+00 0.  1.
         11    1    3    3    0    0 -0.23526121792E+01  0.77430739277E+01 -0.36750624065E+01  0.88879728774E+01  0.51100000000E-03 0. -1.
        -11    1    3    3    0    0  0.18493630932E+02 -0.17812397267E+02  0.12280584090E+02  0.28462407265E+02  0.51100000000E-03 0.  1.
         12    1    3    3    0    0 -0.11921085708E+02 -0.15520423538E+02  0.99437194255E+01  0.21951614685E+02  0.00000000000E+00 0. -1.
</event>
<event>
 7    1  0.6293596E-013  0.5930183E+02  0.7816164E-02  0.1266605E+00
        -11   -1    0    0    0    0  0.00000000000E+00  0.00000000000E+00  0.45593999997E+02  0.45594000000E+02  0.51100000000E-03 0.  1.
         11   -1    0    0    0    0 -0.00000000000E+00 -0.00000000000E+00 -0.45593999997E+02  0.45594000000E+02  0.51100000000E-03 0. -1.
    9900012    2    1    2    0    0 -0.23126874075E+01 -0.83879848925E+01 -0.30676060805E+02  0.59301834973E+02  0.49999801110E+02 0.  0.
        -12    1    1    2    0    0  0.23126874075E+01  0.83879848925E+01  0.30676060805E+02  0.31886165027E+02  0.00000000000E+00 0.  1.
         11    1    3    3    0    0  0.85370474765E+01  0.34723089515E+01 -0.14872776999E+02  0.17496788419E+02  0.51100000000E-03 0. -1.
        -11    1    3    3    0    0 -0.14830752504E+02 -0.14810939106E+02 -0.24224896076E+02  0.32033743572E+02  0.51100000000E-03 0.  1.
        -12    1    3    3    0    0  0.39810176201E+01  0.29506452622E+01  0.84216122698E+01  0.97713029826E+01  0.00000000000E+00 0.  1.
</event>
<event>
 7    1  0.6293596E-013  0.5930194E+02  0.7816164E-02  0.1266605E+00
        -11   -1    0    0    0    0  0.00000000000E+00  0.00000000000E+00  0.45593999997E+02  0.45594000000E+02  0.51100000000E-03 0.  1.
         11   -1    0    0    0    0 -0.00000000000E+00 -0.00000000000E+00 -0.45593999997E+02  0.45594000000E+02  0.51100000000E-03 0. -1.
    9900012    2    1    2    0    0 -0.27179520885E+02 -0.16521527288E+02 -0.22435752350E+01  0.59301939577E+02  0.49999991884E+02 0.  0.
        -12    1    1    2    0    0  0.27179520885E+02  0.16521527288E+02  0.22435752350E+01  0.31886060423E+02  0.00000000000E+00 0.  1.
         11    1    3    3    0    0 -0.18338799554E+02 -0.77734109709E+01 -0.17037269635E+02  0.26210800142E+02  0.51100000000E-03 0. -1.
        -11    1    3    3    0    0  0.65266997742E+01 -0.12168125755E+02  0.78614693532E+01  0.15889109320E+02  0.51100000000E-03 0.  1.
        -12    1    3    3    0    0 -0.15367421105E+02  0.34200094384E+01  0.69322250471E+01  0.17202030115E+02  0.00000000000E+00 0.  1.
</event>
<event>
 7    1  0.6293596E-013  0.5930196E+02  0.7816164E-02  0.1266605E+00
        -11   -1    0    0    0    0  0.00000000000E+00  0.00000000000E+00  0.45593999997E+02  0.45594000000E+02  0.51100000000E-03 0.  1.
         11   -1    0    0    0    0 -0.00000000000E+00 -0.00000000000E+00 -0.45593999997E+02  0.45594000000E+02  0.51100000000E-03 0. -1.
    9900012    2    1    2    0    0 -0.97010843565E+01  0.30011040735E+00 -0.30372986336E+02  0.59301962258E+02  0.50000033247E+02 0.  0.
        -12    1    1    2    0    0  0.97010843565E+01 -0.30011040735E+00  0.30372986336E+02  0.31886037742E+02  0.00000000000E+00 0.  1.
         11    1    3    3    0    0 -0.22090866119E+01  0.55455223989E+00 -0.36654487043E+02  0.36725182266E+02  0.51100000000E-03 0. -1.
        -11    1    3    3    0    0 -0.14135631399E+02  0.25095535513E+01  0.53498452237E+01  0.15321056695E+02  0.51100000000E-03 0.  1.
         12    1    3    3    0    0  0.66436336545E+01 -0.27639953839E+01  0.93165548336E+00  0.72557232966E+01  0.00000000000E+00 0. -1.
</event>
<event>
 7    1  0.6293596E-013  0.5930192E+02  0.7816164E-02  0.1266605E+00
        -11   -1    0    0    0    0  0.00000000000E+00  0.00000000000E+00  0.45593999997E+02  0.45594000000E+02  0.51100000000E-03 0. -1.
         11   -1    0    0    0    0 -0.00000000000E+00 -0.00000000000E+00 -0.45593999997E+02  0.45594000000E+02  0.51100000000E-03 0.  1.
    9900012    2    1    2    0    0  0.19811898534E+02 -0.66537573475E+01  0.24081906122E+02  0.59301921332E+02  0.49999958609E+02 0.  0.
        -12    1    1    2    0    0 -0.19811898534E+02  0.66537573475E+01 -0.24081906122E+02  0.31886078668E+02  0.00000000000E+00 0.  1.
         11    1    3    3    0    0  0.89038847782E+01 -0.18658290585E+02  0.26368757427E+02  0.33507049112E+02  0.51100000000E-03 0. -1.
        -11    1    3    3    0    0  0.15654641458E+02  0.12049287871E+02  0.13707612912E+01  0.19802326231E+02  0.51100000000E-03 0.  1.
         12    1    3    3    0    0 -0.47466277028E+01 -0.44754632715E-01 -0.36576125964E+01  0.59925459891E+01  0.00000000000E+00 0. -1.
</event>
<event>
 7    1  0.6293596E-013  0.5930198E+02  0.7816164E-02  0.1266605E+00
        -11   -1    0    0    0    0  0.00000000000E+00  0.00000000000E+00  0.45593999997E+02  0.45594000000E+02  0.51100000000E-03 0.  1.
         11   -1    0    0    0    0 -0.00000000000E+00 -0.00000000000E+00 -0.45593999997E+02  0.45594000000E+02  0.51100000000E-03 0. -1.
    9900012    2    1    2    0    0  0.25144079252E+02  0.19578657691E+02 -0.10814047201E+01  0.59301984341E+02  0.50000073522E+02 0.  0.
        -12    1    1    2    0    0 -0.25144079252E+02 -0.19578657691E+02  0.10814047201E+01  0.31886015659E+02  0.00000000000E+00 0.  1.
         11    1    3    3    0    0  0.19306121812E+02  0.41892321555E+01  0.10622430874E+01  0.19783942127E+02  0.51100000000E-03 0. -1.
        -11    1    3    3    0    0  0.74032932283E+01  0.25195874691E+02 -0.86464019449E+01  0.27647804957E+02  0.51100000000E-03 0.  1.
        -12    1    3    3    0    0 -0.15653357878E+01 -0.98064491556E+01  0.65027541374E+01  0.11870237257E+02  0.00000000000E+00 0.  1.
</event>
<event>
 7    1  0.6293596E-013  0.5930188E+02  0.7816164E-02  0.1266605E+00
        -11   -1    0    0    0    0  0.00000000000E+00  0.00000000000E+00  0.45593999997E+02  0.45594000000E+02  0.51100000000E-03 0. -1.
         11   -1    0    0    0    0 -0.00000000000E+00 -0.00000000000E+00 -0.45593999997E+02  0.45594000000E+02  0.51100000000E-03 0.  1.
    9900012    2    1    2    0    0 -0.62833204716E+01 -0.71169847356E+01  0.30439995245E+02  0.59301876084E+02  0.49999876086E+02 0.  0.
        -12    1    1    2    0    0  0.62833204716E+01  0.71169847356E+01 -0.30439995245E+02  0.31886123916E+02  0.00000000000E+00 0.  1.
         11    1    3    3    0    0  0.37852990919E+01  0.31469546018E+01  0.19578495018E+02  0.20187849809E+02  0.51100000000E-03 0. -1.
        -11    1    3    3    0    0  0.24014392526E+01 -0.25760892249E+01 -0.11697304614E+02  0.12215976493E+02  0.51100000000E-03 0.  1.
         12    1    3    3    0    0 -0.12470058816E+02 -0.76878501125E+01  0.22558804841E+02  0.26898049782E+02  0.00000000000E+00 0. -1.
</event>
<event>
 7    1  0.6293596E-013  0.5930189E+02  0.7816164E-02  0.1266605E+00
        -11   -1    0    0    0    0  0.00000000000E+00  0.00000000000E+00  0.45593999997E+02  0.45594000000E+02  0.51100000000E-03 0. -1.
         11   -1    0    0    0    0 -0.00000000000E+00 -0.00000000000E+00 -0.45593999997E+02  0.45594000000E+02  0.51100000000E-03 0.  1.
    9900012    2    1    2    0    0 -0.26468037805E+02 -0.10505389780E+02  0.14345862776E+02  0.59301889882E+02  0.49999901251E+02 0.  0.
        -12    1    1    2    0    0  0.26468037805E+02  0.10505389780E+02 -0.14345862776E+02  0.31886110118E+02  0.00000000000E+00 0.  1.
         11    1    3    3    0    0  0.10821980139E+02 -0.12490604064E+02  0.14168168802E+02  0.21768496767E+02  0.51100000000E-03 0. -1.
        -11    1    3    3    0    0 -0.10763374580E+02  0.14075226342E+01 -0.14455988885E+01  0.10950849680E+02  0.51100000000E-03 0.  1.
         12    1    3    3    0    0 -0.26526643364E+02  0.57769164989E+00  0.16232928626E+01  0.26582543436E+02  0.00000000000E+00 0. -1.
</event>
<event>
 7    1  0.6293596E-013  0.5930193E+02  0.7816164E-02  0.1266605E+00
        -11   -1    0    0    0    0  0.00000000000E+00  0.00000000000E+00  0.45593999997E+02  0.45594000000E+02  0.51100000000E-03 0. -1.
         11   -1    0    0    0    0 -0.00000000000E+00 -0.00000000000E+00 -0.45593999997E+02  0.45594000000E+02  0.51100000000E-03 0.  1.
    9900012    2    1    2    0    0 -0.15795837271E+02 -0.10549694222E+02  0.25610871241E+02  0.59301933310E+02  0.49999980453E+02 0.  0.
        -12    1    1    2    0    0  0.15795837271E+02  0.10549694222E+02 -0.25610871241E+02  0.31886066690E+02  0.00000000000E+00 0.  1.
         11    1    3    3    0    0 -0.15441058705E+02  0.16647448964E+01  0.28062133656E+02  0.32073057464E+02  0.51100000000E-03 0. -1.
        -11    1    3    3    0    0 -0.13135982239E+01 -0.17574721411E+02 -0.80883944522E+01  0.19391196406E+02  0.51100000000E-03 0.  1.
        -12    1    3    3    0    0  0.95881965827E+00  0.53602822929E+01  0.56371320369E+01  0.78376794396E+01  0.00000000000E+00 0.  1.
</event>
<event>
 7    1  0.6293596E-013  0.5930193E+02  0.7816164E-02  0.1266605E+00
        -11   -1    0    0    0    0  0.00000000000E+00  0.00000000000E+00  0.45593999997E+02  0.45594000000E+02  0.51100000000E-03 0.  1.
         11   -1    0    0    0    0 -0.00000000000E+00 -0.00000000000E+00 -0.45593999997E+02  0.45594000000E+02  0.51100000000E-03 0. -1.
    9900012    2    1    2    0    0  0.10691338644E+02 -0.19975049159E+02 -0.22436895668E+02  0.59301927835E+02  0.49999970468E+02 0.  0.
        -12    1    1    2    0    0 -0.10691338644E+02  0.19975049159E+02  0.22436895668E+02  0.31886072165E+02  0.00000000000E+00 0.  1.
         11    1    3    3    0    0  0.12771993135E+01 -0.71325732178E+01 -0.18039236287E+02  0.19440135928E+02  0.51100000000E-03 0. -1.
        -11    1    3    3    0    0 -0.25378551823E+01  0.38801579458E+01  0.12449645070E+02  0.13284953791E+02  0.51100000000E-03 0.  1.
        -12    1    3    3    0    0  0.11951994513E+02 -0.16722633888E+02 -0.16847304450E+02  0.26576838116E+02  0.00000000000E+00 0.  1.
</event>
<event>
 7    1  0.6293596E-013  0.5930197E+02  0.7816164E-02  0.1266605E+00
        -11   -1    0    0    0    0  0.00000000000E+00  0.00000000000E+00  0.45593999997E+02  0.45594000000E+02  0.51100000000E-03 0. -1.
         11   -1    0    0    0    0 -0.00000000000E+00 -0.00000000000E+00 -0.45593999997E+02  0.45594000000E+02  0.51100000000E-03 0.  1.
    9900012    2    1    2    0    0 -0.21747024676E+02  0.55077703537E+01  0.22659447461E+02  0.59301965820E+02  0.50000039743E+02 0.  0.
        -12    1    1    2    0    0  0.21747024676E+02 -0.55077703537E+01 -0.22659447461E+02  0.31886034180E+02  0.00000000000E+00 0.  1.
         11    1    3    3    0    0 -0.14839905237E+02 -0.15764793844E+02  0.12258977799E+02  0.24880394879E+02  0.51100000000E-03 0. -1.
        -11    1    3    3    0    0  0.24927425030E+01  0.12287368755E+02  0.15946231947E+02  0.20284859124E+02  0.51100000000E-03 0.  1.
        -12    1    3    3    0    0 -0.93998619414E+01  0.89851954426E+01 -0.55457622856E+01  0.14136711817E+02  0.00000000000E+00 0.  1.
</event>
<event>
 7    1  0.6293596E-013  0.5930209E+02  0.7816164E-02  0.1266604E+00
        -11   -1    0    0    0    0  0.00000000000E+00  0.00000000000E+00  0.45593999997E+02  0.45594000000E+02  0.51100000000E-03 0. -1.
         11   -1    0    0    0    0 -0.00000000000E+00 -0.00000000000E+00 -0.45593999997E+02  0.45594000000E+02  0.51100000000E-03 0.  1.
    9900012    2    1    2    0    0  0.64042646219E+00  0.15495984716E+02  0.27859924113E+02  0.59302093083E+02  0.50000271839E+02 0.  0.
        -12    1    1    2    0    0 -0.64042646219E+00 -0.15495984716E+02 -0.27859924113E+02  0.31885906917E+02  0.00000000000E+00 0.  1.
         11    1    3    3    0    0  0.18941801706E+02  0.14461019466E+02  0.98856059974E+01  0.25799963994E+02  0.51100000000E-03 0. -1.
        -11    1    3    3    0    0 -0.10932193538E+02  0.74204307178E+01  0.19578944446E+02  0.23620133646E+02  0.51100000000E-03 0.  1.
         12    1    3    3    0    0 -0.73691817063E+01 -0.63854654684E+01 -0.16046263300E+01  0.98819954426E+01  0.00000000000E+00 0. -1.
</event>
<event>
 7    1  0.6293596E-013  0.5930194E+02  0.7816164E-02  0.1266605E+00
        -11   -1    0    0    0    0  0.00000000000E+00  0.00000000000E+00  0.45593999997E+02  0.45594000000E+02  0.51100000000E-03 0. -1.
         11   -1    0    0    0    0 -0.00000000000E+00 -0.00000000000E+00 -0.45593999997E+02  0.45594000000E+02  0.51100000000E-03 0.  1.
    9900012    2    1    2    0    0  0.30205622535E+02  0.10213962666E+02 -0.12698009337E+00  0.59301940507E+02  0.49999993579E+02 0.  0.
        -12    1    1    2    0    0 -0.30205622535E+02 -0.10213962666E+02  0.12698009337E+00  0.31886059493E+02  0.00000000000E+00 0.  1.
         11    1    3    3    0    0  0.26906523307E+02  0.43197759900E+01 -0.19873709514E+02  0.33728115737E+02  0.51100000000E-03 0. -1.
        -11    1    3    3    0    0 -0.28070511081E+01  0.25579297981E+01  0.18004797661E+02  0.18400958667E+02  0.51100000000E-03 0.  1.
         12    1    3    3    0    0  0.61061503361E+01  0.33362568774E+01  0.17419317595E+01  0.71728661032E+01  0.00000000000E+00 0. -1.
</event>
<event>
 7    1  0.6293596E-013  0.5930195E+02  0.7816164E-02  0.1266605E+00
        -11   -1    0    0    0    0  0.00000000000E+00  0.00000000000E+00  0.45593999997E+02  0.45594000000E+02  0.51100000000E-03 0. -1.
         11   -1    0    0    0    0 -0.00000000000E+00 -0.00000000000E+00 -0.45593999997E+02  0.45594000000E+02  0.51100000000E-03 0.  1.
    9900012    2    1    2    0    0 -0.25038934577E+02  0.19609296283E+02  0.22906942637E+01  0.59301952492E+02  0.50000015436E+02 0.  0.
        -12    1    1    2    0    0  0.25038934577E+02 -0.19609296283E+02 -0.22906942637E+01  0.31886047508E+02  0.00000000000E+00 0.  1.
         11    1    3    3    0    0  0.53952942516E+00  0.18990030572E+02 -0.15621565120E+02  0.24595642911E+02  0.51100000000E-03 0. -1.
        -11    1    3    3    0    0 -0.18988616551E+02 -0.42988465775E+00  0.20128497347E+02  0.27675056731E+02  0.51100000000E-03 0.  1.
        -12    1    3    3    0    0 -0.65898474516E+01  0.10491503685E+01 -0.22162379627E+01  0.70312528498E+01  0.00000000000E+00 0.  1.
</event>
<event>
 7    1  0.6293596E-013  0.5930194E+02  0.7816164E-02  0.1266605E+00
        -11   -1    0    0    0    0  0.00000000000E+00  0.00000000000E+00  0.45593999997E+02  0.45594000000E+02  0.51100000000E-03 0.  1.
         11   -1    0    0    0    0 -0.00000000000E+00 -0.00000000000E+00 -0.45593999997E+02  0.45594000000E+02  0.51100000000E-03 0. -1.
    9900012    2    1    2    0    0  0.10383110281E+02 -0.68797164011E+01 -0.29352702920E+02  0.59301942771E+02  0.49999997708E+02 0.  0.
        -12    1    1    2    0    0 -0.10383110281E+02  0.68797164011E+01  0.29352702920E+02  0.31886057229E+02  0.00000000000E+00 0.  1.
         11    1    3    3    0    0 -0.55089700147E+01 -0.65221253925E+01 -0.11906397935E+02  0.14650910630E+02  0.51100000000E-03 0. -1.
        -11    1    3    3    0    0  0.25980966671E+02 -0.81698832702E+01 -0.68971177870E+01  0.28094979193E+02  0.51100000000E-03 0.  1.
        -12    1    3    3    0    0 -0.10088886375E+02  0.78122922616E+01 -0.10549187199E+02  0.16556052948E+02  0.00000000000E+00 0.  1.
</event>
<event>
 7    1  0.6293596E-013  0.5930203E+02  0.7816164E-02  0.1266604E+00
        -11   -1    0    0    0    0  0.00000000000E+00  0.00000000000E+00  0.45593999997E+02  0.45594000000E+02  0.51100000000E-03 0. -1.
         11   -1    0    0    0    0 -0.00000000000E+00 -0.00000000000E+00 -0.45593999997E+02  0.45594000000E+02  0.51100000000E-03 0.  1.
    9900012    2    1    2    0    0  0.29851478399E+02  0.11098897535E+02 -0.15553077810E+01  0.59302027043E+02  0.50000151400E+02 0.  0.
        -12    1    1    2    0    0 -0.29851478399E+02 -0.11098897535E+02  0.15553077810E+01  0.31885972957E+02  0.00000000000E+00 0.  1.
         11    1    3    3    0    0  0.36624566410E+02  0.11951786531E+02 -0.11107022563E+02  0.40094513546E+02  0.51100000000E-03 0.  1.
        -11    1    3    3    0    0 -0.10284932922E+02  0.19301692818E+01  0.10278455330E+02  0.14668062002E+02  0.51100000000E-03 0. -1.
        -12    1    3    3    0    0  0.35118449115E+01 -0.27830582780E+01 -0.72674054723E+00  0.45394514960E+01  0.00000000000E+00 0.  1.
</event>
<event>
 7    1  0.6293596E-013  0.5930197E+02  0.7816164E-02  0.1266605E+00
        -11   -1    0    0    0    0  0.00000000000E+00  0.00000000000E+00  0.45593999997E+02  0.45594000000E+02  0.51100000000E-03 0.  1.
         11   -1    0    0    0    0 -0.00000000000E+00 -0.00000000000E+00 -0.45593999997E+02  0.45594000000E+02  0.51100000000E-03 0. -1.
    9900012    2    1    2    0    0  0.35959849646E+01 -0.17881166743E+02 -0.26154386611E+02  0.59301965895E+02  0.50000039881E+02 0.  0.
        -12    1    1    2    0    0 -0.35959849646E+01  0.17881166743E+02  0.26154386611E+02  0.31886034105E+02  0.00000000000E+00 0.  1.
         11    1    3    3    0    0  0.25585777060E+01 -0.42137362352E+01 -0.11677318812E+02  0.12675238374E+02  0.51100000000E-03 0. -1.
        -11    1    3    3    0    0  0.15312129146E+02 -0.27302595845E+01  0.82813861715E+01  0.17620924311E+02  0.51100000000E-03 0.  1.
        -12    1    3    3    0    0 -0.14274721887E+02 -0.10937170923E+02 -0.22758453970E+02  0.29005803211E+02  0.00000000000E+00 0.  1.
</event>
<event>
 7    1  0.6293596E-013  0.5930197E+02  0.7816164E-02  0.1266605E+00
        -11   -1    0    0    0    0  0.00000000000E+00  0.00000000000E+00  0.45593999997E+02  0.45594000000E+02  0.51100000000E-03 0.  1.
         11   -1    0    0    0    0 -0.00000000000E+00 -0.00000000000E+00 -0.45593999997E+02  0.45594000000E+02  0.51100000000E-03 0. -1.
    9900012    2    1    2    0    0 -0.32415126054E+01 -0.21677522030E+02 -0.23158082420E+02  0.59301966275E+02  0.50000040575E+02 0.  0.
        -12    1    1    2    0    0  0.32415126054E+01  0.21677522030E+02  0.23158082420E+02  0.31886033725E+02  0.00000000000E+00 0.  1.
         11    1    3    3    0    0 -0.32206749226E+01 -0.31803679755E+02 -0.20716394740E+02  0.38092201357E+02  0.51100000000E-03 0. -1.
        -11    1    3    3    0    0 -0.65174104777E+01 -0.15561173335E+01  0.22110826044E+01  0.70559922785E+01  0.51100000000E-03 0.  1.
        -12    1    3    3    0    0  0.64965727949E+01  0.11682275059E+02 -0.46527702841E+01  0.14153772640E+02  0.00000000000E+00 0.  1.
</event>
<event>
 7    1  0.6293596E-013  0.5930196E+02  0.7816164E-02  0.1266605E+00
        -11   -1    0    0    0    0  0.00000000000E+00  0.00000000000E+00  0.45593999997E+02  0.45594000000E+02  0.51100000000E-03 0. -1.
         11   -1    0    0    0    0 -0.00000000000E+00 -0.00000000000E+00 -0.45593999997E+02  0.45594000000E+02  0.51100000000E-03 0.  1.
    9900012    2    1    2    0    0  0.72692259747E+01 -0.27360369379E+02  0.14672696305E+02  0.59301961116E+02  0.50000031165E+02 0.  0.
        -12    1    1    2    0    0 -0.72692259747E+01  0.27360369379E+02 -0.14672696305E+02  0.31886038884E+02  0.00000000000E+00 0.  1.
         11    1    3    3    0    0  0.12416233886E+02 -0.12680436008E+02  0.26315311160E+01  0.17941050068E+02  0.51100000000E-03 0. -1.
        -11    1    3    3    0    0 -0.14586355219E+02 -0.22767903387E+02  0.95986969726E+01  0.28692754609E+02  0.51100000000E-03 0.  1.
        -12    1    3    3    0    0  0.94393473084E+01  0.80879700158E+01  0.24424682165E+01  0.12668156439E+02  0.00000000000E+00 0.  1.
</event>
<event>
 7    1  0.6293596E-013  0.5930192E+02  0.7816164E-02  0.1266605E+00
        -11   -1    0    0    0    0  0.00000000000E+00  0.00000000000E+00  0.45593999997E+02  0.45594000000E+02  0.51100000000E-03 0.  1.
         11   -1    0    0    0    0 -0.00000000000E+00 -0.00000000000E+00 -0.45593999997E+02  0.45594000000E+02  0.51100000000E-03 0. -1.
    9900012    2    1    2    0    0 -0.49018030746E+01  0.16564499891E+02 -0.26801335246E+02  0.59301923086E+02  0.49999961807E+02 0.  0.
        -12    1    1    2    0    0  0.49018030746E+01 -0.16564499891E+02  0.26801335246E+02  0.31886076914E+02  0.00000000000E+00 0.  1.
         11    1    3    3    0    0  0.18563686988E+02  0.48045479789E+01 -0.13329335057E+02  0.23353058240E+02  0.51100000000E-03 0. -1.
        -11    1    3    3    0    0 -0.65154912898E+01 -0.50037030491E+01  0.64945058948E+00  0.82407801378E+01  0.51100000000E-03 0.  1.
        -12    1    3    3    0    0 -0.16949998773E+02  0.16763654962E+02 -0.14121450779E+02  0.27708084707E+02  0.00000000000E+00 0.  1.
</event>
<event>
 7    1  0.6293596E-013  0.5930189E+02  0.7816164E-02  0.1266605E+00
        -11   -1    0    0    0    0  0.00000000000E+00  0.00000000000E+00  0.45593999997E+02  0.45594000000E+02  0.51100000000E-03 0.  1.
         11   -1    0    0    0    0 -0.00000000000E+00 -0.00000000000E+00 -0.45593999997E+02  0.45594000000E+02  0.51100000000E-03 0. -1.
    9900012    2    1    2    0    0  0.98332477442E+01  0.23385358915E+02 -0.19317252051E+02  0.59301890177E+02  0.49999901790E+02 0.  0.
        -12    1    1    2    0    0 -0.98332477442E+01 -0.23385358915E+02  0.19317252051E+02  0.31886109823E+02  0.00000000000E+00 0.  1.
         11    1    3    3    0    0  0.56957090579E+01  0.29303253940E+02 -0.90586836013E+01  0.31195857769E+02  0.51100000000E-03 0. -1.
        -11    1    3    3    0    0 -0.48840080404E+01 -0.12935880065E+02 -0.92412756946E+01  0.16631046398E+02  0.51100000000E-03 0.  1.
        -12    1    3    3    0    0  0.90215467267E+01  0.70179850403E+01 -0.10172927555E+01  0.11474986010E+02  0.00000000000E+00 0.  1.
</event>
<event>
 7    1  0.6293596E-013  0.5930192E+02  0.7816164E-02  0.1266605E+00
        -11   -1    0    0    0    0  0.00000000000E+00  0.00000000000E+00  0.45593999997E+02  0.45594000000E+02  0.51100000000E-03 0.  1.
         11   -1    0    0    0    0 -0.00000000000E+00 -0.00000000000E+00 -0.45593999997E+02  0.45594000000E+02  0.51100000000E-03 0. -1.
    9900012    2    1    2    0    0  0.70583246093E+01 -0.30369084119E+02 -0.66798942300E+01  0.59301918343E+02  0.49999953157E+02 0.  0.
        -12    1    1    2    0    0 -0.70583246093E+01  0.30369084119E+02  0.66798942300E+01  0.31886081657E+02  0.00000000000E+00 0.  1.
         11    1    3    3    0    0 -0.44225152855E+01 -0.18482273260E+02 -0.21226030512E+02  0.28490304278E+02  0.51100000000E-03 0. -1.
        -11    1    3    3    0    0  0.11159611947E+02 -0.15784302515E+02  0.42426597978E+01  0.19790940026E+02  0.51100000000E-03 0.  1.
         12    1    3    3    0    0  0.32122794777E+00  0.38974916561E+01  0.10303476484E+02  0.11020674038E+02  0.00000000000E+00 0. -1.
</event>
<event>
 7    1  0.6293596E-013  0.5930220E+02  0.7816164E-02  0.1266604E+00
        -11   -1    0    0    0    0  0.00000000000E+00  0.00000000000E+00  0.45593999997E+02  0.45594000000E+02  0.51100000000E-03 0.  1.
         11   -1    0    0    0    0 -0.00000000000E+00 -0.00000000000E+00 -0.45593999997E+02  0.45594000000E+02  0.51100000000E-03 0. -1.
    9900012    2    1    2    0    0  0.12235329685E+02  0.19849334701E+02 -0.21748679561E+02  0.59302196839E+02  0.50000461066E+02 0.  0.
        -12    1    1    2    0    0 -0.12235329685E+02 -0.19849334701E+02  0.21748679561E+02  0.31885803161E+02  0.00000000000E+00 0.  1.
         11    1    3    3    0    0  0.15316795388E+02  0.27676667711E+02 -0.11033123976E+02  0.33501223581E+02  0.51100000000E-03 0.  1.
        -11    1    3    3    0    0 -0.80647624688E+01 -0.73781947517E+01  0.28886197333E+01  0.11305851392E+02  0.51100000000E-03 0. -1.
         12    1    3    3    0    0  0.49832967664E+01 -0.44913825815E+00 -0.13604175318E+02  0.14495121866E+02  0.00000000000E+00 0. -1.
</event>
<event>
 7    1  0.6293596E-013  0.5930194E+02  0.7816164E-02  0.1266605E+00
        -11   -1    0    0    0    0  0.00000000000E+00  0.00000000000E+00  0.45593999997E+02  0.45594000000E+02  0.51100000000E-03 0.  1.
         11   -1    0    0    0    0 -0.00000000000E+00 -0.00000000000E+00 -0.45593999997E+02  0.45594000000E+02  0.51100000000E-03 0. -1.
    9900012    2    1    2    0    0  0.34088456379E+01 -0.21835173823E+02 -0.22985344210E+02  0.59301935757E+02  0.49999984916E+02 0.  0.
        -12    1    1    2    0    0 -0.34088456379E+01  0.21835173823E+02  0.22985344210E+02  0.31886064243E+02  0.00000000000E+00 0.  1.
         11    1    3    3    0    0  0.14668941914E+02 -0.48113769049E+01 -0.26634796603E+01  0.15665928914E+02  0.51100000000E-03 0.  1.
        -11    1    3    3    0    0 -0.90117227814E+00 -0.13319718328E+02 -0.27452127146E+02  0.30526157519E+02  0.51100000000E-03 0. -1.
         12    1    3    3    0    0 -0.10358923998E+02 -0.37040785902E+01  0.71302625958E+01  0.13109849323E+02  0.00000000000E+00 0. -1.
</event>
<event>
 7    1  0.6293596E-013  0.5930190E+02  0.7816164E-02  0.1266605E+00
        -11   -1    0    0    0    0  0.00000000000E+00  0.00000000000E+00  0.45593999997E+02  0.45594000000E+02  0.51100000000E-03 0. -1.
         11   -1    0    0    0    0 -0.00000000000E+00 -0.00000000000E+00 -0.45593999997E+02  0.45594000000E+02  0.51100000000E-03 0.  1.
    9900012    2    1    2    0    0  0.31164348531E+02 -0.89884460585E+00  0.66856947861E+01  0.59301904978E+02  0.49999928783E+02 0.  0.
        -12    1    1    2    0    0 -0.31164348531E+02  0.89884460585E+00 -0.66856947861E+01  0.31886095022E+02  0.00000000000E+00 0.  1.
         11    1    3    3    0    0  0.11854346807E+02  0.11331592616E+02  0.96879820481E+01  0.19046982067E+02  0.51100000000E-03 0. -1.
        -11    1    3    3    0    0 -0.31531616719E+01 -0.77905269032E+01 -0.12829671122E+02  0.15337379154E+02  0.51100000000E-03 0.  1.
        -12    1    3    3    0    0  0.22463163396E+02 -0.44399103182E+01  0.98273838595E+01  0.24917543757E+02  0.00000000000E+00 0.  1.
</event>
<event>
 7    1  0.6293596E-013  0.5930194E+02  0.7816164E-02  0.1266605E+00
        -11   -1    0    0    0    0  0.00000000000E+00  0.00000000000E+00  0.45593999997E+02  0.45594000000E+02  0.51100000000E-03 0.  1.
         11   -1    0    0    0    0 -0.00000000000E+00 -0.00000000000E+00 -0.45593999997E+02  0.45594000000E+02  0.51100000000E-03 0. -1.
    9900012    2    1    2    0    0 -0.11904455850E+02 -0.10995375003E+02 -0.27460994890E+02  0.59301943786E+02  0.49999999559E+02 0.  0.
        -12    1    1    2    0    0  0.11904455850E+02  0.10995375003E+02  0.27460994890E+02  0.31886056214E+02  0.00000000000E+00 0.  1.
         11    1    3    3    0    0 -0.16591017630E+02 -0.15497223626E+02 -0.97153420024E+01  0.24694405776E+02  0.51100000000E-03 0. -1.
        -11    1    3    3    0    0  0.16800971004E+02  0.71014147064E+00 -0.12088317254E+02  0.20710005840E+02  0.51100000000E-03 0.  1.
         12    1    3    3    0    0 -0.12114409224E+02  0.37917071526E+01 -0.56573356332E+01  0.13897532171E+02  0.00000000000E+00 0. -1.
</event>
<event>
 7    1  0.6293596E-013  0.5930194E+02  0.7816164E-02  0.1266605E+00
        -11   -1    0    0    0    0  0.00000000000E+00  0.00000000000E+00  0.45593999997E+02  0.45594000000E+02  0.51100000000E-03 0.  1.
         11   -1    0    0    0    0 -0.00000000000E+00 -0.00000000000E+00 -0.45593999997E+02  0.45594000000E+02  0.51100000000E-03 0. -1.
    9900012    2    1    2    0    0 -0.17030355703E+02  0.42899928118E+01 -0.26613603617E+02  0.59301937980E+02  0.49999988969E+02 0.  0.
        -12    1    1    2    0    0  0.17030355703E+02 -0.42899928118E+01  0.26613603617E+02  0.31886062020E+02  0.00000000000E+00 0.  1.
         11    1    3    3    0    0 -0.51459409186E+01 -0.21389695707E+02 -0.14984147645E+02  0.26618122986E+02  0.51100000000E-03 0. -1.
        -11    1    3    3    0    0 -0.48262080368E+01  0.36271788082E+01  0.12832205646E+01  0.61721443113E+01  0.51100000000E-03 0.  1.
         12    1    3    3    0    0 -0.70582067471E+01  0.22052509711E+02 -0.12912676537E+02  0.26511670682E+02  0.00000000000E+00 0. -1.
</event>
<event>
 7    1  0.6293596E-013  0.5930194E+02  0.7816164E-02  0.1266605E+00
        -11   -1    0    0    0    0  0.00000000000E+00  0.00000000000E+00  0.45593999997E+02  0.45594000000E+02  0.51100000000E-03 0.  1.
         11   -1    0    0    0    0 -0.00000000000E+00 -0.00000000000E+00 -0.45593999997E+02  0.45594000000E+02  0.51100000000E-03 0. -1.
    9900012    2    1    2    0    0  0.31589875089E+02 -0.24665335313E+01 -0.35660388303E+01  0.59301943035E+02  0.49999998190E+02 0.  0.
        -12    1    1    2    0    0 -0.31589875089E+02  0.24665335313E+01  0.35660388303E+01  0.31886056965E+02  0.00000000000E+00 0.  1.
         11    1    3    3    0    0  0.35450018117E+02 -0.52893153201E+01 -0.13863562981E+01  0.35869243441E+02  0.51100000000E-03 0. -1.
        -11    1    3    3    0    0 -0.52897605876E+01 -0.52844729798E+01  0.75918003230E+01  0.10655639547E+02  0.51100000000E-03 0.  1.
         12    1    3    3    0    0  0.14296175604E+01  0.81072547686E+01 -0.97714828553E+01  0.12777060047E+02  0.00000000000E+00 0. -1.
</event>
<event>
 7    1  0.6293596E-013  0.5930195E+02  0.7816164E-02  0.1266605E+00
        -11   -1    0    0    0    0  0.00000000000E+00  0.00000000000E+00  0.45593999997E+02  0.45594000000E+02  0.51100000000E-03 0.  1.
         11   -1    0    0    0    0 -0.00000000000E+00 -0.00000000000E+00 -0.45593999997E+02  0.45594000000E+02  0.51100000000E-03 0. -1.
    9900012    2    1    2    0    0  0.21136458031E+01  0.34862160777E+01 -0.31624344232E+02  0.59301947418E+02  0.50000006184E+02 0.  0.
        -12    1    1    2    0    0 -0.21136458031E+01 -0.34862160777E+01  0.31624344232E+02  0.31886052582E+02  0.00000000000E+00 0.  1.
         11    1    3    3    0    0  0.29390682202E+01  0.20803358956E+01 -0.39092591287E+01  0.53149060799E+01  0.51100000000E-03 0. -1.
        -11    1    3    3    0    0  0.22360321611E+01 -0.22307635062E+02 -0.13310744421E+02  0.26073096080E+02  0.51100000000E-03 0.  1.
        -12    1    3    3    0    0 -0.30614545781E+01  0.23713515245E+02 -0.14404340682E+02  0.27913945258E+02  0.00000000000E+00 0.  1.
</event>
<event>
 7    1  0.6293596E-013  0.5930196E+02  0.7816164E-02  0.1266605E+00
        -11   -1    0    0    0    0  0.00000000000E+00  0.00000000000E+00  0.45593999997E+02  0.45594000000E+02  0.51100000000E-03 0. -1.
         11   -1    0    0    0    0 -0.00000000000E+00 -0.00000000000E+00 -0.45593999997E+02  0.45594000000E+02  0.51100000000E-03 0.  1.
    9900012    2    1    2    0    0 -0.30370023063E+02  0.38098776183E+00  0.97075405383E+01  0.59301956097E+02  0.50000022011E+02 0.  0.
        -12    1    1    2    0    0  0.30370023063E+02 -0.38098776183E+00 -0.97075405383E+01  0.31886043903E+02  0.00000000000E+00 0.  1.
         11    1    3    3    0    0 -0.52294173962E+01 -0.74668293431E+01  0.16177648439E+02  0.18569239511E+02  0.51100000000E-03 0. -1.
        -11    1    3    3    0    0 -0.13482944050E+02  0.17900036113E+02 -0.10607081594E+02  0.24793371156E+02  0.51100000000E-03 0.  1.
        -12    1    3    3    0    0 -0.11657661617E+02 -0.10052219008E+02  0.41369736927E+01  0.15939345429E+02  0.00000000000E+00 0.  1.
</event>
<event>
 7    1  0.6293596E-013  0.5930194E+02  0.7816164E-02  0.1266605E+00
        -11   -1    0    0    0    0  0.00000000000E+00  0.00000000000E+00  0.45593999997E+02  0.45594000000E+02  0.51100000000E-03 0. -1.
         11   -1    0    0    0    0 -0.00000000000E+00 -0.00000000000E+00 -0.45593999997E+02  0.45594000000E+02  0.51100000000E-03 0.  1.
    9900012    2    1    2    0    0 -0.19227631269E+02  0.24774926119E+02 -0.57638609444E+01  0.59301939387E+02  0.49999991536E+02 0.  0.
        -12    1    1    2    0    0  0.19227631269E+02 -0.24774926119E+02  0.57638609444E+01  0.31886060613E+02  0.00000000000E+00 0.  1.
         11    1    3    3    0    0  0.13525414070E+02  0.18325301533E+02 -0.88110909754E+01  0.24421073409E+02  0.51100000000E-03 0. -1.
        -11    1    3    3    0    0 -0.17092197710E+02  0.82430500326E+01  0.12863289870E+01  0.19019614584E+02  0.51100000000E-03 0.  1.
         12    1    3    3    0    0 -0.15660847629E+02 -0.17934254462E+01  0.17609010440E+01  0.15861251393E+02  0.00000000000E+00 0. -1.
</event>
<event>
 7    1  0.6293596E-013  0.5930193E+02  0.7816164E-02  0.1266605E+00
        -11   -1    0    0    0    0  0.00000000000E+00  0.00000000000E+00  0.45593999997E+02  0.45594000000E+02  0.51100000000E-03 0. -1.
         11   -1    0    0    0    0 -0.00000000000E+00 -0.00000000000E+00 -0.45593999997E+02  0.45594000000E+02  0.51100000000E-03 0.  1.
    9900012    2    1    2    0    0 -0.20346604893E+02 -0.17070593794E+02  0.17644598541E+02  0.59301931556E+02  0.49999977254E+02 0.  0.
        -12    1    1    2    0    0  0.20346604893E+02  0.17070593794E+02 -0.17644598541E+02  0.31886068444E+02  0.00000000000E+00 0.  1.
         11    1    3    3    0    0 -0.14215211474E+02 -0.17350224361E+02  0.21863689865E+02  0.31322890310E+02  0.51100000000E-03 0. -1.
        -11    1    3    3    0    0 -0.28725914750E+01  0.55696824906E+01 -0.14595860411E+02  0.15884340912E+02  0.51100000000E-03 0.  1.
        -12    1    3    3    0    0 -0.32588019439E+01 -0.52900519238E+01  0.10376769087E+02  0.12094700333E+02  0.00000000000E+00 0.  1.
</event>
<event>
 7    1  0.6293596E-013  0.5930189E+02  0.7816164E-02  0.1266605E+00
        -11   -1    0    0    0    0  0.00000000000E+00  0.00000000000E+00  0.45593999997E+02  0.45594000000E+02  0.51100000000E-03 0.  1.
         11   -1    0    0    0    0 -0.00000000000E+00 -0.00000000000E+00 -0.45593999997E+02  0.45594000000E+02  0.51100000000E-03 0. -1.
    9900012    2    1    2    0    0 -0.57688779753E+00  0.11901052660E+02 -0.29576272888E+02  0.59301893749E+02  0.49999908303E+02 0.  0.
        -12    1    1    2    0    0  0.57688779753E+00 -0.11901052660E+02  0.29576272888E+02  0.31886106251E+02  0.00000000000E+00 0.  1.
         11    1    3    3    0    0  0.57030678365E+01 -0.49573583670E+01  0.99194601414E+00  0.76213084102E+01  0.51100000000E-03 0. -1.
        -11    1    3    3    0    0 -0.11367583244E+02  0.26206636283E+02 -0.29369263440E+02  0.40970274216E+02  0.51100000000E-03 0.  1.
        -12    1    3    3    0    0  0.50876276099E+01 -0.93482252562E+01 -0.11989554617E+01  0.10710311122E+02  0.00000000000E+00 0.  1.
</event>
<event>
 7    1  0.6293596E-013  0.5930194E+02  0.7816164E-02  0.1266605E+00
        -11   -1    0    0    0    0  0.00000000000E+00  0.00000000000E+00  0.45593999997E+02  0.45594000000E+02  0.51100000000E-03 0. -1.
         11   -1    0    0    0    0 -0.00000000000E+00 -0.00000000000E+00 -0.45593999997E+02  0.45594000000E+02  0.51100000000E-03 0.  1.
    9900012    2    1    2    0    0  0.64356527917E+01  0.28529842096E+02  0.12702416765E+02  0.59301938648E+02  0.49999990189E+02 0.  0.
        -12    1    1    2    0    0 -0.64356527917E+01 -0.28529842096E+02 -0.12702416765E+02  0.31886061352E+02  0.00000000000E+00 0.  1.
         11    1    3    3    0    0  0.10660171137E+02 -0.75303078417E+01  0.19167460733E+01  0.13191614784E+02  0.51100000000E-03 0. -1.
        -11    1    3    3    0    0  0.93916321176E+00  0.28682267924E+02  0.18590867901E+02  0.34193199475E+02  0.51100000000E-03 0.  1.
        -12    1    3    3    0    0 -0.51636815566E+01  0.73778820135E+01 -0.78051972088E+01  0.11917124389E+02  0.00000000000E+00 0.  1.
</event>
<event>
 7    1  0.6293596E-013  0.5930194E+02  0.7816164E-02  0.1266605E+00
        -11   -1    0    0    0    0  0.00000000000E+00  0.00000000000E+00  0.45593999997E+02  0.45594000000E+02  0.51100000000E-03 0.  1.
         11   -1    0    0    0    0 -0.00000000000E+00 -0.00000000000E+00 -0.45593999997E+02  0.45594000000E+02  0.51100000000E-03 0. -1.
    9900012    2    1    2    0    0  0.14661510120E+02 -0.21861755358E+02 -0.17995135095E+02  0.59301935436E+02  0.49999984330E+02 0.  0.
        -12    1    1    2    0    0 -0.14661510120E+02  0.21861755358E+02  0.17995135095E+02  0.31886064564E+02  0.00000000000E+00 0.  1.
         11    1    3    3    0    0  0.69259943422E+01 -0.24232770355E+02 -0.31784393718E+02  0.40564075744E+02  0.51100000000E-03 0. -1.
        -11    1    3    3    0    0  0.42293991151E+00 -0.31407239537E+01  0.17769124079E+01  0.36332414025E+01  0.51100000000E-03 0.  1.
         12    1    3    3    0    0  0.73125758667E+01  0.55117389508E+01  0.12012346215E+02  0.15104618289E+02  0.00000000000E+00 0. -1.
</event>
<event>
 7    1  0.6293596E-013  0.5930196E+02  0.7816164E-02  0.1266605E+00
        -11   -1    0    0    0    0  0.00000000000E+00  0.00000000000E+00  0.45593999997E+02  0.45594000000E+02  0.51100000000E-03 0.  1.
         11   -1    0    0    0    0 -0.00000000000E+00 -0.00000000000E+00 -0.45593999997E+02  0.45594000000E+02  0.51100000000E-03 0. -1.
    9900012    2    1    2    0    0 -0.25240799102E+02  0.17058470135E+02  0.94143538779E+01  0.59301962278E+02  0.50000033285E+02 0.  0.
        -12    1    1    2    0    0  0.25240799102E+02 -0.17058470135E+02 -0.94143538779E+01  0.31886037722E+02  0.00000000000E+00 0.  1.
         11    1    3    3    0    0 -0.15135116736E+01  0.10781087057E+01 -0.12084852841E+00  0.18621601960E+01  0.51100000000E-03 0. -1.
        -11    1    3    3    0    0 -0.13515302904E+02  0.33044641649E+02  0.77718256399E+00  0.35710163362E+02  0.51100000000E-03 0.  1.
        -12    1    3    3    0    0 -0.10211984524E+02 -0.17064280221E+02  0.87580198423E+01  0.21729638721E+02  0.00000000000E+00 0.  1.
</event>
<event>
 7    1  0.6293596E-013  0.5930198E+02  0.7816164E-02  0.1266605E+00
        -11   -1    0    0    0    0  0.00000000000E+00  0.00000000000E+00  0.45593999997E+02  0.45594000000E+02  0.51100000000E-03 0. -1.
         11   -1    0    0    0    0 -0.00000000000E+00 -0.00000000000E+00 -0.45593999997E+02  0.45594000000E+02  0.51100000000E-03 0.  1.
    9900012    2    1    2    0    0  0.24728930942E+02  0.18351244163E+02  0.82722360813E+01  0.59301983039E+02  0.50000071147E+02 0.  0.
        -12    1    1    2    0    0 -0.24728930942E+02 -0.18351244163E+02 -0.82722360813E+01  0.31886016961E+02  0.00000000000E+00 0.  1.
         11    1    3    3    0    0 -0.26968339235E+01  0.10511116302E+02  0.21848679027E+02  0.24395107186E+02  0.51100000000E-03 0. -1.
        -11    1    3    3    0    0  0.78233472407E+01 -0.42336718892E+00 -0.10961713383E+02  0.13473795396E+02  0.51100000000E-03 0.  1.
         12    1    3    3    0    0  0.19602417625E+02  0.82634950499E+01 -0.26147295628E+01  0.21433080457E+02  0.00000000000E+00 0. -1.
</event>
<event>
 7    1  0.6293596E-013  0.5930207E+02  0.7816164E-02  0.1266604E+00
        -11   -1    0    0    0    0  0.00000000000E+00  0.00000000000E+00  0.45593999997E+02  0.45594000000E+02  0.51100000000E-03 0.  1.
         11   -1    0    0    0    0 -0.00000000000E+00 -0.00000000000E+00 -0.45593999997E+02  0.45594000000E+02  0.51100000000E-03 0. -1.
    9900012    2    1    2    0    0  0.12033141329E+02  0.25527207835E+02 -0.14841753167E+02  0.59302071016E+02  0.50000231596E+02 0.  0.
        -12    1    1    2    0    0 -0.12033141329E+02 -0.25527207835E+02  0.14841753167E+02  0.31885928984E+02  0.00000000000E+00 0.  1.
         11    1    3    3    0    0  0.23888958576E+02  0.24346637245E+02 -0.15213234448E+02  0.37348140377E+02  0.51100000000E-03 0. -1.
        -11    1    3    3    0    0  0.61681536544E+00 -0.11775810826E+00  0.75020966299E+01  0.75283319714E+01  0.51100000000E-03 0.  1.
         12    1    3    3    0    0 -0.12472632612E+02  0.12983286980E+01 -0.71306153489E+01  0.14425598668E+02  0.00000000000E+00 0. -1.
</event>
<event>
 7    1  0.6293596E-013  0.5930190E+02  0.7816164E-02  0.1266605E+00
        -11   -1    0    0    0    0  0.00000000000E+00  0.00000000000E+00  0.45593999997E+02  0.45594000000E+02  0.51100000000E-03 0. -1.
         11   -1    0    0    0    0 -0.00000000000E+00 -0.00000000000E+00 -0.45593999997E+02  0.45594000000E+02  0.51100000000E-03 0.  1.
    9900012    2    1    2    0    0  0.30201301625E+02 -0.87512207632E+01  0.52934630033E+01  0.59301902163E+02  0.49999923650E+02 0.  0.
        -12    1    1    2    0    0 -0.30201301625E+02  0.87512207632E+01 -0.52934630033E+01  0.31886097837E+02  0.00000000000E+00 0.  1.
         11    1    3    3    0    0  0.33732786649E+02  0.55693048254E+01  0.41216329173E+01  0.34436984617E+02  0.51100000000E-03 0. -1.
        -11    1    3    3    0    0 -0.78000623918E+01 -0.50661470855E+01  0.82694922460E+01  0.12445534214E+02  0.51100000000E-03 0.  1.
         12    1    3    3    0    0  0.42685773676E+01 -0.92543785030E+01 -0.70976621600E+01  0.12419383332E+02  0.00000000000E+00 0. -1.
</event>
<event>
 7    1  0.6293596E-013  0.5930193E+02  0.7816164E-02  0.1266605E+00
        -11   -1    0    0    0    0  0.00000000000E+00  0.00000000000E+00  0.45593999997E+02  0.45594000000E+02  0.51100000000E-03 0. -1.
         11   -1    0    0    0    0 -0.00000000000E+00 -0.00000000000E+00 -0.45593999997E+02  0.45594000000E+02  0.51100000000E-03 0.  1.
    9900012    2    1    2    0    0 -0.17923864479E+02 -0.15932195101E+02  0.21014789798E+02  0.59301934880E+02  0.49999983317E+02 0.  0.
        -12    1    1    2    0    0  0.17923864479E+02  0.15932195101E+02 -0.21014789798E+02  0.31886065120E+02  0.00000000000E+00 0.  1.
         11    1    3    3    0    0 -0.41137584072E+00 -0.28923409853E+02  0.94919762784E+01  0.30443890710E+02  0.51100000000E-03 0. -1.
        -11    1    3    3    0    0 -0.17634748866E+01  0.93403594743E+01  0.77317817896E+01  0.12252861245E+02  0.51100000000E-03 0.  1.
         12    1    3    3    0    0 -0.15749013751E+02  0.36508552783E+01  0.37910317302E+01  0.16605182925E+02  0.00000000000E+00 0. -1.
</event>
<event>
 7    1  0.6293596E-013  0.5930194E+02  0.7816164E-02  0.1266605E+00
        -11   -1    0    0    0    0  0.00000000000E+00  0.00000000000E+00  0.45593999997E+02  0.45594000000E+02  0.51100000000E-03 0. -1.
         11   -1    0    0    0    0 -0.00000000000E+00 -0.00000000000E+00 -0.45593999997E+02  0.45594000000E+02  0.51100000000E-03 0.  1.
    9900012    2    1    2    0    0 -0.11954284423E+02  0.29012766021E+02  0.56634906931E+01  0.59301942936E+02  0.49999998008E+02 0.  0.
        -12    1    1    2    0    0  0.11954284423E+02 -0.29012766021E+02 -0.56634906931E+01  0.31886057064E+02  0.00000000000E+00 0.  1.
         11    1    3    3    0    0 -0.11995969405E+02 -0.97391028221E+00 -0.14085589332E+02  0.18527158721E+02  0.51100000000E-03 0. -1.
        -11    1    3    3    0    0 -0.78622862182E+01  0.54404941507E+01  0.29806073237E+01  0.10014915949E+02  0.51100000000E-03 0.  1.
         12    1    3    3    0    0  0.79039711999E+01  0.24546182153E+02  0.16768472701E+02  0.30759868266E+02  0.00000000000E+00 0. -1.
</event>
<event>
 7    1  0.6293596E-013  0.5930193E+02  0.7816164E-02  0.1266605E+00
        -11   -1    0    0    0    0  0.00000000000E+00  0.00000000000E+00  0.45593999997E+02  0.45594000000E+02  0.51100000000E-03 0. -1.
         11   -1    0    0    0    0 -0.00000000000E+00 -0.00000000000E+00 -0.45593999997E+02  0.45594000000E+02  0.51100000000E-03 0.  1.
    9900012    2    1    2    0    0  0.17368850439E+02 -0.26347750862E+02 -0.45651608000E+01  0.59301927269E+02  0.49999969436E+02 0.  0.
        -12    1    1    2    0    0 -0.17368850439E+02  0.26347750862E+02  0.45651608000E+01  0.31886072731E+02  0.00000000000E+00 0.  1.
         11    1    3    3    0    0  0.63573202907E+01 -0.33485895676E+02  0.36344543639E+01  0.34277251776E+02  0.51100000000E-03 0. -1.
        -11    1    3    3    0    0  0.15936663138E+02  0.62211548767E+01 -0.98612853100E+01  0.19746517369E+02  0.51100000000E-03 0.  1.
        -12    1    3    3    0    0 -0.49251329894E+01  0.91698993762E+00  0.16616701460E+01  0.52781581242E+01  0.00000000000E+00 0.  1.
</event>
<event>
 7    1  0.6293596E-013  0.5930192E+02  0.7816164E-02  0.1266605E+00
        -11   -1    0    0    0    0  0.00000000000E+00  0.00000000000E+00  0.45593999997E+02  0.45594000000E+02  0.51100000000E-03 0.  1.
         11   -1    0    0    0    0 -0.00000000000E+00 -0.00000000000E+00 -0.45593999997E+02  0.45594000000E+02  0.51100000000E-03 0. -1.
    9900012    2    1    2    0    0  0.13437022651E+02 -0.28098373756E+02  0.68300532119E+01  0.59301924476E+02  0.49999964342E+02 0.  0.
        -12    1    1    2    0    0 -0.13437022651E+02  0.28098373756E+02 -0.68300532119E+01  0.31886075524E+02  0.00000000000E+00 0.  1.
         11    1    3    3    0    0  0.28590997223E+02 -0.18778698525E+02 -0.12958685810E+01  0.34231037322E+02  0.51100000000E-03 0. -1.
        -11    1    3    3    0    0 -0.71897107254E+01 -0.12568753189E+02  0.78367592862E+01  0.16464516191E+02  0.51100000000E-03 0.  1.
         12    1    3    3    0    0 -0.79642638465E+01  0.32490779579E+01  0.28916250670E+00  0.86063709628E+01  0.00000000000E+00 0. -1.
</event>
<event>
 7    1  0.6293596E-013  0.5930196E+02  0.7816164E-02  0.1266605E+00
        -11   -1    0    0    0    0  0.00000000000E+00  0.00000000000E+00  0.45593999997E+02  0.45594000000E+02  0.51100000000E-03 0.  1.
         11   -1    0    0    0    0 -0.00000000000E+00 -0.00000000000E+00 -0.45593999997E+02  0.45594000000E+02  0.51100000000E-03 0. -1.
    9900012    2    1    2    0    0 -0.88940209412E+01  0.16648745089E+01 -0.30575222300E+02  0.59301958629E+02  0.50000026629E+02 0.  0.
        -12    1    1    2    0    0  0.88940209412E+01 -0.16648745089E+01  0.30575222300E+02  0.31886041371E+02  0.00000000000E+00 0.  1.
         11    1    3    3    0    0  0.14578210091E+02 -0.11948374085E+02 -0.24855863997E+02  0.31194580107E+02  0.51100000000E-03 0. -1.
        -11    1    3    3    0    0 -0.12555554554E+02  0.98968763628E+01 -0.33785702619E+01  0.16340283020E+02  0.51100000000E-03 0.  1.
         12    1    3    3    0    0 -0.10916676478E+02  0.37163722314E+01 -0.23407880406E+01  0.11767095502E+02  0.00000000000E+00 0. -1.
</event>
<event>
 7    1  0.6293596E-013  0.5930194E+02  0.7816164E-02  0.1266605E+00
        -11   -1    0    0    0    0  0.00000000000E+00  0.00000000000E+00  0.45593999997E+02  0.45594000000E+02  0.51100000000E-03 0.  1.
         11   -1    0    0    0    0 -0.00000000000E+00 -0.00000000000E+00 -0.45593999997E+02  0.45594000000E+02  0.51100000000E-03 0. -1.
    9900012    2    1    2    0    0 -0.95354742370E+00 -0.29182146978E+02  0.12814587714E+02  0.59301943279E+02  0.49999998634E+02 0.  0.
        -12    1    1    2    0    0  0.95354742370E+00  0.29182146978E+02 -0.12814587714E+02  0.31886056721E+02  0.00000000000E+00 0.  1.
         11    1    3    3    0    0 -0.59279537304E+01 -0.17147956196E+02  0.76526973871E+01  0.19691541704E+02  0.51100000000E-03 0. -1.
        -11    1    3    3    0    0  0.84075151308E+01  0.35706046796E+01 -0.12700797265E+02  0.15644352971E+02  0.51100000000E-03 0.  1.
        -12    1    3    3    0    0 -0.34331088241E+01 -0.15604795462E+02  0.17862687593E+02  0.23966048603E+02  0.00000000000E+00 0.  1.
</event>
<event>
 7    1  0.6293596E-013  0.5930191E+02  0.7816164E-02  0.1266605E+00
        -11   -1    0    0    0    0  0.00000000000E+00  0.00000000000E+00  0.45593999997E+02  0.45594000000E+02  0.51100000000E-03 0.  1.
         11   -1    0    0    0    0 -0.00000000000E+00 -0.00000000000E+00 -0.45593999997E+02  0.45594000000E+02  0.51100000000E-03 0. -1.
    9900012    2    1    2    0    0  0.16002775275E+02 -0.16874727480E+02 -0.21814609893E+02  0.59301914496E+02  0.49999946141E+02 0.  0.
        -12    1    1    2    0    0 -0.16002775275E+02  0.16874727480E+02  0.21814609893E+02  0.31886085504E+02  0.00000000000E+00 0.  1.
         11    1    3    3    0    0  0.28930234237E+01 -0.11491600560E+02 -0.31124683976E+00  0.11854254208E+02  0.51100000000E-03 0. -1.
        -11    1    3    3    0    0  0.34759502749E+01  0.94010589150E+01 -0.27133214653E+02  0.28925308584E+02  0.51100000000E-03 0.  1.
        -12    1    3    3    0    0  0.96338015761E+01 -0.14784185835E+02  0.56298516002E+01  0.18522351704E+02  0.00000000000E+00 0.  1.
</event>
<event>
 7    1  0.6293596E-013  0.5930195E+02  0.7816164E-02  0.1266605E+00
        -11   -1    0    0    0    0  0.00000000000E+00  0.00000000000E+00  0.45593999997E+02  0.45594000000E+02  0.51100000000E-03 0.  1.
         11   -1    0    0    0    0 -0.00000000000E+00 -0.00000000000E+00 -0.45593999997E+02  0.45594000000E+02  0.51100000000E-03 0. -1.
    9900012    2    1    2    0    0 -0.14136554652E+02  0.26530518692E+02 -0.10630587214E+02  0.59301953146E+02  0.50000016629E+02 0.  0.
        -12    1    1    2    0    0  0.14136554652E+02 -0.26530518692E+02  0.10630587214E+02  0.31886046854E+02  0.00000000000E+00 0.  1.
         11    1    3    3    0    0 -0.19389682519E+02  0.32761625448E+02  0.25361970679E+01  0.38153848901E+02  0.51100000000E-03 0. -1.
        -11    1    3    3    0    0  0.16896937931E+01  0.21703223309E+01 -0.11558890976E+02  0.11881638144E+02  0.51100000000E-03 0.  1.
         12    1    3    3    0    0  0.35634340737E+01 -0.84014290871E+01 -0.16078933057E+01  0.92664661002E+01  0.00000000000E+00 0. -1.
</event>
<event>
 7    1  0.6293596E-013  0.5930194E+02  0.7816164E-02  0.1266605E+00
        -11   -1    0    0    0    0  0.00000000000E+00  0.00000000000E+00  0.45593999997E+02  0.45594000000E+02  0.51100000000E-03 0.  1.
         11   -1    0    0    0    0 -0.00000000000E+00 -0.00000000000E+00 -0.45593999997E+02  0.45594000000E+02  0.51100000000E-03 0. -1.
    9900012    2    1    2    0    0 -0.63110370753E+01 -0.23380028710E+02 -0.20742854374E+02  0.59301938170E+02  0.49999989317E+02 0.  0.
        -12    1    1    2    0    0  0.63110370753E+01  0.23380028710E+02  0.20742854374E+02  0.31886061830E+02  0.00000000000E+00 0.  1.
         11    1    3    3    0    0 -0.26691422037E+02 -0.15504943598E+02 -0.17524704193E+02  0.35495782054E+02  0.51100000000E-03 0.  1.
        -11    1    3    3    0    0  0.16649590309E+02 -0.25365380845E+01 -0.80644663425E+00  0.16860997579E+02  0.51100000000E-03 0. -1.
        -12    1    3    3    0    0  0.37307946529E+01 -0.53385470278E+01 -0.24117035462E+01  0.69451585371E+01  0.00000000000E+00 0.  1.
</event>
<event>
 7    1  0.6293596E-013  0.5930194E+02  0.7816164E-02  0.1266605E+00
        -11   -1    0    0    0    0  0.00000000000E+00  0.00000000000E+00  0.45593999997E+02  0.45594000000E+02  0.51100000000E-03 0. -1.
         11   -1    0    0    0    0 -0.00000000000E+00 -0.00000000000E+00 -0.45593999997E+02  0.45594000000E+02  0.51100000000E-03 0.  1.
    9900012    2    1    2    0    0  0.13435988743E+02 -0.19014959749E+02  0.21785926800E+02  0.59301935735E+02  0.49999984877E+02 0.  0.
        -12    1    1    2    0    0 -0.13435988743E+02  0.19014959749E+02 -0.21785926800E+02  0.31886064265E+02  0.00000000000E+00 0.  1.
         11    1    3    3    0    0 -0.52807826539E+01  0.21046168488E+01  0.12586416155E+02  0.13810646234E+02  0.51100000000E-03 0. -1.
        -11    1    3    3    0    0  0.20092779812E+02 -0.10419365486E+02 -0.89813634075E+01  0.24350520870E+02  0.51100000000E-03 0.  1.
        -12    1    3    3    0    0 -0.13760084160E+01 -0.10700211112E+02  0.18180874052E+02  0.21140768631E+02  0.00000000000E+00 0.  1.
</event>
<event>
 7    1  0.6293596E-013  0.5930193E+02  0.7816164E-02  0.1266605E+00
        -11   -1    0    0    0    0  0.00000000000E+00  0.00000000000E+00  0.45593999997E+02  0.45594000000E+02  0.51100000000E-03 0. -1.
         11   -1    0    0    0    0 -0.00000000000E+00 -0.00000000000E+00 -0.45593999997E+02  0.45594000000E+02  0.51100000000E-03 0.  1.
    9900012    2    1    2    0    0 -0.22927684770E+01  0.28981671785E+02  0.13096840115E+02  0.59301932388E+02  0.49999978772E+02 0.  0.
        -12    1    1    2    0    0  0.22927684770E+01 -0.28981671785E+02 -0.13096840115E+02  0.31886067612E+02  0.00000000000E+00 0.  1.
         11    1    3    3    0    0 -0.15272716204E+02  0.10554246003E+02 -0.12074562269E+02  0.22145948234E+02  0.51100000000E-03 0. -1.
        -11    1    3    3    0    0  0.19515040942E-01  0.10106554994E+02  0.37657971999E+01  0.10785363392E+02  0.51100000000E-03 0.  1.
         12    1    3    3    0    0  0.12960432686E+02  0.83208707882E+01  0.21405605184E+02  0.26370620762E+02  0.00000000000E+00 0. -1.
</event>
<event>
 7    1  0.6293596E-013  0.5930196E+02  0.7816164E-02  0.1266605E+00
        -11   -1    0    0    0    0  0.00000000000E+00  0.00000000000E+00  0.45593999997E+02  0.45594000000E+02  0.51100000000E-03 0.  1.
         11   -1    0    0    0    0 -0.00000000000E+00 -0.00000000000E+00 -0.45593999997E+02  0.45594000000E+02  0.51100000000E-03 0. -1.
    9900012    2    1    2    0    0 -0.19051945212E+02  0.25802517285E+01 -0.25437874868E+02  0.59301956138E+02  0.50000022087E+02 0.  0.
        -12    1    1    2    0    0  0.19051945212E+02 -0.25802517285E+01  0.25437874868E+02  0.31886043862E+02  0.00000000000E+00 0.  1.
         11    1    3    3    0    0 -0.16262524064E+02 -0.13888223498E+02 -0.19863328739E+02  0.29187399160E+02  0.51100000000E-03 0. -1.
        -11    1    3    3    0    0  0.94520046054E+01  0.10556070447E+02  0.23740613180E+01  0.14366877940E+02  0.51100000000E-03 0.  1.
        -12    1    3    3    0    0 -0.12241425754E+02  0.59124047794E+01 -0.79486074465E+01  0.15747679038E+02  0.00000000000E+00 0.  1.
</event>
<event>
 7    1  0.6293596E-013  0.5930191E+02  0.7816164E-02  0.1266605E+00
        -11   -1    0    0    0    0  0.00000000000E+00  0.00000000000E+00  0.45593999997E+02  0.45594000000E+02  0.51100000000E-03 0. -1.
         11   -1    0    0    0    0 -0.00000000000E+00 -0.00000000000E+00 -0.45593999997E+02  0.45594000000E+02  0.51100000000E-03 0.  1.
    9900012    2    1    2    0    0  0.12797535839E+00 -0.29643253542E+02  0.11746660091E+02  0.59301907710E+02  0.49999933765E+02 0.  0.
        -12    1    1    2    0    0 -0.12797535839E+00  0.29643253542E+02 -0.11746660091E+02  0.31886092290E+02  0.00000000000E+00 0.  1.
         11    1    3    3    0    0  0.99463655227E+00 -0.80541910373E+01  0.70628656282E+01  0.10758409096E+02  0.51100000000E-03 0. -1.
        -11    1    3    3    0    0  0.27888845849E-01 -0.95400723101E+01 -0.19388913395E+02  0.21608880590E+02  0.51100000000E-03 0.  1.
        -12    1    3    3    0    0 -0.89455003973E+00 -0.12048990195E+02  0.24072707858E+02  0.26934618024E+02  0.00000000000E+00 0.  1.
</event>
<event>
 7    1  0.6293596E-013  0.5930195E+02  0.7816164E-02  0.1266605E+00
        -11   -1    0    0    0    0  0.00000000000E+00  0.00000000000E+00  0.45593999997E+02  0.45594000000E+02  0.51100000000E-03 0. -1.
         11   -1    0    0    0    0 -0.00000000000E+00 -0.00000000000E+00 -0.45593999997E+02  0.45594000000E+02  0.51100000000E-03 0.  1.
    9900012    2    1    2    0    0 -0.70332378993E+01  0.30505148774E+02 -0.60572230318E+01  0.59301945244E+02  0.50000002217E+02 0.  0.
        -12    1    1    2    0    0  0.70332378993E+01 -0.30505148774E+02  0.60572230318E+01  0.31886054756E+02  0.00000000000E+00 0.  1.
         11    1    3    3    0    0 -0.21182199000E+02  0.34936441563E+02 -0.37536033086E+01  0.41028405302E+02  0.51100000000E-03 0. -1.
        -11    1    3    3    0    0  0.42118586730E+01 -0.26604902594E+01  0.39864355672E+01  0.63804099159E+01  0.51100000000E-03 0.  1.
         12    1    3    3    0    0  0.99371024277E+01 -0.17708025294E+01 -0.62900552904E+01  0.11893130026E+02  0.00000000000E+00 0. -1.
</event>
<event>
 7    1  0.6293596E-013  0.5930192E+02  0.7816164E-02  0.1266605E+00
        -11   -1    0    0    0    0  0.00000000000E+00  0.00000000000E+00  0.45593999997E+02  0.45594000000E+02  0.51100000000E-03 0.  1.
         11   -1    0    0    0    0 -0.00000000000E+00 -0.00000000000E+00 -0.45593999997E+02  0.45594000000E+02  0.51100000000E-03 0. -1.
    9900012    2    1    2    0    0 -0.11104013120E+02  0.20041281930E+02 -0.22175886859E+02  0.59301920800E+02  0.49999957638E+02 0.  0.
        -12    1    1    2    0    0  0.11104013120E+02 -0.20041281930E+02  0.22175886859E+02  0.31886079200E+02  0.00000000000E+00 0.  1.
         11    1    3    3    0    0 -0.23363636935E+02  0.47551477677E+01 -0.35473319916E+01  0.24105072612E+02  0.51100000000E-03 0. -1.
        -11    1    3    3    0    0  0.84099556908E+01 -0.42451721027E+01 -0.29965506179E+01  0.98857552453E+01  0.51100000000E-03 0.  1.
         12    1    3    3    0    0  0.38496681244E+01  0.19531306265E+02 -0.15632004250E+02  0.25311092942E+02  0.00000000000E+00 0. -1.
</event>
<event>
 7    1  0.6293596E-013  0.5930192E+02  0.7816164E-02  0.1266605E+00
        -11   -1    0    0    0    0  0.00000000000E+00  0.00000000000E+00  0.45593999997E+02  0.45594000000E+02  0.51100000000E-03 0.  1.
         11   -1    0    0    0    0 -0.00000000000E+00 -0.00000000000E+00 -0.45593999997E+02  0.45594000000E+02  0.51100000000E-03 0. -1.
    9900012    2    1    2    0    0  0.14099981232E+01 -0.42474388785E+01 -0.31570445056E+02  0.59301924155E+02  0.49999963757E+02 0.  0.
        -12    1    1    2    0    0 -0.14099981232E+01  0.42474388785E+01  0.31570445056E+02  0.31886075845E+02  0.00000000000E+00 0.  1.
         11    1    3    3    0    0  0.19129821039E+02 -0.59972727742E+01 -0.32851951681E+02  0.38485946308E+02  0.51100000000E-03 0. -1.
        -11    1    3    3    0    0 -0.42175618998E+01  0.52395204001E+01  0.13966473422E+01  0.68695725094E+01  0.51100000000E-03 0.  1.
         12    1    3    3    0    0 -0.13502261016E+02 -0.34896865044E+01 -0.11514071791E+00  0.13946405338E+02  0.00000000000E+00 0. -1.
</event>
<event>
 7    1  0.6293596E-013  0.5930195E+02  0.7816164E-02  0.1266605E+00
        -11   -1    0    0    0    0  0.00000000000E+00  0.00000000000E+00  0.45593999997E+02  0.45594000000E+02  0.51100000000E-03 0.  1.
         11   -1    0    0    0    0 -0.00000000000E+00 -0.00000000000E+00 -0.45593999997E+02  0.45594000000E+02  0.51100000000E-03 0. -1.
    9900012    2    1    2    0    0  0.24886325884E+02  0.18250336108E+02  0.80197489852E+01  0.59301947283E+02  0.50000005937E+02 0.  0.
        -12    1    1    2    0    0 -0.24886325884E+02 -0.18250336108E+02 -0.80197489852E+01  0.31886052717E+02  0.00000000000E+00 0.  1.
         11    1    3    3    0    0 -0.55460210452E+01  0.70432114472E+00 -0.35415043445E+01  0.66179053326E+01  0.51100000000E-03 0. -1.
        -11    1    3    3    0    0  0.36788937708E+02  0.17024708234E+02  0.12461021063E+01  0.40556373098E+02  0.51100000000E-03 0.  1.
        -12    1    3    3    0    0 -0.63565907787E+01  0.52130672876E+00  0.10315151223E+02  0.12127668852E+02  0.00000000000E+00 0.  1.
</event>
<event>
 7    1  0.6293596E-013  0.5930192E+02  0.7816164E-02  0.1266605E+00
        -11   -1    0    0    0    0  0.00000000000E+00  0.00000000000E+00  0.45593999997E+02  0.45594000000E+02  0.51100000000E-03 0. -1.
         11   -1    0    0    0    0 -0.00000000000E+00 -0.00000000000E+00 -0.45593999997E+02  0.45594000000E+02  0.51100000000E-03 0.  1.
    9900012    2    1    2    0    0  0.27752167331E+02  0.15682981539E+02 -0.76363864535E+00  0.59301923956E+02  0.49999963394E+02 0.  0.
        -12    1    1    2    0    0 -0.27752167331E+02 -0.15682981539E+02  0.76363864535E+00  0.31886076044E+02  0.00000000000E+00 0.  1.
         11    1    3    3    0    0  0.21154815068E+02  0.11154107127E+02  0.19091851774E+02  0.30601292633E+02  0.51100000000E-03 0. -1.
        -11    1    3    3    0    0 -0.67316610092E+01  0.22226250224E+01 -0.54697657643E+01  0.89539745203E+01  0.51100000000E-03 0.  1.
         12    1    3    3    0    0  0.13329013272E+02  0.23062493889E+01 -0.14385724655E+02  0.19746656803E+02  0.00000000000E+00 0. -1.
</event>
<event>
 7    1  0.6293596E-013  0.5930193E+02  0.7816164E-02  0.1266605E+00
        -11   -1    0    0    0    0  0.00000000000E+00  0.00000000000E+00  0.45593999997E+02  0.45594000000E+02  0.51100000000E-03 0.  1.
         11   -1    0    0    0    0 -0.00000000000E+00 -0.00000000000E+00 -0.45593999997E+02  0.45594000000E+02  0.51100000000E-03 0. -1.
    9900012    2    1    2    0    0 -0.27022359984E+02  0.23170729495E+01 -0.16767365280E+02  0.59301932438E+02  0.49999978863E+02 0.  0.
        -12    1    1    2    0    0  0.27022359984E+02 -0.23170729495E+01  0.16767365280E+02  0.31886067562E+02  0.00000000000E+00 0.  1.
         11    1    3    3    0    0 -0.20802012632E+02 -0.30584508951E+01 -0.70287118288E+01  0.22169362681E+02  0.51100000000E-03 0. -1.
        -11    1    3    3    0    0  0.59941084199E+01 -0.51479772724E+01 -0.17528272892E+02  0.19226839485E+02  0.51100000000E-03 0.  1.
        -12    1    3    3    0    0 -0.12214455771E+02  0.10523501117E+02  0.77896194411E+01  0.17905730272E+02  0.00000000000E+00 0.  1.
</event>
<event>
 7    1  0.6293596E-013  0.5930194E+02  0.7816164E-02  0.1266605E+00
        -11   -1    0    0    0    0  0.00000000000E+00  0.00000000000E+00  0.45593999997E+02  0.45594000000E+02  0.51100000000E-03 0.  1.
         11   -1    0    0    0    0 -0.00000000000E+00 -0.00000000000E+00 -0.45593999997E+02  0.45594000000E+02  0.51100000000E-03 0. -1.
    9900012    2    1    2    0    0 -0.14612550716E+02  0.26894271675E+02 -0.89382384041E+01  0.59301943594E+02  0.49999999209E+02 0.  0.
        -12    1    1    2    0    0  0.14612550716E+02 -0.26894271675E+02  0.89382384041E+01  0.31886056406E+02  0.00000000000E+00 0.  1.
         11    1    3    3    0    0 -0.35383978419E+01  0.19651581946E+02  0.56162118832E+01  0.20742390616E+02  0.51100000000E-03 0. -1.
        -11    1    3    3    0    0 -0.89286138742E+01 -0.12485284464E+02 -0.96066228118E+01  0.18107724207E+02  0.51100000000E-03 0.  1.
        -12    1    3    3    0    0 -0.21455390001E+01  0.19727974193E+02 -0.49478274755E+01  0.20451828771E+02  0.00000000000E+00 0.  1.
</event>
<event>
 7    1  0.6293596E-013  0.5930196E+02  0.7816164E-02  0.1266605E+00
        -11   -1    0    0    0    0  0.00000000000E+00  0.00000000000E+00  0.45593999997E+02  0.45594000000E+02  0.51100000000E-03 0.  1.
         11   -1    0    0    0    0 -0.00000000000E+00 -0.00000000000E+00 -0.45593999997E+02  0.45594000000E+02  0.51100000000E-03 0. -1.
    9900012    2    1    2    0    0 -0.39288459213E+01  0.10375966455E+02 -0.29893528247E+02  0.59301960089E+02  0.50000029293E+02 0.  0.
        -12    1    1    2    0    0  0.39288459213E+01 -0.10375966455E+02  0.29893528247E+02  0.31886039911E+02  0.00000000000E+00 0.  1.
         11    1    3    3    0    0 -0.11171982174E+02 -0.67889690538E+01 -0.16530784440E+02  0.21075343911E+02  0.51100000000E-03 0. -1.
        -11    1    3    3    0    0 -0.19963045641E+01  0.21510911141E+02 -0.24666404341E+00  0.21604753492E+02  0.51100000000E-03 0.  1.
         12    1    3    3    0    0  0.92394408167E+01 -0.43459756325E+01 -0.13116079763E+02  0.16621862686E+02  0.00000000000E+00 0. -1.
</event>
<event>
 7    1  0.6293596E-013  0.5930196E+02  0.7816164E-02  0.1266605E+00
        -11   -1    0    0    0    0  0.00000000000E+00  0.00000000000E+00  0.45593999997E+02  0.45594000000E+02  0.51100000000E-03 0. -1.
         11   -1    0    0    0    0 -0.00000000000E+00 -0.00000000000E+00 -0.45593999997E+02  0.45594000000E+02  0.51100000000E-03 0.  1.
    9900012    2    1    2    0    0  0.53695885363E+01 -0.25621727097E+02  0.18204784214E+02  0.59301959971E+02  0.50000029076E+02 0.  0.
        -12    1    1    2    0    0 -0.53695885363E+01  0.25621727097E+02 -0.18204784214E+02  0.31886040029E+02  0.00000000000E+00 0.  1.
         11    1    3    3    0    0 -0.64162379278E+01 -0.19048738078E+02  0.91417796154E+01  0.22081545831E+02  0.51100000000E-03 0. -1.
        -11    1    3    3    0    0 -0.82295315987E+00  0.12578888200E+02  0.11431816386E+00  0.12606297996E+02  0.51100000000E-03 0.  1.
        -12    1    3    3    0    0  0.12608779624E+02 -0.19151877219E+02  0.89486864352E+01  0.24614116144E+02  0.00000000000E+00 0.  1.
</event>
<event>
 7    1  0.6293596E-013  0.5930204E+02  0.7816164E-02  0.1266604E+00
        -11   -1    0    0    0    0  0.00000000000E+00  0.00000000000E+00  0.45593999997E+02  0.45594000000E+02  0.51100000000E-03 0. -1.
         11   -1    0    0    0    0 -0.00000000000E+00 -0.00000000000E+00 -0.45593999997E+02  0.45594000000E+02  0.51100000000E-03 0.  1.
    9900012    2    1    2    0    0  0.78731929499E+01  0.20270394222E+02  0.23320340931E+02  0.59302041487E+02  0.50000177743E+02 0.  0.
        -12    1    1    2    0    0 -0.78731929499E+01 -0.20270394222E+02 -0.23320340931E+02  0.31885958513E+02  0.00000000000E+00 0.  1.
         11    1    3    3    0    0 -0.40575046157E+00 -0.30212150091E+01  0.52125692385E+01  0.60384809261E+01  0.51100000000E-03 0. -1.
        -11    1    3    3    0    0  0.21429418128E+02  0.17522490204E+02 -0.28825889486E+01  0.27831042804E+02  0.51100000000E-03 0.  1.
        -12    1    3    3    0    0 -0.13150474717E+02  0.57691190271E+01  0.20990360641E+02  0.25432517757E+02  0.00000000000E+00 0.  1.
</event>
<event>
 7    1  0.6293596E-013  0.5930194E+02  0.7816164E-02  0.1266605E+00
        -11   -1    0    0    0    0  0.00000000000E+00  0.00000000000E+00  0.45593999997E+02  0.45594000000E+02  0.51100000000E-03 0.  1.
         11   -1    0    0    0    0 -0.00000000000E+00 -0.00000000000E+00 -0.45593999997E+02  0.45594000000E+02  0.51100000000E-03 0. -1.
    9900012    2    1    2    0    0 -0.95620724192E+01 -0.22825341164E+02 -0.20106996928E+02  0.59301941076E+02  0.49999994617E+02 0.  0.
        -12    1    1    2    0    0  0.95620724192E+01  0.22825341164E+02  0.20106996928E+02  0.31886058924E+02  0.00000000000E+00 0.  1.
         11    1    3    3    0    0  0.14054953680E+02 -0.16929827794E+02 -0.20550791549E+02  0.30108069112E+02  0.51100000000E-03 0. -1.
        -11    1    3    3    0    0 -0.20719312443E+02 -0.13599296592E+01  0.58428938990E+01  0.21570320493E+02  0.51100000000E-03 0.  1.
        -12    1    3    3    0    0 -0.28977136566E+01 -0.45355837112E+01 -0.53990992775E+01  0.76235514719E+01  0.00000000000E+00 0.  1.
</event>
<event>
 7    1  0.6293596E-013  0.5930195E+02  0.7816164E-02  0.1266605E+00
        -11   -1    0    0    0    0  0.00000000000E+00  0.00000000000E+00  0.45593999997E+02  0.45594000000E+02  0.51100000000E-03 0.  1.
         11   -1    0    0    0    0 -0.00000000000E+00 -0.00000000000E+00 -0.45593999997E+02  0.45594000000E+02  0.51100000000E-03 0. -1.
    9900012    2    1    2    0    0  0.63354373700E+01  0.34046285987E+01 -0.31064303808E+02  0.59301949231E+02  0.50000009490E+02 0.  0.
        -12    1    1    2    0    0 -0.63354373700E+01 -0.34046285987E+01  0.31064303808E+02  0.31886050769E+02  0.00000000000E+00 0.  1.
         11    1    3    3    0    0  0.60956742680E+01  0.11612761238E+02 -0.16445895976E+02  0.21035231472E+02  0.51100000000E-03 0. -1.
        -11    1    3    3    0    0 -0.10770588816E+02  0.45992942298E+01  0.46883267714E+01  0.12615050496E+02  0.51100000000E-03 0.  1.
        -12    1    3    3    0    0  0.11010351918E+02 -0.12807426869E+02 -0.19306734603E+02  0.25651667263E+02  0.00000000000E+00 0.  1.
</event>
<event>
 7    1  0.6293596E-013  0.5930190E+02  0.7816164E-02  0.1266605E+00
        -11   -1    0    0    0    0  0.00000000000E+00  0.00000000000E+00  0.45593999997E+02  0.45594000000E+02  0.51100000000E-03 0.  1.
         11   -1    0    0    0    0 -0.00000000000E+00 -0.00000000000E+00 -0.45593999997E+02  0.45594000000E+02  0.51100000000E-03 0. -1.
    9900012    2    1    2    0    0  0.59286318812E+01  0.54526002855E+01 -0.30851969079E+02  0.59301897668E+02  0.49999915451E+02 0.  0.
        -12    1    1    2    0    0 -0.59286318812E+01 -0.54526002855E+01  0.30851969079E+02  0.31886102332E+02  0.00000000000E+00 0.  1.
         11    1    3    3    0    0 -0.11691856261E+02 -0.11021916575E+02 -0.51308061227E+01  0.16867344768E+02  0.51100000000E-03 0. -1.
        -11    1    3    3    0    0  0.11833200669E+02  0.20868073384E+02 -0.11807702914E+02  0.26738043556E+02  0.51100000000E-03 0.  1.
         12    1    3    3    0    0  0.57872874731E+01 -0.43935565234E+01 -0.13913460043E+02  0.15696509344E+02  0.00000000000E+00 0. -1.
</event>
<event>
 7    1  0.6293596E-013  0.5930201E+02  0.7816164E-02  0.1266605E+00
        -11   -1    0    0    0    0  0.00000000000E+00  0.00000000000E+00  0.45593999997E+02  0.45594000000E+02  0.51100000000E-03 0.  1.
         11   -1    0    0    0    0 -0.00000000000E+00 -0.00000000000E+00 -0.45593999997E+02  0.45594000000E+02  0.51100000000E-03 0. -1.
    9900012    2    1    2    0    0 -0.22610249136E+02  0.16919748027E+02 -0.14805912964E+02  0.59302010946E+02  0.50000122042E+02 0.  0.
        -12    1    1    2    0    0  0.22610249136E+02 -0.16919748027E+02  0.14805912964E+02  0.31885989054E+02  0.00000000000E+00 0.  1.
         11    1    3    3    0    0 -0.49026241934E+01 -0.11571730038E+02 -0.19381371968E+02  0.23099312537E+02  0.51100000000E-03 0. -1.
        -11    1    3    3    0    0 -0.19634216856E+02  0.25218739294E+02  0.51130804137E+01  0.32367126451E+02  0.51100000000E-03 0.  1.
        -12    1    3    3    0    0  0.19265919136E+01  0.32727387705E+01 -0.53762140972E+00  0.38355719575E+01  0.00000000000E+00 0.  1.
</event>
<event>
 7    1  0.6293596E-013  0.5930195E+02  0.7816164E-02  0.1266605E+00
        -11   -1    0    0    0    0  0.00000000000E+00  0.00000000000E+00  0.45593999997E+02  0.45594000000E+02  0.51100000000E-03 0.  1.
         11   -1    0    0    0    0 -0.00000000000E+00 -0.00000000000E+00 -0.45593999997E+02  0.45594000000E+02  0.51100000000E-03 0. -1.
    9900012    2    1    2    0    0 -0.30890991478E+02  0.57923775645E+01  0.53772762016E+01  0.59301951457E+02  0.50000013549E+02 0.  0.
        -12    1    1    2    0    0  0.30890991478E+02 -0.57923775645E+01 -0.53772762016E+01  0.31886048543E+02  0.00000000000E+00 0.  1.
         11    1    3    3    0    0 -0.11981925428E+02 -0.37098345372E+01  0.14411874257E+02  0.19105798311E+02  0.51100000000E-03 0. -1.
        -11    1    3    3    0    0 -0.14251375878E+02 -0.78315954458E+01 -0.14125073371E+02  0.21539575197E+02  0.51100000000E-03 0.  1.
        -12    1    3    3    0    0 -0.46576901721E+01  0.17333807548E+02  0.50904753159E+01  0.18656577949E+02  0.00000000000E+00 0.  1.
</event>
<event>
 7    1  0.6293596E-013  0.5930189E+02  0.7816164E-02  0.1266605E+00
        -11   -1    0    0    0    0  0.00000000000E+00  0.00000000000E+00  0.45593999997E+02  0.45594000000E+02  0.51100000000E-03 0. -1.
         11   -1    0    0    0    0 -0.00000000000E+00 -0.00000000000E+00 -0.45593999997E+02  0.45594000000E+02  0.51100000000E-03 0.  1.
    9900012    2    1    2    0    0  0.30835498115E+02 -0.58018276385E+01  0.56775559623E+01  0.59301893470E+02  0.49999907795E+02 0.  0.
        -12    1    1    2    0    0 -0.30835498115E+02  0.58018276385E+01 -0.56775559623E+01  0.31886106530E+02  0.00000000000E+00 0.  1.
         11    1    3    3    0    0 -0.87219192734E+01 -0.35630891367E+01 -0.53774372164E+01  0.10848240009E+02  0.51100000000E-03 0. -1.
        -11    1    3    3    0    0  0.30370874902E+02  0.73021559069E+01  0.54466243707E-01  0.31236428894E+02  0.51100000000E-03 0.  1.
         12    1    3    3    0    0  0.91865424863E+01 -0.95408944087E+01  0.11000526935E+02  0.17217224568E+02  0.00000000000E+00 0. -1.
</event>
<event>
 7    1  0.6293596E-013  0.5930193E+02  0.7816164E-02  0.1266605E+00
        -11   -1    0    0    0    0  0.00000000000E+00  0.00000000000E+00  0.45593999997E+02  0.45594000000E+02  0.51100000000E-03 0.  1.
         11   -1    0    0    0    0 -0.00000000000E+00 -0.00000000000E+00 -0.45593999997E+02  0.45594000000E+02  0.51100000000E-03 0. -1.
    9900012    2    1    2    0    0 -0.12627973049E+02 -0.28129707500E+02 -0.81225060230E+01  0.59301933270E+02  0.49999980381E+02 0.  0.
        -12    1    1    2    0    0  0.12627973049E+02  0.28129707500E+02  0.81225060230E+01  0.31886066730E+02  0.00000000000E+00 0.  1.
         11    1    3    3    0    0 -0.13998956592E+02 -0.11284970862E+02 -0.24657544625E+02  0.30517468116E+02  0.51100000000E-03 0. -1.
        -11    1    3    3    0    0  0.63201768905E+01 -0.17362176209E+01  0.11380591453E+01  0.66523880249E+01  0.51100000000E-03 0.  1.
         12    1    3    3    0    0 -0.49491933482E+01 -0.15108519017E+02  0.15396979457E+02  0.22132077130E+02  0.00000000000E+00 0. -1.
</event>
<event>
 7    1  0.6293596E-013  0.5930193E+02  0.7816164E-02  0.1266605E+00
        -11   -1    0    0    0    0  0.00000000000E+00  0.00000000000E+00  0.45593999997E+02  0.45594000000E+02  0.51100000000E-03 0.  1.
         11   -1    0    0    0    0 -0.00000000000E+00 -0.00000000000E+00 -0.45593999997E+02  0.45594000000E+02  0.51100000000E-03 0. -1.
    9900012    2    1    2    0    0 -0.18847173695E+01  0.29208090096E+02 -0.12651353737E+02  0.59301930346E+02  0.49999975047E+02 0.  0.
        -12    1    1    2    0    0  0.18847173695E+01 -0.29208090096E+02  0.12651353737E+02  0.31886069654E+02  0.00000000000E+00 0.  1.
         11    1    3    3    0    0  0.14191860045E+02  0.12061103816E+02  0.36155313242E+00  0.18628200067E+02  0.51100000000E-03 0. -1.
        -11    1    3    3    0    0 -0.18200087576E+02  0.21989955229E+02 -0.21907110317E+01  0.28628666295E+02  0.51100000000E-03 0.  1.
        -12    1    3    3    0    0  0.21235101613E+01 -0.48429689480E+01 -0.10822195837E+02  0.12045063984E+02  0.00000000000E+00 0.  1.
</event>
<event>
 7    1  0.6293596E-013  0.5930199E+02  0.7816164E-02  0.1266605E+00
        -11   -1    0    0    0    0  0.00000000000E+00  0.00000000000E+00  0.45593999997E+02  0.45594000000E+02  0.51100000000E-03 0.  1.
         11   -1    0    0    0    0 -0.00000000000E+00 -0.00000000000E+00 -0.45593999997E+02  0.45594000000E+02  0.51100000000E-03 0. -1.
    9900012    2    1    2    0    0 -0.17910343284E+02 -0.19137754206E+02 -0.18157197433E+02  0.59301986589E+02  0.50000077622E+02 0.  0.
        -12    1    1    2    0    0  0.17910343284E+02  0.19137754206E+02  0.18157197433E+02  0.31886013411E+02  0.00000000000E+00 0.  1.
         11    1    3    3    0    0 -0.30972744275E+02 -0.90837442809E+01 -0.79306087627E+01  0.33237326211E+02  0.51100000000E-03 0. -1.
        -11    1    3    3    0    0  0.14933850346E+02 -0.44822826407E+01 -0.12271057623E+02  0.19841612819E+02  0.51100000000E-03 0.  1.
         12    1    3    3    0    0 -0.18714493554E+01 -0.55717272847E+01  0.20444689524E+01  0.62230475591E+01  0.00000000000E+00 0. -1.
</event>
<event>
 7    1  0.6293596E-013  0.5930198E+02  0.7816164E-02  0.1266605E+00
        -11   -1    0    0    0    0  0.00000000000E+00  0.00000000000E+00  0.45593999997E+02  0.45594000000E+02  0.51100000000E-03 0.  1.
         11   -1    0    0    0    0 -0.00000000000E+00 -0.00000000000E+00 -0.45593999997E+02  0.45594000000E+02  0.51100000000E-03 0. -1.
    9900012    2    1    2    0    0  0.67297690106E+01 -0.26255705917E+02 -0.16794831861E+02  0.59301980158E+02  0.50000065892E+02 0.  0.
        -12    1    1    2    0    0 -0.67297690106E+01  0.26255705917E+02  0.16794831861E+02  0.31886019842E+02  0.00000000000E+00 0.  1.
         11    1    3    3    0    0  0.12193893672E+02 -0.72153982582E+01  0.54379209575E+01  0.15176429076E+02  0.51100000000E-03 0. -1.
        -11    1    3    3    0    0 -0.15647092162E+02  0.28066388051E+00 -0.13268071409E+02  0.20517114430E+02  0.51100000000E-03 0.  1.
        -12    1    3    3    0    0  0.10182967501E+02 -0.19320971539E+02 -0.89646814101E+01  0.23608436652E+02  0.00000000000E+00 0.  1.
</event>
<event>
 7    1  0.6293596E-013  0.5930195E+02  0.7816164E-02  0.1266605E+00
        -11   -1    0    0    0    0  0.00000000000E+00  0.00000000000E+00  0.45593999997E+02  0.45594000000E+02  0.51100000000E-03 0.  1.
         11   -1    0    0    0    0 -0.00000000000E+00 -0.00000000000E+00 -0.45593999997E+02  0.45594000000E+02  0.51100000000E-03 0. -1.
    9900012    2    1    2    0    0  0.19020228455E+02  0.19160644327E+02 -0.16965280540E+02  0.59301950930E+02  0.50000012588E+02 0.  0.
        -12    1    1    2    0    0 -0.19020228455E+02 -0.19160644327E+02  0.16965280540E+02  0.31886049070E+02  0.00000000000E+00 0.  1.
         11    1    3    3    0    0  0.19801044432E+02  0.11198496353E+02 -0.18484325428E+02  0.29311396554E+02  0.51100000000E-03 0. -1.
        -11    1    3    3    0    0 -0.12962713350E+02 -0.29654289718E+01 -0.13866111029E+01  0.13369682008E+02  0.51100000000E-03 0.  1.
         12    1    3    3    0    0  0.12181897373E+02  0.10927576946E+02  0.29056559909E+01  0.16620872368E+02  0.00000000000E+00 0. -1.
</event>
<event>
 7    1  0.6293596E-013  0.5930197E+02  0.7816164E-02  0.1266605E+00
        -11   -1    0    0    0    0  0.00000000000E+00  0.00000000000E+00  0.45593999997E+02  0.45594000000E+02  0.51100000000E-03 0. -1.
         11   -1    0    0    0    0 -0.00000000000E+00 -0.00000000000E+00 -0.45593999997E+02  0.45594000000E+02  0.51100000000E-03 0.  1.
    9900012    2    1    2    0    0  0.12831504672E+02 -0.35432219019E+01  0.28974422613E+02  0.59301967018E+02  0.50000041929E+02 0.  0.
        -12    1    1    2    0    0 -0.12831504672E+02  0.35432219019E+01 -0.28974422613E+02  0.31886032982E+02  0.00000000000E+00 0.  1.
         11    1    3    3    0    0  0.39129125469E+01 -0.11683942008E+02  0.23360951218E+02  0.26411350354E+02  0.51100000000E-03 0. -1.
        -11    1    3    3    0    0 -0.32892375285E+01  0.45576579565E+01 -0.10769294563E+02  0.12147799603E+02  0.51100000000E-03 0.  1.
        -12    1    3    3    0    0  0.12207829653E+02  0.35830621498E+01  0.16382765957E+02  0.20742817061E+02  0.00000000000E+00 0.  1.
</event>
<event>
 7    1  0.6293596E-013  0.5930194E+02  0.7816164E-02  0.1266605E+00
        -11   -1    0    0    0    0  0.00000000000E+00  0.00000000000E+00  0.45593999997E+02  0.45594000000E+02  0.51100000000E-03 0.  1.
         11   -1    0    0    0    0 -0.00000000000E+00 -0.00000000000E+00 -0.45593999997E+02  0.45594000000E+02  0.51100000000E-03 0. -1.
    9900012    2    1    2    0    0 -0.18575557330E+02 -0.41172244120E+01 -0.25587461907E+02  0.59301936056E+02  0.49999985462E+02 0.  0.
        -12    1    1    2    0    0  0.18575557330E+02  0.41172244120E+01  0.25587461907E+02  0.31886063944E+02  0.00000000000E+00 0.  1.
         11    1    3    3    0    0  0.52579901030E+01 -0.65057567113E+01  0.75249638209E+00  0.83986654521E+01  0.51100000000E-03 0. -1.
        -11    1    3    3    0    0 -0.33502569044E+02  0.39383769399E+01 -0.21228899829E+02  0.39857234396E+02  0.51100000000E-03 0.  1.
        -12    1    3    3    0    0  0.96690216113E+01 -0.15498446405E+01 -0.51110584608E+01  0.11046036209E+02  0.00000000000E+00 0.  1.
</event>
<event>
 7    1  0.6293596E-013  0.5930196E+02  0.7816164E-02  0.1266605E+00
        -11   -1    0    0    0    0  0.00000000000E+00  0.00000000000E+00  0.45593999997E+02  0.45594000000E+02  0.51100000000E-03 0.  1.
         11   -1    0    0    0    0 -0.00000000000E+00 -0.00000000000E+00 -0.45593999997E+02  0.45594000000E+02  0.51100000000E-03 0. -1.
    9900012    2    1    2    0    0 -0.22977287377E+02 -0.73215849461E+00 -0.22095881269E+02  0.59301956653E+02  0.50000023025E+02 0.  0.
        -12    1    1    2    0    0  0.22977287377E+02  0.73215849461E+00  0.22095881269E+02  0.31886043347E+02  0.00000000000E+00 0.  1.
         11    1    3    3    0    0  0.19622442112E+01  0.30002011122E+01 -0.84564289335E+01  0.91849224072E+01  0.51100000000E-03 0. -1.
        -11    1    3    3    0    0 -0.30572756461E+02 -0.11042890840E+02  0.13277799832E+01  0.32533088936E+02  0.51100000000E-03 0.  1.
        -12    1    3    3    0    0  0.56332248731E+01  0.73105312329E+01 -0.14967232319E+02  0.17583945310E+02  0.00000000000E+00 0.  1.
</event>
<event>
 7    1  0.6293596E-013  0.5930194E+02  0.7816164E-02  0.1266605E+00
        -11   -1    0    0    0    0  0.00000000000E+00  0.00000000000E+00  0.45593999997E+02  0.45594000000E+02  0.51100000000E-03 0.  1.
         11   -1    0    0    0    0 -0.00000000000E+00 -0.00000000000E+00 -0.45593999997E+02  0.45594000000E+02  0.51100000000E-03 0. -1.
    9900012    2    1    2    0    0  0.82935243765E+01 -0.25962593988E+02 -0.16549380621E+02  0.59301939846E+02  0.49999992374E+02 0.  0.
        -12    1    1    2    0    0 -0.82935243765E+01  0.25962593988E+02  0.16549380621E+02  0.31886060154E+02  0.00000000000E+00 0.  1.
         11    1    3    3    0    0  0.93615336000E+00  0.20765904316E+00 -0.22231168498E+02  0.22251839439E+02  0.51100000000E-03 0. -1.
        -11    1    3    3    0    0 -0.82007581172E+01 -0.16116190689E+02  0.31164083714E+01  0.18349278935E+02  0.51100000000E-03 0.  1.
        -12    1    3    3    0    0  0.15558129134E+02 -0.10054062342E+02  0.25653795054E+01  0.18700821472E+02  0.00000000000E+00 0.  1.
</event>
<event>
 7    1  0.6293596E-013  0.5930191E+02  0.7816164E-02  0.1266605E+00
        -11   -1    0    0    0    0  0.00000000000E+00  0.00000000000E+00  0.45593999997E+02  0.45594000000E+02  0.51100000000E-03 0. -1.
         11   -1    0    0    0    0 -0.00000000000E+00 -0.00000000000E+00 -0.45593999997E+02  0.45594000000E+02  0.51100000000E-03 0.  1.
    9900012    2    1    2    0    0  0.23458716239E+02 -0.26522714871E+01  0.21433071865E+02  0.59301913987E+02  0.49999945213E+02 0.  0.
        -12    1    1    2    0    0 -0.23458716239E+02  0.26522714871E+01 -0.21433071865E+02  0.31886086013E+02  0.00000000000E+00 0.  1.
         11    1    3    3    0    0  0.18742219472E+02 -0.18327787799E+02  0.21810085788E+02  0.34100710237E+02  0.51100000000E-03 0. -1.
        -11    1    3    3    0    0  0.12015197468E+02  0.11358544844E+02 -0.16897780038E+01  0.16620374880E+02  0.51100000000E-03 0.  1.
         12    1    3    3    0    0 -0.72987007008E+01  0.43169714676E+01  0.13127640817E+01  0.85808288706E+01  0.00000000000E+00 0. -1.
</event>
<event>
 7    1  0.6293596E-013  0.5930203E+02  0.7816164E-02  0.1266604E+00
        -11   -1    0    0    0    0  0.00000000000E+00  0.00000000000E+00  0.45593999997E+02  0.45594000000E+02  0.51100000000E-03 0.  1.
         11   -1    0    0    0    0 -0.00000000000E+00 -0.00000000000E+00 -0.45593999997E+02  0.45594000000E+02  0.51100000000E-03 0. -1.
    9900012    2    1    2    0    0 -0.33053535117E+01  0.25855096422E+02 -0.18365827722E+02  0.59302031287E+02  0.50000159140E+02 0.  0.
        -12    1    1    2    0    0  0.33053535117E+01 -0.25855096422E+02  0.18365827722E+02  0.31885968713E+02  0.00000000000E+00 0.  1.
         11    1    3    3    0    0 -0.96467071071E+01  0.29382847457E+02 -0.86813474236E+01  0.32121277621E+02  0.51100000000E-03 0. -1.
        -11    1    3    3    0    0  0.63369820917E+01 -0.11658835357E+02 -0.12834290900E+02  0.18460899412E+02  0.51100000000E-03 0.  1.
        -12    1    3    3    0    0  0.43715036879E-02  0.81310843232E+01  0.31498106021E+01  0.87198542539E+01  0.00000000000E+00 0.  1.
</event>
<event>
 7    1  0.6293596E-013  0.5930192E+02  0.7816164E-02  0.1266605E+00
        -11   -1    0    0    0    0  0.00000000000E+00  0.00000000000E+00  0.45593999997E+02  0.45594000000E+02  0.51100000000E-03 0. -1.
         11   -1    0    0    0    0 -0.00000000000E+00 -0.00000000000E+00 -0.45593999997E+02  0.45594000000E+02  0.51100000000E-03 0.  1.
    9900012    2    1    2    0    0  0.11593901552E+02 -0.18266511253E+02  0.23423019888E+02  0.59301923929E+02  0.49999963345E+02 0.  0.
        -12    1    1    2    0    0 -0.11593901552E+02  0.18266511253E+02 -0.23423019888E+02  0.31886076071E+02  0.00000000000E+00 0.  1.
         11    1    3    3    0    0  0.64097395505E+01 -0.80495397402E+01  0.51804413951E+01  0.11520278835E+02  0.51100000000E-03 0. -1.
        -11    1    3    3    0    0 -0.68570124599E+01  0.14003424062E+02  0.12840974008E+02  0.20199136592E+02  0.51100000000E-03 0.  1.
        -12    1    3    3    0    0  0.12041174462E+02 -0.24220395575E+02  0.54016044846E+01  0.27582508501E+02  0.00000000000E+00 0.  1.
</event>
<event>
 7    1  0.6293596E-013  0.5930195E+02  0.7816164E-02  0.1266605E+00
        -11   -1    0    0    0    0  0.00000000000E+00  0.00000000000E+00  0.45593999997E+02  0.45594000000E+02  0.51100000000E-03 0.  1.
         11   -1    0    0    0    0 -0.00000000000E+00 -0.00000000000E+00 -0.45593999997E+02  0.45594000000E+02  0.51100000000E-03 0. -1.
    9900012    2    1    2    0    0  0.21759438163E+02  0.38101076644E+01 -0.22994130057E+02  0.59301951536E+02  0.50000013693E+02 0.  0.
        -12    1    1    2    0    0 -0.21759438163E+02 -0.38101076644E+01  0.22994130057E+02  0.31886048464E+02  0.00000000000E+00 0.  1.
         11    1    3    3    0    0  0.52054155036E+01 -0.63440226469E+01 -0.27887964146E+02  0.29070285833E+02  0.51100000000E-03 0. -1.
        -11    1    3    3    0    0  0.96632066247E+01  0.16974112809E+02  0.37604499617E+00  0.19535595155E+02  0.51100000000E-03 0.  1.
         12    1    3    3    0    0  0.68908160344E+01 -0.68199824982E+01  0.45177890929E+01  0.10696070549E+02  0.00000000000E+00 0. -1.
</event>
<event>
 7    1  0.6293596E-013  0.5930197E+02  0.7816164E-02  0.1266605E+00
        -11   -1    0    0    0    0  0.00000000000E+00  0.00000000000E+00  0.45593999997E+02  0.45594000000E+02  0.51100000000E-03 0. -1.
         11   -1    0    0    0    0 -0.00000000000E+00 -0.00000000000E+00 -0.45593999997E+02  0.45594000000E+02  0.51100000000E-03 0.  1.
    9900012    2    1    2    0    0  0.13975151758E+02 -0.24258632018E+02  0.15262137052E+02  0.59301969808E+02  0.50000047017E+02 0.  0.
        -12    1    1    2    0    0 -0.13975151758E+02  0.24258632018E+02 -0.15262137052E+02  0.31886030192E+02  0.00000000000E+00 0.  1.
         11    1    3    3    0    0  0.23268809112E+02 -0.15975029108E+02  0.18129248902E+02  0.33545621152E+02  0.51100000000E-03 0. -1.
        -11    1    3    3    0    0 -0.66451846659E+01 -0.48647745265E+01 -0.12630365076E+02  0.15078150837E+02  0.51100000000E-03 0.  1.
         12    1    3    3    0    0 -0.26484726883E+01 -0.34188283835E+01  0.97632532262E+01  0.10678197819E+02  0.00000000000E+00 0. -1.
</event>
<event>
 7    1  0.6293596E-013  0.5930195E+02  0.7816164E-02  0.1266605E+00
        -11   -1    0    0    0    0  0.00000000000E+00  0.00000000000E+00  0.45593999997E+02  0.45594000000E+02  0.51100000000E-03 0.  1.
         11   -1    0    0    0    0 -0.00000000000E+00 -0.00000000000E+00 -0.45593999997E+02  0.45594000000E+02  0.51100000000E-03 0. -1.
    9900012    2    1    2    0    0 -0.97879775303E+01 -0.45879876355E+01 -0.29997771737E+02  0.59301945935E+02  0.50000003478E+02 0.  0.
        -12    1    1    2    0    0  0.97879775303E+01  0.45879876355E+01  0.29997771737E+02  0.31886054065E+02  0.00000000000E+00 0.  1.
         11    1    3    3    0    0  0.48627136867E+01  0.97950517579E+01  0.20382152347E+01  0.11123998604E+02  0.51100000000E-03 0. -1.
        -11    1    3    3    0    0 -0.21052068669E+02 -0.17311871661E+02 -0.18563509941E+02  0.32977179946E+02  0.51100000000E-03 0.  1.
         12    1    3    3    0    0  0.64013774518E+01  0.29288322674E+01 -0.13472477031E+02  0.15200767384E+02  0.00000000000E+00 0. -1.
</event>
<event>
 7    1  0.6293596E-013  0.5930192E+02  0.7816164E-02  0.1266605E+00
        -11   -1    0    0    0    0  0.00000000000E+00  0.00000000000E+00  0.45593999997E+02  0.45594000000E+02  0.51100000000E-03 0.  1.
         11   -1    0    0    0    0 -0.00000000000E+00 -0.00000000000E+00 -0.45593999997E+02  0.45594000000E+02  0.51100000000E-03 0. -1.
    9900012    2    1    2    0    0  0.13290477060E+02  0.16999909688E+02 -0.23475278261E+02  0.59301915272E+02  0.49999947556E+02 0.  0.
        -12    1    1    2    0    0 -0.13290477060E+02 -0.16999909688E+02  0.23475278261E+02  0.31886084728E+02  0.00000000000E+00 0.  1.
         11    1    3    3    0    0  0.19765157300E+02  0.10106110023E+02 -0.26247458354E+02  0.34376212316E+02  0.51100000000E-03 0. -1.
        -11    1    3    3    0    0  0.39821109080E+00 -0.20098766037E+01  0.10873026574E+02  0.11064397099E+02  0.51100000000E-03 0.  1.
        -12    1    3    3    0    0 -0.68728913307E+01  0.89036762683E+01 -0.81008464805E+01  0.13861305856E+02  0.00000000000E+00 0.  1.
</event>
<event>
 7    1  0.6293596E-013  0.5930195E+02  0.7816164E-02  0.1266605E+00
        -11   -1    0    0    0    0  0.00000000000E+00  0.00000000000E+00  0.45593999997E+02  0.45594000000E+02  0.51100000000E-03 0. -1.
         11   -1    0    0    0    0 -0.00000000000E+00 -0.00000000000E+00 -0.45593999997E+02  0.45594000000E+02  0.51100000000E-03 0.  1.
    9900012    2    1    2    0    0  0.15732731088E+01 -0.69045033004E+01  0.31089755555E+02  0.59301948902E+02  0.50000008890E+02 0.  0.
        -12    1    1    2    0    0 -0.15732731088E+01  0.69045033004E+01 -0.31089755555E+02  0.31886051098E+02  0.00000000000E+00 0.  1.
         11    1    3    3    0    0  0.21034926783E+02  0.76210578120E+01  0.20942926172E+02  0.30645633031E+02  0.51100000000E-03 0.  1.
        -11    1    3    3    0    0 -0.77044410350E+01 -0.12745926714E+02  0.51638569824E+01  0.15763327018E+02  0.51100000000E-03 0. -1.
         12    1    3    3    0    0 -0.11757212639E+02 -0.17796343981E+01  0.49829724014E+01  0.12892988854E+02  0.00000000000E+00 0. -1.
</event>
<event>
 7    1  0.6293596E-013  0.5930191E+02  0.7816164E-02  0.1266605E+00
        -11   -1    0    0    0    0  0.00000000000E+00  0.00000000000E+00  0.45593999997E+02  0.45594000000E+02  0.51100000000E-03 0. -1.
         11   -1    0    0    0    0 -0.00000000000E+00 -0.00000000000E+00 -0.45593999997E+02  0.45594000000E+02  0.51100000000E-03 0.  1.
    9900012    2    1    2    0    0  0.32121675795E+01 -0.26977531778E+02  0.16691844060E+02  0.59301907428E+02  0.49999933251E+02 0.  0.
        -12    1    1    2    0    0 -0.32121675795E+01  0.26977531778E+02 -0.16691844060E+02  0.31886092572E+02  0.00000000000E+00 0.  1.
         11    1    3    3    0    0  0.12090585851E+02 -0.37362604664E+02  0.52159537993E+01  0.39615056075E+02  0.51100000000E-03 0. -1.
        -11    1    3    3    0    0  0.79733167196E+00  0.32363211919E+01  0.50424684179E+01  0.60445016883E+01  0.51100000000E-03 0.  1.
         12    1    3    3    0    0 -0.96757499437E+01  0.71487516945E+01  0.64334218427E+01  0.13642349665E+02  0.00000000000E+00 0. -1.
</event>
<event>
 7    1  0.6293596E-013  0.5930193E+02  0.7816164E-02  0.1266605E+00
        -11   -1    0    0    0    0  0.00000000000E+00  0.00000000000E+00  0.45593999997E+02  0.45594000000E+02  0.51100000000E-03 0.  1.
         11   -1    0    0    0    0 -0.00000000000E+00 -0.00000000000E+00 -0.45593999997E+02  0.45594000000E+02  0.51100000000E-03 0. -1.
    9900012    2    1    2    0    0 -0.15725322162E+02  0.73611637080E+01 -0.26744136005E+02  0.59301932527E+02  0.49999979026E+02 0.  0.
        -12    1    1    2    0    0  0.15725322162E+02 -0.73611637080E+01  0.26744136005E+02  0.31886067473E+02  0.00000000000E+00 0.  1.
         11    1    3    3    0    0 -0.72288838291E+01 -0.14747752435E+02 -0.99516752703E+01  0.19203874720E+02  0.51100000000E-03 0. -1.
        -11    1    3    3    0    0 -0.18291725783E+02  0.18293610533E+02 -0.11189101258E+02  0.28185801491E+02  0.51100000000E-03 0.  1.
        -12    1    3    3    0    0  0.97952874500E+01  0.38153056105E+01 -0.56033594767E+01  0.11912256317E+02  0.00000000000E+00 0.  1.
</event>
<event>
 7    1  0.6293596E-013  0.5930194E+02  0.7816164E-02  0.1266605E+00
        -11   -1    0    0    0    0  0.00000000000E+00  0.00000000000E+00  0.45593999997E+02  0.45594000000E+02  0.51100000000E-03 0.  1.
         11   -1    0    0    0    0 -0.00000000000E+00 -0.00000000000E+00 -0.45593999997E+02  0.45594000000E+02  0.51100000000E-03 0. -1.
    9900012    2    1    2    0    0 -0.61191753838E+01  0.31272082213E+02  0.11547034627E+01  0.59301940767E+02  0.49999994054E+02 0.  0.
        -12    1    1    2    0    0  0.61191753838E+01 -0.31272082213E+02 -0.11547034627E+01  0.31886059233E+02  0.00000000000E+00 0.  1.
         11    1    3    3    0    0 -0.24220727462E+02  0.14889064866E+02  0.10878806014E+02  0.30441358576E+02  0.51100000000E-03 0. -1.
        -11    1    3    3    0    0  0.16099143726E+02  0.71207068008E+01 -0.51720173209E+01  0.18347660818E+02  0.51100000000E-03 0.  1.
         12    1    3    3    0    0  0.20024083523E+01  0.92623105463E+01 -0.45520852307E+01  0.10512921374E+02  0.00000000000E+00 0. -1.
</event>
<event>
 7    1  0.6293596E-013  0.5930193E+02  0.7816164E-02  0.1266605E+00
        -11   -1    0    0    0    0  0.00000000000E+00  0.00000000000E+00  0.45593999997E+02  0.45594000000E+02  0.51100000000E-03 0. -1.
         11   -1    0    0    0    0 -0.00000000000E+00 -0.00000000000E+00 -0.45593999997E+02  0.45594000000E+02  0.51100000000E-03 0.  1.
    9900012    2    1    2    0    0  0.13045198855E+02  0.26589652591E+02 -0.11812465319E+02  0.59301934470E+02  0.49999982570E+02 0.  0.
        -12    1    1    2    0    0 -0.13045198855E+02 -0.26589652591E+02  0.11812465319E+02  0.31886065530E+02  0.00000000000E+00 0.  1.
         11    1    3    3    0    0  0.18173695020E+02  0.20739785621E+00 -0.10356456065E+02  0.20918469998E+02  0.51100000000E-03 0. -1.
        -11    1    3    3    0    0  0.16316372549E+01  0.28689925970E+02 -0.67183691276E+01  0.29511194085E+02  0.51100000000E-03 0.  1.
         12    1    3    3    0    0 -0.67601334205E+01 -0.23076712358E+01  0.52623598739E+01  0.88722703880E+01  0.00000000000E+00 0. -1.
</event>
<event>
 7    1  0.6293596E-013  0.5930196E+02  0.7816164E-02  0.1266605E+00
        -11   -1    0    0    0    0  0.00000000000E+00  0.00000000000E+00  0.45593999997E+02  0.45594000000E+02  0.51100000000E-03 0.  1.
         11   -1    0    0    0    0 -0.00000000000E+00 -0.00000000000E+00 -0.45593999997E+02  0.45594000000E+02  0.51100000000E-03 0. -1.
    9900012    2    1    2    0    0  0.21840061608E+02  0.59641843050E+01 -0.22453499056E+02  0.59301962220E+02  0.50000033178E+02 0.  0.
        -12    1    1    2    0    0 -0.21840061608E+02 -0.59641843050E+01  0.22453499056E+02  0.31886037780E+02  0.00000000000E+00 0.  1.
         11    1    3    3    0    0  0.88739863122E+01 -0.36098404451E+01 -0.25369413076E+01  0.99103305983E+01  0.51100000000E-03 0. -1.
        -11    1    3    3    0    0 -0.13321346376E+02  0.11447539575E+02 -0.13799941030E+02  0.22337027651E+02  0.51100000000E-03 0.  1.
        -12    1    3    3    0    0  0.26287421671E+02 -0.18735148252E+01 -0.61166167190E+01  0.27054603971E+02  0.00000000000E+00 0.  1.
</event>
<event>
 7    1  0.7021494E-013  0.5930194E+02  0.7816164E-02  0.1266605E+00
        -11   -1    0    0    0    0  0.00000000000E+00  0.00000000000E+00  0.45593999997E+02  0.45594000000E+02  0.51100000000E-03 0.  1.
         11   -1    0    0    0    0 -0.00000000000E+00 -0.00000000000E+00 -0.45593999997E+02  0.45594000000E+02  0.51100000000E-03 0. -1.
    9900012    2    1    2    0    0 -0.28494552734E+02 -0.82054261239E+01 -0.11724008584E+02  0.59301938301E+02  0.49999989556E+02 0.  0.
        -12    1    1    2    0    0  0.28494552734E+02  0.82054261239E+01  0.11724008584E+02  0.31886061699E+02  0.00000000000E+00 0.  1.
         11    1    3    3    0    0 -0.12960192741E+02  0.35491332236E+01  0.14505624099E+02  0.19773114911E+02  0.51100000000E-03 0. -1.
        -11    1    3    3    0    0  0.27794494166E+01 -0.10849405230E+02 -0.90000896962E+01  0.14367899906E+02  0.51100000000E-03 0.  1.
         12    1    3    3    0    0 -0.18313809409E+02 -0.90515411775E+00 -0.17229542986E+02  0.25160923484E+02  0.00000000000E+00 0. -1.
</event>
<event>
 7    1  0.6293596E-013  0.5930195E+02  0.7816164E-02  0.1266605E+00
        -11   -1    0    0    0    0  0.00000000000E+00  0.00000000000E+00  0.45593999997E+02  0.45594000000E+02  0.51100000000E-03 0.  1.
         11   -1    0    0    0    0 -0.00000000000E+00 -0.00000000000E+00 -0.45593999997E+02  0.45594000000E+02  0.51100000000E-03 0. -1.
    9900012    2    1    2    0    0 -0.16108927116E+02 -0.14004251870E+02 -0.23687631049E+02  0.59301945557E+02  0.50000002789E+02 0.  0.
        -12    1    1    2    0    0  0.16108927116E+02  0.14004251870E+02  0.23687631049E+02  0.31886054443E+02  0.00000000000E+00 0.  1.
         11    1    3    3    0    0  0.10596437759E+02 -0.61570007272E+01 -0.11842768666E+02  0.17042427088E+02  0.51100000000E-03 0. -1.
        -11    1    3    3    0    0 -0.26400237810E+02  0.24166538233E+01 -0.16240665429E+02  0.31089740848E+02  0.51100000000E-03 0.  1.
        -12    1    3    3    0    0 -0.30512706431E+00 -0.10263904966E+02  0.43958030463E+01  0.11169777621E+02  0.00000000000E+00 0.  1.
</event>
<event>
 7    1  0.6293596E-013  0.5930195E+02  0.7816164E-02  0.1266605E+00
        -11   -1    0    0    0    0  0.00000000000E+00  0.00000000000E+00  0.45593999997E+02  0.45594000000E+02  0.51100000000E-03 0.  1.
         11   -1    0    0    0    0 -0.00000000000E+00 -0.00000000000E+00 -0.45593999997E+02  0.45594000000E+02  0.51100000000E-03 0. -1.
    9900012    2    1    2    0    0 -0.24676245873E+02 -0.76787971667E+01 -0.18677240081E+02  0.59301947667E+02  0.50000006637E+02 0.  0.
        -12    1    1    2    0    0  0.24676245873E+02  0.76787971667E+01  0.18677240081E+02  0.31886052333E+02  0.00000000000E+00 0.  1.
         11    1    3    3    0    0 -0.58555821283E+01  0.27661614150E+01 -0.20482920630E+02  0.21482307344E+02  0.51100000000E-03 0. -1.
        -11    1    3    3    0    0 -0.36994519532E+01 -0.48923412344E+01  0.15504692131E+02  0.16673824572E+02  0.51100000000E-03 0.  1.
        -12    1    3    3    0    0 -0.15121211792E+02 -0.55526173474E+01 -0.13699011582E+02  0.21145815751E+02  0.00000000000E+00 0.  1.
</event>
<event>
 7    1  0.6293596E-013  0.5930193E+02  0.7816164E-02  0.1266605E+00
        -11   -1    0    0    0    0  0.00000000000E+00  0.00000000000E+00  0.45593999997E+02  0.45594000000E+02  0.51100000000E-03 0.  1.
         11   -1    0    0    0    0 -0.00000000000E+00 -0.00000000000E+00 -0.45593999997E+02  0.45594000000E+02  0.51100000000E-03 0. -1.
    9900012    2    1    2    0    0  0.11360983004E+02  0.10074180206E+02 -0.28038556871E+02  0.59301926033E+02  0.49999967182E+02 0.  0.
        -12    1    1    2    0    0 -0.11360983004E+02 -0.10074180206E+02  0.28038556871E+02  0.31886073967E+02  0.00000000000E+00 0.  1.
         11    1    3    3    0    0  0.12585631270E+02  0.14477856191E+02 -0.74032701727E+01  0.20562462008E+02  0.51100000000E-03 0. -1.
        -11    1    3    3    0    0 -0.16770044684E+02 -0.32778097817E+01 -0.91858364724E+01  0.19399949166E+02  0.51100000000E-03 0.  1.
        -12    1    3    3    0    0  0.15545396419E+02 -0.11258662026E+01 -0.11449450225E+02  0.19339514859E+02  0.00000000000E+00 0.  1.
</event>
<event>
 7    1  0.6293596E-013  0.5930194E+02  0.7816164E-02  0.1266605E+00
        -11   -1    0    0    0    0  0.00000000000E+00  0.00000000000E+00  0.45593999997E+02  0.45594000000E+02  0.51100000000E-03 0. -1.
         11   -1    0    0    0    0 -0.00000000000E+00 -0.00000000000E+00 -0.45593999997E+02  0.45594000000E+02  0.51100000000E-03 0.  1.
    9900012    2    1    2    0    0 -0.29195318072E+01  0.86588188575E+01  0.30548679806E+02  0.59301942736E+02  0.49999997644E+02 0.  0.
        -12    1    1    2    0    0  0.29195318072E+01 -0.86588188575E+01 -0.30548679806E+02  0.31886057264E+02  0.00000000000E+00 0.  1.
         11    1    3    3    0    0  0.50479638114E+01  0.85254241687E+01  0.31613021770E+02  0.33129261108E+02  0.51100000000E-03 0. -1.
        -11    1    3    3    0    0  0.19320254057E+01 -0.10039364857E+02 -0.50868388304E+01  0.11419172407E+02  0.51100000000E-03 0.  1.
         12    1    3    3    0    0 -0.98995210242E+01  0.10172759546E+02  0.40224968661E+01  0.14753509221E+02  0.00000000000E+00 0. -1.
</event>
<event>
 7    1  0.6293596E-013  0.5930193E+02  0.7816164E-02  0.1266605E+00
        -11   -1    0    0    0    0  0.00000000000E+00  0.00000000000E+00  0.45593999997E+02  0.45594000000E+02  0.51100000000E-03 0. -1.
         11   -1    0    0    0    0 -0.00000000000E+00 -0.00000000000E+00 -0.45593999997E+02  0.45594000000E+02  0.51100000000E-03 0.  1.
    9900012    2    1    2    0    0  0.21364076491E+02 -0.12619786088E+02  0.20025954376E+02  0.59301927588E+02  0.49999970017E+02 0.  0.
        -12    1    1    2    0    0 -0.21364076491E+02  0.12619786088E+02 -0.20025954376E+02  0.31886072412E+02  0.00000000000E+00 0.  1.
         11    1    3    3    0    0  0.28042475298E+02 -0.28182520490E+01  0.20739352327E+02  0.34992051964E+02  0.51100000000E-03 0.  1.
        -11    1    3    3    0    0 -0.23831280509E+01 -0.15141388381E+02 -0.51224336041E+01  0.16161072604E+02  0.51100000000E-03 0. -1.
        -12    1    3    3    0    0 -0.42952707564E+01  0.53398543422E+01  0.44090356537E+01  0.81488030203E+01  0.00000000000E+00 0.  1.
</event>
<event>
 7    1  0.6293596E-013  0.5930195E+02  0.7816164E-02  0.1266605E+00
        -11   -1    0    0    0    0  0.00000000000E+00  0.00000000000E+00  0.45593999997E+02  0.45594000000E+02  0.51100000000E-03 0. -1.
         11   -1    0    0    0    0 -0.00000000000E+00 -0.00000000000E+00 -0.45593999997E+02  0.45594000000E+02  0.51100000000E-03 0.  1.
    9900012    2    1    2    0    0  0.33455315854E+00 -0.11668367767E+02  0.29672503257E+02  0.59301950045E+02  0.50000010974E+02 0.  0.
        -12    1    1    2    0    0 -0.33455315854E+00  0.11668367767E+02 -0.29672503257E+02  0.31886049955E+02  0.00000000000E+00 0.  1.
         11    1    3    3    0    0  0.20441000660E+02 -0.95781395111E+01  0.28289404395E+02  0.36192066337E+02  0.51100000000E-03 0. -1.
        -11    1    3    3    0    0 -0.11534263329E+02 -0.79471718983E+00 -0.47405595519E+01  0.12495747720E+02  0.51100000000E-03 0.  1.
        -12    1    3    3    0    0 -0.85721841726E+01 -0.12955110658E+01  0.61236584147E+01  0.10614135989E+02  0.00000000000E+00 0.  1.
</event>
<event>
 7    1  0.6293596E-013  0.5930195E+02  0.7816164E-02  0.1266605E+00
        -11   -1    0    0    0    0  0.00000000000E+00  0.00000000000E+00  0.45593999997E+02  0.45594000000E+02  0.51100000000E-03 0. -1.
         11   -1    0    0    0    0 -0.00000000000E+00 -0.00000000000E+00 -0.45593999997E+02  0.45594000000E+02  0.51100000000E-03 0.  1.
    9900012    2    1    2    0    0 -0.25959842519E+02  0.69312988375E+01  0.17168697072E+02  0.59301945269E+02  0.50000002263E+02 0.  0.
        -12    1    1    2    0    0  0.25959842519E+02 -0.69312988375E+01 -0.17168697072E+02  0.31886054731E+02  0.00000000000E+00 0.  1.
         11    1    3    3    0    0  0.72396265872E+01 -0.47247155165E+00  0.20824250018E+02  0.22051866397E+02  0.51100000000E-03 0. -1.
        -11    1    3    3    0    0 -0.65473665961E+01  0.76774850422E+01 -0.32251998735E+01  0.10593096828E+02  0.51100000000E-03 0.  1.
         12    1    3    3    0    0 -0.26652102510E+02 -0.27371465301E+00 -0.43035307335E+00  0.26656982044E+02  0.00000000000E+00 0. -1.
</event>
<event>
 7    1  0.6293596E-013  0.5930193E+02  0.7816164E-02  0.1266605E+00
        -11   -1    0    0    0    0  0.00000000000E+00  0.00000000000E+00  0.45593999997E+02  0.45594000000E+02  0.51100000000E-03 0.  1.
         11   -1    0    0    0    0 -0.00000000000E+00 -0.00000000000E+00 -0.45593999997E+02  0.45594000000E+02  0.51100000000E-03 0. -1.
    9900012    2    1    2    0    0  0.20603458905E+02  0.53872062071E+01 -0.23731766007E+02  0.59301933649E+02  0.49999981071E+02 0.  0.
        -12    1    1    2    0    0 -0.20603458905E+02 -0.53872062071E+01  0.23731766007E+02  0.31886066351E+02  0.00000000000E+00 0.  1.
         11    1    3    3    0    0  0.14027904153E+02  0.99436747952E+01 -0.25980938984E+01  0.17389906714E+02  0.51100000000E-03 0. -1.
        -11    1    3    3    0    0 -0.80646862050E+01 -0.29948998319E+01  0.63774323953E+01  0.10708885694E+02  0.51100000000E-03 0.  1.
        -12    1    3    3    0    0  0.14640240956E+02 -0.15615687562E+01 -0.27511104504E+02  0.31203141240E+02  0.00000000000E+00 0.  1.
</event>
<event>
 7    1  0.6293596E-013  0.5930196E+02  0.7816164E-02  0.1266605E+00
        -11   -1    0    0    0    0  0.00000000000E+00  0.00000000000E+00  0.45593999997E+02  0.45594000000E+02  0.51100000000E-03 0.  1.
         11   -1    0    0    0    0 -0.00000000000E+00 -0.00000000000E+00 -0.45593999997E+02  0.45594000000E+02  0.51100000000E-03 0. -1.
    9900012    2    1    2    0    0 -0.28013584995E+02  0.90265744589E+01 -0.12267012603E+02  0.59301959341E+02  0.50000027927E+02 0.  0.
        -12    1    1    2    0    0  0.28013584995E+02 -0.90265744589E+01  0.12267012603E+02  0.31886040659E+02  0.00000000000E+00 0.  1.
         11    1    3    3    0    0 -0.15922389907E+02 -0.17398182053E+02 -0.18022115634E+01  0.23653059124E+02  0.51100000000E-03 0. -1.
        -11    1    3    3    0    0 -0.15861591309E+02  0.25744452672E+02 -0.90337167604E+01  0.31559070979E+02  0.51100000000E-03 0.  1.
         12    1    3    3    0    0  0.37703962220E+01  0.68030383986E+00 -0.14310842794E+01  0.40898292385E+01  0.00000000000E+00 0. -1.
</event>
<event>
 7    1  0.6293596E-013  0.5930193E+02  0.7816164E-02  0.1266605E+00
        -11   -1    0    0    0    0  0.00000000000E+00  0.00000000000E+00  0.45593999997E+02  0.45594000000E+02  0.51100000000E-03 0. -1.
         11   -1    0    0    0    0 -0.00000000000E+00 -0.00000000000E+00 -0.45593999997E+02  0.45594000000E+02  0.51100000000E-03 0.  1.
    9900012    2    1    2    0    0 -0.83087127919E+00 -0.14098208421E+02  0.28587960736E+02  0.59301932089E+02  0.49999978226E+02 0.  0.
        -12    1    1    2    0    0  0.83087127919E+00  0.14098208421E+02 -0.28587960736E+02  0.31886067911E+02  0.00000000000E+00 0.  1.
         11    1    3    3    0    0 -0.23420879975E+01 -0.22996982572E+02 -0.50722789257E+01  0.23665895237E+02  0.51100000000E-03 0. -1.
        -11    1    3    3    0    0 -0.27681978082E+01  0.27784629757E+01  0.15753953660E+02  0.16234833901E+02  0.51100000000E-03 0.  1.
        -12    1    3    3    0    0  0.42794145265E+01  0.61203111746E+01  0.17906286002E+02  0.19401202951E+02  0.00000000000E+00 0.  1.
</event>
<event>
 7    1  0.6293596E-013  0.5930194E+02  0.7816164E-02  0.1266605E+00
        -11   -1    0    0    0    0  0.00000000000E+00  0.00000000000E+00  0.45593999997E+02  0.45594000000E+02  0.51100000000E-03 0.  1.
         11   -1    0    0    0    0 -0.00000000000E+00 -0.00000000000E+00 -0.45593999997E+02  0.45594000000E+02  0.51100000000E-03 0. -1.
    9900012    2    1    2    0    0  0.40618221037E+01 -0.19663915747E+02  0.24769994837E+02  0.59301943086E+02  0.49999998282E+02 0.  0.
        -12    1    1    2    0    0 -0.40618221037E+01  0.19663915747E+02 -0.24769994837E+02  0.31886056914E+02  0.00000000000E+00 0.  1.
         11    1    3    3    0    0  0.13951917854E+02 -0.26834295961E+02  0.26067654814E+02  0.39928161482E+02  0.51100000000E-03 0. -1.
        -11    1    3    3    0    0  0.34070872083E+01  0.45518307398E+01 -0.12482665060E+01  0.58211318367E+01  0.51100000000E-03 0.  1.
         12    1    3    3    0    0 -0.13297182959E+02  0.26185494744E+01 -0.49393471071E-01  0.13552649767E+02  0.00000000000E+00 0. -1.
</event>
<event>
 7    1  0.6293596E-013  0.5930194E+02  0.7816164E-02  0.1266605E+00
        -11   -1    0    0    0    0  0.00000000000E+00  0.00000000000E+00  0.45593999997E+02  0.45594000000E+02  0.51100000000E-03 0.  1.
         11   -1    0    0    0    0 -0.00000000000E+00 -0.00000000000E+00 -0.45593999997E+02  0.45594000000E+02  0.51100000000E-03 0. -1.
    9900012    2    1    2    0    0  0.16145291939E+02 -0.86018660965E+01  0.26116243503E+02  0.59301941497E+02  0.49999995385E+02 0.  0.
        -12    1    1    2    0    0 -0.16145291939E+02  0.86018660965E+01 -0.26116243503E+02  0.31886058503E+02  0.00000000000E+00 0.  1.
         11    1    3    3    0    0 -0.63909161181E+01 -0.61290251104E+01 -0.10792654257E+02  0.13960306007E+02  0.51100000000E-03 0. -1.
        -11    1    3    3    0    0  0.23293742203E+02 -0.23255463351E+01  0.28429558044E+02  0.36827250270E+02  0.51100000000E-03 0.  1.
         12    1    3    3    0    0 -0.75753414557E+00 -0.14729465098E+00  0.84793397149E+01  0.85143852213E+01  0.00000000000E+00 0. -1.
</event>
<event>
 7    1  0.6293596E-013  0.5930194E+02  0.7816164E-02  0.1266605E+00
        -11   -1    0    0    0    0  0.00000000000E+00  0.00000000000E+00  0.45593999997E+02  0.45594000000E+02  0.51100000000E-03 0. -1.
         11   -1    0    0    0    0 -0.00000000000E+00 -0.00000000000E+00 -0.45593999997E+02  0.45594000000E+02  0.51100000000E-03 0.  1.
    9900012    2    1    2    0    0 -0.19244152428E+02  0.14511346704E+02  0.20875918923E+02  0.59301943851E+02  0.49999999678E+02 0.  0.
        -12    1    1    2    0    0  0.19244152428E+02 -0.14511346704E+02 -0.20875918923E+02  0.31886056149E+02  0.00000000000E+00 0.  1.
         11    1    3    3    0    0  0.83702978130E+01  0.15769907460E+02  0.21714132268E+02  0.28111481768E+02  0.51100000000E-03 0. -1.
        -11    1    3    3    0    0 -0.18538403783E+02  0.36915736868E+01 -0.57321490336E+01  0.19752409066E+02  0.51100000000E-03 0.  1.
        -12    1    3    3    0    0 -0.90760464578E+01 -0.49501344429E+01  0.48939356889E+01  0.11438053018E+02  0.00000000000E+00 0.  1.
</event>
<event>
 7    1  0.6293596E-013  0.5930196E+02  0.7816164E-02  0.1266605E+00
        -11   -1    0    0    0    0  0.00000000000E+00  0.00000000000E+00  0.45593999997E+02  0.45594000000E+02  0.51100000000E-03 0.  1.
         11   -1    0    0    0    0 -0.00000000000E+00 -0.00000000000E+00 -0.45593999997E+02  0.45594000000E+02  0.51100000000E-03 0. -1.
    9900012    2    1    2    0    0 -0.16903876466E+01  0.31701912328E+02  0.29750616774E+01  0.59301958420E+02  0.50000026248E+02 0.  0.
        -12    1    1    2    0    0  0.16903876466E+01 -0.31701912328E+02 -0.29750616774E+01  0.31886041580E+02  0.00000000000E+00 0.  1.
         11    1    3    3    0    0  0.94579936193E+00  0.12968493055E+02 -0.53301074819E+00  0.13013856049E+02  0.51100000000E-03 0. -1.
        -11    1    3    3    0    0  0.64252131588E+01 -0.12209318789E+02  0.25577968486E+01  0.14031862115E+02  0.51100000000E-03 0.  1.
        -12    1    3    3    0    0 -0.90614001673E+01  0.30942738062E+02  0.95027557700E+00  0.32256240256E+02  0.00000000000E+00 0.  1.
</event>
<event>
 7    1  0.6293596E-013  0.5930182E+02  0.7816164E-02  0.1266605E+00
        -11   -1    0    0    0    0  0.00000000000E+00  0.00000000000E+00  0.45593999997E+02  0.45594000000E+02  0.51100000000E-03 0. -1.
         11   -1    0    0    0    0 -0.00000000000E+00 -0.00000000000E+00 -0.45593999997E+02  0.45594000000E+02  0.51100000000E-03 0.  1.
    9900012    2    1    2    0    0 -0.67705059030E+01  0.28792419213E+02  0.11911561912E+02  0.59301820211E+02  0.49999774188E+02 0.  0.
        -12    1    1    2    0    0  0.67705059030E+01 -0.28792419213E+02 -0.11911561912E+02  0.31886179789E+02  0.00000000000E+00 0.  1.
         11    1    3    3    0    0 -0.21575623108E+02  0.35285588979E+02  0.77609094768E+01  0.42081017315E+02  0.51100000000E-03 0. -1.
        -11    1    3    3    0    0  0.95566762749E+01 -0.63214061793E+01  0.30133496215E+01  0.11847806283E+02  0.51100000000E-03 0.  1.
         12    1    3    3    0    0  0.52484409297E+01 -0.17176358622E+00  0.11373028141E+01  0.53729966139E+01  0.00000000000E+00 0. -1.
</event>
<event>
 7    1  0.6293596E-013  0.5930196E+02  0.7816164E-02  0.1266605E+00
        -11   -1    0    0    0    0  0.00000000000E+00  0.00000000000E+00  0.45593999997E+02  0.45594000000E+02  0.51100000000E-03 0. -1.
         11   -1    0    0    0    0 -0.00000000000E+00 -0.00000000000E+00 -0.45593999997E+02  0.45594000000E+02  0.51100000000E-03 0.  1.
    9900012    2    1    2    0    0 -0.20091188291E+02 -0.72337710754E+01  0.23679864334E+02  0.59301964408E+02  0.50000037168E+02 0.  0.
        -12    1    1    2    0    0  0.20091188291E+02  0.72337710754E+01 -0.23679864334E+02  0.31886035592E+02  0.00000000000E+00 0.  1.
         11    1    3    3    0    0  0.37637235244E+00 -0.14994907873E+02 -0.16812240106E+01  0.15093556000E+02  0.51100000000E-03 0. -1.
        -11    1    3    3    0    0 -0.24891827542E+02  0.93054867534E+01  0.28184841693E+02  0.38737326490E+02  0.51100000000E-03 0.  1.
        -12    1    3    3    0    0  0.44242668991E+01 -0.15443499553E+01 -0.28237533478E+01  0.54710819176E+01  0.00000000000E+00 0.  1.
</event>
<event>
 7    1  0.6293596E-013  0.5930196E+02  0.7816164E-02  0.1266605E+00
        -11   -1    0    0    0    0  0.00000000000E+00  0.00000000000E+00  0.45593999997E+02  0.45594000000E+02  0.51100000000E-03 0. -1.
         11   -1    0    0    0    0 -0.00000000000E+00 -0.00000000000E+00 -0.45593999997E+02  0.45594000000E+02  0.51100000000E-03 0.  1.
    9900012    2    1    2    0    0 -0.36499085496E+01  0.31523203869E+02 -0.31121012478E+01  0.59301962479E+02  0.50000033651E+02 0.  0.
        -12    1    1    2    0    0  0.36499085496E+01 -0.31523203869E+02  0.31121012478E+01  0.31886037521E+02  0.00000000000E+00 0.  1.
         11    1    3    3    0    0  0.14917991750E+02  0.19127002927E+02  0.11620339840E+02  0.26896487077E+02  0.51100000000E-03 0. -1.
        -11    1    3    3    0    0 -0.44772536650E+01  0.21196574996E+01 -0.14110085281E+02  0.14954372444E+02  0.51100000000E-03 0.  1.
         12    1    3    3    0    0 -0.14090646635E+02  0.10276543443E+02 -0.62235580676E+00  0.17451102959E+02  0.00000000000E+00 0. -1.
</event>
<event>
 7    1  0.6293596E-013  0.5930199E+02  0.7816164E-02  0.1266605E+00
        -11   -1    0    0    0    0  0.00000000000E+00  0.00000000000E+00  0.45593999997E+02  0.45594000000E+02  0.51100000000E-03 0.  1.
         11   -1    0    0    0    0 -0.00000000000E+00 -0.00000000000E+00 -0.45593999997E+02  0.45594000000E+02  0.51100000000E-03 0. -1.
    9900012    2    1    2    0    0  0.24516461730E+02 -0.10954597646E+02 -0.17194692689E+02  0.59301991125E+02  0.50000085894E+02 0.  0.
        -12    1    1    2    0    0 -0.24516461730E+02  0.10954597646E+02  0.17194692689E+02  0.31886008875E+02  0.00000000000E+00 0.  1.
         11    1    3    3    0    0 -0.45301437774E+01 -0.19238602354E+01 -0.18847231149E+02  0.19479259819E+02  0.51100000000E-03 0. -1.
        -11    1    3    3    0    0  0.21560548302E+02 -0.58753300728E+01 -0.10905725383E+02  0.24865872053E+02  0.51100000000E-03 0.  1.
        -12    1    3    3    0    0  0.74860572052E+01 -0.31554073377E+01  0.12558263844E+02  0.14956859253E+02  0.00000000000E+00 0.  1.
</event>
<event>
 7    1  0.6293596E-013  0.5930198E+02  0.7816164E-02  0.1266605E+00
        -11   -1    0    0    0    0  0.00000000000E+00  0.00000000000E+00  0.45593999997E+02  0.45594000000E+02  0.51100000000E-03 0.  1.
         11   -1    0    0    0    0 -0.00000000000E+00 -0.00000000000E+00 -0.45593999997E+02  0.45594000000E+02  0.51100000000E-03 0. -1.
    9900012    2    1    2    0    0 -0.11537951554E+02 -0.58741006362E+01 -0.29139126951E+02  0.59301982628E+02  0.50000070398E+02 0.  0.
        -12    1    1    2    0    0  0.11537951554E+02  0.58741006362E+01  0.29139126951E+02  0.31886017372E+02  0.00000000000E+00 0.  1.
         11    1    3    3    0    0 -0.16419992782E+02 -0.20399219489E+02 -0.13634829483E+02  0.29523768290E+02  0.51100000000E-03 0. -1.
        -11    1    3    3    0    0 -0.46499182174E+01  0.14248385114E+02 -0.55212268284E+01  0.15972544060E+02  0.51100000000E-03 0.  1.
        -12    1    3    3    0    0  0.95319594455E+01  0.27673373808E+00 -0.99830706399E+01  0.13805670278E+02  0.00000000000E+00 0.  1.
</event>
<event>
 7    1  0.6293596E-013  0.5930194E+02  0.7816164E-02  0.1266605E+00
        -11   -1    0    0    0    0  0.00000000000E+00  0.00000000000E+00  0.45593999997E+02  0.45594000000E+02  0.51100000000E-03 0. -1.
         11   -1    0    0    0    0 -0.00000000000E+00 -0.00000000000E+00 -0.45593999997E+02  0.45594000000E+02  0.51100000000E-03 0.  1.
    9900012    2    1    2    0    0 -0.43926419601E+01  0.29007522706E+02 -0.12489549258E+02  0.59301944778E+02  0.50000001369E+02 0.  0.
        -12    1    1    2    0    0  0.43926419601E+01 -0.29007522706E+02  0.12489549258E+02  0.31886055222E+02  0.00000000000E+00 0.  1.
         11    1    3    3    0    0  0.69354794448E+01  0.28627074289E+02 -0.12511004144E+02  0.32002116843E+02  0.51100000000E-03 0. -1.
        -11    1    3    3    0    0 -0.12277231758E+02  0.26399485839E+00 -0.10849843613E+02  0.16386556063E+02  0.51100000000E-03 0.  1.
         12    1    3    3    0    0  0.94911035296E+00  0.11645355883E+00  0.10871298499E+02  0.10913271872E+02  0.00000000000E+00 0. -1.
</event>
<event>
 7    1  0.6293596E-013  0.5930196E+02  0.7816164E-02  0.1266605E+00
        -11   -1    0    0    0    0  0.00000000000E+00  0.00000000000E+00  0.45593999997E+02  0.45594000000E+02  0.51100000000E-03 0.  1.
         11   -1    0    0    0    0 -0.00000000000E+00 -0.00000000000E+00 -0.45593999997E+02  0.45594000000E+02  0.51100000000E-03 0. -1.
    9900012    2    1    2    0    0  0.15323284015E+02 -0.27956324516E+02 -0.60061601047E+00  0.59301955199E+02  0.50000020374E+02 0.  0.
        -12    1    1    2    0    0 -0.15323284015E+02  0.27956324516E+02  0.60061601047E+00  0.31886044801E+02  0.00000000000E+00 0.  1.
         11    1    3    3    0    0 -0.12851087530E+02 -0.19128016985E+02 -0.36736572620E+01  0.23335107508E+02  0.51100000000E-03 0. -1.
        -11    1    3    3    0    0  0.20655169248E+02 -0.10259230320E+00  0.95454714585E+01  0.22754396662E+02  0.51100000000E-03 0.  1.
         12    1    3    3    0    0  0.75192022967E+01 -0.87257152281E+01 -0.64724302070E+01  0.13212451029E+02  0.00000000000E+00 0. -1.
</event>
<event>
 7    1  0.6293596E-013  0.5930193E+02  0.7816164E-02  0.1266605E+00
        -11   -1    0    0    0    0  0.00000000000E+00  0.00000000000E+00  0.45593999997E+02  0.45594000000E+02  0.51100000000E-03 0.  1.
         11   -1    0    0    0    0 -0.00000000000E+00 -0.00000000000E+00 -0.45593999997E+02  0.45594000000E+02  0.51100000000E-03 0. -1.
    9900012    2    1    2    0    0  0.65213623117E+01  0.47373749691E+01 -0.30850449846E+02  0.59301934960E+02  0.49999983463E+02 0.  0.
        -12    1    1    2    0    0 -0.65213623117E+01 -0.47373749691E+01  0.30850449846E+02  0.31886065040E+02  0.00000000000E+00 0.  1.
         11    1    3    3    0    0 -0.11263042010E+02  0.15665811186E+02 -0.30098258195E+02  0.35751627964E+02  0.51100000000E-03 0. -1.
        -11    1    3    3    0    0  0.15585464804E+02 -0.44483876424E+01 -0.27097828132E+01  0.16432826565E+02  0.51100000000E-03 0.  1.
         12    1    3    3    0    0  0.21989395179E+01 -0.64800485740E+01  0.19575911620E+01  0.71174804308E+01  0.00000000000E+00 0. -1.
</event>
<event>
 7    1  0.6293596E-013  0.5930197E+02  0.7816164E-02  0.1266605E+00
        -11   -1    0    0    0    0  0.00000000000E+00  0.00000000000E+00  0.45593999997E+02  0.45594000000E+02  0.51100000000E-03 0. -1.
         11   -1    0    0    0    0 -0.00000000000E+00 -0.00000000000E+00 -0.45593999997E+02  0.45594000000E+02  0.51100000000E-03 0.  1.
    9900012    2    1    2    0    0  0.22369802844E+01 -0.29161221354E+02  0.12701891643E+02  0.59301969156E+02  0.50000045828E+02 0.  0.
        -12    1    1    2    0    0 -0.22369802844E+01  0.29161221354E+02 -0.12701891643E+02  0.31886030844E+02  0.00000000000E+00 0.  1.
         11    1    3    3    0    0  0.20131236585E+02 -0.13151864208E+02  0.99586271349E+01  0.26027148773E+02  0.51100000000E-03 0. -1.
        -11    1    3    3    0    0 -0.11531717058E+02 -0.61899352182E+01 -0.96272198919E+01  0.16247435472E+02  0.51100000000E-03 0.  1.
         12    1    3    3    0    0 -0.63625392424E+01 -0.98194219283E+01  0.12370484400E+02  0.17027384911E+02  0.00000000000E+00 0. -1.
</event>
<event>
 7    1  0.6293596E-013  0.5930187E+02  0.7816164E-02  0.1266605E+00
        -11   -1    0    0    0    0  0.00000000000E+00  0.00000000000E+00  0.45593999997E+02  0.45594000000E+02  0.51100000000E-03 0.  1.
         11   -1    0    0    0    0 -0.00000000000E+00 -0.00000000000E+00 -0.45593999997E+02  0.45594000000E+02  0.51100000000E-03 0. -1.
    9900012    2    1    2    0    0 -0.36629313869E+00  0.11035773553E+02 -0.29913254622E+02  0.59301870247E+02  0.49999865441E+02 0.  0.
        -12    1    1    2    0    0  0.36629313869E+00 -0.11035773553E+02  0.29913254622E+02  0.31886129753E+02  0.00000000000E+00 0.  1.
         11    1    3    3    0    0 -0.15630575006E+02  0.77347805760E+01 -0.24693089662E+02  0.30230619955E+02  0.51100000000E-03 0. -1.
        -11    1    3    3    0    0  0.93618676646E+01 -0.99660126681E+01 -0.99013080625E-01  0.13673908678E+02  0.51100000000E-03 0.  1.
         12    1    3    3    0    0  0.59024142029E+01  0.13267005645E+02 -0.51211518793E+01  0.15397341614E+02  0.00000000000E+00 0. -1.
</event>
<event>
 7    1  0.6293596E-013  0.5930195E+02  0.7816164E-02  0.1266605E+00
        -11   -1    0    0    0    0  0.00000000000E+00  0.00000000000E+00  0.45593999997E+02  0.45594000000E+02  0.51100000000E-03 0. -1.
         11   -1    0    0    0    0 -0.00000000000E+00 -0.00000000000E+00 -0.45593999997E+02  0.45594000000E+02  0.51100000000E-03 0.  1.
    9900012    2    1    2    0    0 -0.14948656285E+02 -0.18663741863E+02  0.21093188166E+02  0.59301950197E+02  0.50000011251E+02 0.  0.
        -12    1    1    2    0    0  0.14948656285E+02  0.18663741863E+02 -0.21093188166E+02  0.31886049803E+02  0.00000000000E+00 0.  1.
         11    1    3    3    0    0  0.15890619451E+02 -0.45764836393E+01  0.13254748126E+02  0.21193025673E+02  0.51100000000E-03 0. -1.
        -11    1    3    3    0    0 -0.10966687536E+02 -0.13440255665E+02  0.25377239508E+01  0.17531364778E+02  0.51100000000E-03 0.  1.
         12    1    3    3    0    0 -0.19872588199E+02 -0.64700255874E+00  0.53007160890E+01  0.20577559746E+02  0.00000000000E+00 0. -1.
</event>
<event>
 7    1  0.6293596E-013  0.5930197E+02  0.7816164E-02  0.1266605E+00
        -11   -1    0    0    0    0  0.00000000000E+00  0.00000000000E+00  0.45593999997E+02  0.45594000000E+02  0.51100000000E-03 0.  1.
         11   -1    0    0    0    0 -0.00000000000E+00 -0.00000000000E+00 -0.45593999997E+02  0.45594000000E+02  0.51100000000E-03 0. -1.
    9900012    2    1    2    0    0 -0.29318671674E+02 -0.12290438735E+02  0.24656146713E+01  0.59301974084E+02  0.50000054815E+02 0.  0.
        -12    1    1    2    0    0  0.29318671674E+02  0.12290438735E+02 -0.24656146713E+01  0.31886025916E+02  0.00000000000E+00 0.  1.
         11    1    3    3    0    0 -0.91824995824E+01 -0.17754432903E+02 -0.17348566485E+02  0.26467167314E+02  0.51100000000E-03 0. -1.
        -11    1    3    3    0    0 -0.62314441529E+01 -0.40088715274E+01  0.12407957337E+02  0.14451967087E+02  0.51100000000E-03 0.  1.
         12    1    3    3    0    0 -0.13904727939E+02  0.94728656955E+01  0.74062238192E+01  0.18382839683E+02  0.00000000000E+00 0. -1.
</event>
<event>
 7    1  0.6293596E-013  0.5930196E+02  0.7816164E-02  0.1266605E+00
        -11   -1    0    0    0    0  0.00000000000E+00  0.00000000000E+00  0.45593999997E+02  0.45594000000E+02  0.51100000000E-03 0.  1.
         11   -1    0    0    0    0 -0.00000000000E+00 -0.00000000000E+00 -0.45593999997E+02  0.45594000000E+02  0.51100000000E-03 0. -1.
    9900012    2    1    2    0    0 -0.20161001041E+02  0.23820264282E+02 -0.65458914538E+01  0.59301958409E+02  0.50000026228E+02 0.  0.
        -12    1    1    2    0    0  0.20161001041E+02 -0.23820264282E+02  0.65458914538E+01  0.31886041591E+02  0.00000000000E+00 0.  1.
         11    1    3    3    0    0 -0.20202793364E+02  0.16019366684E+02 -0.19194634938E+02  0.32143537132E+02  0.51100000000E-03 0. -1.
        -11    1    3    3    0    0  0.40929064620E+01  0.11888404132E+02  0.16115440911E+02  0.20439996872E+02  0.51100000000E-03 0.  1.
        -12    1    3    3    0    0 -0.40511141394E+01 -0.40875065345E+01 -0.34666974266E+01  0.67184244051E+01  0.00000000000E+00 0.  1.
</event>
<event>
 7    1  0.6293596E-013  0.5930195E+02  0.7816164E-02  0.1266605E+00
        -11   -1    0    0    0    0  0.00000000000E+00  0.00000000000E+00  0.45593999997E+02  0.45594000000E+02  0.51100000000E-03 0. -1.
         11   -1    0    0    0    0 -0.00000000000E+00 -0.00000000000E+00 -0.45593999997E+02  0.45594000000E+02  0.51100000000E-03 0.  1.
    9900012    2    1    2    0    0  0.29328438644E+02  0.11781881798E+02 -0.42131224287E+01  0.59301945798E+02  0.50000003229E+02 0.  0.
        -12    1    1    2    0    0 -0.29328438644E+02 -0.11781881798E+02  0.42131224287E+01  0.31886054202E+02  0.00000000000E+00 0.  1.
         11    1    3    3    0    0  0.34826038247E+02  0.12831761295E+02  0.13615114803E+02  0.39533256750E+02  0.51100000000E-03 0. -1.
        -11    1    3    3    0    0 -0.54364772584E+01 -0.26476781534E+01 -0.16830844310E+02  0.17884149547E+02  0.51100000000E-03 0.  1.
         12    1    3    3    0    0 -0.61122345132E-01  0.15977986565E+01 -0.99739292253E+00  0.18845395007E+01  0.00000000000E+00 0. -1.
</event>
<event>
 7    1  0.6293596E-013  0.5930193E+02  0.7816164E-02  0.1266605E+00
        -11   -1    0    0    0    0  0.00000000000E+00  0.00000000000E+00  0.45593999997E+02  0.45594000000E+02  0.51100000000E-03 0. -1.
         11   -1    0    0    0    0 -0.00000000000E+00 -0.00000000000E+00 -0.45593999997E+02  0.45594000000E+02  0.51100000000E-03 0.  1.
    9900012    2    1    2    0    0 -0.75143053095E+01  0.30876090565E+02 -0.26313201268E+01  0.59301927830E+02  0.49999970459E+02 0.  0.
        -12    1    1    2    0    0  0.75143053095E+01 -0.30876090565E+02  0.26313201268E+01  0.31886072170E+02  0.00000000000E+00 0.  1.
         11    1    3    3    0    0  0.44899977170E+01  0.40215465708E+02  0.58433359610E+01  0.40885062517E+02  0.51100000000E-03 0. -1.
        -11    1    3    3    0    0 -0.72297697624E+01 -0.88368269538E+01 -0.70090415775E+01  0.13397229024E+02  0.51100000000E-03 0.  1.
         12    1    3    3    0    0 -0.47745332641E+01 -0.50254818990E+00 -0.14656145104E+01  0.50196362883E+01  0.00000000000E+00 0. -1.
</event>
<event>
 7    1  0.7312711E-013  0.5930192E+02  0.7816164E-02  0.1266605E+00
        -11   -1    0    0    0    0  0.00000000000E+00  0.00000000000E+00  0.45593999997E+02  0.45594000000E+02  0.51100000000E-03 0.  1.
         11   -1    0    0    0    0 -0.00000000000E+00 -0.00000000000E+00 -0.45593999997E+02  0.45594000000E+02  0.51100000000E-03 0. -1.
    9900012    2    1    2    0    0  0.54166667919E+01  0.30611886764E+02 -0.70918591506E+01  0.59301915941E+02  0.49999948777E+02 0.  0.
        -12    1    1    2    0    0 -0.54166667919E+01 -0.30611886764E+02  0.70918591506E+01  0.31886084059E+02  0.00000000000E+00 0.  1.
         11    1    3    3    0    0  0.23282208933E+02  0.15092423839E+02 -0.55052832158E+01  0.28286934329E+02  0.51100000000E-03 0. -1.
        -11    1    3    3    0    0 -0.44285429138E+01  0.95135868897E+01  0.82191882759E+01  0.13329493014E+02  0.51100000000E-03 0.  1.
         12    1    3    3    0    0 -0.13436999228E+02  0.60058760352E+01 -0.98057642107E+01  0.17685488598E+02  0.00000000000E+00 0. -1.
</event>
<event>
 7    1  0.6293596E-013  0.5930188E+02  0.7816164E-02  0.1266605E+00
        -11   -1    0    0    0    0  0.00000000000E+00  0.00000000000E+00  0.45593999997E+02  0.45594000000E+02  0.51100000000E-03 0.  1.
         11   -1    0    0    0    0 -0.00000000000E+00 -0.00000000000E+00 -0.45593999997E+02  0.45594000000E+02  0.51100000000E-03 0. -1.
    9900012    2    1    2    0    0 -0.15529710309E+02  0.42767154625E+01 -0.27518406992E+02  0.59301875733E+02  0.49999875447E+02 0.  0.
        -12    1    1    2    0    0  0.15529710309E+02 -0.42767154625E+01  0.27518406992E+02  0.31886124267E+02  0.00000000000E+00 0.  1.
         11    1    3    3    0    0 -0.90112619779E+01  0.19593025934E+02 -0.29521214631E+02  0.36559425888E+02  0.51100000000E-03 0. -1.
        -11    1    3    3    0    0 -0.10833779312E+02 -0.76320705292E+01 -0.13334538443E+01  0.13319060558E+02  0.51100000000E-03 0.  1.
         12    1    3    3    0    0  0.43153309813E+01 -0.76842399421E+01  0.33362614837E+01  0.94233892870E+01  0.00000000000E+00 0. -1.
</event>
<event>
 7    1  0.6293596E-013  0.5930196E+02  0.7816164E-02  0.1266605E+00
        -11   -1    0    0    0    0  0.00000000000E+00  0.00000000000E+00  0.45593999997E+02  0.45594000000E+02  0.51100000000E-03 0. -1.
         11   -1    0    0    0    0 -0.00000000000E+00 -0.00000000000E+00 -0.45593999997E+02  0.45594000000E+02  0.51100000000E-03 0.  1.
    9900012    2    1    2    0    0  0.12347935911E+02 -0.22304115756E+02  0.19151348886E+02  0.59301964419E+02  0.50000037188E+02 0.  0.
        -12    1    1    2    0    0 -0.12347935911E+02  0.22304115756E+02 -0.19151348886E+02  0.31886035581E+02  0.00000000000E+00 0.  1.
         11    1    3    3    0    0  0.21562105988E+01 -0.17986832098E+02 -0.76137646697E+01  0.19650567060E+02  0.51100000000E-03 0. -1.
        -11    1    3    3    0    0 -0.12640362212E+01  0.10444456532E+02  0.10756134366E+02  0.15045892681E+02  0.51100000000E-03 0.  1.
         12    1    3    3    0    0  0.11455761533E+02 -0.14761740190E+02  0.16008979190E+02  0.24605504678E+02  0.00000000000E+00 0. -1.
</event>
<event>
 7    1  0.6293596E-013  0.5930193E+02  0.7816164E-02  0.1266605E+00
        -11   -1    0    0    0    0  0.00000000000E+00  0.00000000000E+00  0.45593999997E+02  0.45594000000E+02  0.51100000000E-03 0. -1.
         11   -1    0    0    0    0 -0.00000000000E+00 -0.00000000000E+00 -0.45593999997E+02  0.45594000000E+02  0.51100000000E-03 0.  1.
    9900012    2    1    2    0    0 -0.20266039440E+02 -0.15766539059E+02  0.18905698610E+02  0.59301928614E+02  0.49999971889E+02 0.  0.
        -12    1    1    2    0    0  0.20266039440E+02  0.15766539059E+02 -0.18905698610E+02  0.31886071386E+02  0.00000000000E+00 0.  1.
         11    1    3    3    0    0 -0.19420924519E+01 -0.16889602718E+02  0.40097568328E+01  0.17467356789E+02  0.51100000000E-03 0. -1.
        -11    1    3    3    0    0 -0.27115518912E+02  0.58181176582E+01  0.15642285357E+02  0.31839958392E+02  0.51100000000E-03 0.  1.
        -12    1    3    3    0    0  0.87915719233E+01 -0.46950539990E+01 -0.74634357978E+00  0.99946134330E+01  0.00000000000E+00 0.  1.
</event>
<event>
 7    1  0.6293596E-013  0.5930198E+02  0.7816164E-02  0.1266605E+00
        -11   -1    0    0    0    0  0.00000000000E+00  0.00000000000E+00  0.45593999997E+02  0.45594000000E+02  0.51100000000E-03 0.  1.
         11   -1    0    0    0    0 -0.00000000000E+00 -0.00000000000E+00 -0.45593999997E+02  0.45594000000E+02  0.51100000000E-03 0. -1.
    9900012    2    1    2    0    0  0.83666374988E+01  0.26300215889E+02 -0.15969227450E+02  0.59301981054E+02  0.50000067527E+02 0.  0.
        -12    1    1    2    0    0 -0.83666374988E+01 -0.26300215889E+02  0.15969227450E+02  0.31886018946E+02  0.00000000000E+00 0.  1.
         11    1    3    3    0    0  0.15313029055E+02  0.12303659184E+02 -0.22704471083E+02  0.30022689680E+02  0.51100000000E-03 0. -1.
        -11    1    3    3    0    0  0.37543423366E+01  0.16605437405E+02  0.66147491034E+01  0.18264461222E+02  0.51100000000E-03 0.  1.
         12    1    3    3    0    0 -0.10700733893E+02 -0.26088806995E+01  0.12049453013E+00  0.11014830152E+02  0.00000000000E+00 0. -1.
</event>
<event>
 7    1  0.6293596E-013  0.5930191E+02  0.7816164E-02  0.1266605E+00
        -11   -1    0    0    0    0  0.00000000000E+00  0.00000000000E+00  0.45593999997E+02  0.45594000000E+02  0.51100000000E-03 0. -1.
         11   -1    0    0    0    0 -0.00000000000E+00 -0.00000000000E+00 -0.45593999997E+02  0.45594000000E+02  0.51100000000E-03 0.  1.
    9900012    2    1    2    0    0  0.64569897808E+01  0.30414971259E+02  0.70682012513E+01  0.59301911142E+02  0.49999940025E+02 0.  0.
        -12    1    1    2    0    0 -0.64569897808E+01 -0.30414971259E+02 -0.70682012513E+01  0.31886088858E+02  0.00000000000E+00 0.  1.
         11    1    3    3    0    0 -0.90292480141E+01  0.26348711044E+02 -0.10669174812E+02  0.29826384039E+02  0.51100000000E-03 0. -1.
        -11    1    3    3    0    0  0.18138885950E+02  0.68762350052E+01  0.12953265047E+02  0.23325712572E+02  0.51100000000E-03 0.  1.
        -12    1    3    3    0    0 -0.26526481549E+01 -0.28099747905E+01  0.47841110163E+01  0.61498145316E+01  0.00000000000E+00 0.  1.
</event>
<event>
 7    1  0.6293596E-013  0.5930192E+02  0.7816164E-02  0.1266605E+00
        -11   -1    0    0    0    0  0.00000000000E+00  0.00000000000E+00  0.45593999997E+02  0.45594000000E+02  0.51100000000E-03 0.  1.
         11   -1    0    0    0    0 -0.00000000000E+00 -0.00000000000E+00 -0.45593999997E+02  0.45594000000E+02  0.51100000000E-03 0. -1.
    9900012    2    1    2    0    0 -0.19230475029E+02  0.69400037225E+01 -0.24469315072E+02  0.59301918372E+02  0.49999953211E+02 0.  0.
        -12    1    1    2    0    0  0.19230475029E+02 -0.69400037225E+01  0.24469315072E+02  0.31886081628E+02  0.00000000000E+00 0.  1.
         11    1    3    3    0    0 -0.76449133261E+01  0.26085227429E+02 -0.11181144466E+02  0.29392206138E+02  0.51100000000E-03 0. -1.
        -11    1    3    3    0    0 -0.92994435432E+01 -0.21552866091E+02 -0.11514553529E+02  0.26145566166E+02  0.51100000000E-03 0.  1.
        -12    1    3    3    0    0 -0.22861181593E+01  0.24076423839E+01 -0.17736170767E+01  0.37641460681E+01  0.00000000000E+00 0.  1.
</event>
<event>
 7    1  0.6293596E-013  0.5930197E+02  0.7816164E-02  0.1266605E+00
        -11   -1    0    0    0    0  0.00000000000E+00  0.00000000000E+00  0.45593999997E+02  0.45594000000E+02  0.51100000000E-03 0.  1.
         11   -1    0    0    0    0 -0.00000000000E+00 -0.00000000000E+00 -0.45593999997E+02  0.45594000000E+02  0.51100000000E-03 0. -1.
    9900012    2    1    2    0    0 -0.21385084255E+01 -0.34434967235E+01 -0.31627329584E+02  0.59301970699E+02  0.50000048641E+02 0.  0.
        -12    1    1    2    0    0  0.21385084255E+01  0.34434967235E+01  0.31627329584E+02  0.31886029301E+02  0.00000000000E+00 0.  1.
         11    1    3    3    0    0  0.14882859664E+02 -0.47848579054E+01  0.26062749173E+01  0.15848881543E+02  0.51100000000E-03 0.  1.
        -11    1    3    3    0    0 -0.17035103384E+02  0.51796393488E+01 -0.35242071295E+02  0.39484515959E+02  0.51100000000E-03 0. -1.
         12    1    3    3    0    0  0.13735294213E-01 -0.38382781668E+01  0.10084667931E+01  0.39685731967E+01  0.00000000000E+00 0. -1.
</event>
<event>
 7    1  0.6293596E-013  0.5930191E+02  0.7816164E-02  0.1266605E+00
        -11   -1    0    0    0    0  0.00000000000E+00  0.00000000000E+00  0.45593999997E+02  0.45594000000E+02  0.51100000000E-03 0. -1.
         11   -1    0    0    0    0 -0.00000000000E+00 -0.00000000000E+00 -0.45593999997E+02  0.45594000000E+02  0.51100000000E-03 0.  1.
    9900012    2    1    2    0    0 -0.13597569724E+02 -0.95431197908E+01  0.27216863173E+02  0.59301910890E+02  0.49999939565E+02 0.  0.
        -12    1    1    2    0    0  0.13597569724E+02  0.95431197908E+01 -0.27216863173E+02  0.31886089110E+02  0.00000000000E+00 0.  1.
         11    1    3    3    0    0 -0.15678928946E+02 -0.27504826571E+02  0.11800698837E+02  0.33787583383E+02  0.51100000000E-03 0. -1.
        -11    1    3    3    0    0  0.28903663677E+01  0.99909897363E+00  0.93917320655E+00  0.31991347380E+01  0.51100000000E-03 0.  1.
         12    1    3    3    0    0 -0.80900714566E+00  0.16962607806E+02  0.14476991129E+02  0.22315192769E+02  0.00000000000E+00 0. -1.
</event>
<event>
 7    1  0.6293596E-013  0.5930204E+02  0.7816164E-02  0.1266604E+00
        -11   -1    0    0    0    0  0.00000000000E+00  0.00000000000E+00  0.45593999997E+02  0.45594000000E+02  0.51100000000E-03 0.  1.
         11   -1    0    0    0    0 -0.00000000000E+00 -0.00000000000E+00 -0.45593999997E+02  0.45594000000E+02  0.51100000000E-03 0. -1.
    9900012    2    1    2    0    0 -0.15575624964E+02 -0.16419102693E+02 -0.22461686776E+02  0.59302040722E+02  0.50000176347E+02 0.  0.
        -12    1    1    2    0    0  0.15575624964E+02  0.16419102693E+02  0.22461686776E+02  0.31885959278E+02  0.00000000000E+00 0.  1.
         11    1    3    3    0    0 -0.18788794053E+02  0.14918998279E+01 -0.14058764337E+02  0.23513685419E+02  0.51100000000E-03 0. -1.
        -11    1    3    3    0    0  0.79697114497E+01 -0.24105683235E+02 -0.10840751371E+02  0.27606560006E+02  0.51100000000E-03 0.  1.
        -12    1    3    3    0    0 -0.47565423604E+01  0.61946807142E+01  0.24378289316E+01  0.81817952967E+01  0.00000000000E+00 0.  1.
</event>
<event>
 7    1  0.6293596E-013  0.5930197E+02  0.7816164E-02  0.1266605E+00
        -11   -1    0    0    0    0  0.00000000000E+00  0.00000000000E+00  0.45593999997E+02  0.45594000000E+02  0.51100000000E-03 0.  1.
         11   -1    0    0    0    0 -0.00000000000E+00 -0.00000000000E+00 -0.45593999997E+02  0.45594000000E+02  0.51100000000E-03 0. -1.
    9900012    2    1    2    0    0 -0.38740078992E+01  0.31563775192E+02 -0.23321570450E+01  0.59301971742E+02  0.50000050544E+02 0.  0.
        -12    1    1    2    0    0  0.38740078992E+01 -0.31563775192E+02  0.23321570450E+01  0.31886028258E+02  0.00000000000E+00 0.  1.
         11    1    3    3    0    0  0.20779318063E+02  0.21916688904E+02 -0.24788298253E+01  0.30302902654E+02  0.51100000000E-03 0. -1.
        -11    1    3    3    0    0 -0.15594319253E+02  0.17570360630E+00 -0.19832895173E+01  0.15720912896E+02  0.51100000000E-03 0.  1.
         12    1    3    3    0    0 -0.90590067091E+01  0.94713826822E+01  0.21299622976E+01  0.13278156192E+02  0.00000000000E+00 0. -1.
</event>
<event>
 7    1  0.6293596E-013  0.5930197E+02  0.7816164E-02  0.1266605E+00
        -11   -1    0    0    0    0  0.00000000000E+00  0.00000000000E+00  0.45593999997E+02  0.45594000000E+02  0.51100000000E-03 0.  1.
         11   -1    0    0    0    0 -0.00000000000E+00 -0.00000000000E+00 -0.45593999997E+02  0.45594000000E+02  0.51100000000E-03 0. -1.
    9900012    2    1    2    0    0 -0.22459449226E+02  0.16130915470E+02 -0.15877198395E+02  0.59301972930E+02  0.50000052711E+02 0.  0.
        -12    1    1    2    0    0  0.22459449226E+02 -0.16130915470E+02  0.15877198395E+02  0.31886027070E+02  0.00000000000E+00 0.  1.
         11    1    3    3    0    0 -0.32358532582E+02  0.26103012523E+02 -0.11085049471E+02  0.43026970794E+02  0.51100000000E-03 0. -1.
        -11    1    3    3    0    0  0.92793089084E+01 -0.69570471483E+01 -0.13797685523E+01  0.11679462332E+02  0.51100000000E-03 0.  1.
         12    1    3    3    0    0  0.61977444729E+00 -0.30150499048E+01 -0.34123803713E+01  0.45955398043E+01  0.00000000000E+00 0. -1.
</event>
<event>
 7    1  0.6293596E-013  0.5930194E+02  0.7816164E-02  0.1266605E+00
        -11   -1    0    0    0    0  0.00000000000E+00  0.00000000000E+00  0.45593999997E+02  0.45594000000E+02  0.51100000000E-03 0.  1.
         11   -1    0    0    0    0 -0.00000000000E+00 -0.00000000000E+00 -0.45593999997E+02  0.45594000000E+02  0.51100000000E-03 0. -1.
    9900012    2    1    2    0    0  0.29642703821E+02 -0.83473033788E+01 -0.82676294021E+01  0.59301936282E+02  0.49999985874E+02 0.  0.
        -12    1    1    2    0    0 -0.29642703821E+02  0.83473033788E+01  0.82676294021E+01  0.31886063718E+02  0.00000000000E+00 0.  1.
         11    1    3    3    0    0  0.72682018844E+01 -0.88437492356E+01 -0.88250874433E+01  0.14454093808E+02  0.51100000000E-03 0. -1.
        -11    1    3    3    0    0 -0.95461147957E+01  0.22289286340E+01  0.72432761192E+01  0.12188579890E+02  0.51100000000E-03 0.  1.
        -12    1    3    3    0    0  0.31920616732E+02 -0.17324827772E+01 -0.66858180780E+01  0.32659262583E+02  0.00000000000E+00 0.  1.
</event>
<event>
 7    1  0.6293596E-013  0.5930212E+02  0.7816164E-02  0.1266604E+00
        -11   -1    0    0    0    0  0.00000000000E+00  0.00000000000E+00  0.45593999997E+02  0.45594000000E+02  0.51100000000E-03 0.  1.
         11   -1    0    0    0    0 -0.00000000000E+00 -0.00000000000E+00 -0.45593999997E+02  0.45594000000E+02  0.51100000000E-03 0. -1.
    9900012    2    1    2    0    0 -0.92922305457E+01  0.30223873127E+02  0.41086614503E+01  0.59302122966E+02  0.50000326340E+02 0.  0.
        -12    1    1    2    0    0  0.92922305457E+01 -0.30223873127E+02 -0.41086614503E+01  0.31885877034E+02  0.00000000000E+00 0.  1.
         11    1    3    3    0    0 -0.78389929906E+01  0.24389816696E+02 -0.50591233777E+01  0.26113362464E+02  0.51100000000E-03 0. -1.
        -11    1    3    3    0    0 -0.11201967106E+02  0.39492987666E+01  0.16863293141E+02  0.20626480156E+02  0.51100000000E-03 0.  1.
         12    1    3    3    0    0  0.97487295508E+01  0.18847576640E+01 -0.76955083132E+01  0.12562280347E+02  0.00000000000E+00 0. -1.
</event>
<event>
 7    1  0.6293596E-013  0.5930195E+02  0.7816164E-02  0.1266605E+00
        -11   -1    0    0    0    0  0.00000000000E+00  0.00000000000E+00  0.45593999997E+02  0.45594000000E+02  0.51100000000E-03 0.  1.
         11   -1    0    0    0    0 -0.00000000000E+00 -0.00000000000E+00 -0.45593999997E+02  0.45594000000E+02  0.51100000000E-03 0. -1.
    9900012    2    1    2    0    0 -0.17121586207E+02 -0.40980784483E+01 -0.26585283242E+02  0.59301949033E+02  0.50000009129E+02 0.  0.
        -12    1    1    2    0    0  0.17121586207E+02  0.40980784483E+01  0.26585283242E+02  0.31886050967E+02  0.00000000000E+00 0.  1.
         11    1    3    3    0    0 -0.11748663998E+02 -0.12280695322E+02 -0.32044253312E+02  0.36272313876E+02  0.51100000000E-03 0. -1.
        -11    1    3    3    0    0 -0.27510604885E+00  0.11655450631E+02 -0.34818094712E+01  0.12167506327E+02  0.51100000000E-03 0.  1.
         12    1    3    3    0    0 -0.50978161605E+01 -0.34728337577E+01  0.89407795418E+01  0.10862128831E+02  0.00000000000E+00 0. -1.
</event>
<event>
 7    1  0.6293596E-013  0.5930173E+02  0.7816164E-02  0.1266605E+00
        -11   -1    0    0    0    0  0.00000000000E+00  0.00000000000E+00  0.45593999997E+02  0.45594000000E+02  0.51100000000E-03 0.  1.
         11   -1    0    0    0    0 -0.00000000000E+00 -0.00000000000E+00 -0.45593999997E+02  0.45594000000E+02  0.51100000000E-03 0. -1.
    9900012    2    1    2    0    0 -0.15367037903E+02  0.14049136565E+02 -0.24149739059E+02  0.59301733540E+02  0.49999616120E+02 0.  0.
        -12    1    1    2    0    0  0.15367037903E+02 -0.14049136565E+02  0.24149739059E+02  0.31886266460E+02  0.00000000000E+00 0.  1.
         11    1    3    3    0    0 -0.44079043238E+01  0.14872305417E+02  0.75623216561E+01  0.17256992729E+02  0.51100000000E-03 0. -1.
        -11    1    3    3    0    0  0.65076071281E+01 -0.37253154733E+01 -0.25349096596E+01  0.79153454222E+01  0.51100000000E-03 0.  1.
         12    1    3    3    0    0 -0.17466740707E+02  0.29021466214E+01 -0.29177151055E+02  0.34129395389E+02  0.00000000000E+00 0. -1.
</event>
<event>
 7    1  0.6293596E-013  0.5930195E+02  0.7816164E-02  0.1266605E+00
        -11   -1    0    0    0    0  0.00000000000E+00  0.00000000000E+00  0.45593999997E+02  0.45594000000E+02  0.51100000000E-03 0. -1.
         11   -1    0    0    0    0 -0.00000000000E+00 -0.00000000000E+00 -0.45593999997E+02  0.45594000000E+02  0.51100000000E-03 0.  1.
    9900012    2    1    2    0    0 -0.26290062736E+02  0.42243920474E+01  0.17541589399E+02  0.59301949046E+02  0.50000009151E+02 0.  0.
        -12    1    1    2    0    0  0.26290062736E+02 -0.42243920474E+01 -0.17541589399E+02  0.31886050954E+02  0.00000000000E+00 0.  1.
         11    1    3    3    0    0 -0.10709166628E+02 -0.19844597823E+02 -0.15832901987E+01  0.22605333900E+02  0.51100000000E-03 0. -1.
        -11    1    3    3    0    0 -0.12937496292E+02  0.24638798519E+02  0.19479841138E+02  0.33969301049E+02  0.51100000000E-03 0.  1.
        -12    1    3    3    0    0 -0.26433998165E+01 -0.56980864814E+00 -0.35496154043E+00  0.27273140964E+01  0.00000000000E+00 0.  1.
</event>
<event>
 7    1  0.6293596E-013  0.5930197E+02  0.7816164E-02  0.1266605E+00
        -11   -1    0    0    0    0  0.00000000000E+00  0.00000000000E+00  0.45593999997E+02  0.45594000000E+02  0.51100000000E-03 0. -1.
         11   -1    0    0    0    0 -0.00000000000E+00 -0.00000000000E+00 -0.45593999997E+02  0.45594000000E+02  0.51100000000E-03 0.  1.
    9900012    2    1    2    0    0 -0.16806629695E+02 -0.20594564179E+02 -0.17610229565E+02  0.59301967623E+02  0.50000043031E+02 0.  0.
        -12    1    1    2    0    0  0.16806629695E+02  0.20594564179E+02  0.17610229565E+02  0.31886032377E+02  0.00000000000E+00 0.  1.
         11    1    3    3    0    0  0.17362673139E+01 -0.28003214817E+02 -0.14990134554E+02  0.31810356780E+02  0.51100000000E-03 0. -1.
        -11    1    3    3    0    0 -0.45965989999E+01  0.95517605915E+01 -0.70170973143E+01  0.12712376164E+02  0.51100000000E-03 0.  1.
         12    1    3    3    0    0 -0.13946298009E+02 -0.21431099535E+01  0.43970023025E+01  0.14779234679E+02  0.00000000000E+00 0. -1.
</event>
<event>
 7    1  0.6293596E-013  0.5930198E+02  0.7816164E-02  0.1266605E+00
        -11   -1    0    0    0    0  0.00000000000E+00  0.00000000000E+00  0.45593999997E+02  0.45594000000E+02  0.51100000000E-03 0. -1.
         11   -1    0    0    0    0 -0.00000000000E+00 -0.00000000000E+00 -0.45593999997E+02  0.45594000000E+02  0.51100000000E-03 0.  1.
    9900012    2    1    2    0    0 -0.16195801683E+02 -0.14746112235E+02  0.23172542183E+02  0.59301975954E+02  0.50000058227E+02 0.  0.
        -12    1    1    2    0    0  0.16195801683E+02  0.14746112235E+02 -0.23172542183E+02  0.31886024046E+02  0.00000000000E+00 0.  1.
         11    1    3    3    0    0 -0.71512039019E+01 -0.28031755437E+02  0.25845156999E+02  0.38792926812E+02  0.51100000000E-03 0. -1.
        -11    1    3    3    0    0 -0.12130151600E+02  0.10438356838E+02 -0.11553513357E+01  0.16044771992E+02  0.51100000000E-03 0.  1.
         12    1    3    3    0    0  0.30855538185E+01  0.28472863636E+01 -0.15172634806E+01  0.44642771501E+01  0.00000000000E+00 0. -1.
</event>
<event>
 7    1  0.6293596E-013  0.5930189E+02  0.7816164E-02  0.1266605E+00
        -11   -1    0    0    0    0  0.00000000000E+00  0.00000000000E+00  0.45593999997E+02  0.45594000000E+02  0.51100000000E-03 0.  1.
         11   -1    0    0    0    0 -0.00000000000E+00 -0.00000000000E+00 -0.45593999997E+02  0.45594000000E+02  0.51100000000E-03 0. -1.
    9900012    2    1    2    0    0  0.19482313596E+02  0.21702559924E+02 -0.12890406837E+02  0.59301886428E+02  0.49999894952E+02 0.  0.
        -12    1    1    2    0    0 -0.19482313596E+02 -0.21702559924E+02  0.12890406837E+02  0.31886113572E+02  0.00000000000E+00 0.  1.
         11    1    3    3    0    0  0.29670656096E+01  0.39903893910E+01 -0.23746890904E+02  0.24261935490E+02  0.51100000000E-03 0. -1.
        -11    1    3    3    0    0  0.10707030663E+02 -0.35124164155E+01  0.28457403921E+01  0.11622212067E+02  0.51100000000E-03 0.  1.
         12    1    3    3    0    0  0.58082173234E+01  0.21224586948E+02  0.80107436748E+01  0.23417738871E+02  0.00000000000E+00 0. -1.
</event>
<event>
 7    1  0.6293596E-013  0.5930197E+02  0.7816164E-02  0.1266605E+00
        -11   -1    0    0    0    0  0.00000000000E+00  0.00000000000E+00  0.45593999997E+02  0.45594000000E+02  0.51100000000E-03 0. -1.
         11   -1    0    0    0    0 -0.00000000000E+00 -0.00000000000E+00 -0.45593999997E+02  0.45594000000E+02  0.51100000000E-03 0.  1.
    9900012    2    1    2    0    0  0.66254244526E+01 -0.30618398618E+02 -0.59444364760E+01  0.59301970016E+02  0.50000047396E+02 0.  0.
        -12    1    1    2    0    0 -0.66254244526E+01  0.30618398618E+02  0.59444364760E+01  0.31886029984E+02  0.00000000000E+00 0.  1.
         11    1    3    3    0    0  0.15030929890E+02 -0.29987130440E+02 -0.18021866097E+02  0.38078136815E+02  0.51100000000E-03 0. -1.
        -11    1    3    3    0    0 -0.11266917894E+00  0.22633989243E+01  0.12230797318E+02  0.12438973926E+02  0.51100000000E-03 0.  1.
         12    1    3    3    0    0 -0.82928362582E+01 -0.28946671025E+01 -0.15336769636E+00  0.87848592755E+01  0.00000000000E+00 0. -1.
</event>
<event>
 7    1  0.6293596E-013  0.5930198E+02  0.7816164E-02  0.1266605E+00
        -11   -1    0    0    0    0  0.00000000000E+00  0.00000000000E+00  0.45593999997E+02  0.45594000000E+02  0.51100000000E-03 0.  1.
         11   -1    0    0    0    0 -0.00000000000E+00 -0.00000000000E+00 -0.45593999997E+02  0.45594000000E+02  0.51100000000E-03 0. -1.
    9900012    2    1    2    0    0 -0.24373975680E+02  0.21484625343E+01 -0.20445335644E+02  0.59301979061E+02  0.50000063892E+02 0.  0.
        -12    1    1    2    0    0  0.24373975680E+02 -0.21484625343E+01  0.20445335644E+02  0.31886020939E+02  0.00000000000E+00 0.  1.
         11    1    3    3    0    0 -0.15709613531E+02  0.14698959818E+02 -0.22005613524E+02  0.30774963913E+02  0.51100000000E-03 0. -1.
        -11    1    3    3    0    0  0.29838461768E+01 -0.13145794871E+02  0.75129054847E+01  0.15432401300E+02  0.51100000000E-03 0.  1.
        -12    1    3    3    0    0 -0.11648208326E+02  0.59529758755E+00 -0.59526276050E+01  0.13094613848E+02  0.00000000000E+00 0.  1.
</event>
<event>
 7    1  0.6293596E-013  0.5930187E+02  0.7816164E-02  0.1266605E+00
        -11   -1    0    0    0    0  0.00000000000E+00  0.00000000000E+00  0.45593999997E+02  0.45594000000E+02  0.51100000000E-03 0. -1.
         11   -1    0    0    0    0 -0.00000000000E+00 -0.00000000000E+00 -0.45593999997E+02  0.45594000000E+02  0.51100000000E-03 0.  1.
    9900012    2    1    2    0    0  0.79839832936E+00  0.31853293255E+02 -0.12064823522E+01  0.59301869304E+02  0.49999863722E+02 0.  0.
        -12    1    1    2    0    0 -0.79839832936E+00 -0.31853293255E+02  0.12064823522E+01  0.31886130696E+02  0.00000000000E+00 0.  1.
         11    1    3    3    0    0  0.23215931616E+02  0.60803093331E+01 -0.40209665030E+01  0.24333471069E+02  0.51100000000E-03 0. -1.
        -11    1    3    3    0    0 -0.30131856660E+01  0.54637697840E+01 -0.18201030163E+01  0.64996033234E+01  0.51100000000E-03 0.  1.
         12    1    3    3    0    0 -0.19404347621E+02  0.20309214138E+02  0.46345871671E+01  0.28468794911E+02  0.00000000000E+00 0. -1.
</event>
<event>
 7    1  0.6293596E-013  0.5930194E+02  0.7816164E-02  0.1266605E+00
        -11   -1    0    0    0    0  0.00000000000E+00  0.00000000000E+00  0.45593999997E+02  0.45594000000E+02  0.51100000000E-03 0.  1.
         11   -1    0    0    0    0 -0.00000000000E+00 -0.00000000000E+00 -0.45593999997E+02  0.45594000000E+02  0.51100000000E-03 0. -1.
    9900012    2    1    2    0    0 -0.44603001863E+00  0.37401639883E+01 -0.31662806063E+02  0.59301936317E+02  0.49999985937E+02 0.  0.
        -12    1    1    2    0    0  0.44603001863E+00 -0.37401639883E+01  0.31662806063E+02  0.31886063683E+02  0.00000000000E+00 0.  1.
         11    1    3    3    0    0 -0.79627493128E+01  0.20553672803E+02 -0.14843750551E+02  0.26574344263E+02  0.51100000000E-03 0. -1.
        -11    1    3    3    0    0  0.10017703307E+02 -0.19205117116E+01 -0.10360300023E+00  0.10200660695E+02  0.51100000000E-03 0.  1.
         12    1    3    3    0    0 -0.25009840127E+01 -0.14892997103E+02 -0.16715452512E+02  0.22526931359E+02  0.00000000000E+00 0. -1.
</event>
<event>
 7    1  0.6293596E-013  0.5930196E+02  0.7816164E-02  0.1266605E+00
        -11   -1    0    0    0    0  0.00000000000E+00  0.00000000000E+00  0.45593999997E+02  0.45594000000E+02  0.51100000000E-03 0. -1.
         11   -1    0    0    0    0 -0.00000000000E+00 -0.00000000000E+00 -0.45593999997E+02  0.45594000000E+02  0.51100000000E-03 0.  1.
    9900012    2    1    2    0    0  0.35243801800E+01  0.30434048336E+02 -0.88355562120E+01  0.59301959052E+02  0.50000027400E+02 0.  0.
        -12    1    1    2    0    0 -0.35243801800E+01 -0.30434048336E+02  0.88355562120E+01  0.31886040948E+02  0.00000000000E+00 0.  1.
         11    1    3    3    0    0 -0.21311498277E+02  0.21459105409E+02  0.25099735777E+01  0.30347539132E+02  0.51100000000E-03 0. -1.
        -11    1    3    3    0    0  0.10971335202E+02  0.22465690040E+01 -0.41086977369E+01  0.11928900442E+02  0.51100000000E-03 0.  1.
         12    1    3    3    0    0  0.13864543255E+02  0.67283739232E+01 -0.72368320527E+01  0.17025519477E+02  0.00000000000E+00 0. -1.
</event>
<event>
 7    1  0.6293596E-013  0.5930184E+02  0.7816164E-02  0.1266605E+00
        -11   -1    0    0    0    0  0.00000000000E+00  0.00000000000E+00  0.45593999997E+02  0.45594000000E+02  0.51100000000E-03 0.  1.
         11   -1    0    0    0    0 -0.00000000000E+00 -0.00000000000E+00 -0.45593999997E+02  0.45594000000E+02  0.51100000000E-03 0. -1.
    9900012    2    1    2    0    0 -0.25245271555E+02 -0.19325650459E+02  0.24336293125E+01  0.59301842295E+02  0.49999814463E+02 0.  0.
        -12    1    1    2    0    0  0.25245271555E+02  0.19325650459E+02 -0.24336293125E+01  0.31886157705E+02  0.00000000000E+00 0.  1.
         11    1    3    3    0    0  0.42582578124E+01 -0.14031259832E+02 -0.15105633835E+02  0.21052058946E+02  0.51100000000E-03 0. -1.
        -11    1    3    3    0    0 -0.14870500673E+02  0.50469887782E+01  0.11010434651E+02  0.19178987394E+02  0.51100000000E-03 0.  1.
         12    1    3    3    0    0 -0.14633028694E+02 -0.10341379406E+02  0.65288284965E+01  0.19070795954E+02  0.00000000000E+00 0. -1.
</event>
<event>
 7    1  0.6293596E-013  0.5930194E+02  0.7816164E-02  0.1266605E+00
        -11   -1    0    0    0    0  0.00000000000E+00  0.00000000000E+00  0.45593999997E+02  0.45594000000E+02  0.51100000000E-03 0.  1.
         11   -1    0    0    0    0 -0.00000000000E+00 -0.00000000000E+00 -0.45593999997E+02  0.45594000000E+02  0.51100000000E-03 0. -1.
    9900012    2    1    2    0    0 -0.11870564540E+02  0.11149243524E+00 -0.29593884749E+02  0.59301941172E+02  0.49999994792E+02 0.  0.
        -12    1    1    2    0    0  0.11870564540E+02 -0.11149243524E+00  0.29593884749E+02  0.31886058828E+02  0.00000000000E+00 0.  1.
         11    1    3    3    0    0 -0.10488883872E+02 -0.54173538854E+01  0.97312568313E+01  0.15299077350E+02  0.51100000000E-03 0. -1.
        -11    1    3    3    0    0  0.39041704324E+01  0.67014002143E+01 -0.49429256386E+01  0.91969465437E+01  0.51100000000E-03 0.  1.
         12    1    3    3    0    0 -0.52858511003E+01 -0.11725538937E+01 -0.34382215942E+02  0.34805917278E+02  0.00000000000E+00 0. -1.
</event>
<event>
 7    1  0.6293596E-013  0.5930197E+02  0.7816164E-02  0.1266605E+00
        -11   -1    0    0    0    0  0.00000000000E+00  0.00000000000E+00  0.45593999997E+02  0.45594000000E+02  0.51100000000E-03 0.  1.
         11   -1    0    0    0    0 -0.00000000000E+00 -0.00000000000E+00 -0.45593999997E+02  0.45594000000E+02  0.51100000000E-03 0. -1.
    9900012    2    1    2    0    0  0.17289337662E+02 -0.17224338273E+02 -0.20521211682E+02  0.59301966151E+02  0.50000040348E+02 0.  0.
        -12    1    1    2    0    0 -0.17289337662E+02  0.17224338273E+02  0.20521211682E+02  0.31886033849E+02  0.00000000000E+00 0.  1.
         11    1    3    3    0    0 -0.62785229669E+01 -0.12368216056E+02 -0.27872130965E+02  0.31132752911E+02  0.51100000000E-03 0. -1.
        -11    1    3    3    0    0  0.10955172094E+02 -0.87121286189E+01  0.41080427784E+01  0.14587425969E+02  0.51100000000E-03 0.  1.
        -12    1    3    3    0    0  0.12612688535E+02  0.38560064021E+01  0.32428765044E+01  0.13581787271E+02  0.00000000000E+00 0.  1.
</event>
<event>
 7    1  0.6293596E-013  0.5930198E+02  0.7816164E-02  0.1266605E+00
        -11   -1    0    0    0    0  0.00000000000E+00  0.00000000000E+00  0.45593999997E+02  0.45594000000E+02  0.51100000000E-03 0. -1.
         11   -1    0    0    0    0 -0.00000000000E+00 -0.00000000000E+00 -0.45593999997E+02  0.45594000000E+02  0.51100000000E-03 0.  1.
    9900012    2    1    2    0    0  0.30705053903E+02 -0.85837742689E+01 -0.48656281579E+00  0.59301980191E+02  0.50000065954E+02 0.  0.
        -12    1    1    2    0    0 -0.30705053903E+02  0.85837742689E+01  0.48656281579E+00  0.31886019809E+02  0.00000000000E+00 0.  1.
         11    1    3    3    0    0  0.10023402155E+02 -0.28751725757E+01  0.39375752210E+01  0.11146286690E+02  0.51100000000E-03 0. -1.
        -11    1    3    3    0    0  0.12734482752E+02 -0.98510215859E+01 -0.22683017066E+02  0.27815983547E+02  0.51100000000E-03 0.  1.
        -12    1    3    3    0    0  0.79471689960E+01  0.41424198926E+01  0.18258879029E+02  0.20339709954E+02  0.00000000000E+00 0.  1.
</event>
<event>
 7    1  0.6293596E-013  0.5930192E+02  0.7816164E-02  0.1266605E+00
        -11   -1    0    0    0    0  0.00000000000E+00  0.00000000000E+00  0.45593999997E+02  0.45594000000E+02  0.51100000000E-03 0.  1.
         11   -1    0    0    0    0 -0.00000000000E+00 -0.00000000000E+00 -0.45593999997E+02  0.45594000000E+02  0.51100000000E-03 0. -1.
    9900012    2    1    2    0    0  0.69855847468E+01 -0.21567553212E+02 -0.22422404702E+02  0.59301921871E+02  0.49999959592E+02 0.  0.
        -12    1    1    2    0    0 -0.69855847468E+01  0.21567553212E+02  0.22422404702E+02  0.31886078129E+02  0.00000000000E+00 0.  1.
         11    1    3    3    0    0 -0.78830234378E+01  0.94027507563E+01 -0.13331980222E+02  0.18118925940E+02  0.51100000000E-03 0.  1.
        -11    1    3    3    0    0  0.13150054564E+02 -0.28426890431E+02 -0.14844923854E+02  0.34660983816E+02  0.51100000000E-03 0. -1.
        -12    1    3    3    0    0  0.17185536212E+01 -0.25434135376E+01  0.57544993748E+01  0.65220121149E+01  0.00000000000E+00 0.  1.
</event>
<event>
 7    1  0.6293596E-013  0.5930196E+02  0.7816164E-02  0.1266605E+00
        -11   -1    0    0    0    0  0.00000000000E+00  0.00000000000E+00  0.45593999997E+02  0.45594000000E+02  0.51100000000E-03 0.  1.
         11   -1    0    0    0    0 -0.00000000000E+00 -0.00000000000E+00 -0.45593999997E+02  0.45594000000E+02  0.51100000000E-03 0. -1.
    9900012    2    1    2    0    0  0.21861270494E+01 -0.12769479132E+02 -0.29135561616E+02  0.59301957607E+02  0.50000024766E+02 0.  0.
        -12    1    1    2    0    0 -0.21861270494E+01  0.12769479132E+02  0.29135561616E+02  0.31886042393E+02  0.00000000000E+00 0.  1.
         11    1    3    3    0    0 -0.58770330482E+01  0.20270049272E+01  0.33200316953E+01  0.70477568874E+01  0.51100000000E-03 0. -1.
        -11    1    3    3    0    0 -0.94572604897E+01 -0.16943120449E+02 -0.27970256353E+02  0.34041802937E+02  0.51100000000E-03 0.  1.
        -12    1    3    3    0    0  0.17520420587E+02  0.21466363901E+01 -0.44853369591E+01  0.18212397782E+02  0.00000000000E+00 0.  1.
</event>
<event>
 7    1  0.6293596E-013  0.5930193E+02  0.7816164E-02  0.1266605E+00
        -11   -1    0    0    0    0  0.00000000000E+00  0.00000000000E+00  0.45593999997E+02  0.45594000000E+02  0.51100000000E-03 0. -1.
         11   -1    0    0    0    0 -0.00000000000E+00 -0.00000000000E+00 -0.45593999997E+02  0.45594000000E+02  0.51100000000E-03 0.  1.
    9900012    2    1    2    0    0 -0.20287241132E+02  0.31516066275E+01  0.24397062462E+02  0.59301930411E+02  0.49999975166E+02 0.  0.
        -12    1    1    2    0    0  0.20287241132E+02 -0.31516066275E+01 -0.24397062462E+02  0.31886069589E+02  0.00000000000E+00 0.  1.
         11    1    3    3    0    0  0.79188067620E+01  0.14479992315E+01 -0.17600930402E+01  0.82402748789E+01  0.51100000000E-03 0.  1.
        -11    1    3    3    0    0 -0.10327532324E+02  0.55903782948E+01  0.30131272945E+02  0.32338890874E+02  0.51100000000E-03 0. -1.
        -12    1    3    3    0    0 -0.17878515570E+02 -0.38867708988E+01 -0.39741174430E+01  0.18722764658E+02  0.00000000000E+00 0.  1.
</event>
<event>
 7    1  0.6293596E-013  0.5930193E+02  0.7816164E-02  0.1266605E+00
        -11   -1    0    0    0    0  0.00000000000E+00  0.00000000000E+00  0.45593999997E+02  0.45594000000E+02  0.51100000000E-03 0. -1.
         11   -1    0    0    0    0 -0.00000000000E+00 -0.00000000000E+00 -0.45593999997E+02  0.45594000000E+02  0.51100000000E-03 0.  1.
    9900012    2    1    2    0    0 -0.11583719121E+00  0.31832517822E+02  0.18435706542E+01  0.59301931539E+02  0.49999977224E+02 0.  0.
        -12    1    1    2    0    0  0.11583719121E+00 -0.31832517822E+02 -0.18435706542E+01  0.31886068461E+02  0.00000000000E+00 0.  1.
         11    1    3    3    0    0  0.18250032984E+02  0.73824526354E+01 -0.12170510976E+02  0.23144883852E+02  0.51100000000E-03 0.  1.
        -11    1    3    3    0    0 -0.13019983758E+02  0.13782661089E+02  0.15011875124E+02  0.24183426530E+02  0.51100000000E-03 0. -1.
         12    1    3    3    0    0 -0.53458864172E+01  0.10667404098E+02 -0.99779349347E+00  0.11973621157E+02  0.00000000000E+00 0. -1.
</event>
<event>
 7    1  0.6293596E-013  0.5930193E+02  0.7816164E-02  0.1266605E+00
        -11   -1    0    0    0    0  0.00000000000E+00  0.00000000000E+00  0.45593999997E+02  0.45594000000E+02  0.51100000000E-03 0.  1.
         11   -1    0    0    0    0 -0.00000000000E+00 -0.00000000000E+00 -0.45593999997E+02  0.45594000000E+02  0.51100000000E-03 0. -1.
    9900012    2    1    2    0    0  0.11085624787E+02 -0.84041127549E+01 -0.28691484066E+02  0.59301930220E+02  0.49999974819E+02 0.  0.
        -12    1    1    2    0    0 -0.11085624787E+02  0.84041127549E+01  0.28691484066E+02  0.31886069780E+02  0.00000000000E+00 0.  1.
         11    1    3    3    0    0  0.14351177074E+02  0.40325429994E+01  0.50153169966E+01  0.15728035201E+02  0.51100000000E-03 0. -1.
        -11    1    3    3    0    0 -0.64952846511E+01 -0.23623204630E+00 -0.29594985506E+02  0.30300292006E+02  0.51100000000E-03 0.  1.
        -12    1    3    3    0    0  0.32297323642E+01 -0.12200423708E+02 -0.41118155563E+01  0.13273603014E+02  0.00000000000E+00 0.  1.
</event>
<event>
 7    1  0.6293596E-013  0.5930195E+02  0.7816164E-02  0.1266605E+00
        -11   -1    0    0    0    0  0.00000000000E+00  0.00000000000E+00  0.45593999997E+02  0.45594000000E+02  0.51100000000E-03 0. -1.
         11   -1    0    0    0    0 -0.00000000000E+00 -0.00000000000E+00 -0.45593999997E+02  0.45594000000E+02  0.51100000000E-03 0.  1.
    9900012    2    1    2    0    0  0.11555250562E+02 -0.29152797354E+02 -0.57715659652E+01  0.59301946892E+02  0.50000005224E+02 0.  0.
        -12    1    1    2    0    0 -0.11555250562E+02  0.29152797354E+02  0.57715659652E+01  0.31886053108E+02  0.00000000000E+00 0.  1.
         11    1    3    3    0    0  0.23085092956E+02 -0.22807621712E+02  0.39801318848E+01  0.32694809603E+02  0.51100000000E-03 0. -1.
        -11    1    3    3    0    0 -0.11787715096E+02 -0.88226889967E+01 -0.14862961581E+02  0.20921225957E+02  0.51100000000E-03 0.  1.
        -12    1    3    3    0    0  0.25787270209E+00  0.24775133547E+01  0.51112637306E+01  0.56859113322E+01  0.00000000000E+00 0.  1.
</event>
<event>
 7    1  0.6293596E-013  0.5930193E+02  0.7816164E-02  0.1266605E+00
        -11   -1    0    0    0    0  0.00000000000E+00  0.00000000000E+00  0.45593999997E+02  0.45594000000E+02  0.51100000000E-03 0. -1.
         11   -1    0    0    0    0 -0.00000000000E+00 -0.00000000000E+00 -0.45593999997E+02  0.45594000000E+02  0.51100000000E-03 0.  1.
    9900012    2    1    2    0    0 -0.44846368714E+01 -0.30107757432E+02 -0.94937947479E+01  0.59301934640E+02  0.49999982878E+02 0.  0.
        -12    1    1    2    0    0  0.44846368714E+01  0.30107757432E+02  0.94937947479E+01  0.31886065360E+02  0.00000000000E+00 0.  1.
         11    1    3    3    0    0  0.16144224389E+02 -0.26059405304E+02  0.77132006169E+01  0.31610473738E+02  0.51100000000E-03 0. -1.
        -11    1    3    3    0    0 -0.11026681990E+02 -0.45765072055E+01 -0.79509239617E+01  0.14343964794E+02  0.51100000000E-03 0.  1.
         12    1    3    3    0    0 -0.96021792699E+01  0.52815507731E+00 -0.92560714032E+01  0.13347496107E+02  0.00000000000E+00 0. -1.
</event>
<event>
 7    1  0.6293596E-013  0.5930194E+02  0.7816164E-02  0.1266605E+00
        -11   -1    0    0    0    0  0.00000000000E+00  0.00000000000E+00  0.45593999997E+02  0.45594000000E+02  0.51100000000E-03 0. -1.
         11   -1    0    0    0    0 -0.00000000000E+00 -0.00000000000E+00 -0.45593999997E+02  0.45594000000E+02  0.51100000000E-03 0.  1.
    9900012    2    1    2    0    0  0.67663305896E+01  0.18801320576E+02  0.24848500195E+02  0.59301939613E+02  0.49999991949E+02 0.  0.
        -12    1    1    2    0    0 -0.67663305896E+01 -0.18801320576E+02 -0.24848500195E+02  0.31886060387E+02  0.00000000000E+00 0.  1.
         11    1    3    3    0    0  0.12290253595E+02  0.34241762500E+02  0.14596346685E+02  0.39199514912E+02  0.51100000000E-03 0. -1.
        -11    1    3    3    0    0 -0.73863854036E+00 -0.96914128365E+01  0.68138896164E+01  0.11870053143E+02  0.51100000000E-03 0.  1.
         12    1    3    3    0    0 -0.47852844653E+01 -0.57490290877E+01  0.34382638932E+01  0.82323715577E+01  0.00000000000E+00 0. -1.
</event>
<event>
 7    1  0.6293596E-013  0.5930195E+02  0.7816164E-02  0.1266605E+00
        -11   -1    0    0    0    0  0.00000000000E+00  0.00000000000E+00  0.45593999997E+02  0.45594000000E+02  0.51100000000E-03 0. -1.
         11   -1    0    0    0    0 -0.00000000000E+00 -0.00000000000E+00 -0.45593999997E+02  0.45594000000E+02  0.51100000000E-03 0.  1.
    9900012    2    1    2    0    0  0.22680030028E+02  0.13648549501E+02  0.17777901618E+02  0.59301945815E+02  0.50000003260E+02 0.  0.
        -12    1    1    2    0    0 -0.22680030028E+02 -0.13648549501E+02 -0.17777901618E+02  0.31886054185E+02  0.00000000000E+00 0.  1.
         11    1    3    3    0    0  0.12199782481E+02 -0.73290899160E+00  0.65702510377E+01  0.13875880049E+02  0.51100000000E-03 0. -1.
        -11    1    3    3    0    0 -0.13504841468E+02  0.14463395114E+02  0.26741000243E+01  0.19968008226E+02  0.51100000000E-03 0.  1.
        -12    1    3    3    0    0  0.23985089015E+02 -0.81936621187E-01  0.85335505557E+01  0.25458057541E+02  0.00000000000E+00 0.  1.
</event>
<event>
 7    1  0.6293596E-013  0.5930196E+02  0.7816164E-02  0.1266605E+00
        -11   -1    0    0    0    0  0.00000000000E+00  0.00000000000E+00  0.45593999997E+02  0.45594000000E+02  0.51100000000E-03 0. -1.
         11   -1    0    0    0    0 -0.00000000000E+00 -0.00000000000E+00 -0.45593999997E+02  0.45594000000E+02  0.51100000000E-03 0.  1.
    9900012    2    1    2    0    0  0.97750946657E+01  0.26514425046E+02 -0.14769981875E+02  0.59301959546E+02  0.50000028301E+02 0.  0.
        -12    1    1    2    0    0 -0.97750946657E+01 -0.26514425046E+02  0.14769981875E+02  0.31886040454E+02  0.00000000000E+00 0.  1.
         11    1    3    3    0    0 -0.74166134790E+01 -0.40443154836E+00  0.48387314222E+01  0.88647076890E+01  0.51100000000E-03 0. -1.
        -11    1    3    3    0    0  0.27447971732E+02  0.17584224375E+02 -0.14052380351E+02  0.35497401213E+02  0.51100000000E-03 0.  1.
        -12    1    3    3    0    0 -0.10256263587E+02  0.93346322193E+01 -0.55563329460E+01  0.14939850644E+02  0.00000000000E+00 0.  1.
</event>
<event>
 7    1  0.6293596E-013  0.5930195E+02  0.7816164E-02  0.1266605E+00
        -11   -1    0    0    0    0  0.00000000000E+00  0.00000000000E+00  0.45593999997E+02  0.45594000000E+02  0.51100000000E-03 0.  1.
         11   -1    0    0    0    0 -0.00000000000E+00 -0.00000000000E+00 -0.45593999997E+02  0.45594000000E+02  0.51100000000E-03 0. -1.
    9900012    2    1    2    0    0 -0.13078772503E+02  0.28219640548E+02  0.70226480957E+01  0.59301953065E+02  0.50000016483E+02 0.  0.
        -12    1    1    2    0    0  0.13078772503E+02 -0.28219640548E+02 -0.70226480957E+01  0.31886046935E+02  0.00000000000E+00 0.  1.
         11    1    3    3    0    0 -0.90589752380E+01  0.18546645783E+02 -0.22775637935E+00  0.20642068099E+02  0.51100000000E-03 0. -1.
        -11    1    3    3    0    0  0.12480806557E+02 -0.30145112323E+01  0.11704780945E+02  0.17374110265E+02  0.51100000000E-03 0.  1.
        -12    1    3    3    0    0 -0.16500603821E+02  0.12687505997E+02 -0.44543764700E+01  0.21285774701E+02  0.00000000000E+00 0.  1.
</event>
<event>
 7    1  0.6293596E-013  0.5930194E+02  0.7816164E-02  0.1266605E+00
        -11   -1    0    0    0    0  0.00000000000E+00  0.00000000000E+00  0.45593999997E+02  0.45594000000E+02  0.51100000000E-03 0.  1.
         11   -1    0    0    0    0 -0.00000000000E+00 -0.00000000000E+00 -0.45593999997E+02  0.45594000000E+02  0.51100000000E-03 0. -1.
    9900012    2    1    2    0    0 -0.31540192252E+02 -0.46569271321E+01 -0.49997648639E+00  0.59301942324E+02  0.49999996894E+02 0.  0.
        -12    1    1    2    0    0  0.31540192252E+02  0.46569271321E+01  0.49997648639E+00  0.31886057676E+02  0.00000000000E+00 0.  1.
         11    1    3    3    0    0 -0.80307721106E+01 -0.22012863972E+01 -0.17165739895E+02  0.19078825669E+02  0.51100000000E-03 0. -1.
        -11    1    3    3    0    0 -0.23696007525E+02  0.42618214114E+01  0.21230103610E+02  0.32099551305E+02  0.51100000000E-03 0.  1.
         12    1    3    3    0    0  0.18658738418E+00 -0.67174621464E+01 -0.45643402018E+01  0.81235653514E+01  0.00000000000E+00 0. -1.
</event>
<event>
 7    1  0.6293596E-013  0.5930190E+02  0.7816164E-02  0.1266605E+00
        -11   -1    0    0    0    0  0.00000000000E+00  0.00000000000E+00  0.45593999997E+02  0.45594000000E+02  0.51100000000E-03 0. -1.
         11   -1    0    0    0    0 -0.00000000000E+00 -0.00000000000E+00 -0.45593999997E+02  0.45594000000E+02  0.51100000000E-03 0.  1.
    9900012    2    1    2    0    0  0.24494424434E+02 -0.58137696314E+01  0.19569021547E+02  0.59301900364E+02  0.49999920368E+02 0.  0.
        -12    1    1    2    0    0 -0.24494424434E+02  0.58137696314E+01 -0.19569021547E+02  0.31886099636E+02  0.00000000000E+00 0.  1.
         11    1    3    3    0    0 -0.20878630883E+01 -0.10305534397E+02  0.15148873640E+02  0.18440487637E+02  0.51100000000E-03 0. -1.
        -11    1    3    3    0    0  0.16782606790E+02  0.13813022376E+02 -0.73367993163E+01  0.22940882771E+02  0.51100000000E-03 0.  1.
        -12    1    3    3    0    0  0.97996807320E+01 -0.93212576100E+01  0.11756947224E+02  0.17920529956E+02  0.00000000000E+00 0.  1.
</event>
<event>
 7    1  0.6293596E-013  0.5930194E+02  0.7816164E-02  0.1266605E+00
        -11   -1    0    0    0    0  0.00000000000E+00  0.00000000000E+00  0.45593999997E+02  0.45594000000E+02  0.51100000000E-03 0.  1.
         11   -1    0    0    0    0 -0.00000000000E+00 -0.00000000000E+00 -0.45593999997E+02  0.45594000000E+02  0.51100000000E-03 0. -1.
    9900012    2    1    2    0    0 -0.14722834812E+02 -0.27901868586E+02  0.46308306726E+01  0.59301941476E+02  0.49999995346E+02 0.  0.
        -12    1    1    2    0    0  0.14722834812E+02  0.27901868586E+02 -0.46308306726E+01  0.31886058524E+02  0.00000000000E+00 0.  1.
         11    1    3    3    0    0  0.98611365876E+00 -0.29250545371E+02  0.72688859170E+01  0.30156318201E+02  0.51100000000E-03 0. -1.
        -11    1    3    3    0    0 -0.14238853548E+02  0.96770124477E+01  0.48111813886E+01  0.17875597526E+02  0.51100000000E-03 0.  1.
        -12    1    3    3    0    0 -0.14700949228E+01 -0.83283356620E+01 -0.74492366330E+01  0.11270025750E+02  0.00000000000E+00 0.  1.
</event>
<event>
 7    1  0.6293596E-013  0.5930192E+02  0.7816164E-02  0.1266605E+00
        -11   -1    0    0    0    0  0.00000000000E+00  0.00000000000E+00  0.45593999997E+02  0.45594000000E+02  0.51100000000E-03 0.  1.
         11   -1    0    0    0    0 -0.00000000000E+00 -0.00000000000E+00 -0.45593999997E+02  0.45594000000E+02  0.51100000000E-03 0. -1.
    9900012    2    1    2    0    0 -0.15959029513E+02  0.22160908244E+02 -0.16459814151E+02  0.59301922175E+02  0.49999960145E+02 0.  0.
        -12    1    1    2    0    0  0.15959029513E+02 -0.22160908244E+02  0.16459814151E+02  0.31886077825E+02  0.00000000000E+00 0.  1.
         11    1    3    3    0    0 -0.57766691037E+01  0.11555410700E+02 -0.12756949065E+02  0.18155912869E+02  0.51100000000E-03 0. -1.
        -11    1    3    3    0    0  0.92280372623E+01  0.15074201049E+02  0.64184018818E+01  0.18803831842E+02  0.51100000000E-03 0.  1.
        -12    1    3    3    0    0 -0.19410397671E+02 -0.44687035053E+01 -0.10121266968E+02  0.22342177463E+02  0.00000000000E+00 0.  1.
</event>
<event>
 7    1  0.6293596E-013  0.5930194E+02  0.7816164E-02  0.1266605E+00
        -11   -1    0    0    0    0  0.00000000000E+00  0.00000000000E+00  0.45593999997E+02  0.45594000000E+02  0.51100000000E-03 0.  1.
         11   -1    0    0    0    0 -0.00000000000E+00 -0.00000000000E+00 -0.45593999997E+02  0.45594000000E+02  0.51100000000E-03 0. -1.
    9900012    2    1    2    0    0  0.16382774527E+02 -0.18186812136E+02 -0.20434424174E+02  0.59301935204E+02  0.49999983907E+02 0.  0.
        -12    1    1    2    0    0 -0.16382774527E+02  0.18186812136E+02  0.20434424174E+02  0.31886064796E+02  0.00000000000E+00 0.  1.
         11    1    3    3    0    0  0.74277352135E+01  0.14595643941E+02 -0.47402637532E+00  0.16383796072E+02  0.51100000000E-03 0. -1.
        -11    1    3    3    0    0 -0.43839691829E+01 -0.30433460357E+01 -0.19672478301E+01  0.56878119849E+01  0.51100000000E-03 0.  1.
         12    1    3    3    0    0  0.13339008496E+02 -0.29739110041E+02 -0.17993149969E+02  0.37230327147E+02  0.00000000000E+00 0. -1.
</event>
<event>
 7    1  0.6293596E-013  0.5930195E+02  0.7816164E-02  0.1266605E+00
        -11   -1    0    0    0    0  0.00000000000E+00  0.00000000000E+00  0.45593999997E+02  0.45594000000E+02  0.51100000000E-03 0. -1.
         11   -1    0    0    0    0 -0.00000000000E+00 -0.00000000000E+00 -0.45593999997E+02  0.45594000000E+02  0.51100000000E-03 0.  1.
    9900012    2    1    2    0    0  0.26245610261E+02  0.58353219049E+01 -0.17141686904E+02  0.59301945530E+02  0.50000002741E+02 0.  0.
        -12    1    1    2    0    0 -0.26245610261E+02 -0.58353219049E+01  0.17141686904E+02  0.31886054470E+02  0.00000000000E+00 0.  1.
         11    1    3    3    0    0  0.21605754439E+02 -0.35065480380E+00 -0.21591368854E+02  0.30546993190E+02  0.51100000000E-03 0. -1.
        -11    1    3    3    0    0 -0.82734283996E+01  0.40981269107E+01 -0.68282863189E+01  0.11483455751E+02  0.51100000000E-03 0.  1.
         12    1    3    3    0    0  0.12913284222E+02  0.20878497980E+01  0.11277968269E+02  0.17271496590E+02  0.00000000000E+00 0. -1.
</event>
<event>
 7    1  0.6293596E-013  0.5930194E+02  0.7816164E-02  0.1266605E+00
        -11   -1    0    0    0    0  0.00000000000E+00  0.00000000000E+00  0.45593999997E+02  0.45594000000E+02  0.51100000000E-03 0.  1.
         11   -1    0    0    0    0 -0.00000000000E+00 -0.00000000000E+00 -0.45593999997E+02  0.45594000000E+02  0.51100000000E-03 0. -1.
    9900012    2    1    2    0    0 -0.12687717847E+02  0.13983602520E+01 -0.29219632889E+02  0.59301944400E+02  0.50000000679E+02 0.  0.
        -12    1    1    2    0    0  0.12687717847E+02 -0.13983602520E+01  0.29219632889E+02  0.31886055600E+02  0.00000000000E+00 0.  1.
         11    1    3    3    0    0 -0.19563768091E+02 -0.14285044591E+01 -0.21321257990E+00  0.19617010649E+02  0.51100000000E-03 0. -1.
        -11    1    3    3    0    0  0.16113207737E+02  0.45269039161E+01 -0.13272597090E+02  0.21360949333E+02  0.51100000000E-03 0.  1.
         12    1    3    3    0    0 -0.92371574933E+01 -0.17000392049E+01 -0.15733823219E+02  0.18323984418E+02  0.00000000000E+00 0. -1.
</event>
<event>
 7    1  0.6293596E-013  0.5930191E+02  0.7816164E-02  0.1266605E+00
        -11   -1    0    0    0    0  0.00000000000E+00  0.00000000000E+00  0.45593999997E+02  0.45594000000E+02  0.51100000000E-03 0.  1.
         11   -1    0    0    0    0 -0.00000000000E+00 -0.00000000000E+00 -0.45593999997E+02  0.45594000000E+02  0.51100000000E-03 0. -1.
    9900012    2    1    2    0    0  0.24929685665E+02  0.14222437422E+02 -0.13890843543E+02  0.59301913882E+02  0.49999945022E+02 0.  0.
        -12    1    1    2    0    0 -0.24929685665E+02 -0.14222437422E+02  0.13890843543E+02  0.31886086118E+02  0.00000000000E+00 0.  1.
         11    1    3    3    0    0 -0.48328826716E+01 -0.52291221760E+01 -0.20014920027E+02  0.21243763735E+02  0.51100000000E-03 0. -1.
        -11    1    3    3    0    0  0.10261645345E+02  0.10373023007E+02  0.76845845765E+01  0.16491022159E+02  0.51100000000E-03 0.  1.
        -12    1    3    3    0    0  0.19500922992E+02  0.90785365908E+01 -0.15605080925E+01  0.21567127988E+02  0.00000000000E+00 0.  1.
</event>
<event>
 7    1  0.6293596E-013  0.5930192E+02  0.7816164E-02  0.1266605E+00
        -11   -1    0    0    0    0  0.00000000000E+00  0.00000000000E+00  0.45593999997E+02  0.45594000000E+02  0.51100000000E-03 0.  1.
         11   -1    0    0    0    0 -0.00000000000E+00 -0.00000000000E+00 -0.45593999997E+02  0.45594000000E+02  0.51100000000E-03 0. -1.
    9900012    2    1    2    0    0 -0.46831331485E+01  0.23541096268E+02 -0.20990641300E+02  0.59301921975E+02  0.49999959782E+02 0.  0.
        -12    1    1    2    0    0  0.46831331485E+01 -0.23541096268E+02  0.20990641300E+02  0.31886078025E+02  0.00000000000E+00 0.  1.
         11    1    3    3    0    0  0.89440861530E+01  0.19837821765E+02  0.15957357459E+01  0.21819308475E+02  0.51100000000E-03 0. -1.
        -11    1    3    3    0    0 -0.10394110816E+02 -0.78087222701E+01 -0.12969974141E+01  0.13065063556E+02  0.51100000000E-03 0.  1.
         12    1    3    3    0    0 -0.32331084850E+01  0.11511996773E+02 -0.21289379632E+02  0.24417549945E+02  0.00000000000E+00 0. -1.
</event>
<event>
 7    1  0.6293596E-013  0.5930194E+02  0.7816164E-02  0.1266605E+00
        -11   -1    0    0    0    0  0.00000000000E+00  0.00000000000E+00  0.45593999997E+02  0.45594000000E+02  0.51100000000E-03 0.  1.
         11   -1    0    0    0    0 -0.00000000000E+00 -0.00000000000E+00 -0.45593999997E+02  0.45594000000E+02  0.51100000000E-03 0. -1.
    9900012    2    1    2    0    0  0.10418473009E+02  0.12910249120E+02  0.27230526642E+02  0.59301942022E+02  0.49999996342E+02 0.  0.
        -12    1    1    2    0    0 -0.10418473009E+02 -0.12910249120E+02 -0.27230526642E+02  0.31886057978E+02  0.00000000000E+00 0.  1.
         11    1    3    3    0    0  0.48836530905E+01  0.29665485076E+01 -0.71386688807E+01  0.91439089675E+01  0.51100000000E-03 0. -1.
        -11    1    3    3    0    0  0.14131491881E+02 -0.21390148244E+01  0.32124227621E+02  0.35160211145E+02  0.51100000000E-03 0.  1.
        -12    1    3    3    0    0 -0.85966719629E+01  0.12082715437E+02  0.22449679011E+01  0.14997821910E+02  0.00000000000E+00 0.  1.
</event>
<event>
 7    1  0.6293596E-013  0.5930193E+02  0.7816164E-02  0.1266605E+00
        -11   -1    0    0    0    0  0.00000000000E+00  0.00000000000E+00  0.45593999997E+02  0.45594000000E+02  0.51100000000E-03 0.  1.
         11   -1    0    0    0    0 -0.00000000000E+00 -0.00000000000E+00 -0.45593999997E+02  0.45594000000E+02  0.51100000000E-03 0. -1.
    9900012    2    1    2    0    0 -0.16826911696E+02  0.11837920401E+02 -0.24360627120E+02  0.59301929839E+02  0.49999974123E+02 0.  0.
        -12    1    1    2    0    0  0.16826911696E+02 -0.11837920401E+02  0.24360627120E+02  0.31886070161E+02  0.00000000000E+00 0.  1.
         11    1    3    3    0    0  0.54815021373E+01 -0.11542939261E+02 -0.78841558111E+01  0.15014866818E+02  0.51100000000E-03 0. -1.
        -11    1    3    3    0    0 -0.45860120216E+01  0.15251904954E+02 -0.18813705477E+02  0.24649698274E+02  0.51100000000E-03 0.  1.
         12    1    3    3    0    0 -0.17722401812E+02  0.81289547084E+01  0.23372341685E+01  0.19637364746E+02  0.00000000000E+00 0. -1.
</event>
<event>
 7    1  0.6293596E-013  0.5930195E+02  0.7816164E-02  0.1266605E+00
        -11   -1    0    0    0    0  0.00000000000E+00  0.00000000000E+00  0.45593999997E+02  0.45594000000E+02  0.51100000000E-03 0.  1.
         11   -1    0    0    0    0 -0.00000000000E+00 -0.00000000000E+00 -0.45593999997E+02  0.45594000000E+02  0.51100000000E-03 0. -1.
    9900012    2    1    2    0    0 -0.25008152646E+02 -0.87473297006E+00 -0.19762263704E+02  0.59301954099E+02  0.50000018367E+02 0.  0.
        -12    1    1    2    0    0  0.25008152646E+02  0.87473297006E+00  0.19762263704E+02  0.31886045901E+02  0.00000000000E+00 0.  1.
         11    1    3    3    0    0 -0.14165867867E+02  0.11244955792E+02 -0.82580122158E+01  0.19882545340E+02  0.51100000000E-03 0. -1.
        -11    1    3    3    0    0 -0.12585930498E+02 -0.43525840147E+01  0.98927086061E+01  0.16589644900E+02  0.51100000000E-03 0.  1.
        -12    1    3    3    0    0  0.17436457189E+01 -0.77671047474E+01 -0.21396960094E+02  0.22829763858E+02  0.00000000000E+00 0.  1.
</event>
<event>
 7    1  0.6293596E-013  0.5930188E+02  0.7816164E-02  0.1266605E+00
        -11   -1    0    0    0    0  0.00000000000E+00  0.00000000000E+00  0.45593999997E+02  0.45594000000E+02  0.51100000000E-03 0. -1.
         11   -1    0    0    0    0 -0.00000000000E+00 -0.00000000000E+00 -0.45593999997E+02  0.45594000000E+02  0.51100000000E-03 0.  1.
    9900012    2    1    2    0    0  0.14024673035E+01  0.31419214440E+02  0.52526549746E+01  0.59301884921E+02  0.49999892203E+02 0.  0.
        -12    1    1    2    0    0 -0.14024673035E+01 -0.31419214440E+02 -0.52526549746E+01  0.31886115079E+02  0.00000000000E+00 0.  1.
         11    1    3    3    0    0  0.50508320154E+01  0.21177168618E+01  0.65629588353E+01  0.85479855925E+01  0.51100000000E-03 0. -1.
        -11    1    3    3    0    0  0.49529758184E+01  0.88329120569E+01 -0.19551923252E+02  0.22018855737E+02  0.51100000000E-03 0.  1.
        -12    1    3    3    0    0 -0.86013405303E+01  0.20468585521E+02  0.18241619391E+02  0.28735043591E+02  0.00000000000E+00 0.  1.
</event>
<event>
 7    1  0.6293596E-013  0.5930192E+02  0.7816164E-02  0.1266605E+00
        -11   -1    0    0    0    0  0.00000000000E+00  0.00000000000E+00  0.45593999997E+02  0.45594000000E+02  0.51100000000E-03 0.  1.
         11   -1    0    0    0    0 -0.00000000000E+00 -0.00000000000E+00 -0.45593999997E+02  0.45594000000E+02  0.51100000000E-03 0. -1.
    9900012    2    1    2    0    0  0.29249628756E+02 -0.10637222094E+02  0.69304144515E+01  0.59301922776E+02  0.49999961242E+02 0.  0.
        -12    1    1    2    0    0 -0.29249628756E+02  0.10637222094E+02 -0.69304144515E+01  0.31886077224E+02  0.00000000000E+00 0.  1.
         11    1    3    3    0    0  0.38035324432E+02 -0.19074157040E+02  0.97842196163E+01  0.43660512195E+02  0.51100000000E-03 0. -1.
        -11    1    3    3    0    0 -0.97568036265E+01  0.35378440645E+01 -0.17210054666E+01  0.10520143426E+02  0.51100000000E-03 0.  1.
         12    1    3    3    0    0  0.97110795080E+00  0.48990908811E+01 -0.11327996982E+01  0.51212671547E+01  0.00000000000E+00 0. -1.
</event>
<event>
 7    1  0.6293596E-013  0.5930189E+02  0.7816164E-02  0.1266605E+00
        -11   -1    0    0    0    0  0.00000000000E+00  0.00000000000E+00  0.45593999997E+02  0.45594000000E+02  0.51100000000E-03 0. -1.
         11   -1    0    0    0    0 -0.00000000000E+00 -0.00000000000E+00 -0.45593999997E+02  0.45594000000E+02  0.51100000000E-03 0.  1.
    9900012    2    1    2    0    0 -0.25380070309E+01  0.43772224694E+01  0.31482092633E+02  0.59301894675E+02  0.49999909993E+02 0.  0.
        -12    1    1    2    0    0  0.25380070309E+01 -0.43772224694E+01 -0.31482092633E+02  0.31886105325E+02  0.00000000000E+00 0.  1.
         11    1    3    3    0    0 -0.28345429074E+01 -0.12850762249E+02 -0.29263860049E+01  0.13481114909E+02  0.51100000000E-03 0. -1.
        -11    1    3    3    0    0  0.64539646738E+01  0.16250214892E+02  0.90130513204E+01  0.19671254114E+02  0.51100000000E-03 0.  1.
        -12    1    3    3    0    0 -0.61574287972E+01  0.97776982718E+00  0.25395427317E+02  0.26149525653E+02  0.00000000000E+00 0.  1.
</event>
<event>
 7    1  0.6293596E-013  0.5930191E+02  0.7816164E-02  0.1266605E+00
        -11   -1    0    0    0    0  0.00000000000E+00  0.00000000000E+00  0.45593999997E+02  0.45594000000E+02  0.51100000000E-03 0.  1.
         11   -1    0    0    0    0 -0.00000000000E+00 -0.00000000000E+00 -0.45593999997E+02  0.45594000000E+02  0.51100000000E-03 0. -1.
    9900012    2    1    2    0    0 -0.86286202673E+01  0.30654809545E+02 -0.15976877752E+01  0.59301905191E+02  0.49999929170E+02 0.  0.
        -12    1    1    2    0    0  0.86286202673E+01 -0.30654809545E+02  0.15976877752E+01  0.31886094809E+02  0.00000000000E+00 0.  1.
         11    1    3    3    0    0 -0.16851802088E+02  0.19507690061E+02 -0.13047073246E+01  0.25811537470E+02  0.51100000000E-03 0. -1.
        -11    1    3    3    0    0  0.84694321222E+01 -0.25976655727E+01  0.12090199256E+02  0.14988397687E+02  0.51100000000E-03 0.  1.
        -12    1    3    3    0    0 -0.24625030132E+00  0.13744785057E+02 -0.12383179707E+02  0.18501970034E+02  0.00000000000E+00 0.  1.
</event>
<event>
 7    1  0.6293596E-013  0.5930192E+02  0.7816164E-02  0.1266605E+00
        -11   -1    0    0    0    0  0.00000000000E+00  0.00000000000E+00  0.45593999997E+02  0.45594000000E+02  0.51100000000E-03 0.  1.
         11   -1    0    0    0    0 -0.00000000000E+00 -0.00000000000E+00 -0.45593999997E+02  0.45594000000E+02  0.51100000000E-03 0. -1.
    9900012    2    1    2    0    0  0.39361208311E+01  0.97590436486E+01 -0.30099665312E+02  0.59301924167E+02  0.49999963779E+02 0.  0.
        -12    1    1    2    0    0 -0.39361208311E+01 -0.97590436486E+01  0.30099665312E+02  0.31886075833E+02  0.00000000000E+00 0.  1.
         11    1    3    3    0    0 -0.12472169078E+02 -0.81495014970E+01 -0.14749062738E+02  0.20964356133E+02  0.51100000000E-03 0. -1.
        -11    1    3    3    0    0  0.26882602418E+00  0.11489816208E+02  0.41536903166E+01  0.12220527298E+02  0.51100000000E-03 0.  1.
         12    1    3    3    0    0  0.16139463885E+02  0.64187289377E+01 -0.19504292891E+02  0.26117040737E+02  0.00000000000E+00 0. -1.
</event>
<event>
 7    1  0.6293596E-013  0.5930195E+02  0.7816164E-02  0.1266605E+00
        -11   -1    0    0    0    0  0.00000000000E+00  0.00000000000E+00  0.45593999997E+02  0.45594000000E+02  0.51100000000E-03 0.  1.
         11   -1    0    0    0    0 -0.00000000000E+00 -0.00000000000E+00 -0.45593999997E+02  0.45594000000E+02  0.51100000000E-03 0. -1.
    9900012    2    1    2    0    0  0.75866748516E+01 -0.10860317092E+02 -0.29003728112E+02  0.59301947139E+02  0.50000005675E+02 0.  0.
        -12    1    1    2    0    0 -0.75866748516E+01  0.10860317092E+02  0.29003728112E+02  0.31886052861E+02  0.00000000000E+00 0.  1.
         11    1    3    3    0    0  0.12395593518E+02 -0.12853543508E+02 -0.30154684004E+02  0.35045246283E+02  0.51100000000E-03 0. -1.
        -11    1    3    3    0    0  0.40685710100E+01 -0.30325088328E+01  0.96997792276E+01  0.10946921814E+02  0.51100000000E-03 0.  1.
         12    1    3    3    0    0 -0.88774896761E+01  0.50257352487E+01 -0.85488233353E+01  0.13309779042E+02  0.00000000000E+00 0. -1.
</event>
<event>
 7    1  0.6293596E-013  0.5930192E+02  0.7816164E-02  0.1266605E+00
        -11   -1    0    0    0    0  0.00000000000E+00  0.00000000000E+00  0.45593999997E+02  0.45594000000E+02  0.51100000000E-03 0. -1.
         11   -1    0    0    0    0 -0.00000000000E+00 -0.00000000000E+00 -0.45593999997E+02  0.45594000000E+02  0.51100000000E-03 0.  1.
    9900012    2    1    2    0    0 -0.21948066130E+02  0.14982803150E+01 -0.23081582655E+02  0.59301922966E+02  0.49999961588E+02 0.  0.
        -12    1    1    2    0    0  0.21948066130E+02 -0.14982803150E+01  0.23081582655E+02  0.31886077034E+02  0.00000000000E+00 0.  1.
         11    1    3    3    0    0 -0.26298051686E+02  0.11870110894E+02  0.37429208045E+01  0.29094613101E+02  0.51100000000E-03 0. -1.
        -11    1    3    3    0    0  0.47158889840E+01 -0.91451735035E+01 -0.27019564386E+02  0.28912465602E+02  0.51100000000E-03 0.  1.
         12    1    3    3    0    0 -0.36590342873E+00 -0.12266570749E+01  0.19506092675E+00  0.12948442624E+01  0.00000000000E+00 0. -1.
</event>
<event>
 7    1  0.6293596E-013  0.5930194E+02  0.7816164E-02  0.1266605E+00
        -11   -1    0    0    0    0  0.00000000000E+00  0.00000000000E+00  0.45593999997E+02  0.45594000000E+02  0.51100000000E-03 0.  1.
         11   -1    0    0    0    0 -0.00000000000E+00 -0.00000000000E+00 -0.45593999997E+02  0.45594000000E+02  0.51100000000E-03 0. -1.
    9900012    2    1    2    0    0 -0.13590274867E+02  0.22093240495E+02 -0.18544911591E+02  0.59301943605E+02  0.49999999229E+02 0.  0.
        -12    1    1    2    0    0  0.13590274867E+02 -0.22093240495E+02  0.18544911591E+02  0.31886056395E+02  0.00000000000E+00 0.  1.
         11    1    3    3    0    0 -0.48626818843E+01 -0.73638299990E+01 -0.80671991441E+01  0.11956227233E+02  0.51100000000E-03 0. -1.
        -11    1    3    3    0    0 -0.83243812201E+01  0.35734220108E+02 -0.19415268332E+01  0.36742337107E+02  0.51100000000E-03 0.  1.
        -12    1    3    3    0    0 -0.40321176263E+00 -0.62771496137E+01 -0.85361856133E+01  0.10603379264E+02  0.00000000000E+00 0.  1.
</event>
<event>
 7    1  0.6293596E-013  0.5930194E+02  0.7816164E-02  0.1266605E+00
        -11   -1    0    0    0    0  0.00000000000E+00  0.00000000000E+00  0.45593999997E+02  0.45594000000E+02  0.51100000000E-03 0. -1.
         11   -1    0    0    0    0 -0.00000000000E+00 -0.00000000000E+00 -0.45593999997E+02  0.45594000000E+02  0.51100000000E-03 0.  1.
    9900012    2    1    2    0    0 -0.17710741975E+02 -0.12261495897E+02  0.23509706546E+02  0.59301937766E+02  0.49999988580E+02 0.  0.
        -12    1    1    2    0    0  0.17710741975E+02  0.12261495897E+02 -0.23509706546E+02  0.31886062234E+02  0.00000000000E+00 0.  1.
         11    1    3    3    0    0 -0.85774989091E+01  0.78882301189E+01  0.14474527022E+02  0.18582507762E+02  0.51100000000E-03 0. -1.
        -11    1    3    3    0    0 -0.30341894785E+01 -0.74546777311E+01 -0.12571824287E+02  0.14927467704E+02  0.51100000000E-03 0.  1.
        -12    1    3    3    0    0 -0.60990535877E+01 -0.12695048285E+02  0.21607003810E+02  0.25791962300E+02  0.00000000000E+00 0.  1.
</event>
<event>
 7    1  0.6293596E-013  0.5930195E+02  0.7816164E-02  0.1266605E+00
        -11   -1    0    0    0    0  0.00000000000E+00  0.00000000000E+00  0.45593999997E+02  0.45594000000E+02  0.51100000000E-03 0.  1.
         11   -1    0    0    0    0 -0.00000000000E+00 -0.00000000000E+00 -0.45593999997E+02  0.45594000000E+02  0.51100000000E-03 0. -1.
    9900012    2    1    2    0    0 -0.96263018309E+01 -0.30360785253E+02 -0.15090632425E+01  0.59301949131E+02  0.50000009308E+02 0.  0.
        -12    1    1    2    0    0  0.96263018309E+01  0.30360785253E+02  0.15090632425E+01  0.31886050869E+02  0.00000000000E+00 0.  1.
         11    1    3    3    0    0 -0.11581970187E+02 -0.21136512196E+02 -0.10080785958E+02  0.26125015349E+02  0.51100000000E-03 0. -1.
        -11    1    3    3    0    0 -0.11343520158E+02 -0.31822282793E+01  0.13352578415E+02  0.17807115909E+02  0.51100000000E-03 0.  1.
        -12    1    3    3    0    0  0.13299188514E+02 -0.60420447783E+01 -0.47808556995E+01  0.15369817873E+02  0.00000000000E+00 0.  1.
</event>
<event>
 7    1  0.6293596E-013  0.5930196E+02  0.7816164E-02  0.1266605E+00
        -11   -1    0    0    0    0  0.00000000000E+00  0.00000000000E+00  0.45593999997E+02  0.45594000000E+02  0.51100000000E-03 0.  1.
         11   -1    0    0    0    0 -0.00000000000E+00 -0.00000000000E+00 -0.45593999997E+02  0.45594000000E+02  0.51100000000E-03 0. -1.
    9900012    2    1    2    0    0 -0.27730064191E+02 -0.12155238459E+02 -0.10000667738E+02  0.59301958583E+02  0.50000026545E+02 0.  0.
        -12    1    1    2    0    0  0.27730064191E+02  0.12155238459E+02  0.10000667738E+02  0.31886041417E+02  0.00000000000E+00 0.  1.
         11    1    3    3    0    0 -0.13784791876E+02  0.10870960820E+02 -0.16114193903E+02  0.23829929115E+02  0.51100000000E-03 0. -1.
        -11    1    3    3    0    0 -0.68444713476E+01  0.26193150969E+01  0.49355388506E+01  0.88355613071E+01  0.51100000000E-03 0.  1.
         12    1    3    3    0    0 -0.71008009681E+01 -0.25645514376E+02  0.11779873139E+01  0.26636468161E+02  0.00000000000E+00 0. -1.
</event>
<event>
 7    1  0.6293596E-013  0.5930196E+02  0.7816164E-02  0.1266605E+00
        -11   -1    0    0    0    0  0.00000000000E+00  0.00000000000E+00  0.45593999997E+02  0.45594000000E+02  0.51100000000E-03 0. -1.
         11   -1    0    0    0    0 -0.00000000000E+00 -0.00000000000E+00 -0.45593999997E+02  0.45594000000E+02  0.51100000000E-03 0.  1.
    9900012    2    1    2    0    0 -0.14007614987E+02 -0.97693535516E+01  0.26927054913E+02  0.59301955518E+02  0.50000020955E+02 0.  0.
        -12    1    1    2    0    0  0.14007614987E+02  0.97693535516E+01 -0.26927054913E+02  0.31886044482E+02  0.00000000000E+00 0.  1.
         11    1    3    3    0    0  0.15029028281E+02 -0.39627065486E+01  0.55286739786E+01  0.16496695744E+02  0.51100000000E-03 0. -1.
        -11    1    3    3    0    0 -0.27941314624E+02 -0.10325253364E+02  0.23263400900E+02  0.37795684167E+02  0.51100000000E-03 0.  1.
         12    1    3    3    0    0 -0.10953286431E+01  0.45186063612E+01 -0.18650199659E+01  0.50095756065E+01  0.00000000000E+00 0. -1.
</event>
<event>
 7    1  0.6293596E-013  0.5930206E+02  0.7816164E-02  0.1266604E+00
        -11   -1    0    0    0    0  0.00000000000E+00  0.00000000000E+00  0.45593999997E+02  0.45594000000E+02  0.51100000000E-03 0. -1.
         11   -1    0    0    0    0 -0.00000000000E+00 -0.00000000000E+00 -0.45593999997E+02  0.45594000000E+02  0.51100000000E-03 0.  1.
    9900012    2    1    2    0    0  0.44705460567E+01 -0.12672166682E+02  0.28916142870E+02  0.59302064089E+02  0.50000218962E+02 0.  0.
        -12    1    1    2    0    0 -0.44705460567E+01  0.12672166682E+02 -0.28916142870E+02  0.31885935911E+02  0.00000000000E+00 0.  1.
         11    1    3    3    0    0 -0.86194290563E+01  0.85960724164E+01  0.14372739851E+02  0.18835144527E+02  0.51100000000E-03 0.  1.
        -11    1    3    3    0    0  0.13788807872E+02 -0.25135336919E+02  0.36673541110E+01  0.28902696605E+02  0.51100000000E-03 0. -1.
         12    1    3    3    0    0 -0.69883275865E+00  0.38670978210E+01  0.10876048907E+02  0.11564222958E+02  0.00000000000E+00 0. -1.
</event>
<event>
 7    1  0.6293596E-013  0.5930194E+02  0.7816164E-02  0.1266605E+00
        -11   -1    0    0    0    0  0.00000000000E+00  0.00000000000E+00  0.45593999997E+02  0.45594000000E+02  0.51100000000E-03 0. -1.
         11   -1    0    0    0    0 -0.00000000000E+00 -0.00000000000E+00 -0.45593999997E+02  0.45594000000E+02  0.51100000000E-03 0.  1.
    9900012    2    1    2    0    0  0.14808185457E+01 -0.29175848497E+02  0.12778814936E+02  0.59301936112E+02  0.49999985564E+02 0.  0.
        -12    1    1    2    0    0 -0.14808185457E+01  0.29175848497E+02 -0.12778814936E+02  0.31886063888E+02  0.00000000000E+00 0.  1.
         11    1    3    3    0    0  0.14542397164E+02 -0.26067815827E+02  0.18805177058E+02  0.35279555294E+02  0.51100000000E-03 0. -1.
        -11    1    3    3    0    0 -0.78345487789E+01 -0.67555221398E+01  0.48426833596E+01  0.11422294705E+02  0.51100000000E-03 0.  1.
         12    1    3    3    0    0 -0.52270298394E+01  0.36474894697E+01 -0.10869045482E+02  0.12600086113E+02  0.00000000000E+00 0. -1.
</event>
<event>
 7    1  0.6293596E-013  0.5930193E+02  0.7816164E-02  0.1266605E+00
        -11   -1    0    0    0    0  0.00000000000E+00  0.00000000000E+00  0.45593999997E+02  0.45594000000E+02  0.51100000000E-03 0.  1.
         11   -1    0    0    0    0 -0.00000000000E+00 -0.00000000000E+00 -0.45593999997E+02  0.45594000000E+02  0.51100000000E-03 0. -1.
    9900012    2    1    2    0    0  0.15582701708E+02  0.26278335195E+02 -0.91296221243E+01  0.59301929478E+02  0.49999973466E+02 0.  0.
        -12    1    1    2    0    0 -0.15582701708E+02 -0.26278335195E+02  0.91296221243E+01  0.31886070522E+02  0.00000000000E+00 0.  1.
         11    1    3    3    0    0  0.14926872531E+02  0.49792247003E+01 -0.24227485785E+02  0.28889016423E+02  0.51100000000E-03 0. -1.
        -11    1    3    3    0    0 -0.32217734795E+01  0.26118401931E+01  0.97454000021E+01  0.10591239541E+02  0.51100000000E-03 0.  1.
        -12    1    3    3    0    0  0.38776026572E+01  0.18687270302E+02  0.53524636585E+01  0.19821673515E+02  0.00000000000E+00 0.  1.
</event>
<event>
 7    1  0.6293596E-013  0.5930186E+02  0.7816164E-02  0.1266605E+00
        -11   -1    0    0    0    0  0.00000000000E+00  0.00000000000E+00  0.45593999997E+02  0.45594000000E+02  0.51100000000E-03 0.  1.
         11   -1    0    0    0    0 -0.00000000000E+00 -0.00000000000E+00 -0.45593999997E+02  0.45594000000E+02  0.51100000000E-03 0. -1.
    9900012    2    1    2    0    0  0.29748261221E+02 -0.65354622577E+01 -0.94368905206E+01  0.59301855434E+02  0.49999838426E+02 0.  0.
        -12    1    1    2    0    0 -0.29748261221E+02  0.65354622577E+01  0.94368905206E+01  0.31886144566E+02  0.00000000000E+00 0.  1.
         11    1    3    3    0    0  0.15994880643E+02  0.64952031758E+00 -0.10075719019E+02  0.18915025706E+02  0.51100000000E-03 0. -1.
        -11    1    3    3    0    0  0.65560756917E+00 -0.20085790643E+02 -0.57849672564E+01  0.20912547752E+02  0.51100000000E-03 0.  1.
        -12    1    3    3    0    0  0.13097773009E+02  0.12900808068E+02  0.64237957546E+01  0.19474281976E+02  0.00000000000E+00 0.  1.
</event>
<event>
 7    1  0.6293596E-013  0.5930188E+02  0.7816164E-02  0.1266605E+00
        -11   -1    0    0    0    0  0.00000000000E+00  0.00000000000E+00  0.45593999997E+02  0.45594000000E+02  0.51100000000E-03 0. -1.
         11   -1    0    0    0    0 -0.00000000000E+00 -0.00000000000E+00 -0.45593999997E+02  0.45594000000E+02  0.51100000000E-03 0.  1.
    9900012    2    1    2    0    0 -0.12551566338E+02  0.25217312278E+02  0.14942216621E+02  0.59301882431E+02  0.49999887663E+02 0.  0.
        -12    1    1    2    0    0  0.12551566338E+02 -0.25217312278E+02 -0.14942216621E+02  0.31886117569E+02  0.00000000000E+00 0.  1.
         11    1    3    3    0    0 -0.17783239372E+02  0.13572784381E+02 -0.10603367339E+02  0.24756725906E+02  0.51100000000E-03 0. -1.
        -11    1    3    3    0    0  0.91942013149E+01  0.82163549214E+01  0.49390761444E+01  0.13282932637E+02  0.51100000000E-03 0.  1.
         12    1    3    3    0    0 -0.39625282813E+01  0.34281729750E+01  0.20606507815E+02  0.21262223888E+02  0.00000000000E+00 0. -1.
</event>
<event>
 7    1  0.6293596E-013  0.5930196E+02  0.7816164E-02  0.1266605E+00
        -11   -1    0    0    0    0  0.00000000000E+00  0.00000000000E+00  0.45593999997E+02  0.45594000000E+02  0.51100000000E-03 0.  1.
         11   -1    0    0    0    0 -0.00000000000E+00 -0.00000000000E+00 -0.45593999997E+02  0.45594000000E+02  0.51100000000E-03 0. -1.
    9900012    2    1    2    0    0 -0.53645493587E+01  0.22007757818E+02 -0.22441031062E+02  0.59301958083E+02  0.50000025634E+02 0.  0.
        -12    1    1    2    0    0  0.53645493587E+01 -0.22007757818E+02  0.22441031062E+02  0.31886041917E+02  0.00000000000E+00 0.  1.
         11    1    3    3    0    0 -0.19000451768E+01 -0.13605557358E+01 -0.30865022849E+01  0.38714054554E+01  0.51100000000E-03 0. -1.
        -11    1    3    3    0    0  0.16816793649E+02  0.19749773741E+02 -0.22808950297E+02  0.34541371214E+02  0.51100000000E-03 0.  1.
        -12    1    3    3    0    0 -0.20281297831E+02  0.36185398128E+01  0.34544215197E+01  0.20889181414E+02  0.00000000000E+00 0.  1.
</event>
<event>
 7    1  0.6293596E-013  0.5930194E+02  0.7816164E-02  0.1266605E+00
        -11   -1    0    0    0    0  0.00000000000E+00  0.00000000000E+00  0.45593999997E+02  0.45594000000E+02  0.51100000000E-03 0. -1.
         11   -1    0    0    0    0 -0.00000000000E+00 -0.00000000000E+00 -0.45593999997E+02  0.45594000000E+02  0.51100000000E-03 0.  1.
    9900012    2    1    2    0    0 -0.64751611519E+01 -0.24255871032E+02  0.19658231647E+02  0.59301936227E+02  0.49999985773E+02 0.  0.
        -12    1    1    2    0    0  0.64751611519E+01  0.24255871032E+02 -0.19658231647E+02  0.31886063773E+02  0.00000000000E+00 0.  1.
         11    1    3    3    0    0  0.96254039598E+01 -0.18169647981E+02  0.29942472317E+02  0.36322667273E+02  0.51100000000E-03 0. -1.
        -11    1    3    3    0    0 -0.95071754490E+01 -0.74813074479E+01 -0.19383822204E+01  0.12252088477E+02  0.51100000000E-03 0.  1.
         12    1    3    3    0    0 -0.65933896628E+01  0.13950843965E+01 -0.83458584496E+01  0.10727180477E+02  0.00000000000E+00 0. -1.
</event>
<event>
 7    1  0.6293596E-013  0.5930199E+02  0.7816164E-02  0.1266605E+00
        -11   -1    0    0    0    0  0.00000000000E+00  0.00000000000E+00  0.45593999997E+02  0.45594000000E+02  0.51100000000E-03 0. -1.
         11   -1    0    0    0    0 -0.00000000000E+00 -0.00000000000E+00 -0.45593999997E+02  0.45594000000E+02  0.51100000000E-03 0.  1.
    9900012    2    1    2    0    0  0.25454823374E+02 -0.21356200512E+01  0.19084252811E+02  0.59301990350E+02  0.50000084481E+02 0.  0.
        -12    1    1    2    0    0 -0.25454823374E+02  0.21356200512E+01 -0.19084252811E+02  0.31886009650E+02  0.00000000000E+00 0.  1.
         11    1    3    3    0    0  0.16085389052E+02 -0.20546732894E+01  0.14974988165E+02  0.22072872357E+02  0.51100000000E-03 0. -1.
        -11    1    3    3    0    0 -0.13422446007E+02  0.33808224732E+01  0.17657177904E+00  0.13842803013E+02  0.51100000000E-03 0.  1.
        -12    1    3    3    0    0  0.22791880329E+02 -0.34617692350E+01  0.39326928664E+01  0.23386314980E+02  0.00000000000E+00 0.  1.
</event>
<event>
 7    1  0.6293596E-013  0.5930196E+02  0.7816164E-02  0.1266605E+00
        -11   -1    0    0    0    0  0.00000000000E+00  0.00000000000E+00  0.45593999997E+02  0.45594000000E+02  0.51100000000E-03 0. -1.
         11   -1    0    0    0    0 -0.00000000000E+00 -0.00000000000E+00 -0.45593999997E+02  0.45594000000E+02  0.51100000000E-03 0.  1.
    9900012    2    1    2    0    0  0.26432619393E+02  0.17750668025E+02 -0.17175387210E+01  0.59301960382E+02  0.50000029826E+02 0.  0.
        -12    1    1    2    0    0 -0.26432619393E+02 -0.17750668025E+02  0.17175387210E+01  0.31886039618E+02  0.00000000000E+00 0.  1.
         11    1    3    3    0    0  0.20986217248E+02  0.25194832529E+02 -0.45806532952E+01  0.33108658768E+02  0.51100000000E-03 0. -1.
        -11    1    3    3    0    0  0.13989862485E+01 -0.14519243913E+02 -0.44419932628E+01  0.15247849381E+02  0.51100000000E-03 0.  1.
        -12    1    3    3    0    0  0.40474158961E+01  0.70750794086E+01  0.73051078370E+01  0.10945452233E+02  0.00000000000E+00 0.  1.
</event>
<event>
 7    1  0.6293596E-013  0.5930196E+02  0.7816164E-02  0.1266605E+00
        -11   -1    0    0    0    0  0.00000000000E+00  0.00000000000E+00  0.45593999997E+02  0.45594000000E+02  0.51100000000E-03 0.  1.
         11   -1    0    0    0    0 -0.00000000000E+00 -0.00000000000E+00 -0.45593999997E+02  0.45594000000E+02  0.51100000000E-03 0. -1.
    9900012    2    1    2    0    0  0.19885290798E+02  0.59895716041E+01 -0.24195454105E+02  0.59301956698E+02  0.50000023108E+02 0.  0.
        -12    1    1    2    0    0 -0.19885290798E+02 -0.59895716041E+01  0.24195454105E+02  0.31886043302E+02  0.00000000000E+00 0.  1.
         11    1    3    3    0    0  0.20281993681E+02 -0.11954638754E+02 -0.30550417834E+02  0.38569426824E+02  0.51100000000E-03 0. -1.
        -11    1    3    3    0    0  0.11777879569E+01  0.10091107088E+01  0.30279399794E+01  0.34020449253E+01  0.51100000000E-03 0.  1.
         12    1    3    3    0    0 -0.15744908407E+01  0.16935099649E+02  0.33270237497E+01  0.17330484949E+02  0.00000000000E+00 0. -1.
</event>
<event>
 7    1  0.6293596E-013  0.5930196E+02  0.7816164E-02  0.1266605E+00
        -11   -1    0    0    0    0  0.00000000000E+00  0.00000000000E+00  0.45593999997E+02  0.45594000000E+02  0.51100000000E-03 0. -1.
         11   -1    0    0    0    0 -0.00000000000E+00 -0.00000000000E+00 -0.45593999997E+02  0.45594000000E+02  0.51100000000E-03 0.  1.
    9900012    2    1    2    0    0  0.22774079293E+02  0.41632869630E+01  0.21925511121E+02  0.59301957852E+02  0.50000025212E+02 0.  0.
        -12    1    1    2    0    0 -0.22774079293E+02 -0.41632869630E+01 -0.21925511121E+02  0.31886042148E+02  0.00000000000E+00 0.  1.
         11    1    3    3    0    0 -0.55313069986E+01  0.34016662341E+01  0.13030611133E+02  0.14558966895E+02  0.51100000000E-03 0. -1.
        -11    1    3    3    0    0  0.31475607047E+02  0.70708210765E-01 -0.37409451193E+01  0.31697216112E+02  0.51100000000E-03 0.  1.
        -12    1    3    3    0    0 -0.31702207554E+01  0.69091251816E+00  0.12635845107E+02  0.13045774845E+02  0.00000000000E+00 0.  1.
</event>
<event>
 7    1  0.6293596E-013  0.5930197E+02  0.7816164E-02  0.1266605E+00
        -11   -1    0    0    0    0  0.00000000000E+00  0.00000000000E+00  0.45593999997E+02  0.45594000000E+02  0.51100000000E-03 0.  1.
         11   -1    0    0    0    0 -0.00000000000E+00 -0.00000000000E+00 -0.45593999997E+02  0.45594000000E+02  0.51100000000E-03 0. -1.
    9900012    2    1    2    0    0 -0.34852238280E+00 -0.30797537100E+02 -0.82528251890E+01  0.59301970412E+02  0.50000048119E+02 0.  0.
        -12    1    1    2    0    0  0.34852238280E+00  0.30797537100E+02  0.82528251890E+01  0.31886029588E+02  0.00000000000E+00 0.  1.
         11    1    3    3    0    0  0.14769921560E+02 -0.37956170975E+02 -0.59649522648E+01  0.41163116424E+02  0.51100000000E-03 0. -1.
        -11    1    3    3    0    0 -0.20832385804E+01  0.19557770422E+01 -0.29251839091E+01  0.40892111690E+01  0.51100000000E-03 0.  1.
         12    1    3    3    0    0 -0.13035205362E+02  0.52028568327E+01  0.63731098494E+00  0.14049642819E+02  0.00000000000E+00 0. -1.
</event>
<event>
 7    1  0.6293596E-013  0.5930190E+02  0.7816164E-02  0.1266605E+00
        -11   -1    0    0    0    0  0.00000000000E+00  0.00000000000E+00  0.45593999997E+02  0.45594000000E+02  0.51100000000E-03 0.  1.
         11   -1    0    0    0    0 -0.00000000000E+00 -0.00000000000E+00 -0.45593999997E+02  0.45594000000E+02  0.51100000000E-03 0. -1.
    9900012    2    1    2    0    0 -0.47359136474E+01 -0.28058582086E+02 -0.14387860117E+02  0.59301899180E+02  0.49999918208E+02 0.  0.
        -12    1    1    2    0    0  0.47359136474E+01  0.28058582086E+02  0.14387860117E+02  0.31886100820E+02  0.00000000000E+00 0.  1.
         11    1    3    3    0    0 -0.54479846400E+01 -0.23430073530E+02 -0.29319837729E+01  0.24233146956E+02  0.51100000000E-03 0. -1.
        -11    1    3    3    0    0 -0.14222062956E+00  0.40607021770E+01 -0.21430686067E+02  0.21812469701E+02  0.51100000000E-03 0.  1.
        -12    1    3    3    0    0  0.85429162210E+00 -0.86892107329E+01  0.99748097227E+01  0.13256282523E+02  0.00000000000E+00 0.  1.
</event>
<event>
 7    1  0.6293596E-013  0.5930194E+02  0.7816164E-02  0.1266605E+00
        -11   -1    0    0    0    0  0.00000000000E+00  0.00000000000E+00  0.45593999997E+02  0.45594000000E+02  0.51100000000E-03 0.  1.
         11   -1    0    0    0    0 -0.00000000000E+00 -0.00000000000E+00 -0.45593999997E+02  0.45594000000E+02  0.51100000000E-03 0. -1.
    9900012    2    1    2    0    0  0.74276598641E+01  0.65951607839E+01 -0.30299416822E+02  0.59301938209E+02  0.49999989388E+02 0.  0.
        -12    1    1    2    0    0 -0.74276598641E+01 -0.65951607839E+01  0.30299416822E+02  0.31886061791E+02  0.00000000000E+00 0.  1.
         11    1    3    3    0    0  0.13174889400E+02  0.23586577432E+02 -0.19626377337E+02  0.33393098588E+02  0.51100000000E-03 0. -1.
        -11    1    3    3    0    0  0.35183801415E+01 -0.90384431503E+01 -0.96071009456E+01  0.13651697412E+02  0.51100000000E-03 0.  1.
         12    1    3    3    0    0 -0.92656096777E+01 -0.79529734978E+01 -0.10659385395E+01  0.12257142209E+02  0.00000000000E+00 0. -1.
</event>
<event>
 7    1  0.6293596E-013  0.5930195E+02  0.7816164E-02  0.1266605E+00
        -11   -1    0    0    0    0  0.00000000000E+00  0.00000000000E+00  0.45593999997E+02  0.45594000000E+02  0.51100000000E-03 0.  1.
         11   -1    0    0    0    0 -0.00000000000E+00 -0.00000000000E+00 -0.45593999997E+02  0.45594000000E+02  0.51100000000E-03 0. -1.
    9900012    2    1    2    0    0  0.12502157953E+02 -0.80104725586E+01 -0.28217874076E+02  0.59301952244E+02  0.50000014985E+02 0.  0.
        -12    1    1    2    0    0 -0.12502157953E+02  0.80104725586E+01  0.28217874076E+02  0.31886047756E+02  0.00000000000E+00 0.  1.
         11    1    3    3    0    0  0.59388492362E+01 -0.16142272726E-01 -0.34337994292E+02  0.34847783905E+02  0.51100000000E-03 0. -1.
        -11    1    3    3    0    0  0.15605665237E+01 -0.14980901913E+02  0.43905117023E+01  0.15688829888E+02  0.51100000000E-03 0.  1.
         12    1    3    3    0    0  0.50027421933E+01  0.69865716269E+01  0.17296085139E+01  0.87653384510E+01  0.00000000000E+00 0. -1.
</event>
<event>
 7    1  0.6293596E-013  0.5930195E+02  0.7816164E-02  0.1266605E+00
        -11   -1    0    0    0    0  0.00000000000E+00  0.00000000000E+00  0.45593999997E+02  0.45594000000E+02  0.51100000000E-03 0.  1.
         11   -1    0    0    0    0 -0.00000000000E+00 -0.00000000000E+00 -0.45593999997E+02  0.45594000000E+02  0.51100000000E-03 0. -1.
    9900012    2    1    2    0    0  0.20354801258E+01 -0.24642066580E+02 -0.20133189853E+02  0.59301953548E+02  0.50000017362E+02 0.  0.
        -12    1    1    2    0    0 -0.20354801258E+01  0.24642066580E+02  0.20133189853E+02  0.31886046452E+02  0.00000000000E+00 0.  1.
         11    1    3    3    0    0 -0.78773330339E+01  0.12347521284E+02 -0.99914209108E+01  0.17729696830E+02  0.51100000000E-03 0. -1.
        -11    1    3    3    0    0  0.95474426379E+01 -0.12074867647E+02 -0.42048046972E+01  0.15957332873E+02  0.51100000000E-03 0.  1.
         12    1    3    3    0    0  0.36537052184E+00 -0.24914720218E+02 -0.59369642451E+01  0.25614923845E+02  0.00000000000E+00 0. -1.
</event>
<event>
 7    1  0.6293596E-013  0.5930195E+02  0.7816164E-02  0.1266605E+00
        -11   -1    0    0    0    0  0.00000000000E+00  0.00000000000E+00  0.45593999997E+02  0.45594000000E+02  0.51100000000E-03 0.  1.
         11   -1    0    0    0    0 -0.00000000000E+00 -0.00000000000E+00 -0.45593999997E+02  0.45594000000E+02  0.51100000000E-03 0. -1.
    9900012    2    1    2    0    0  0.22573361975E+02 -0.17943977515E+02  0.13607989279E+02  0.59301947059E+02  0.50000005529E+02 0.  0.
        -12    1    1    2    0    0 -0.22573361975E+02  0.17943977515E+02 -0.13607989279E+02  0.31886052941E+02  0.00000000000E+00 0.  1.
         11    1    3    3    0    0  0.16189334680E+02 -0.20192876148E+02  0.25474474469E+02  0.36315226204E+02  0.51100000000E-03 0. -1.
        -11    1    3    3    0    0 -0.24446955432E+01  0.67682209243E+01 -0.10845971050E+02  0.13016160688E+02  0.51100000000E-03 0.  1.
        -12    1    3    3    0    0  0.88287228385E+01 -0.45193222916E+01 -0.10205141404E+01  0.99705601671E+01  0.00000000000E+00 0.  1.
</event>
<event>
 7    1  0.6293596E-013  0.5930192E+02  0.7816164E-02  0.1266605E+00
        -11   -1    0    0    0    0  0.00000000000E+00  0.00000000000E+00  0.45593999997E+02  0.45594000000E+02  0.51100000000E-03 0.  1.
         11   -1    0    0    0    0 -0.00000000000E+00 -0.00000000000E+00 -0.45593999997E+02  0.45594000000E+02  0.51100000000E-03 0. -1.
    9900012    2    1    2    0    0 -0.26820304672E+01  0.92131564653E+01 -0.30407996785E+02  0.59301924544E+02  0.49999964467E+02 0.  0.
        -12    1    1    2    0    0  0.26820304672E+01 -0.92131564653E+01  0.30407996785E+02  0.31886075456E+02  0.00000000000E+00 0.  1.
         11    1    3    3    0    0 -0.29934038388E+01  0.19426634631E+02 -0.27730090239E+02  0.33989888269E+02  0.51100000000E-03 0. -1.
        -11    1    3    3    0    0 -0.65716222784E+01  0.99175176743E+00  0.64837822034E+01  0.92848921835E+01  0.51100000000E-03 0.  1.
        -12    1    3    3    0    0  0.68829956500E+01 -0.11205229933E+02 -0.91616887498E+01  0.16027144091E+02  0.00000000000E+00 0.  1.
</event>
<event>
 7    1  0.6293596E-013  0.5930193E+02  0.7816164E-02  0.1266605E+00
        -11   -1    0    0    0    0  0.00000000000E+00  0.00000000000E+00  0.45593999997E+02  0.45594000000E+02  0.51100000000E-03 0. -1.
         11   -1    0    0    0    0 -0.00000000000E+00 -0.00000000000E+00 -0.45593999997E+02  0.45594000000E+02  0.51100000000E-03 0.  1.
    9900012    2    1    2    0    0 -0.23607009468E+02  0.72866998208E+01  0.20157734360E+02  0.59301934943E+02  0.49999983431E+02 0.  0.
        -12    1    1    2    0    0  0.23607009468E+02 -0.72866998208E+01 -0.20157734360E+02  0.31886065057E+02  0.00000000000E+00 0.  1.
         11    1    3    3    0    0 -0.61556137044E+01  0.27677049463E+01  0.73377372894E+01  0.99696619570E+01  0.51100000000E-03 0. -1.
        -11    1    3    3    0    0 -0.12554977831E+02 -0.17253873589E+02 -0.35814489062E+01  0.21636783464E+02  0.51100000000E-03 0.  1.
        -12    1    3    3    0    0 -0.48964179324E+01  0.21772868463E+02  0.16401445977E+02  0.27695489521E+02  0.00000000000E+00 0.  1.
</event>
<event>
 7    1  0.6293596E-013  0.5930192E+02  0.7816164E-02  0.1266605E+00
        -11   -1    0    0    0    0  0.00000000000E+00  0.00000000000E+00  0.45593999997E+02  0.45594000000E+02  0.51100000000E-03 0. -1.
         11   -1    0    0    0    0 -0.00000000000E+00 -0.00000000000E+00 -0.45593999997E+02  0.45594000000E+02  0.51100000000E-03 0.  1.
    9900012    2    1    2    0    0 -0.15951725930E+02  0.26665680285E+02 -0.71558574647E+01  0.59301915868E+02  0.49999948643E+02 0.  0.
        -12    1    1    2    0    0  0.15951725930E+02 -0.26665680285E+02  0.71558574647E+01  0.31886084132E+02  0.00000000000E+00 0.  1.
         11    1    3    3    0    0 -0.65164932701E+01  0.15182222556E+02  0.65246947546E+01  0.17763338880E+02  0.51100000000E-03 0. -1.
        -11    1    3    3    0    0 -0.19917073047E+02  0.25928809786E+01 -0.18165006956E+02  0.27080995338E+02  0.51100000000E-03 0.  1.
        -12    1    3    3    0    0  0.10481840387E+02  0.88905767507E+01  0.44844547365E+01  0.14457581649E+02  0.00000000000E+00 0.  1.
</event>
<event>
 7    1  0.6293596E-013  0.5930195E+02  0.7816164E-02  0.1266605E+00
        -11   -1    0    0    0    0  0.00000000000E+00  0.00000000000E+00  0.45593999997E+02  0.45594000000E+02  0.51100000000E-03 0. -1.
         11   -1    0    0    0    0 -0.00000000000E+00 -0.00000000000E+00 -0.45593999997E+02  0.45594000000E+02  0.51100000000E-03 0.  1.
    9900012    2    1    2    0    0 -0.95985646384E+01 -0.11645072699E+02  0.28088787061E+02  0.59301951015E+02  0.50000012744E+02 0.  0.
        -12    1    1    2    0    0  0.95985646384E+01  0.11645072699E+02 -0.28088787061E+02  0.31886048985E+02  0.00000000000E+00 0.  1.
         11    1    3    3    0    0 -0.12348646547E+02  0.46783314463E+01  0.29506872729E+02  0.32326945343E+02  0.51100000000E-03 0. -1.
        -11    1    3    3    0    0 -0.35838236150E+01 -0.19417043934E+02  0.18543933694E+00  0.19745879946E+02  0.51100000000E-03 0.  1.
        -12    1    3    3    0    0  0.63339055240E+01  0.30936397883E+01 -0.16035250050E+01  0.72291257265E+01  0.00000000000E+00 0.  1.
</event>
<event>
 7    1  0.6293596E-013  0.5930196E+02  0.7816164E-02  0.1266605E+00
        -11   -1    0    0    0    0  0.00000000000E+00  0.00000000000E+00  0.45593999997E+02  0.45594000000E+02  0.51100000000E-03 0. -1.
         11   -1    0    0    0    0 -0.00000000000E+00 -0.00000000000E+00 -0.45593999997E+02  0.45594000000E+02  0.51100000000E-03 0.  1.
    9900012    2    1    2    0    0 -0.10284903767E+02  0.29567456925E+02 -0.60585565926E+01  0.59301955051E+02  0.50000020103E+02 0.  0.
        -12    1    1    2    0    0  0.10284903767E+02 -0.29567456925E+02  0.60585565926E+01  0.31886044949E+02  0.00000000000E+00 0.  1.
         11    1    3    3    0    0  0.12498382421E+02  0.24974112918E+02  0.20300374788E+01  0.28000659485E+02  0.51100000000E-03 0. -1.
        -11    1    3    3    0    0 -0.62995553324E+01 -0.42726496035E+01 -0.99101607823E+01  0.12496048136E+02  0.51100000000E-03 0.  1.
         12    1    3    3    0    0 -0.16483730856E+02  0.88659936110E+01  0.18215667108E+01  0.18805247430E+02  0.00000000000E+00 0. -1.
</event>
<event>
 7    1  0.6293596E-013  0.5930198E+02  0.7816164E-02  0.1266605E+00
        -11   -1    0    0    0    0  0.00000000000E+00  0.00000000000E+00  0.45593999997E+02  0.45594000000E+02  0.51100000000E-03 0.  1.
         11   -1    0    0    0    0 -0.00000000000E+00 -0.00000000000E+00 -0.45593999997E+02  0.45594000000E+02  0.51100000000E-03 0. -1.
    9900012    2    1    2    0    0  0.11458053136E+02  0.29739464289E+02 -0.99787531000E+00  0.59301976839E+02  0.50000059841E+02 0.  0.
        -12    1    1    2    0    0 -0.11458053136E+02 -0.29739464289E+02  0.99787531000E+00  0.31886023161E+02  0.00000000000E+00 0.  1.
         11    1    3    3    0    0  0.55008127319E+01 -0.12184868312E+02 -0.45320221307E+01  0.14116273635E+02  0.51100000000E-03 0. -1.
        -11    1    3    3    0    0 -0.33939923800E+01  0.12360175480E+02  0.58540105071E+01  0.14091222852E+02  0.51100000000E-03 0.  1.
         12    1    3    3    0    0  0.93512327842E+01  0.29564157121E+02 -0.23198636864E+01  0.31094480352E+02  0.00000000000E+00 0. -1.
</event>
<event>
 7    1  0.6293596E-013  0.5930192E+02  0.7816164E-02  0.1266605E+00
        -11   -1    0    0    0    0  0.00000000000E+00  0.00000000000E+00  0.45593999997E+02  0.45594000000E+02  0.51100000000E-03 0.  1.
         11   -1    0    0    0    0 -0.00000000000E+00 -0.00000000000E+00 -0.45593999997E+02  0.45594000000E+02  0.51100000000E-03 0. -1.
    9900012    2    1    2    0    0  0.25143681382E+02 -0.89260359119E+01 -0.17459753361E+02  0.59301924388E+02  0.49999964181E+02 0.  0.
        -12    1    1    2    0    0 -0.25143681382E+02  0.89260359119E+01  0.17459753361E+02  0.31886075612E+02  0.00000000000E+00 0.  1.
         11    1    3    3    0    0  0.75464134974E+01  0.10646075238E+02 -0.17402167718E+02  0.21751384236E+02  0.51100000000E-03 0. -1.
        -11    1    3    3    0    0  0.23064019426E+02 -0.17640362128E+02  0.54612973092E+01  0.29545848044E+02  0.51100000000E-03 0.  1.
         12    1    3    3    0    0 -0.54667515413E+01 -0.19317490213E+01 -0.55188829518E+01  0.80046921072E+01  0.00000000000E+00 0. -1.
</event>
<event>
 7    1  0.6293596E-013  0.5930186E+02  0.7816164E-02  0.1266605E+00
        -11   -1    0    0    0    0  0.00000000000E+00  0.00000000000E+00  0.45593999997E+02  0.45594000000E+02  0.51100000000E-03 0.  1.
         11   -1    0    0    0    0 -0.00000000000E+00 -0.00000000000E+00 -0.45593999997E+02  0.45594000000E+02  0.51100000000E-03 0. -1.
    9900012    2    1    2    0    0  0.19404981499E+02 -0.64453691242E+01  0.24466913282E+02  0.59301859818E+02  0.49999846422E+02 0.  0.
        -12    1    1    2    0    0 -0.19404981499E+02  0.64453691242E+01 -0.24466913282E+02  0.31886140182E+02  0.00000000000E+00 0.  1.
         11    1    3    3    0    0  0.15046956047E+02 -0.19680288121E+02  0.17714835589E+02  0.30455541811E+02  0.51100000000E-03 0.  1.
        -11    1    3    3    0    0 -0.75775005091E+01  0.13776184642E+02  0.61522378254E+01  0.16883477361E+02  0.51100000000E-03 0. -1.
        -12    1    3    3    0    0  0.11935525961E+02 -0.54126564564E+00  0.59983986741E+00  0.11962840646E+02  0.00000000000E+00 0.  1.
</event>
<event>
 7    1  0.6293596E-013  0.5930194E+02  0.7816164E-02  0.1266605E+00
        -11   -1    0    0    0    0  0.00000000000E+00  0.00000000000E+00  0.45593999997E+02  0.45594000000E+02  0.51100000000E-03 0.  1.
         11   -1    0    0    0    0 -0.00000000000E+00 -0.00000000000E+00 -0.45593999997E+02  0.45594000000E+02  0.51100000000E-03 0. -1.
    9900012    2    1    2    0    0 -0.25412715118E+02  0.15015645911E+02 -0.12060066546E+02  0.59301938517E+02  0.49999989950E+02 0.  0.
        -12    1    1    2    0    0  0.25412715118E+02 -0.15015645911E+02  0.12060066546E+02  0.31886061483E+02  0.00000000000E+00 0.  1.
         11    1    3    3    0    0 -0.23814352981E+02 -0.35596217951E+01 -0.49751295116E+01  0.24587521818E+02  0.51100000000E-03 0. -1.
        -11    1    3    3    0    0  0.13259932651E+02  0.73763101685E+01 -0.12968317425E+01  0.15228839038E+02  0.51100000000E-03 0.  1.
         12    1    3    3    0    0 -0.14858294788E+02  0.11198957538E+02 -0.57881052922E+01  0.19485577662E+02  0.00000000000E+00 0. -1.
</event>
<event>
 7    1  0.6293596E-013  0.5930196E+02  0.7816164E-02  0.1266605E+00
        -11   -1    0    0    0    0  0.00000000000E+00  0.00000000000E+00  0.45593999997E+02  0.45594000000E+02  0.51100000000E-03 0.  1.
         11   -1    0    0    0    0 -0.00000000000E+00 -0.00000000000E+00 -0.45593999997E+02  0.45594000000E+02  0.51100000000E-03 0. -1.
    9900012    2    1    2    0    0 -0.88144490209E+01 -0.61409504314E+01 -0.30021893101E+02  0.59301955261E+02  0.50000020486E+02 0.  0.
        -12    1    1    2    0    0  0.88144490209E+01  0.61409504314E+01  0.30021893101E+02  0.31886044739E+02  0.00000000000E+00 0.  1.
         11    1    3    3    0    0 -0.19311159914E+02 -0.83143854745E+01 -0.75905717871E+01  0.22353225346E+02  0.51100000000E-03 0. -1.
        -11    1    3    3    0    0  0.12537844839E+02  0.13146425380E+02 -0.13041462150E+02  0.22363045158E+02  0.51100000000E-03 0.  1.
        -12    1    3    3    0    0 -0.20411339455E+01 -0.10972990337E+02 -0.93898591638E+01  0.14585684757E+02  0.00000000000E+00 0.  1.
</event>
<event>
 7    1  0.6293596E-013  0.5930195E+02  0.7816164E-02  0.1266605E+00
        -11   -1    0    0    0    0  0.00000000000E+00  0.00000000000E+00  0.45593999997E+02  0.45594000000E+02  0.51100000000E-03 0. -1.
         11   -1    0    0    0    0 -0.00000000000E+00 -0.00000000000E+00 -0.45593999997E+02  0.45594000000E+02  0.51100000000E-03 0.  1.
    9900012    2    1    2    0    0 -0.31825439897E+02  0.98780060322E+00 -0.16988568808E+01  0.59301945221E+02  0.50000002177E+02 0.  0.
        -12    1    1    2    0    0  0.31825439897E+02 -0.98780060322E+00  0.16988568808E+01  0.31886054779E+02  0.00000000000E+00 0.  1.
         11    1    3    3    0    0 -0.30132832666E+02 -0.18297971957E+01  0.94346520081E+01  0.31628285142E+02  0.51100000000E-03 0. -1.
        -11    1    3    3    0    0  0.48760305800E+01 -0.97141070484E+01 -0.70194954723E+01  0.12938812423E+02  0.51100000000E-03 0.  1.
         12    1    3    3    0    0 -0.65686378109E+01  0.12531704847E+02 -0.41140134166E+01  0.14734847657E+02  0.00000000000E+00 0. -1.
</event>
<event>
 7    1  0.6293596E-013  0.5930193E+02  0.7816164E-02  0.1266605E+00
        -11   -1    0    0    0    0  0.00000000000E+00  0.00000000000E+00  0.45593999997E+02  0.45594000000E+02  0.51100000000E-03 0.  1.
         11   -1    0    0    0    0 -0.00000000000E+00 -0.00000000000E+00 -0.45593999997E+02  0.45594000000E+02  0.51100000000E-03 0. -1.
    9900012    2    1    2    0    0 -0.19769636373E+02 -0.20673567567E+02 -0.14088519698E+02  0.59301932423E+02  0.49999978835E+02 0.  0.
        -12    1    1    2    0    0  0.19769636373E+02  0.20673567567E+02  0.14088519698E+02  0.31886067577E+02  0.00000000000E+00 0.  1.
         11    1    3    3    0    0 -0.21047981132E+02  0.50333862071E+01  0.52441789554E+01  0.22267777160E+02  0.51100000000E-03 0. -1.
        -11    1    3    3    0    0  0.96994949308E+01 -0.11261112618E+02 -0.93892532062E+01  0.17579844577E+02  0.51100000000E-03 0.  1.
         12    1    3    3    0    0 -0.84211501711E+01 -0.14445841156E+02 -0.99434454467E+01  0.19454310686E+02  0.00000000000E+00 0. -1.
</event>
<event>
 7    1  0.6293596E-013  0.5930193E+02  0.7816164E-02  0.1266605E+00
        -11   -1    0    0    0    0  0.00000000000E+00  0.00000000000E+00  0.45593999997E+02  0.45594000000E+02  0.51100000000E-03 0. -1.
         11   -1    0    0    0    0 -0.00000000000E+00 -0.00000000000E+00 -0.45593999997E+02  0.45594000000E+02  0.51100000000E-03 0.  1.
    9900012    2    1    2    0    0  0.15105122689E+02  0.27217604346E+02 -0.69107769007E+01  0.59301928509E+02  0.49999971697E+02 0.  0.
        -12    1    1    2    0    0 -0.15105122689E+02 -0.27217604346E+02  0.69107769007E+01  0.31886071491E+02  0.00000000000E+00 0.  1.
         11    1    3    3    0    0  0.17180243891E+02  0.13488834358E+02  0.39229160367E+01  0.22192311799E+02  0.51100000000E-03 0. -1.
        -11    1    3    3    0    0 -0.81197153408E+01  0.22622679963E+02 -0.10813232989E+02  0.26356051181E+02  0.51100000000E-03 0.  1.
        -12    1    3    3    0    0  0.60445941386E+01 -0.88939099759E+01 -0.20459948587E-01  0.10753565528E+02  0.00000000000E+00 0.  1.
</event>
<event>
 7    1  0.6293596E-013  0.5930195E+02  0.7816164E-02  0.1266605E+00
        -11   -1    0    0    0    0  0.00000000000E+00  0.00000000000E+00  0.45593999997E+02  0.45594000000E+02  0.51100000000E-03 0. -1.
         11   -1    0    0    0    0 -0.00000000000E+00 -0.00000000000E+00 -0.45593999997E+02  0.45594000000E+02  0.51100000000E-03 0.  1.
    9900012    2    1    2    0    0 -0.15087190470E+02  0.66269738119E+01  0.27297987259E+02  0.59301949655E+02  0.50000010263E+02 0.  0.
        -12    1    1    2    0    0  0.15087190470E+02 -0.66269738119E+01 -0.27297987259E+02  0.31886050345E+02  0.00000000000E+00 0.  1.
         11    1    3    3    0    0 -0.14230236844E+02 -0.76508847830E+01  0.18527437649E+02  0.24582547157E+02  0.51100000000E-03 0. -1.
        -11    1    3    3    0    0 -0.12252184105E+02  0.11840678936E+02 -0.39267628485E+01  0.17485341282E+02  0.51100000000E-03 0.  1.
        -12    1    3    3    0    0  0.11395230479E+02  0.24371796587E+01  0.12697312458E+02  0.17234061217E+02  0.00000000000E+00 0.  1.
</event>
<event>
 7    1  0.6293596E-013  0.5930198E+02  0.7816164E-02  0.1266605E+00
        -11   -1    0    0    0    0  0.00000000000E+00  0.00000000000E+00  0.45593999997E+02  0.45594000000E+02  0.51100000000E-03 0. -1.
         11   -1    0    0    0    0 -0.00000000000E+00 -0.00000000000E+00 -0.45593999997E+02  0.45594000000E+02  0.51100000000E-03 0.  1.
    9900012    2    1    2    0    0  0.25429164853E+02  0.18053197048E+02  0.66451412553E+01  0.59301980319E+02  0.50000066187E+02 0.  0.
        -12    1    1    2    0    0 -0.25429164853E+02 -0.18053197048E+02 -0.66451412553E+01  0.31886019681E+02  0.00000000000E+00 0.  1.
         11    1    3    3    0    0  0.62869229565E+01 -0.19759265809E+01 -0.96480216166E+01  0.11683920895E+02  0.51100000000E-03 0. -1.
        -11    1    3    3    0    0  0.16502454165E+02  0.30076838118E+02  0.11560090252E+02  0.36201973310E+02  0.51100000000E-03 0.  1.
         12    1    3    3    0    0  0.26397877320E+01 -0.10047714489E+02  0.47330726200E+01  0.11416086113E+02  0.00000000000E+00 0. -1.
</event>
<event>
 7    1  0.6293596E-013  0.5930187E+02  0.7816164E-02  0.1266605E+00
        -11   -1    0    0    0    0  0.00000000000E+00  0.00000000000E+00  0.45593999997E+02  0.45594000000E+02  0.51100000000E-03 0. -1.
         11   -1    0    0    0    0 -0.00000000000E+00 -0.00000000000E+00 -0.45593999997E+02  0.45594000000E+02  0.51100000000E-03 0.  1.
    9900012    2    1    2    0    0 -0.30355617817E+02  0.47711337571E+01 -0.85145698366E+01  0.59301872140E+02  0.49999868895E+02 0.  0.
        -12    1    1    2    0    0  0.30355617817E+02 -0.47711337571E+01  0.85145698366E+01  0.31886127860E+02  0.00000000000E+00 0.  1.
         11    1    3    3    0    0  0.12923023553E+01  0.98153380628E+01 -0.11608981759E+02  0.15257108651E+02  0.51100000000E-03 0. -1.
        -11    1    3    3    0    0 -0.15379799825E+02 -0.17536176038E+02  0.16467918359E+00  0.23325583213E+02  0.51100000000E-03 0.  1.
         12    1    3    3    0    0 -0.16268120347E+02  0.12491971733E+02  0.29297327386E+01  0.20719180276E+02  0.00000000000E+00 0. -1.
</event>
<event>
 7    1  0.6293596E-013  0.5930193E+02  0.7816164E-02  0.1266605E+00
        -11   -1    0    0    0    0  0.00000000000E+00  0.00000000000E+00  0.45593999997E+02  0.45594000000E+02  0.51100000000E-03 0.  1.
         11   -1    0    0    0    0 -0.00000000000E+00 -0.00000000000E+00 -0.45593999997E+02  0.45594000000E+02  0.51100000000E-03 0. -1.
    9900012    2    1    2    0    0 -0.96507621718E+01 -0.26691855145E+02 -0.14530285420E+02  0.59301928810E+02  0.49999972246E+02 0.  0.
        -12    1    1    2    0    0  0.96507621718E+01  0.26691855145E+02  0.14530285420E+02  0.31886071190E+02  0.00000000000E+00 0.  1.
         11    1    3    3    0    0 -0.24540385789E+00  0.93229938309E+01 -0.75449490588E+01  0.11996028242E+02  0.51100000000E-03 0. -1.
        -11    1    3    3    0    0 -0.39818502303E+01 -0.16663941866E+02 -0.17613604205E+02  0.24571958471E+02  0.51100000000E-03 0.  1.
        -12    1    3    3    0    0 -0.54235080835E+01 -0.19350907110E+02  0.10628267843E+02  0.22733942096E+02  0.00000000000E+00 0.  1.
</event>
<event>
 7    1  0.6293596E-013  0.5930195E+02  0.7816164E-02  0.1266605E+00
        -11   -1    0    0    0    0  0.00000000000E+00  0.00000000000E+00  0.45593999997E+02  0.45594000000E+02  0.51100000000E-03 0. -1.
         11   -1    0    0    0    0 -0.00000000000E+00 -0.00000000000E+00 -0.45593999997E+02  0.45594000000E+02  0.51100000000E-03 0.  1.
    9900012    2    1    2    0    0 -0.13293098539E+02  0.23442549418E+02 -0.17042906977E+02  0.59301948657E+02  0.50000008443E+02 0.  0.
        -12    1    1    2    0    0  0.13293098539E+02 -0.23442549418E+02  0.17042906977E+02  0.31886051343E+02  0.00000000000E+00 0.  1.
         11    1    3    3    0    0  0.41875376828E+01  0.17845421838E+02  0.47356104036E+01  0.18931998272E+02  0.51100000000E-03 0. -1.
        -11    1    3    3    0    0 -0.35902417667E+01 -0.11433575608E+02 -0.68723274713E+01  0.13814679593E+02  0.51100000000E-03 0.  1.
        -12    1    3    3    0    0 -0.13890394455E+02  0.17030703188E+02 -0.14906189910E+02  0.26555270792E+02  0.00000000000E+00 0.  1.
</event>
<event>
 7    1  0.6293596E-013  0.5930194E+02  0.7816164E-02  0.1266605E+00
        -11   -1    0    0    0    0  0.00000000000E+00  0.00000000000E+00  0.45593999997E+02  0.45594000000E+02  0.51100000000E-03 0.  1.
         11   -1    0    0    0    0 -0.00000000000E+00 -0.00000000000E+00 -0.45593999997E+02  0.45594000000E+02  0.51100000000E-03 0. -1.
    9900012    2    1    2    0    0  0.18101413165E+02 -0.16751667941E+02 -0.20209932694E+02  0.59301938517E+02  0.49999989950E+02 0.  0.
        -12    1    1    2    0    0 -0.18101413165E+02  0.16751667941E+02  0.20209932694E+02  0.31886061483E+02  0.00000000000E+00 0.  1.
         11    1    3    3    0    0  0.14030211136E+02 -0.10364554855E+02 -0.28120890770E+02  0.33091620084E+02  0.51100000000E-03 0. -1.
        -11    1    3    3    0    0 -0.33017537998E+01 -0.30484137456E+01  0.14871277563E+02  0.15535420855E+02  0.51100000000E-03 0.  1.
        -12    1    3    3    0    0  0.73729558288E+01 -0.33386993410E+01 -0.69603194870E+01  0.10674897578E+02  0.00000000000E+00 0.  1.
</event>
<event>
 7    1  0.6293596E-013  0.5930200E+02  0.7816164E-02  0.1266605E+00
        -11   -1    0    0    0    0  0.00000000000E+00  0.00000000000E+00  0.45593999997E+02  0.45594000000E+02  0.51100000000E-03 0. -1.
         11   -1    0    0    0    0 -0.00000000000E+00 -0.00000000000E+00 -0.45593999997E+02  0.45594000000E+02  0.51100000000E-03 0.  1.
    9900012    2    1    2    0    0  0.91337014815E+01  0.30283528207E+02  0.40249714514E+01  0.59302000273E+02  0.50000102577E+02 0.  0.
        -12    1    1    2    0    0 -0.91337014815E+01 -0.30283528207E+02 -0.40249714514E+01  0.31885999727E+02  0.00000000000E+00 0.  1.
         11    1    3    3    0    0 -0.10565267156E+02  0.21850630896E+02 -0.12257572854E+02  0.27190495272E+02  0.51100000000E-03 0. -1.
        -11    1    3    3    0    0  0.22883522045E+02  0.75975465171E+01  0.15687469947E+02  0.28765865324E+02  0.51100000000E-03 0.  1.
        -12    1    3    3    0    0 -0.31845534069E+01  0.83535079465E+00  0.59507435871E+00  0.33456396763E+01  0.00000000000E+00 0.  1.
</event>
<event>
 7    1  0.6293596E-013  0.5930198E+02  0.7816164E-02  0.1266605E+00
        -11   -1    0    0    0    0  0.00000000000E+00  0.00000000000E+00  0.45593999997E+02  0.45594000000E+02  0.51100000000E-03 0.  1.
         11   -1    0    0    0    0 -0.00000000000E+00 -0.00000000000E+00 -0.45593999997E+02  0.45594000000E+02  0.51100000000E-03 0. -1.
    9900012    2    1    2    0    0  0.12445065152E+02 -0.19424092547E+02 -0.22012343931E+02  0.59301979501E+02  0.50000064695E+02 0.  0.
        -12    1    1    2    0    0 -0.12445065152E+02  0.19424092547E+02  0.22012343931E+02  0.31886020499E+02  0.00000000000E+00 0.  1.
         11    1    3    3    0    0 -0.40762721382E+01  0.81011440185E+00  0.87391586783E+01  0.96770436888E+01  0.51100000000E-03 0.  1.
        -11    1    3    3    0    0  0.24568062465E+02 -0.17622282698E+02 -0.26260253606E+02  0.40046666034E+02  0.51100000000E-03 0. -1.
         12    1    3    3    0    0 -0.80467251749E+01 -0.26119242508E+01 -0.44912490039E+01  0.95782697784E+01  0.00000000000E+00 0. -1.
</event>
<event>
 7    1  0.6293596E-013  0.5930192E+02  0.7816164E-02  0.1266605E+00
        -11   -1    0    0    0    0  0.00000000000E+00  0.00000000000E+00  0.45593999997E+02  0.45594000000E+02  0.51100000000E-03 0.  1.
         11   -1    0    0    0    0 -0.00000000000E+00 -0.00000000000E+00 -0.45593999997E+02  0.45594000000E+02  0.51100000000E-03 0. -1.
    9900012    2    1    2    0    0 -0.76483166659E+00  0.31470642902E+02 -0.50730566731E+01  0.59301917830E+02  0.49999952221E+02 0.  0.
        -12    1    1    2    0    0  0.76483166659E+00 -0.31470642902E+02  0.50730566731E+01  0.31886082170E+02  0.00000000000E+00 0.  1.
         11    1    3    3    0    0 -0.13256545166E+02 -0.56133707541E+01  0.67631800940E+01  0.15905550170E+02  0.51100000000E-03 0. -1.
        -11    1    3    3    0    0  0.48471658175E+01  0.16129799345E+02  0.22854723071E+01  0.16996729900E+02  0.51100000000E-03 0.  1.
         12    1    3    3    0    0  0.76445476816E+01  0.20954214312E+02 -0.14121709074E+02  0.26399637760E+02  0.00000000000E+00 0. -1.
</event>
<event>
 7    1  0.6293596E-013  0.5930197E+02  0.7816164E-02  0.1266605E+00
        -11   -1    0    0    0    0  0.00000000000E+00  0.00000000000E+00  0.45593999997E+02  0.45594000000E+02  0.51100000000E-03 0.  1.
         11   -1    0    0    0    0 -0.00000000000E+00 -0.00000000000E+00 -0.45593999997E+02  0.45594000000E+02  0.51100000000E-03 0. -1.
    9900012    2    1    2    0    0 -0.12976767440E+02 -0.28953319148E+02 -0.31667076170E+01  0.59301965126E+02  0.50000038478E+02 0.  0.
        -12    1    1    2    0    0  0.12976767440E+02  0.28953319148E+02  0.31667076170E+01  0.31886034874E+02  0.00000000000E+00 0.  1.
         11    1    3    3    0    0  0.10213792402E+02 -0.32423095111E+01  0.74753962316E+01  0.13065820880E+02  0.51100000000E-03 0. -1.
        -11    1    3    3    0    0 -0.14624580664E+02 -0.11952884226E+02  0.88735534470E+01  0.20868391216E+02  0.51100000000E-03 0.  1.
         12    1    3    3    0    0 -0.85659791773E+01 -0.13758125411E+02 -0.19515657296E+02  0.25367753029E+02  0.00000000000E+00 0. -1.
</event>
<event>
 7    1  0.6293596E-013  0.5930195E+02  0.7816164E-02  0.1266605E+00
        -11   -1    0    0    0    0  0.00000000000E+00  0.00000000000E+00  0.45593999997E+02  0.45594000000E+02  0.51100000000E-03 0.  1.
         11   -1    0    0    0    0 -0.00000000000E+00 -0.00000000000E+00 -0.45593999997E+02  0.45594000000E+02  0.51100000000E-03 0. -1.
    9900012    2    1    2    0    0  0.13040069329E+02 -0.50968016593E+01 -0.28647856127E+02  0.59301945745E+02  0.50000003133E+02 0.  0.
        -12    1    1    2    0    0 -0.13040069329E+02  0.50968016593E+01  0.28647856127E+02  0.31886054255E+02  0.00000000000E+00 0.  1.
         11    1    3    3    0    0  0.13157986610E+02 -0.19756830365E+02 -0.23821645018E+02  0.33629387882E+02  0.51100000000E-03 0. -1.
        -11    1    3    3    0    0 -0.93218245724E+01  0.86455995074E+01  0.17920047737E+01  0.12839551611E+02  0.51100000000E-03 0.  1.
         12    1    3    3    0    0  0.92039072911E+01  0.60144291982E+01 -0.66182158832E+01  0.12833006253E+02  0.00000000000E+00 0. -1.
</event>
<event>
 7    1  0.6293596E-013  0.5930193E+02  0.7816164E-02  0.1266605E+00
        -11   -1    0    0    0    0  0.00000000000E+00  0.00000000000E+00  0.45593999997E+02  0.45594000000E+02  0.51100000000E-03 0. -1.
         11   -1    0    0    0    0 -0.00000000000E+00 -0.00000000000E+00 -0.45593999997E+02  0.45594000000E+02  0.51100000000E-03 0.  1.
    9900012    2    1    2    0    0  0.19401035618E+02  0.13354862331E+02  0.21493462247E+02  0.59301930153E+02  0.49999974695E+02 0.  0.
        -12    1    1    2    0    0 -0.19401035618E+02 -0.13354862331E+02 -0.21493462247E+02  0.31886069847E+02  0.00000000000E+00 0.  1.
         11    1    3    3    0    0  0.29567576263E+01  0.27289039843E+02 -0.77505330032E+00  0.27459694447E+02  0.51100000000E-03 0. -1.
        -11    1    3    3    0    0  0.21767933405E+01 -0.58799137627E+01  0.75892237128E+01  0.98441928023E+01  0.51100000000E-03 0.  1.
         12    1    3    3    0    0  0.14267484651E+02 -0.80542637494E+01  0.14679291835E+02  0.21998042904E+02  0.00000000000E+00 0. -1.
</event>
<event>
 7    1  0.6293596E-013  0.5930191E+02  0.7816164E-02  0.1266605E+00
        -11   -1    0    0    0    0  0.00000000000E+00  0.00000000000E+00  0.45593999997E+02  0.45594000000E+02  0.51100000000E-03 0.  1.
         11   -1    0    0    0    0 -0.00000000000E+00 -0.00000000000E+00 -0.45593999997E+02  0.45594000000E+02  0.51100000000E-03 0. -1.
    9900012    2    1    2    0    0  0.58359367674E+01 -0.18301106721E+02 -0.25450623667E+02  0.59301907260E+02  0.49999932944E+02 0.  0.
        -12    1    1    2    0    0 -0.58359367674E+01  0.18301106721E+02  0.25450623667E+02  0.31886092740E+02  0.00000000000E+00 0.  1.
         11    1    3    3    0    0  0.12975175693E+01 -0.16926225340E+02  0.29159605346E+01  0.17224502379E+02  0.51100000000E-03 0.  1.
        -11    1    3    3    0    0 -0.31632163567E+01  0.46871260634E+01 -0.31331426355E+02  0.31837609303E+02  0.51100000000E-03 0. -1.
         12    1    3    3    0    0  0.77016355548E+01 -0.60620074445E+01  0.29648421531E+01  0.10239795577E+02  0.00000000000E+00 0. -1.
</event>
<event>
 7    1  0.6293596E-013  0.5930194E+02  0.7816164E-02  0.1266605E+00
        -11   -1    0    0    0    0  0.00000000000E+00  0.00000000000E+00  0.45593999997E+02  0.45594000000E+02  0.51100000000E-03 0. -1.
         11   -1    0    0    0    0 -0.00000000000E+00 -0.00000000000E+00 -0.45593999997E+02  0.45594000000E+02  0.51100000000E-03 0.  1.
    9900012    2    1    2    0    0  0.15006529825E+02 -0.18640459846E+02  0.21072682857E+02  0.59301942805E+02  0.49999997769E+02 0.  0.
        -12    1    1    2    0    0 -0.15006529825E+02  0.18640459846E+02 -0.21072682857E+02  0.31886057195E+02  0.00000000000E+00 0.  1.
         11    1    3    3    0    0  0.66803267280E+01 -0.10904627808E+02  0.27211204006E+02  0.30066381501E+02  0.51100000000E-03 0. -1.
        -11    1    3    3    0    0  0.17436004319E+02 -0.28405039406E+01 -0.66626122732E+01  0.18880495539E+02  0.51100000000E-03 0.  1.
        -12    1    3    3    0    0 -0.91098012216E+01 -0.48953280981E+01  0.52409112397E+00  0.10355065765E+02  0.00000000000E+00 0.  1.
</event>
<event>
 7    1  0.6293596E-013  0.5930197E+02  0.7816164E-02  0.1266605E+00
        -11   -1    0    0    0    0  0.00000000000E+00  0.00000000000E+00  0.45593999997E+02  0.45594000000E+02  0.51100000000E-03 0. -1.
         11   -1    0    0    0    0 -0.00000000000E+00 -0.00000000000E+00 -0.45593999997E+02  0.45594000000E+02  0.51100000000E-03 0.  1.
    9900012    2    1    2    0    0  0.41339303264E+01 -0.11305045500E+02  0.29526690967E+02  0.59301969937E+02  0.50000047252E+02 0.  0.
        -12    1    1    2    0    0 -0.41339303264E+01  0.11305045500E+02 -0.29526690967E+02  0.31886030063E+02  0.00000000000E+00 0.  1.
         11    1    3    3    0    0  0.61533887347E+01  0.15069158514E+02  0.77627399453E+00  0.16295592435E+02  0.51100000000E-03 0. -1.
        -11    1    3    3    0    0 -0.10612278439E+01 -0.24633784781E+02  0.14471186246E+02  0.28589592316E+02  0.51100000000E-03 0.  1.
         12    1    3    3    0    0 -0.95823056438E+00 -0.17404192327E+01  0.14279230727E+02  0.14416785185E+02  0.00000000000E+00 0. -1.
</event>
<event>
 7    1  0.6293596E-013  0.5930194E+02  0.7816164E-02  0.1266605E+00
        -11   -1    0    0    0    0  0.00000000000E+00  0.00000000000E+00  0.45593999997E+02  0.45594000000E+02  0.51100000000E-03 0.  1.
         11   -1    0    0    0    0 -0.00000000000E+00 -0.00000000000E+00 -0.45593999997E+02  0.45594000000E+02  0.51100000000E-03 0. -1.
    9900012    2    1    2    0    0 -0.15146482553E+02  0.15522834628E+02 -0.23374054772E+02  0.59301940897E+02  0.49999994290E+02 0.  0.
        -12    1    1    2    0    0  0.15146482553E+02 -0.15522834628E+02  0.23374054772E+02  0.31886059103E+02  0.00000000000E+00 0.  1.
         11    1    3    3    0    0 -0.18923189739E+02  0.17266627617E+02 -0.29044611049E+02  0.38727418845E+02  0.51100000000E-03 0. -1.
        -11    1    3    3    0    0  0.10542688714E+02  0.35685144496E+00 -0.13087189345E+01  0.10629598947E+02  0.51100000000E-03 0.  1.
        -12    1    3    3    0    0 -0.67659815286E+01 -0.21006444335E+01  0.69792752116E+01  0.99449231048E+01  0.00000000000E+00 0.  1.
</event>
<event>
 7    1  0.6293596E-013  0.5930191E+02  0.7816164E-02  0.1266605E+00
        -11   -1    0    0    0    0  0.00000000000E+00  0.00000000000E+00  0.45593999997E+02  0.45594000000E+02  0.51100000000E-03 0. -1.
         11   -1    0    0    0    0 -0.00000000000E+00 -0.00000000000E+00 -0.45593999997E+02  0.45594000000E+02  0.51100000000E-03 0.  1.
    9900012    2    1    2    0    0  0.22990155806E+02  0.20677225424E+02 -0.77864048850E+01  0.59301905597E+02  0.49999929912E+02 0.  0.
        -12    1    1    2    0    0 -0.22990155806E+02 -0.20677225424E+02  0.77864048850E+01  0.31886094403E+02  0.00000000000E+00 0.  1.
         11    1    3    3    0    0  0.36535996057E+02  0.12314748879E+02 -0.13655309618E+02  0.40902316913E+02  0.51100000000E-03 0. -1.
        -11    1    3    3    0    0 -0.72404670515E+00  0.32329438511E+01  0.25915606181E+01  0.42062282717E+01  0.51100000000E-03 0.  1.
         12    1    3    3    0    0 -0.12821793545E+02  0.51295326932E+01  0.32773441151E+01  0.14193360413E+02  0.00000000000E+00 0. -1.
</event>
<event>
 7    1  0.6293596E-013  0.5930195E+02  0.7816164E-02  0.1266605E+00
        -11   -1    0    0    0    0  0.00000000000E+00  0.00000000000E+00  0.45593999997E+02  0.45594000000E+02  0.51100000000E-03 0. -1.
         11   -1    0    0    0    0 -0.00000000000E+00 -0.00000000000E+00 -0.45593999997E+02  0.45594000000E+02  0.51100000000E-03 0.  1.
    9900012    2    1    2    0    0 -0.29526037619E+02 -0.20499738873E+01  0.11863007435E+02  0.59301949197E+02  0.50000009428E+02 0.  0.
        -12    1    1    2    0    0  0.29526037619E+02  0.20499738873E+01 -0.11863007435E+02  0.31886050803E+02  0.00000000000E+00 0.  1.
         11    1    3    3    0    0 -0.95819105429E+01 -0.73886508779E+01  0.26205384590E+02  0.28863945559E+02  0.51100000000E-03 0. -1.
        -11    1    3    3    0    0 -0.15759278873E+02 -0.32213322537E+01 -0.13264636712E+02  0.20849039293E+02  0.51100000000E-03 0.  1.
         12    1    3    3    0    0 -0.41848482032E+01  0.85600092443E+01 -0.10777404438E+01  0.95889643451E+01  0.00000000000E+00 0. -1.
</event>
<event>
 7    1  0.6293596E-013  0.5930197E+02  0.7816164E-02  0.1266605E+00
        -11   -1    0    0    0    0  0.00000000000E+00  0.00000000000E+00  0.45593999997E+02  0.45594000000E+02  0.51100000000E-03 0. -1.
         11   -1    0    0    0    0 -0.00000000000E+00 -0.00000000000E+00 -0.45593999997E+02  0.45594000000E+02  0.51100000000E-03 0.  1.
    9900012    2    1    2    0    0  0.62038112684E+01 -0.31047873523E+02 -0.37763772591E+01  0.59301972500E+02  0.50000051926E+02 0.  0.
        -12    1    1    2    0    0 -0.62038112684E+01  0.31047873523E+02  0.37763772591E+01  0.31886027500E+02  0.00000000000E+00 0.  1.
         11    1    3    3    0    0  0.10230696571E+01 -0.22206462501E+02 -0.75853520376E+01  0.23488533674E+02  0.51100000000E-03 0. -1.
        -11    1    3    3    0    0 -0.12010136295E+02  0.54602747092E+01  0.45283774591E+00  0.13200872547E+02  0.51100000000E-03 0.  1.
        -12    1    3    3    0    0  0.17190877906E+02 -0.14301685731E+02  0.33561370327E+01  0.22612566279E+02  0.00000000000E+00 0.  1.
</event>
<event>
 7    1  0.6293596E-013  0.5930195E+02  0.7816164E-02  0.1266605E+00
        -11   -1    0    0    0    0  0.00000000000E+00  0.00000000000E+00  0.45593999997E+02  0.45594000000E+02  0.51100000000E-03 0.  1.
         11   -1    0    0    0    0 -0.00000000000E+00 -0.00000000000E+00 -0.45593999997E+02  0.45594000000E+02  0.51100000000E-03 0. -1.
    9900012    2    1    2    0    0  0.39070130797E+01 -0.32665381729E+00 -0.31644091536E+02  0.59301953160E+02  0.50000016656E+02 0.  0.
        -12    1    1    2    0    0 -0.39070130797E+01  0.32665381729E+00  0.31644091536E+02  0.31886046840E+02  0.00000000000E+00 0.  1.
         11    1    3    3    0    0  0.49687155480E+01 -0.31245399466E+01 -0.42203059621E+02  0.42609261032E+02  0.51100000000E-03 0. -1.
        -11    1    3    3    0    0  0.20155069173E+01 -0.32275306353E+01  0.89688039461E+01  0.97426211370E+01  0.51100000000E-03 0.  1.
         12    1    3    3    0    0 -0.30772093856E+01  0.60254167646E+01  0.15901641390E+01  0.69500709909E+01  0.00000000000E+00 0. -1.
</event>
<event>
 7    1  0.6293596E-013  0.5930190E+02  0.7816164E-02  0.1266605E+00
        -11   -1    0    0    0    0  0.00000000000E+00  0.00000000000E+00  0.45593999997E+02  0.45594000000E+02  0.51100000000E-03 0.  1.
         11   -1    0    0    0    0 -0.00000000000E+00 -0.00000000000E+00 -0.45593999997E+02  0.45594000000E+02  0.51100000000E-03 0. -1.
    9900012    2    1    2    0    0 -0.29994770711E+02  0.10404678274E+02  0.29630182708E+01  0.59301904641E+02  0.49999928167E+02 0.  0.
        -12    1    1    2    0    0  0.29994770711E+02 -0.10404678274E+02 -0.29630182708E+01  0.31886095359E+02  0.00000000000E+00 0.  1.
         11    1    3    3    0    0 -0.78001993716E+01 -0.19992311398E+02  0.27144650796E+01  0.21631087495E+02  0.51100000000E-03 0. -1.
        -11    1    3    3    0    0 -0.10295760555E+02  0.12915054771E+02 -0.23015172681E+00  0.16518301826E+02  0.51100000000E-03 0.  1.
         12    1    3    3    0    0 -0.11898810785E+02  0.17481934901E+02  0.47870491798E+00  0.21152515320E+02  0.00000000000E+00 0. -1.
</event>
<event>
 7    1  0.6293596E-013  0.5930158E+02  0.7816164E-02  0.1266606E+00
        -11   -1    0    0    0    0  0.00000000000E+00  0.00000000000E+00  0.45593999997E+02  0.45594000000E+02  0.51100000000E-03 0. -1.
         11   -1    0    0    0    0 -0.00000000000E+00 -0.00000000000E+00 -0.45593999997E+02  0.45594000000E+02  0.51100000000E-03 0.  1.
    9900012    2    1    2    0    0 -0.26133866387E+02 -0.13072991217E+02  0.12761725373E+02  0.59301581164E+02  0.49999338220E+02 0.  0.
        -12    1    1    2    0    0  0.26133866387E+02  0.13072991217E+02 -0.12761725373E+02  0.31886418836E+02  0.00000000000E+00 0.  1.
         11    1    3    3    0    0 -0.13155013169E+01  0.15278825121E+01  0.29400595459E+01  0.35649570938E+01  0.51100000000E-03 0. -1.
        -11    1    3    3    0    0  0.24441542601E+01 -0.92674621687E+01 -0.15450434667E+02  0.18181740201E+02  0.51100000000E-03 0.  1.
        -12    1    3    3    0    0 -0.27262519330E+02 -0.53334115600E+01  0.25272100494E+02  0.37554883869E+02  0.00000000000E+00 0.  1.
</event>
<event>
 7    1  0.6293596E-013  0.5930190E+02  0.7816164E-02  0.1266605E+00
        -11   -1    0    0    0    0  0.00000000000E+00  0.00000000000E+00  0.45593999997E+02  0.45594000000E+02  0.51100000000E-03 0. -1.
         11   -1    0    0    0    0 -0.00000000000E+00 -0.00000000000E+00 -0.45593999997E+02  0.45594000000E+02  0.51100000000E-03 0.  1.
    9900012    2    1    2    0    0 -0.10551632203E+02 -0.12873616766E+02  0.27196630478E+02  0.59301895500E+02  0.49999911497E+02 0.  0.
        -12    1    1    2    0    0  0.10551632203E+02  0.12873616766E+02 -0.27196630478E+02  0.31886104500E+02  0.00000000000E+00 0.  1.
         11    1    3    3    0    0 -0.21861310103E+02 -0.70806608976E+01 -0.87282042029E-01  0.22979561715E+02  0.51100000000E-03 0. -1.
        -11    1    3    3    0    0  0.11341621990E+02 -0.12613601997E+02  0.17278800324E+02  0.24213473224E+02  0.51100000000E-03 0.  1.
         12    1    3    3    0    0 -0.31944089897E-01  0.68206461281E+01  0.10005112196E+02  0.12108860561E+02  0.00000000000E+00 0. -1.
</event>
<event>
 7    1  0.6293596E-013  0.5930205E+02  0.7816164E-02  0.1266604E+00
        -11   -1    0    0    0    0  0.00000000000E+00  0.00000000000E+00  0.45593999997E+02  0.45594000000E+02  0.51100000000E-03 0.  1.
         11   -1    0    0    0    0 -0.00000000000E+00 -0.00000000000E+00 -0.45593999997E+02  0.45594000000E+02  0.51100000000E-03 0. -1.
    9900012    2    1    2    0    0 -0.87091917213E+01 -0.32769409029E+00 -0.30671753652E+02  0.59302048926E+02  0.50000191308E+02 0.  0.
        -12    1    1    2    0    0  0.87091917213E+01  0.32769409029E+00  0.30671753652E+02  0.31885951074E+02  0.00000000000E+00 0.  1.
         11    1    3    3    0    0  0.69767696540E+01  0.33121782865E+01 -0.25744740937E+02  0.26878197968E+02  0.51100000000E-03 0. -1.
        -11    1    3    3    0    0 -0.14057564366E+02  0.10569608060E+02 -0.43091784677E+01  0.18108029980E+02  0.51100000000E-03 0.  1.
         12    1    3    3    0    0 -0.16283970091E+01 -0.14209480437E+02 -0.61783424632E+00  0.14315820977E+02  0.00000000000E+00 0. -1.
</event>
<event>
 7    1  0.6293596E-013  0.5930196E+02  0.7816164E-02  0.1266605E+00
        -11   -1    0    0    0    0  0.00000000000E+00  0.00000000000E+00  0.45593999997E+02  0.45594000000E+02  0.51100000000E-03 0.  1.
         11   -1    0    0    0    0 -0.00000000000E+00 -0.00000000000E+00 -0.45593999997E+02  0.45594000000E+02  0.51100000000E-03 0. -1.
    9900012    2    1    2    0    0  0.23505932545E+02 -0.14369207613E+02 -0.16053556232E+02  0.59301958227E+02  0.50000025897E+02 0.  0.
        -12    1    1    2    0    0 -0.23505932545E+02  0.14369207613E+02  0.16053556232E+02  0.31886041773E+02  0.00000000000E+00 0.  1.
         11    1    3    3    0    0 -0.12067228227E+02  0.37209472110E+01  0.14008683124E-01  0.12627891420E+02  0.51100000000E-03 0. -1.
        -11    1    3    3    0    0  0.16095222965E+02 -0.18152435980E+02 -0.74834360541E+01  0.25388362486E+02  0.51100000000E-03 0.  1.
        -12    1    3    3    0    0  0.19477937807E+02  0.62281155837E-01 -0.85841288614E+01  0.21285704321E+02  0.00000000000E+00 0.  1.
</event>
<event>
 7    1  0.6293596E-013  0.5930194E+02  0.7816164E-02  0.1266605E+00
        -11   -1    0    0    0    0  0.00000000000E+00  0.00000000000E+00  0.45593999997E+02  0.45594000000E+02  0.51100000000E-03 0.  1.
         11   -1    0    0    0    0 -0.00000000000E+00 -0.00000000000E+00 -0.45593999997E+02  0.45594000000E+02  0.51100000000E-03 0. -1.
    9900012    2    1    2    0    0 -0.27428562768E+02 -0.78868663759E+01 -0.14219434552E+02  0.59301936653E+02  0.49999986551E+02 0.  0.
        -12    1    1    2    0    0  0.27428562768E+02  0.78868663759E+01  0.14219434552E+02  0.31886063347E+02  0.00000000000E+00 0.  1.
         11    1    3    3    0    0 -0.25604904077E+02  0.13760188240E+02 -0.12522379865E+02  0.31650653879E+02  0.51100000000E-03 0. -1.
        -11    1    3    3    0    0 -0.12295582931E+01 -0.15436495011E+02  0.69622621560E+01  0.16978524271E+02  0.51100000000E-03 0.  1.
        -12    1    3    3    0    0 -0.59410039794E+00 -0.62105596044E+01 -0.86593168429E+01  0.10672758503E+02  0.00000000000E+00 0.  1.
</event>
<event>
 7    1  0.6293596E-013  0.5930195E+02  0.7816164E-02  0.1266605E+00
        -11   -1    0    0    0    0  0.00000000000E+00  0.00000000000E+00  0.45593999997E+02  0.45594000000E+02  0.51100000000E-03 0.  1.
         11   -1    0    0    0    0 -0.00000000000E+00 -0.00000000000E+00 -0.45593999997E+02  0.45594000000E+02  0.51100000000E-03 0. -1.
    9900012    2    1    2    0    0  0.31412609820E+02 -0.27175006076E+01 -0.47521648988E+01  0.59301953891E+02  0.50000017988E+02 0.  0.
        -12    1    1    2    0    0 -0.31412609820E+02  0.27175006076E+01  0.47521648988E+01  0.31886046109E+02  0.00000000000E+00 0.  1.
         11    1    3    3    0    0  0.87224933174E+01 -0.19755155941E+02  0.71525214072E+00  0.21606935503E+02  0.51100000000E-03 0.  1.
        -11    1    3    3    0    0  0.78526783185E+01  0.24783508156E+01 -0.13164878223E+02  0.15528064864E+02  0.51100000000E-03 0. -1.
         12    1    3    3    0    0  0.14837438184E+02  0.14559304518E+02  0.76974611831E+01  0.22166953525E+02  0.00000000000E+00 0. -1.
</event>
<event>
 7    1  0.6293596E-013  0.5930194E+02  0.7816164E-02  0.1266605E+00
        -11   -1    0    0    0    0  0.00000000000E+00  0.00000000000E+00  0.45593999997E+02  0.45594000000E+02  0.51100000000E-03 0. -1.
         11   -1    0    0    0    0 -0.00000000000E+00 -0.00000000000E+00 -0.45593999997E+02  0.45594000000E+02  0.51100000000E-03 0.  1.
    9900012    2    1    2    0    0  0.13124455035E+02  0.21345950841E+02  0.19718508916E+02  0.59301944567E+02  0.50000000983E+02 0.  0.
        -12    1    1    2    0    0 -0.13124455035E+02 -0.21345950841E+02 -0.19718508916E+02  0.31886055433E+02  0.00000000000E+00 0.  1.
         11    1    3    3    0    0 -0.13822610019E+02 -0.11604050829E+01  0.11282394460E+02  0.17880254828E+02  0.51100000000E-03 0. -1.
        -11    1    3    3    0    0  0.13067561791E+01  0.11279911429E+02 -0.20361534694E+01  0.11536461103E+02  0.51100000000E-03 0.  1.
         12    1    3    3    0    0  0.25640308874E+02  0.11226444494E+02  0.10472267925E+02  0.29885228636E+02  0.00000000000E+00 0. -1.
</event>
<event>
 7    1  0.6293596E-013  0.5930196E+02  0.7816164E-02  0.1266605E+00
        -11   -1    0    0    0    0  0.00000000000E+00  0.00000000000E+00  0.45593999997E+02  0.45594000000E+02  0.51100000000E-03 0.  1.
         11   -1    0    0    0    0 -0.00000000000E+00 -0.00000000000E+00 -0.45593999997E+02  0.45594000000E+02  0.51100000000E-03 0. -1.
    9900012    2    1    2    0    0  0.15237519627E+02 -0.22487940989E+02 -0.16698212855E+02  0.59301955923E+02  0.50000021694E+02 0.  0.
        -12    1    1    2    0    0 -0.15237519627E+02  0.22487940989E+02  0.16698212855E+02  0.31886044077E+02  0.00000000000E+00 0.  1.
         11    1    3    3    0    0  0.29349725592E+02 -0.71002753848E+01 -0.50956061657E+01  0.30623283712E+02  0.51100000000E-03 0. -1.
        -11    1    3    3    0    0 -0.13630029503E+02 -0.40678518810E+01 -0.32180501386E+01  0.14583585640E+02  0.51100000000E-03 0.  1.
         12    1    3    3    0    0 -0.48217646228E+00 -0.11319813724E+02 -0.83845565511E+01  0.14095086571E+02  0.00000000000E+00 0. -1.
</event>
<event>
 7    1  0.6293596E-013  0.5930188E+02  0.7816164E-02  0.1266605E+00
        -11   -1    0    0    0    0  0.00000000000E+00  0.00000000000E+00  0.45593999997E+02  0.45594000000E+02  0.51100000000E-03 0. -1.
         11   -1    0    0    0    0 -0.00000000000E+00 -0.00000000000E+00 -0.45593999997E+02  0.45594000000E+02  0.51100000000E-03 0.  1.
    9900012    2    1    2    0    0 -0.46793387850E+01  0.28672083914E+02 -0.13143050490E+02  0.59301884156E+02  0.49999890809E+02 0.  0.
        -12    1    1    2    0    0  0.46793387850E+01 -0.28672083914E+02  0.13143050490E+02  0.31886115844E+02  0.00000000000E+00 0.  1.
         11    1    3    3    0    0 -0.10800367232E+02 -0.74050904378E+01  0.69851832224E+01  0.14841700767E+02  0.51100000000E-03 0. -1.
        -11    1    3    3    0    0 -0.48746545545E+01  0.16245286176E+02 -0.89921213857E+01  0.19197130704E+02  0.51100000000E-03 0.  1.
         12    1    3    3    0    0  0.10995683002E+02  0.19831888175E+02 -0.11136112327E+02  0.25263052686E+02  0.00000000000E+00 0. -1.
</event>
<event>
 7    1  0.6293596E-013  0.5930194E+02  0.7816164E-02  0.1266605E+00
        -11   -1    0    0    0    0  0.00000000000E+00  0.00000000000E+00  0.45593999997E+02  0.45594000000E+02  0.51100000000E-03 0. -1.
         11   -1    0    0    0    0 -0.00000000000E+00 -0.00000000000E+00 -0.45593999997E+02  0.45594000000E+02  0.51100000000E-03 0.  1.
    9900012    2    1    2    0    0 -0.13027720765E+02 -0.62361386085E+01  0.28427274717E+02  0.59301939081E+02  0.49999990979E+02 0.  0.
        -12    1    1    2    0    0  0.13027720765E+02  0.62361386085E+01 -0.28427274717E+02  0.31886060919E+02  0.00000000000E+00 0.  1.
         11    1    3    3    0    0 -0.11380617657E+02 -0.44006170713E+00  0.20427512973E+01  0.11570866246E+02  0.51100000000E-03 0. -1.
        -11    1    3    3    0    0  0.90871799514E+01  0.14000024009E+02  0.15255189192E+02  0.22611906361E+02  0.51100000000E-03 0.  1.
        -12    1    3    3    0    0 -0.10734283060E+02 -0.19796100910E+02  0.11129334228E+02  0.25119166475E+02  0.00000000000E+00 0.  1.
</event>
<event>
 7    1  0.6293596E-013  0.5930222E+02  0.7816164E-02  0.1266604E+00
        -11   -1    0    0    0    0  0.00000000000E+00  0.00000000000E+00  0.45593999997E+02  0.45594000000E+02  0.51100000000E-03 0.  1.
         11   -1    0    0    0    0 -0.00000000000E+00 -0.00000000000E+00 -0.45593999997E+02  0.45594000000E+02  0.51100000000E-03 0. -1.
    9900012    2    1    2    0    0  0.11093425242E+02  0.10067830311E+02 -0.28147425932E+02  0.59302221393E+02  0.50000505846E+02 0.  0.
        -12    1    1    2    0    0 -0.11093425242E+02 -0.10067830311E+02  0.28147425932E+02  0.31885778607E+02  0.00000000000E+00 0.  1.
         11    1    3    3    0    0 -0.98149185237E+01  0.68429311196E+01 -0.28399161123E+02  0.30816727352E+02  0.51100000000E-03 0. -1.
        -11    1    3    3    0    0  0.21955669362E+02  0.60355463262E+01 -0.41636476231E+01  0.23147682354E+02  0.51100000000E-03 0.  1.
         12    1    3    3    0    0 -0.10473255962E+01 -0.28106471345E+01  0.44153828140E+01  0.53378116877E+01  0.00000000000E+00 0. -1.
</event>
<event>
 7    1  0.6293596E-013  0.5930195E+02  0.7816164E-02  0.1266605E+00
        -11   -1    0    0    0    0  0.00000000000E+00  0.00000000000E+00  0.45593999997E+02  0.45594000000E+02  0.51100000000E-03 0.  1.
         11   -1    0    0    0    0 -0.00000000000E+00 -0.00000000000E+00 -0.45593999997E+02  0.45594000000E+02  0.51100000000E-03 0. -1.
    9900012    2    1    2    0    0 -0.68701818650E+01  0.22628669786E+02  0.21388409571E+02  0.59301950400E+02  0.50000011621E+02 0.  0.
        -12    1    1    2    0    0  0.68701818650E+01 -0.22628669786E+02 -0.21388409571E+02  0.31886049600E+02  0.00000000000E+00 0.  1.
         11    1    3    3    0    0 -0.16815199661E+02  0.48310273306E+01  0.25352911541E+01  0.17678163542E+02  0.51100000000E-03 0. -1.
        -11    1    3    3    0    0  0.20688568178E+02  0.11000817487E+02  0.75646859084E+01  0.24622333598E+02  0.51100000000E-03 0.  1.
        -12    1    3    3    0    0 -0.10743550382E+02  0.67968249679E+01  0.11288432508E+02  0.17001453260E+02  0.00000000000E+00 0.  1.
</event>
<event>
 7    1  0.6293596E-013  0.5930235E+02  0.7816164E-02  0.1266603E+00
        -11   -1    0    0    0    0  0.00000000000E+00  0.00000000000E+00  0.45593999997E+02  0.45594000000E+02  0.51100000000E-03 0. -1.
         11   -1    0    0    0    0 -0.00000000000E+00 -0.00000000000E+00 -0.45593999997E+02  0.45594000000E+02  0.51100000000E-03 0.  1.
    9900012    2    1    2    0    0  0.96727021131E+01 -0.26964034091E+02  0.14002660280E+02  0.59302348124E+02  0.50000736969E+02 0.  0.
        -12    1    1    2    0    0 -0.96727021131E+01  0.26964034091E+02 -0.14002660280E+02  0.31885651876E+02  0.00000000000E+00 0.  1.
         11    1    3    3    0    0 -0.91875674900E+01  0.67640308638E+01  0.52761458155E+01  0.12569853811E+02  0.51100000000E-03 0. -1.
        -11    1    3    3    0    0  0.21236262046E+02 -0.23460542988E+02 -0.19837120505E+01  0.31706639947E+02  0.51100000000E-03 0.  1.
         12    1    3    3    0    0 -0.23759924425E+01 -0.10267521967E+02  0.10710226515E+02  0.15025854366E+02  0.00000000000E+00 0. -1.
</event>
<event>
 7    1  0.7535183E-013  0.5930196E+02  0.7816164E-02  0.1266605E+00
        -11   -1    0    0    0    0  0.00000000000E+00  0.00000000000E+00  0.45593999997E+02  0.45594000000E+02  0.51100000000E-03 0.  1.
         11   -1    0    0    0    0 -0.00000000000E+00 -0.00000000000E+00 -0.45593999997E+02  0.45594000000E+02  0.51100000000E-03 0. -1.
    9900012    2    1    2    0    0 -0.25439329873E+02 -0.17668151028E+02 -0.75760472769E+01  0.59301959834E+02  0.50000028827E+02 0.  0.
        -12    1    1    2    0    0  0.25439329873E+02  0.17668151028E+02  0.75760472769E+01  0.31886040166E+02  0.00000000000E+00 0.  1.
         11    1    3    3    0    0 -0.24624907345E+02 -0.87947950482E+00  0.90244835961E+01  0.26241205201E+02  0.51100000000E-03 0. -1.
        -11    1    3    3    0    0  0.86912451757E+01  0.66359718233E+00 -0.52016131259E+01  0.10150609996E+02  0.51100000000E-03 0.  1.
         12    1    3    3    0    0 -0.95056677034E+01 -0.17452268706E+02 -0.11398917747E+02  0.22910144637E+02  0.00000000000E+00 0. -1.
</event>
<event>
 7    1  0.6293596E-013  0.5930196E+02  0.7816164E-02  0.1266605E+00
        -11   -1    0    0    0    0  0.00000000000E+00  0.00000000000E+00  0.45593999997E+02  0.45594000000E+02  0.51100000000E-03 0.  1.
         11   -1    0    0    0    0 -0.00000000000E+00 -0.00000000000E+00 -0.45593999997E+02  0.45594000000E+02  0.51100000000E-03 0. -1.
    9900012    2    1    2    0    0 -0.16451740796E+02  0.12573286126E+02 -0.24248144229E+02  0.59301956066E+02  0.50000021955E+02 0.  0.
        -12    1    1    2    0    0  0.16451740796E+02 -0.12573286126E+02  0.24248144229E+02  0.31886043934E+02  0.00000000000E+00 0.  1.
         11    1    3    3    0    0 -0.48325168992E+01  0.54952985261E+00 -0.52371062131E+00  0.48917763355E+01  0.51100000000E-03 0. -1.
        -11    1    3    3    0    0  0.89897862159E+01  0.22095673418E+02 -0.20086538321E+02  0.31184997386E+02  0.51100000000E-03 0.  1.
        -12    1    3    3    0    0 -0.20609010113E+02 -0.10071917145E+02 -0.36378952864E+01  0.23225182344E+02  0.00000000000E+00 0.  1.
</event>
<event>
 7    1  0.6293596E-013  0.5930216E+02  0.7816164E-02  0.1266604E+00
        -11   -1    0    0    0    0  0.00000000000E+00  0.00000000000E+00  0.45593999997E+02  0.45594000000E+02  0.51100000000E-03 0.  1.
         11   -1    0    0    0    0 -0.00000000000E+00 -0.00000000000E+00 -0.45593999997E+02  0.45594000000E+02  0.51100000000E-03 0. -1.
    9900012    2    1    2    0    0 -0.61381680280E+01  0.78569663120E+01 -0.30286927765E+02  0.59302156435E+02  0.50000387379E+02 0.  0.
        -12    1    1    2    0    0  0.61381680280E+01 -0.78569663120E+01  0.30286927765E+02  0.31885843565E+02  0.00000000000E+00 0.  1.
         11    1    3    3    0    0  0.19301809363E+01  0.15642280451E+02 -0.15990851043E+02  0.22452479897E+02  0.51100000000E-03 0. -1.
        -11    1    3    3    0    0 -0.31238180029E+01 -0.98208833300E+01  0.85472114093E+01  0.13388906282E+02  0.51100000000E-03 0.  1.
         12    1    3    3    0    0 -0.49445309613E+01  0.20355691906E+01 -0.22843288132E+02  0.23460770256E+02  0.00000000000E+00 0. -1.
</event>
<event>
 7    1  0.6293596E-013  0.5930195E+02  0.7816164E-02  0.1266605E+00
        -11   -1    0    0    0    0  0.00000000000E+00  0.00000000000E+00  0.45593999997E+02  0.45594000000E+02  0.51100000000E-03 0.  1.
         11   -1    0    0    0    0 -0.00000000000E+00 -0.00000000000E+00 -0.45593999997E+02  0.45594000000E+02  0.51100000000E-03 0. -1.
    9900012    2    1    2    0    0 -0.28068323868E+01 -0.31681618588E+02  0.22620153123E+01  0.59301953245E+02  0.50000016809E+02 0.  0.
        -12    1    1    2    0    0  0.28068323868E+01  0.31681618588E+02 -0.22620153123E+01  0.31886046755E+02  0.00000000000E+00 0.  1.
         11    1    3    3    0    0  0.28771650465E+01 -0.20956974699E+02 -0.90226885854E+01  0.22997429787E+02  0.51100000000E-03 0. -1.
        -11    1    3    3    0    0  0.32434265407E+01  0.49953468971E+01  0.16456564826E+02  0.17501195173E+02  0.51100000000E-03 0.  1.
        -12    1    3    3    0    0 -0.89274239740E+01 -0.15719990787E+02 -0.51718609280E+01  0.18803328285E+02  0.00000000000E+00 0.  1.
</event>
<event>
 7    1  0.6293596E-013  0.5930194E+02  0.7816164E-02  0.1266605E+00
        -11   -1    0    0    0    0  0.00000000000E+00  0.00000000000E+00  0.45593999997E+02  0.45594000000E+02  0.51100000000E-03 0. -1.
         11   -1    0    0    0    0 -0.00000000000E+00 -0.00000000000E+00 -0.45593999997E+02  0.45594000000E+02  0.51100000000E-03 0.  1.
    9900012    2    1    2    0    0  0.23001102279E+02  0.17497602848E+02  0.13472347088E+02  0.59301938036E+02  0.49999989073E+02 0.  0.
        -12    1    1    2    0    0 -0.23001102279E+02 -0.17497602848E+02 -0.13472347088E+02  0.31886061964E+02  0.00000000000E+00 0.  1.
         11    1    3    3    0    0  0.66666059071E+01  0.17950079486E+02 -0.79512264771E+01  0.20733330428E+02  0.51100000000E-03 0. -1.
        -11    1    3    3    0    0 -0.42261657441E+01 -0.87572288138E+01  0.47316637046E+01  0.10813795590E+02  0.51100000000E-03 0.  1.
         12    1    3    3    0    0  0.20560662116E+02  0.83047521755E+01  0.16691909861E+02  0.27754812018E+02  0.00000000000E+00 0. -1.
</event>
<event>
 7    1  0.6293596E-013  0.5930194E+02  0.7816164E-02  0.1266605E+00
        -11   -1    0    0    0    0  0.00000000000E+00  0.00000000000E+00  0.45593999997E+02  0.45594000000E+02  0.51100000000E-03 0. -1.
         11   -1    0    0    0    0 -0.00000000000E+00 -0.00000000000E+00 -0.45593999997E+02  0.45594000000E+02  0.51100000000E-03 0.  1.
    9900012    2    1    2    0    0  0.84550892567E+01  0.40551951929E+01  0.30476020062E+02  0.59301938136E+02  0.49999989255E+02 0.  0.
        -12    1    1    2    0    0 -0.84550892567E+01 -0.40551951929E+01 -0.30476020062E+02  0.31886061864E+02  0.00000000000E+00 0.  1.
         11    1    3    3    0    0  0.63626370016E+01 -0.20319536577E+02  0.37700582408E+01  0.21623599508E+02  0.51100000000E-03 0.  1.
        -11    1    3    3    0    0  0.53530727661E+01  0.10593353162E+02  0.16017159600E+02  0.19935494004E+02  0.51100000000E-03 0. -1.
        -12    1    3    3    0    0 -0.32606205110E+01  0.13781378607E+02  0.10688802220E+02  0.17742844624E+02  0.00000000000E+00 0.  1.
</event>
<event>
 7    1  0.6293596E-013  0.5930233E+02  0.7816164E-02  0.1266603E+00
        -11   -1    0    0    0    0  0.00000000000E+00  0.00000000000E+00  0.45593999997E+02  0.45594000000E+02  0.51100000000E-03 0.  1.
         11   -1    0    0    0    0 -0.00000000000E+00 -0.00000000000E+00 -0.45593999997E+02  0.45594000000E+02  0.51100000000E-03 0. -1.
    9900012    2    1    2    0    0 -0.59934418462E+01 -0.60123895678E+01 -0.30734766096E+02  0.59302328917E+02  0.50000701940E+02 0.  0.
        -12    1    1    2    0    0  0.59934418462E+01  0.60123895678E+01  0.30734766096E+02  0.31885671083E+02  0.00000000000E+00 0.  1.
         11    1    3    3    0    0 -0.17872292973E+02 -0.15457191477E+02 -0.19190906253E+02  0.30440671930E+02  0.51100000000E-03 0. -1.
        -11    1    3    3    0    0  0.66562220057E+01  0.15666901310E+02 -0.33991445867E+01  0.17358319972E+02  0.51100000000E-03 0.  1.
         12    1    3    3    0    0  0.52226291210E+01 -0.62220994010E+01 -0.81447152555E+01  0.11503337015E+02  0.00000000000E+00 0. -1.
</event>
<event>
 7    1  0.6293596E-013  0.5930195E+02  0.7816164E-02  0.1266605E+00
        -11   -1    0    0    0    0  0.00000000000E+00  0.00000000000E+00  0.45593999997E+02  0.45594000000E+02  0.51100000000E-03 0.  1.
         11   -1    0    0    0    0 -0.00000000000E+00 -0.00000000000E+00 -0.45593999997E+02  0.45594000000E+02  0.51100000000E-03 0. -1.
    9900012    2    1    2    0    0 -0.29473601776E+02  0.36412193473E+01 -0.11608988347E+02  0.59301948341E+02  0.50000007866E+02 0.  0.
        -12    1    1    2    0    0  0.29473601776E+02 -0.36412193473E+01  0.11608988347E+02  0.31886051659E+02  0.00000000000E+00 0.  1.
         11    1    3    3    0    0 -0.12624597174E+02  0.14270864231E+02 -0.16525428960E+01  0.19125086091E+02  0.51100000000E-03 0. -1.
        -11    1    3    3    0    0 -0.12819686079E+01 -0.17380037474E+02  0.43735281868E+01  0.17967662484E+02  0.51100000000E-03 0.  1.
        -12    1    3    3    0    0 -0.15567035993E+02  0.67503925897E+01 -0.14329973638E+02  0.22209199765E+02  0.00000000000E+00 0.  1.
</event>
<event>
 7    1  0.6293596E-013  0.5930194E+02  0.7816164E-02  0.1266605E+00
        -11   -1    0    0    0    0  0.00000000000E+00  0.00000000000E+00  0.45593999997E+02  0.45594000000E+02  0.51100000000E-03 0.  1.
         11   -1    0    0    0    0 -0.00000000000E+00 -0.00000000000E+00 -0.45593999997E+02  0.45594000000E+02  0.51100000000E-03 0. -1.
    9900012    2    1    2    0    0  0.11751596321E+02 -0.21964196622E+02 -0.19904639161E+02  0.59301943338E+02  0.49999998742E+02 0.  0.
        -12    1    1    2    0    0 -0.11751596321E+02  0.21964196622E+02  0.19904639161E+02  0.31886056662E+02  0.00000000000E+00 0.  1.
         11    1    3    3    0    0 -0.78342469758E+00  0.54856314571E+01 -0.42542007133E+01  0.69859953271E+01  0.51100000000E-03 0. -1.
        -11    1    3    3    0    0 -0.12073383114E+01 -0.34456006931E+02 -0.10166214620E+02  0.35944763171E+02  0.51100000000E-03 0.  1.
        -12    1    3    3    0    0  0.13742359330E+02  0.70061788524E+01 -0.54842238281E+01  0.16371184840E+02  0.00000000000E+00 0.  1.
</event>
<event>
 7    1  0.6293596E-013  0.5930193E+02  0.7816164E-02  0.1266605E+00
        -11   -1    0    0    0    0  0.00000000000E+00  0.00000000000E+00  0.45593999997E+02  0.45594000000E+02  0.51100000000E-03 0. -1.
         11   -1    0    0    0    0 -0.00000000000E+00 -0.00000000000E+00 -0.45593999997E+02  0.45594000000E+02  0.51100000000E-03 0.  1.
    9900012    2    1    2    0    0 -0.12261429628E+02  0.25430832473E+02  0.14820649973E+02  0.59301928395E+02  0.49999971489E+02 0.  0.
        -12    1    1    2    0    0  0.12261429628E+02 -0.25430832473E+02 -0.14820649973E+02  0.31886071605E+02  0.00000000000E+00 0.  1.
         11    1    3    3    0    0 -0.10092378700E+02 -0.80538590026E+01  0.48626003142E+01  0.13797305343E+02  0.51100000000E-03 0. -1.
        -11    1    3    3    0    0 -0.85141741125E+01  0.30998278916E+02 -0.14909658595E+01  0.32180855117E+02  0.51100000000E-03 0.  1.
        -12    1    3    3    0    0  0.63451231845E+01  0.24864125598E+01  0.11449015518E+02  0.13323767935E+02  0.00000000000E+00 0.  1.
</event>
<event>
 7    1  0.6293596E-013  0.5930196E+02  0.7816164E-02  0.1266605E+00
        -11   -1    0    0    0    0  0.00000000000E+00  0.00000000000E+00  0.45593999997E+02  0.45594000000E+02  0.51100000000E-03 0.  1.
         11   -1    0    0    0    0 -0.00000000000E+00 -0.00000000000E+00 -0.45593999997E+02  0.45594000000E+02  0.51100000000E-03 0. -1.
    9900012    2    1    2    0    0 -0.93871059775E+01 -0.95479375513E+01 -0.28938528290E+02  0.59301964033E+02  0.50000036485E+02 0.  0.
        -12    1    1    2    0    0  0.93871059775E+01  0.95479375513E+01  0.28938528290E+02  0.31886035967E+02  0.00000000000E+00 0.  1.
         11    1    3    3    0    0 -0.15561758747E+02 -0.91522338035E+01 -0.34418679770E+02  0.38866145117E+02  0.51100000000E-03 0. -1.
        -11    1    3    3    0    0  0.71706713384E+01 -0.24040658741E+01  0.11639731856E+02  0.13880973241E+02  0.51100000000E-03 0.  1.
        -12    1    3    3    0    0 -0.99601856897E+00  0.20083621263E+01 -0.61595803755E+01  0.65548456750E+01  0.00000000000E+00 0.  1.
</event>
<event>
 7    1  0.6293596E-013  0.5930195E+02  0.7816164E-02  0.1266605E+00
        -11   -1    0    0    0    0  0.00000000000E+00  0.00000000000E+00  0.45593999997E+02  0.45594000000E+02  0.51100000000E-03 0.  1.
         11   -1    0    0    0    0 -0.00000000000E+00 -0.00000000000E+00 -0.45593999997E+02  0.45594000000E+02  0.51100000000E-03 0. -1.
    9900012    2    1    2    0    0 -0.10600143199E+02 -0.28665602901E+02  0.90906607753E+01  0.59301953854E+02  0.50000017920E+02 0.  0.
        -12    1    1    2    0    0  0.10600143199E+02  0.28665602901E+02 -0.90906607753E+01  0.31886046146E+02  0.00000000000E+00 0.  1.
         11    1    3    3    0    0  0.86480988023E+01 -0.78486062286E+01  0.35751508536E+01  0.12213596379E+02  0.51100000000E-03 0. -1.
        -11    1    3    3    0    0 -0.19329987027E+02 -0.14947570566E+02  0.19925007646E+02  0.31529100752E+02  0.51100000000E-03 0.  1.
        -12    1    3    3    0    0  0.81745025254E-01 -0.58694261065E+01 -0.14409497725E+02  0.15559256722E+02  0.00000000000E+00 0.  1.
</event>
<event>
 7    1  0.6293596E-013  0.5930196E+02  0.7816164E-02  0.1266605E+00
        -11   -1    0    0    0    0  0.00000000000E+00  0.00000000000E+00  0.45593999997E+02  0.45594000000E+02  0.51100000000E-03 0. -1.
         11   -1    0    0    0    0 -0.00000000000E+00 -0.00000000000E+00 -0.45593999997E+02  0.45594000000E+02  0.51100000000E-03 0.  1.
    9900012    2    1    2    0    0 -0.15718122842E+02 -0.27680564606E+02 -0.18564351793E+01  0.59301962395E+02  0.50000033498E+02 0.  0.
        -12    1    1    2    0    0  0.15718122842E+02  0.27680564606E+02  0.18564351793E+01  0.31886037605E+02  0.00000000000E+00 0.  1.
         11    1    3    3    0    0 -0.19972080305E+02 -0.26280782152E+02  0.82468471375E+01  0.34023139041E+02  0.51100000000E-03 0. -1.
        -11    1    3    3    0    0  0.12626005351E+02 -0.27450908561E+01 -0.11886965750E+01  0.12975536010E+02  0.51100000000E-03 0.  1.
        -12    1    3    3    0    0 -0.83720478880E+01  0.13453084025E+01 -0.89145857418E+01  0.12303287345E+02  0.00000000000E+00 0.  1.
</event>
<event>
 7    1  0.6293596E-013  0.5930187E+02  0.7816164E-02  0.1266605E+00
        -11   -1    0    0    0    0  0.00000000000E+00  0.00000000000E+00  0.45593999997E+02  0.45594000000E+02  0.51100000000E-03 0. -1.
         11   -1    0    0    0    0 -0.00000000000E+00 -0.00000000000E+00 -0.45593999997E+02  0.45594000000E+02  0.51100000000E-03 0.  1.
    9900012    2    1    2    0    0  0.15097703590E+02  0.13803291984E+02 -0.24459224394E+02  0.59301871649E+02  0.49999867998E+02 0.  0.
        -12    1    1    2    0    0 -0.15097703590E+02 -0.13803291984E+02  0.24459224394E+02  0.31886128351E+02  0.00000000000E+00 0.  1.
         11    1    3    3    0    0 -0.98523226685E+00  0.18772921112E+02 -0.22799508208E+01  0.18936510389E+02  0.51100000000E-03 0. -1.
        -11    1    3    3    0    0  0.22271224522E+02 -0.67083646437E+01 -0.76627101785E+01  0.24489318599E+02  0.51100000000E-03 0.  1.
        -12    1    3    3    0    0 -0.61882886651E+01  0.17387355159E+01 -0.14516563395E+02  0.15876042661E+02  0.00000000000E+00 0.  1.
</event>
<event>
 7    1  0.6293596E-013  0.5930184E+02  0.7816164E-02  0.1266605E+00
        -11   -1    0    0    0    0  0.00000000000E+00  0.00000000000E+00  0.45593999997E+02  0.45594000000E+02  0.51100000000E-03 0. -1.
         11   -1    0    0    0    0 -0.00000000000E+00 -0.00000000000E+00 -0.45593999997E+02  0.45594000000E+02  0.51100000000E-03 0.  1.
    9900012    2    1    2    0    0  0.17356950154E+02  0.21703552428E+02  0.15633916477E+02  0.59301839192E+02  0.49999808805E+02 0.  0.
        -12    1    1    2    0    0 -0.17356950154E+02 -0.21703552428E+02 -0.15633916477E+02  0.31886160808E+02  0.00000000000E+00 0.  1.
         11    1    3    3    0    0  0.18632470201E+02  0.26024983822E+02  0.73982134446E+01  0.32851214455E+02  0.51100000000E-03 0. -1.
        -11    1    3    3    0    0  0.44748800312E+01 -0.13528437731E+02  0.53264460769E+01  0.15212304454E+02  0.51100000000E-03 0.  1.
         12    1    3    3    0    0 -0.57504000786E+01  0.92070063373E+01  0.29092569552E+01  0.11238320283E+02  0.00000000000E+00 0. -1.
</event>
<event>
 7    1  0.6293596E-013  0.5930192E+02  0.7816164E-02  0.1266605E+00
        -11   -1    0    0    0    0  0.00000000000E+00  0.00000000000E+00  0.45593999997E+02  0.45594000000E+02  0.51100000000E-03 0. -1.
         11   -1    0    0    0    0 -0.00000000000E+00 -0.00000000000E+00 -0.45593999997E+02  0.45594000000E+02  0.51100000000E-03 0.  1.
    9900012    2    1    2    0    0 -0.20384933269E+02  0.76569488518E+01  0.23292654523E+02  0.59301919576E+02  0.49999955405E+02 0.  0.
        -12    1    1    2    0    0  0.20384933269E+02 -0.76569488518E+01 -0.23292654523E+02  0.31886080424E+02  0.00000000000E+00 0.  1.
         11    1    3    3    0    0 -0.12874912330E+02 -0.15125974786E+02  0.20018387836E+02  0.28200963327E+02  0.51100000000E-03 0. -1.
        -11    1    3    3    0    0 -0.26728051474E+01  0.93770458482E+01 -0.82502000985E+01  0.12772575235E+02  0.51100000000E-03 0.  1.
         12    1    3    3    0    0 -0.48372157919E+01  0.13405877790E+02  0.11524466785E+02  0.18328381014E+02  0.00000000000E+00 0. -1.
</event>
