<event>
 7    1  0.2944263E-013  0.7246157E+02  0.7816164E-02  0.1226708E+00
        -11   -1    0    0    0    0  0.00000000000E+00  0.00000000000E+00  0.45593999997E+02  0.45594000000E+02  0.51100000000E-03 0.  1.
         11   -1    0    0    0    0 -0.00000000000E+00 -0.00000000000E+00 -0.45593999997E+02  0.45594000000E+02  0.51100000000E-03 0. -1.
    9900012    2    1    2    0    0  0.16827034638E+02  0.82158350226E+01 -0.17391239681E+00  0.72461567202E+02  0.69999995972E+02 0.  0.
         12    1    1    2    0    0 -0.16827034638E+02 -0.82158350226E+01  0.17391239681E+00  0.18726432798E+02  0.00000000000E+00 0. -1.
         11    1    3    3    0    0 -0.21558880190E+02  0.10121529635E+02 -0.72551525062E+01  0.24897146731E+02  0.51100000000E-03 0. -1.
        -11    1    3    3    0    0  0.74910911079E+01  0.88138485276E+01  0.92210260308E+01  0.14792825733E+02  0.51100000000E-03 0.  1.
        -12    1    3    3    0    0  0.30894823720E+02 -0.10719543140E+02 -0.21397859214E+01  0.32771594737E+02  0.00000000000E+00 0.  1.
</event>
<event>
 7    1  0.2944263E-013  0.7246149E+02  0.7816164E-02  0.1226708E+00
        -11   -1    0    0    0    0  0.00000000000E+00  0.00000000000E+00  0.45593999997E+02  0.45594000000E+02  0.51100000000E-03 0. -1.
         11   -1    0    0    0    0 -0.00000000000E+00 -0.00000000000E+00 -0.45593999997E+02  0.45594000000E+02  0.51100000000E-03 0.  1.
    9900012    2    1    2    0    0 -0.89035352757E+01  0.16353885324E+02  0.19898880200E+01  0.72461490450E+02  0.69999895987E+02 0.  0.
         12    1    1    2    0    0  0.89035352757E+01 -0.16353885324E+02 -0.19898880200E+01  0.18726509550E+02  0.00000000000E+00 0. -1.
         11    1    3    3    0    0 -0.20158892073E+02  0.20007506170E+02  0.17128640354E+01  0.28453736771E+02  0.51100000000E-03 0. -1.
        -11    1    3    3    0    0  0.24942470911E+01  0.12831348444E+02  0.15243556291E+02  0.20080607065E+02  0.51100000000E-03 0.  1.
        -12    1    3    3    0    0  0.87611097066E+01 -0.16484969290E+02 -0.14966532306E+02  0.23927146613E+02  0.00000000000E+00 0.  1.
</event>
<event>
 7    1  0.2944263E-013  0.7246158E+02  0.7816164E-02  0.1226708E+00
        -11   -1    0    0    0    0  0.00000000000E+00  0.00000000000E+00  0.45593999997E+02  0.45594000000E+02  0.51100000000E-03 0.  1.
         11   -1    0    0    0    0 -0.00000000000E+00 -0.00000000000E+00 -0.45593999997E+02  0.45594000000E+02  0.51100000000E-03 0. -1.
    9900012    2    1    2    0    0  0.49151861552E+01 -0.42851435571E+01  0.17554410268E+02  0.72461579357E+02  0.70000011805E+02 0.  0.
         12    1    1    2    0    0 -0.49151861552E+01  0.42851435571E+01 -0.17554410268E+02  0.18726420643E+02  0.00000000000E+00 0. -1.
         11    1    3    3    0    0  0.16449655003E+02 -0.19895193790E+00 -0.20281116893E+02  0.26114257299E+02  0.51100000000E-03 0. -1.
        -11    1    3    3    0    0 -0.29710495701E+01  0.55565153831E+01 -0.77005100915E-01  0.63014227597E+01  0.51100000000E-03 0.  1.
        -12    1    3    3    0    0 -0.85634192772E+01 -0.96427070023E+01  0.37912532262E+02  0.40045899298E+02  0.00000000000E+00 0.  1.
</event>
<event>
 7    1  0.2944263E-013  0.7246153E+02  0.7816164E-02  0.1226708E+00
        -11   -1    0    0    0    0  0.00000000000E+00  0.00000000000E+00  0.45593999997E+02  0.45594000000E+02  0.51100000000E-03 0.  1.
         11   -1    0    0    0    0 -0.00000000000E+00 -0.00000000000E+00 -0.45593999997E+02  0.45594000000E+02  0.51100000000E-03 0. -1.
    9900012    2    1    2    0    0 -0.13600760343E+02  0.15395457485E+01 -0.12780060601E+02  0.72461525906E+02  0.69999942176E+02 0.  0.
         12    1    1    2    0    0  0.13600760343E+02 -0.15395457485E+01  0.12780060601E+02  0.18726474094E+02  0.00000000000E+00 0. -1.
         11    1    3    3    0    0  0.33258876934E+00 -0.29792671104E+02 -0.13178991513E+02  0.32579129582E+02  0.51100000000E-03 0. -1.
        -11    1    3    3    0    0 -0.55699263660E+01 -0.16545227770E+01  0.68527368980E+00  0.58507371872E+01  0.51100000000E-03 0.  1.
         12    1    3    3    0    0 -0.83634227460E+01  0.32986739629E+02 -0.28634277827E+00  0.34031659137E+02  0.00000000000E+00 0. -1.
</event>
<event>
 7    1  0.2944263E-013  0.7246157E+02  0.7816164E-02  0.1226708E+00
        -11   -1    0    0    0    0  0.00000000000E+00  0.00000000000E+00  0.45593999997E+02  0.45594000000E+02  0.51100000000E-03 0.  1.
         11   -1    0    0    0    0 -0.00000000000E+00 -0.00000000000E+00 -0.45593999997E+02  0.45594000000E+02  0.51100000000E-03 0. -1.
    9900012    2    1    2    0    0 -0.39211952860E+01 -0.12835924673E+02  0.13059183650E+02  0.72461574493E+02  0.70000005469E+02 0.  0.
         12    1    1    2    0    0  0.39211952860E+01  0.12835924673E+02 -0.13059183650E+02  0.18726425507E+02  0.00000000000E+00 0. -1.
         11    1    3    3    0    0  0.45239202925E+01 -0.33045533121E+01 -0.17345382675E+02  0.18227677521E+02  0.51100000000E-03 0. -1.
        -11    1    3    3    0    0  0.10777826455E+02 -0.17385553998E+02  0.43434338275E+01  0.20911347364E+02  0.51100000000E-03 0.  1.
        -12    1    3    3    0    0 -0.19222942033E+02  0.78541826366E+01  0.26061132498E+02  0.33322549608E+02  0.00000000000E+00 0.  1.
</event>
<event>
 7    1  0.2944263E-013  0.7246159E+02  0.7816164E-02  0.1226708E+00
        -11   -1    0    0    0    0  0.00000000000E+00  0.00000000000E+00  0.45593999997E+02  0.45594000000E+02  0.51100000000E-03 0. -1.
         11   -1    0    0    0    0 -0.00000000000E+00 -0.00000000000E+00 -0.45593999997E+02  0.45594000000E+02  0.51100000000E-03 0.  1.
    9900012    2    1    2    0    0  0.13176207625E+02 -0.72435453885E+01 -0.11162309010E+02  0.72461587113E+02  0.70000021910E+02 0.  0.
         12    1    1    2    0    0 -0.13176207625E+02  0.72435453885E+01  0.11162309010E+02  0.18726412887E+02  0.00000000000E+00 0. -1.
         11    1    3    3    0    0  0.10883170504E+02 -0.55546923717E+01  0.14216002006E+02  0.18745472010E+02  0.51100000000E-03 0. -1.
        -11    1    3    3    0    0 -0.14860278386E+02  0.16168244797E+02 -0.16279869118E+02  0.27336315631E+02  0.51100000000E-03 0.  1.
         12    1    3    3    0    0  0.17153315507E+02 -0.17857097814E+02 -0.90984418976E+01  0.26379799472E+02  0.00000000000E+00 0. -1.
</event>
<event>
 7    1  0.2944263E-013  0.7246158E+02  0.7816164E-02  0.1226708E+00
        -11   -1    0    0    0    0  0.00000000000E+00  0.00000000000E+00  0.45593999997E+02  0.45594000000E+02  0.51100000000E-03 0.  1.
         11   -1    0    0    0    0 -0.00000000000E+00 -0.00000000000E+00 -0.45593999997E+02  0.45594000000E+02  0.51100000000E-03 0. -1.
    9900012    2    1    2    0    0  0.16123816490E+02  0.90773077496E+01 -0.28816687987E+01  0.72461575108E+02  0.70000006271E+02 0.  0.
         12    1    1    2    0    0 -0.16123816490E+02 -0.90773077496E+01  0.28816687987E+01  0.18726424892E+02  0.00000000000E+00 0. -1.
         11    1    3    3    0    0 -0.11243512244E+02 -0.22528046475E+02  0.94987889510E+01  0.26910154912E+02  0.51100000000E-03 0. -1.
        -11    1    3    3    0    0  0.13029045113E+02  0.57314182292E+01 -0.33550335777E+01  0.14624001574E+02  0.51100000000E-03 0.  1.
        -12    1    3    3    0    0  0.14338283621E+02  0.25873935996E+02 -0.90254241720E+01  0.30927418622E+02  0.00000000000E+00 0.  1.
</event>
<event>
 7    1  0.2944263E-013  0.7246158E+02  0.7816164E-02  0.1226708E+00
        -11   -1    0    0    0    0  0.00000000000E+00  0.00000000000E+00  0.45593999997E+02  0.45594000000E+02  0.51100000000E-03 0.  1.
         11   -1    0    0    0    0 -0.00000000000E+00 -0.00000000000E+00 -0.45593999997E+02  0.45594000000E+02  0.51100000000E-03 0. -1.
    9900012    2    1    2    0    0  0.91063157579E+01 -0.13821131516E+02 -0.87595672727E+01  0.72461583315E+02  0.70000016962E+02 0.  0.
         12    1    1    2    0    0 -0.91063157579E+01  0.13821131516E+02  0.87595672727E+01  0.18726416685E+02  0.00000000000E+00 0. -1.
         11    1    3    3    0    0  0.53896133897E+01  0.69725724787E+01 -0.81626347894E+01  0.12012214884E+02  0.51100000000E-03 0. -1.
        -11    1    3    3    0    0  0.23392044553E+02  0.86192432311E+01 -0.21977270346E+01  0.25026168437E+02  0.51100000000E-03 0.  1.
        -12    1    3    3    0    0 -0.19675342185E+02 -0.29412947226E+02  0.16007945513E+01  0.35423199994E+02  0.00000000000E+00 0.  1.
</event>
<event>
 7    1  0.2944263E-013  0.7246161E+02  0.7816164E-02  0.1226708E+00
        -11   -1    0    0    0    0  0.00000000000E+00  0.00000000000E+00  0.45593999997E+02  0.45594000000E+02  0.51100000000E-03 0.  1.
         11   -1    0    0    0    0 -0.00000000000E+00 -0.00000000000E+00 -0.45593999997E+02  0.45594000000E+02  0.51100000000E-03 0. -1.
    9900012    2    1    2    0    0 -0.12478405443E+00 -0.36628317244E+01  0.18364251587E+02  0.72461611036E+02  0.70000053073E+02 0.  0.
         12    1    1    2    0    0  0.12478405443E+00  0.36628317244E+01 -0.18364251587E+02  0.18726388964E+02  0.00000000000E+00 0. -1.
         11    1    3    3    0    0  0.16591138400E+01  0.77556376688E+01  0.14690773264E+02  0.16694951145E+02  0.51100000000E-03 0. -1.
        -11    1    3    3    0    0 -0.68730975936E+01  0.85279489378E+00  0.27569516045E+02  0.28426131374E+02  0.51100000000E-03 0.  1.
         12    1    3    3    0    0  0.50891996992E+01 -0.12271264287E+02 -0.23896037722E+02  0.27340528517E+02  0.00000000000E+00 0. -1.
</event>
<event>
 7    1  0.2944263E-013  0.7246160E+02  0.7816164E-02  0.1226708E+00
        -11   -1    0    0    0    0  0.00000000000E+00  0.00000000000E+00  0.45593999997E+02  0.45594000000E+02  0.51100000000E-03 0. -1.
         11   -1    0    0    0    0 -0.00000000000E+00 -0.00000000000E+00 -0.45593999997E+02  0.45594000000E+02  0.51100000000E-03 0.  1.
    9900012    2    1    2    0    0  0.21873366194E+01 -0.16896236553E+02 -0.77724343432E+01  0.72461601874E+02  0.70000041138E+02 0.  0.
         12    1    1    2    0    0 -0.21873366194E+01  0.16896236553E+02  0.77724343432E+01  0.18726398126E+02  0.00000000000E+00 0. -1.
         11    1    3    3    0    0 -0.25927937472E+01  0.69036152899E+01  0.70134213287E+01  0.10176962341E+02  0.51100000000E-03 0. -1.
        -11    1    3    3    0    0 -0.11569380927E+02 -0.36389393789E+02 -0.24930714412E+01  0.38265571482E+02  0.51100000000E-03 0.  1.
         12    1    3    3    0    0  0.16349511294E+02  0.12589541945E+02 -0.12292784231E+02  0.24019068052E+02  0.00000000000E+00 0. -1.
</event>
<event>
 7    1  0.2944263E-013  0.7246157E+02  0.7816164E-02  0.1226708E+00
        -11   -1    0    0    0    0  0.00000000000E+00  0.00000000000E+00  0.45593999997E+02  0.45594000000E+02  0.51100000000E-03 0.  1.
         11   -1    0    0    0    0 -0.00000000000E+00 -0.00000000000E+00 -0.45593999997E+02  0.45594000000E+02  0.51100000000E-03 0. -1.
    9900012    2    1    2    0    0 -0.12348581503E+02 -0.70634722658E+01  0.12177805070E+02  0.72461573701E+02  0.70000004438E+02 0.  0.
         12    1    1    2    0    0  0.12348581503E+02  0.70634722658E+01 -0.12177805070E+02  0.18726426299E+02  0.00000000000E+00 0. -1.
         11    1    3    3    0    0  0.24963844936E+02 -0.87136546672E+01  0.89752475424E+01  0.27922686124E+02  0.51100000000E-03 0. -1.
        -11    1    3    3    0    0  0.77700415052E+00 -0.53284980224E+01  0.21584803743E+01  0.58013502232E+01  0.51100000000E-03 0.  1.
        -12    1    3    3    0    0 -0.38089430590E+02  0.69786804238E+01  0.10440771538E+01  0.38737537354E+02  0.00000000000E+00 0.  1.
</event>
<event>
 7    1  0.2944263E-013  0.7246188E+02  0.7816164E-02  0.1226707E+00
        -11   -1    0    0    0    0  0.00000000000E+00  0.00000000000E+00  0.45593999997E+02  0.45594000000E+02  0.51100000000E-03 0. -1.
         11   -1    0    0    0    0 -0.00000000000E+00 -0.00000000000E+00 -0.45593999997E+02  0.45594000000E+02  0.51100000000E-03 0.  1.
    9900012    2    1    2    0    0  0.11173293772E+02  0.14813192341E+02  0.25287067313E+01  0.72461881375E+02  0.70000405239E+02 0.  0.
         12    1    1    2    0    0 -0.11173293772E+02 -0.14813192341E+02 -0.25287067313E+01  0.18726118625E+02  0.00000000000E+00 0. -1.
         11    1    3    3    0    0  0.33669816268E+01  0.21061383894E+00  0.15102361393E+02  0.15474567631E+02  0.51100000000E-03 0. -1.
        -11    1    3    3    0    0  0.19721129271E+02  0.11222340302E+02  0.14698055308E+02  0.27035101103E+02  0.51100000000E-03 0.  1.
        -12    1    3    3    0    0 -0.11914817125E+02  0.33802381996E+01 -0.27271709969E+02  0.29952212641E+02  0.00000000000E+00 0.  1.
</event>
<event>
 7    1  0.2944263E-013  0.7246153E+02  0.7816164E-02  0.1226708E+00
        -11   -1    0    0    0    0  0.00000000000E+00  0.00000000000E+00  0.45593999997E+02  0.45594000000E+02  0.51100000000E-03 0.  1.
         11   -1    0    0    0    0 -0.00000000000E+00 -0.00000000000E+00 -0.45593999997E+02  0.45594000000E+02  0.51100000000E-03 0. -1.
    9900012    2    1    2    0    0 -0.18019075316E+02 -0.28059244647E+01  0.42568072214E+01  0.72461529562E+02  0.69999946939E+02 0.  0.
         12    1    1    2    0    0  0.18019075316E+02  0.28059244647E+01 -0.42568072214E+01  0.18726470438E+02  0.00000000000E+00 0. -1.
         11    1    3    3    0    0  0.63662092436E+01  0.19461089874E+01 -0.31453725129E+01  0.73626984748E+01  0.51100000000E-03 0. -1.
        -11    1    3    3    0    0 -0.22401711155E+02  0.21245218754E+02  0.19331352481E+02  0.36426599781E+02  0.51100000000E-03 0.  1.
         12    1    3    3    0    0 -0.19835734039E+01 -0.25997252206E+02 -0.11929172746E+02  0.28672231307E+02  0.00000000000E+00 0. -1.
</event>
<event>
 7    1  0.2944263E-013  0.7246159E+02  0.7816164E-02  0.1226708E+00
        -11   -1    0    0    0    0  0.00000000000E+00  0.00000000000E+00  0.45593999997E+02  0.45594000000E+02  0.51100000000E-03 0. -1.
         11   -1    0    0    0    0 -0.00000000000E+00 -0.00000000000E+00 -0.45593999997E+02  0.45594000000E+02  0.51100000000E-03 0.  1.
    9900012    2    1    2    0    0 -0.77219307726E+01  0.95086547857E+01 -0.14164598894E+02  0.72461585701E+02  0.70000020070E+02 0.  0.
         12    1    1    2    0    0  0.77219307726E+01 -0.95086547857E+01  0.14164598894E+02  0.18726414299E+02  0.00000000000E+00 0. -1.
         11    1    3    3    0    0 -0.19208390905E+02 -0.35490827756E+00 -0.15852858048E+02  0.24907857186E+02  0.51100000000E-03 0. -1.
        -11    1    3    3    0    0 -0.12285593691E+02  0.14604191782E+02  0.10474923628E+02  0.21770214864E+02  0.51100000000E-03 0.  1.
         12    1    3    3    0    0  0.23772053823E+02 -0.47406287192E+01 -0.87866644735E+01  0.25783513651E+02  0.00000000000E+00 0. -1.
</event>
<event>
 7    1  0.2944263E-013  0.7246158E+02  0.7816164E-02  0.1226708E+00
        -11   -1    0    0    0    0  0.00000000000E+00  0.00000000000E+00  0.45593999997E+02  0.45594000000E+02  0.51100000000E-03 0. -1.
         11   -1    0    0    0    0 -0.00000000000E+00 -0.00000000000E+00 -0.45593999997E+02  0.45594000000E+02  0.51100000000E-03 0.  1.
    9900012    2    1    2    0    0  0.15028853726E+02  0.26600707607E+00 -0.11168784291E+02  0.72461576246E+02  0.70000007753E+02 0.  0.
         12    1    1    2    0    0 -0.15028853726E+02 -0.26600707607E+00  0.11168784291E+02  0.18726423754E+02  0.00000000000E+00 0. -1.
         11    1    3    3    0    0 -0.14813775875E+02 -0.23457083228E+02  0.29154348828E+01  0.27895922104E+02  0.51100000000E-03 0. -1.
        -11    1    3    3    0    0  0.30373497120E+01  0.25092840111E+01 -0.92338463390E+01  0.10039218993E+02  0.51100000000E-03 0.  1.
        -12    1    3    3    0    0  0.26805279890E+02  0.21213806293E+02 -0.48503728345E+01  0.34526435148E+02  0.00000000000E+00 0.  1.
</event>
<event>
 7    1  0.2944263E-013  0.7246157E+02  0.7816164E-02  0.1226708E+00
        -11   -1    0    0    0    0  0.00000000000E+00  0.00000000000E+00  0.45593999997E+02  0.45594000000E+02  0.51100000000E-03 0.  1.
         11   -1    0    0    0    0 -0.00000000000E+00 -0.00000000000E+00 -0.45593999997E+02  0.45594000000E+02  0.51100000000E-03 0. -1.
    9900012    2    1    2    0    0  0.16056355612E+02  0.15106103791E+01  0.95179126398E+01  0.72461570542E+02  0.70000000322E+02 0.  0.
         12    1    1    2    0    0 -0.16056355612E+02 -0.15106103791E+01 -0.95179126398E+01  0.18726429458E+02  0.00000000000E+00 0. -1.
         11    1    3    3    0    0  0.13131048764E+02 -0.40948117784E+01  0.15505849337E+02  0.20727356056E+02  0.51100000000E-03 0. -1.
        -11    1    3    3    0    0  0.17341040828E+02 -0.19604988999E+00  0.16804689887E+02  0.24148452021E+02  0.51100000000E-03 0.  1.
         12    1    3    3    0    0 -0.14415733981E+02  0.58014720475E+01 -0.22792626584E+02  0.27585762464E+02  0.00000000000E+00 0. -1.
</event>
<event>
 7    1  0.2944263E-013  0.7246157E+02  0.7816164E-02  0.1226708E+00
        -11   -1    0    0    0    0  0.00000000000E+00  0.00000000000E+00  0.45593999997E+02  0.45594000000E+02  0.51100000000E-03 0.  1.
         11   -1    0    0    0    0 -0.00000000000E+00 -0.00000000000E+00 -0.45593999997E+02  0.45594000000E+02  0.51100000000E-03 0. -1.
    9900012    2    1    2    0    0  0.19621785304E+00  0.88505207363E+01  0.16501783677E+02  0.72461572597E+02  0.70000003000E+02 0.  0.
         12    1    1    2    0    0 -0.19621785304E+00 -0.88505207363E+01 -0.16501783677E+02  0.18726427403E+02  0.00000000000E+00 0. -1.
         11    1    3    3    0    0  0.24237487177E+01 -0.44009831036E+01 -0.52349964305E+01  0.72559215826E+01  0.51100000000E-03 0. -1.
        -11    1    3    3    0    0 -0.20087330203E+02 -0.14872001436E+02 -0.76159079345E+00  0.25005145115E+02  0.51100000000E-03 0.  1.
         12    1    3    3    0    0  0.17859799339E+02  0.28123505275E+02  0.22498370901E+02  0.40200505900E+02  0.00000000000E+00 0. -1.
</event>
<event>
 7    1  0.2944263E-013  0.7246177E+02  0.7816164E-02  0.1226707E+00
        -11   -1    0    0    0    0  0.00000000000E+00  0.00000000000E+00  0.45593999997E+02  0.45594000000E+02  0.51100000000E-03 0.  1.
         11   -1    0    0    0    0 -0.00000000000E+00 -0.00000000000E+00 -0.45593999997E+02  0.45594000000E+02  0.51100000000E-03 0. -1.
    9900012    2    1    2    0    0 -0.75718483540E+01  0.48118351688E+01  0.16437308971E+02  0.72461767827E+02  0.70000257323E+02 0.  0.
         12    1    1    2    0    0  0.75718483540E+01 -0.48118351688E+01 -0.16437308971E+02  0.18726232173E+02  0.00000000000E+00 0. -1.
         11    1    3    3    0    0 -0.74827370621E+01  0.79093749751E+01  0.65606019325E+01  0.12711847404E+02  0.51100000000E-03 0. -1.
        -11    1    3    3    0    0  0.17685100555E+01  0.21205713527E+02  0.23600920425E+02  0.31777560624E+02  0.51100000000E-03 0.  1.
        -12    1    3    3    0    0 -0.18576213474E+01 -0.24303253334E+02 -0.13724213387E+02  0.27972359800E+02  0.00000000000E+00 0.  1.
</event>
<event>
 7    1  0.2944263E-013  0.7246138E+02  0.7816164E-02  0.1226709E+00
        -11   -1    0    0    0    0  0.00000000000E+00  0.00000000000E+00  0.45593999997E+02  0.45594000000E+02  0.51100000000E-03 0. -1.
         11   -1    0    0    0    0 -0.00000000000E+00 -0.00000000000E+00 -0.45593999997E+02  0.45594000000E+02  0.51100000000E-03 0.  1.
    9900012    2    1    2    0    0  0.37958425405E+01 -0.17476285682E+02  0.55549316354E+01  0.72461381317E+02  0.69999753821E+02 0.  0.
         12    1    1    2    0    0 -0.37958425405E+01  0.17476285682E+02 -0.55549316354E+01  0.18726618683E+02  0.00000000000E+00 0. -1.
         11    1    3    3    0    0  0.63815507016E+01 -0.15431057530E+02 -0.46352457658E+01  0.17329951800E+02  0.51100000000E-03 0. -1.
        -11    1    3    3    0    0  0.22284511396E+02 -0.49423749012E+01  0.17817915517E+02  0.28956944443E+02  0.51100000000E-03 0.  1.
         12    1    3    3    0    0 -0.24870219557E+02  0.28971467488E+01 -0.76277381157E+01  0.26174485074E+02  0.00000000000E+00 0. -1.
</event>
<event>
 7    1  0.2944263E-013  0.7246156E+02  0.7816164E-02  0.1226708E+00
        -11   -1    0    0    0    0  0.00000000000E+00  0.00000000000E+00  0.45593999997E+02  0.45594000000E+02  0.51100000000E-03 0.  1.
         11   -1    0    0    0    0 -0.00000000000E+00 -0.00000000000E+00 -0.45593999997E+02  0.45594000000E+02  0.51100000000E-03 0. -1.
    9900012    2    1    2    0    0  0.76512282346E+01 -0.41119817901E+01  0.16590048012E+02  0.72461564654E+02  0.69999992652E+02 0.  0.
         12    1    1    2    0    0 -0.76512282346E+01  0.41119817901E+01 -0.16590048012E+02  0.18726435346E+02  0.00000000000E+00 0. -1.
         11    1    3    3    0    0 -0.33686625428E+01  0.13782558425E+02 -0.14068791121E+02  0.19980933110E+02  0.51100000000E-03 0. -1.
        -11    1    3    3    0    0 -0.21222032210E+01 -0.21056680395E+01 -0.80891605818E+01  0.86239262279E+01  0.51100000000E-03 0.  1.
        -12    1    3    3    0    0  0.13142093998E+02 -0.15788872176E+02  0.38747999715E+02  0.43856705316E+02  0.00000000000E+00 0.  1.
</event>
<event>
 7    1  0.2944263E-013  0.7246177E+02  0.7816164E-02  0.1226707E+00
        -11   -1    0    0    0    0  0.00000000000E+00  0.00000000000E+00  0.45593999997E+02  0.45594000000E+02  0.51100000000E-03 0.  1.
         11   -1    0    0    0    0 -0.00000000000E+00 -0.00000000000E+00 -0.45593999997E+02  0.45594000000E+02  0.51100000000E-03 0. -1.
    9900012    2    1    2    0    0 -0.79825848341E+01 -0.71665877668E+01  0.15348943833E+02  0.72461769263E+02  0.70000259193E+02 0.  0.
         12    1    1    2    0    0  0.79825848341E+01  0.71665877668E+01 -0.15348943833E+02  0.18726230737E+02  0.00000000000E+00 0. -1.
         11    1    3    3    0    0  0.11402301841E+02 -0.22066305939E+02  0.24744830890E+01  0.24961118001E+02  0.51100000000E-03 0. -1.
        -11    1    3    3    0    0  0.74112327911E+01 -0.76522223587E+01  0.21021812218E+01  0.10858270795E+02  0.51100000000E-03 0.  1.
        -12    1    3    3    0    0 -0.26796119466E+02  0.22551940530E+02  0.10772279522E+02  0.36642380466E+02  0.00000000000E+00 0.  1.
</event>
<event>
 7    1  0.2944263E-013  0.7246166E+02  0.7816164E-02  0.1226708E+00
        -11   -1    0    0    0    0  0.00000000000E+00  0.00000000000E+00  0.45593999997E+02  0.45594000000E+02  0.51100000000E-03 0.  1.
         11   -1    0    0    0    0 -0.00000000000E+00 -0.00000000000E+00 -0.45593999997E+02  0.45594000000E+02  0.51100000000E-03 0. -1.
    9900012    2    1    2    0    0  0.17335228096E+02  0.23210795984E+01  0.66916473733E+01  0.72461663246E+02  0.70000121087E+02 0.  0.
         12    1    1    2    0    0 -0.17335228096E+02 -0.23210795984E+01 -0.66916473733E+01  0.18726336754E+02  0.00000000000E+00 0. -1.
         11    1    3    3    0    0  0.21204946800E+02 -0.22053666611E+01 -0.26071709919E+02  0.33678590666E+02  0.51100000000E-03 0. -1.
        -11    1    3    3    0    0 -0.52706191788E+01  0.37092291944E+00 -0.43015382951E+00  0.53011360026E+01  0.51100000000E-03 0.  1.
        -12    1    3    3    0    0  0.14009004757E+01  0.41555233401E+01  0.33193511122E+02  0.33481936577E+02  0.00000000000E+00 0.  1.
</event>
<event>
 7    1  0.2944263E-013  0.7246151E+02  0.7816164E-02  0.1226708E+00
        -11   -1    0    0    0    0  0.00000000000E+00  0.00000000000E+00  0.45593999997E+02  0.45594000000E+02  0.51100000000E-03 0.  1.
         11   -1    0    0    0    0 -0.00000000000E+00 -0.00000000000E+00 -0.45593999997E+02  0.45594000000E+02  0.51100000000E-03 0. -1.
    9900012    2    1    2    0    0  0.12143769847E+02 -0.10101251302E+01  0.14219351053E+02  0.72461509585E+02  0.69999920915E+02 0.  0.
         12    1    1    2    0    0 -0.12143769847E+02  0.10101251302E+01 -0.14219351053E+02  0.18726490415E+02  0.00000000000E+00 0. -1.
         11    1    3    3    0    0 -0.17255298354E+02 -0.12287633192E+02 -0.67291665405E+01  0.22226401718E+02  0.51100000000E-03 0. -1.
        -11    1    3    3    0    0  0.13733049469E+02  0.14054824120E+02 -0.45590778210E+01  0.20172256185E+02  0.51100000000E-03 0.  1.
        -12    1    3    3    0    0  0.15666018732E+02 -0.27773160585E+01  0.25507595415E+02  0.30062851682E+02  0.00000000000E+00 0.  1.
</event>
<event>
 7    1  0.2944263E-013  0.7246124E+02  0.7816164E-02  0.1226709E+00
        -11   -1    0    0    0    0  0.00000000000E+00  0.00000000000E+00  0.45593999997E+02  0.45594000000E+02  0.51100000000E-03 0. -1.
         11   -1    0    0    0    0 -0.00000000000E+00 -0.00000000000E+00 -0.45593999997E+02  0.45594000000E+02  0.51100000000E-03 0.  1.
    9900012    2    1    2    0    0  0.37538733144E+01 -0.48164855392E+01 -0.17703152042E+02  0.72461235997E+02  0.69999564514E+02 0.  0.
         12    1    1    2    0    0 -0.37538733144E+01  0.48164855392E+01  0.17703152042E+02  0.18726764003E+02  0.00000000000E+00 0. -1.
         11    1    3    3    0    0 -0.10190283048E+02  0.97367640120E+01 -0.11113263445E+02  0.17948567260E+02  0.51100000000E-03 0. -1.
        -11    1    3    3    0    0  0.24013967367E+02 -0.22879141764E+02 -0.17489962690E+02  0.37496993903E+02  0.51100000000E-03 0.  1.
         12    1    3    3    0    0 -0.10069811005E+02  0.83258922131E+01  0.10900074093E+02  0.17015674834E+02  0.00000000000E+00 0. -1.
</event>
<event>
 7    1  0.2944263E-013  0.7246156E+02  0.7816164E-02  0.1226708E+00
        -11   -1    0    0    0    0  0.00000000000E+00  0.00000000000E+00  0.45593999997E+02  0.45594000000E+02  0.51100000000E-03 0. -1.
         11   -1    0    0    0    0 -0.00000000000E+00 -0.00000000000E+00 -0.45593999997E+02  0.45594000000E+02  0.51100000000E-03 0.  1.
    9900012    2    1    2    0    0  0.71595409315E+01 -0.11256981287E+02 -0.13141569676E+02  0.72461561267E+02  0.69999988241E+02 0.  0.
         12    1    1    2    0    0 -0.71595409315E+01  0.11256981287E+02  0.13141569676E+02  0.18726438733E+02  0.00000000000E+00 0. -1.
         11    1    3    3    0    0 -0.17523239384E+02 -0.89307770568E+01 -0.50858856670E+01  0.20314746629E+02  0.51100000000E-03 0. -1.
        -11    1    3    3    0    0 -0.21685187902E+01 -0.27228165718E+01 -0.21733113846E+02  0.22010098627E+02  0.51100000000E-03 0.  1.
         12    1    3    3    0    0  0.26851299105E+02  0.39661234110E+00  0.13677429837E+02  0.30136716011E+02  0.00000000000E+00 0. -1.
</event>
<event>
 7    1  0.2944263E-013  0.7246160E+02  0.7816164E-02  0.1226708E+00
        -11   -1    0    0    0    0  0.00000000000E+00  0.00000000000E+00  0.45593999997E+02  0.45594000000E+02  0.51100000000E-03 0. -1.
         11   -1    0    0    0    0 -0.00000000000E+00 -0.00000000000E+00 -0.45593999997E+02  0.45594000000E+02  0.51100000000E-03 0.  1.
    9900012    2    1    2    0    0 -0.17085433356E+02  0.68964876083E+01  0.33473251771E+01  0.72461597245E+02  0.70000035108E+02 0.  0.
         12    1    1    2    0    0  0.17085433356E+02 -0.68964876083E+01 -0.33473251771E+01  0.18726402755E+02  0.00000000000E+00 0. -1.
         11    1    3    3    0    0  0.23662748270E+00 -0.26223818751E+02 -0.20126589686E+01  0.26302004845E+02  0.51100000000E-03 0. -1.
        -11    1    3    3    0    0 -0.30048518495E+01  0.11121264117E+02 -0.10420170715E+02  0.15533563924E+02  0.51100000000E-03 0.  1.
        -12    1    3    3    0    0 -0.14317208989E+02  0.21999042242E+02  0.15780154860E+02  0.30626028477E+02  0.00000000000E+00 0.  1.
</event>
<event>
 7    1  0.2944263E-013  0.7246169E+02  0.7816164E-02  0.1226708E+00
        -11   -1    0    0    0    0  0.00000000000E+00  0.00000000000E+00  0.45593999997E+02  0.45594000000E+02  0.51100000000E-03 0.  1.
         11   -1    0    0    0    0 -0.00000000000E+00 -0.00000000000E+00 -0.45593999997E+02  0.45594000000E+02  0.51100000000E-03 0. -1.
    9900012    2    1    2    0    0  0.49341269343E+01 -0.29752284746E+01  0.17817886873E+02  0.72461690014E+02  0.70000155957E+02 0.  0.
         12    1    1    2    0    0 -0.49341269343E+01  0.29752284746E+01 -0.17817886873E+02  0.18726309986E+02  0.00000000000E+00 0. -1.
         11    1    3    3    0    0 -0.40657288498E+01  0.22057010894E+02  0.28888965549E+01  0.22613880787E+02  0.51100000000E-03 0. -1.
        -11    1    3    3    0    0  0.85002504380E+01 -0.43232699127E+01  0.25041744087E+02  0.26796153967E+02  0.51100000000E-03 0.  1.
         12    1    3    3    0    0  0.49960534614E+00 -0.20708969456E+02 -0.10112753769E+02  0.23051655260E+02  0.00000000000E+00 0. -1.
</event>
<event>
 7    1  0.2944263E-013  0.7246186E+02  0.7816164E-02  0.1226707E+00
        -11   -1    0    0    0    0  0.00000000000E+00  0.00000000000E+00  0.45593999997E+02  0.45594000000E+02  0.51100000000E-03 0. -1.
         11   -1    0    0    0    0 -0.00000000000E+00 -0.00000000000E+00 -0.45593999997E+02  0.45594000000E+02  0.51100000000E-03 0.  1.
    9900012    2    1    2    0    0  0.12597944984E+02  0.92814901127E+00 -0.13823840020E+02  0.72461862350E+02  0.70000380456E+02 0.  0.
         12    1    1    2    0    0 -0.12597944984E+02 -0.92814901127E+00  0.13823840020E+02  0.18726137650E+02  0.00000000000E+00 0. -1.
         11    1    3    3    0    0  0.18382249930E+02 -0.17815589204E+02  0.11538490773E+02  0.28079157764E+02  0.51100000000E-03 0. -1.
        -11    1    3    3    0    0 -0.43137178036E+00 -0.82743149167E+01 -0.26991709233E+01  0.87141203164E+01  0.51100000000E-03 0.  1.
        -12    1    3    3    0    0 -0.53529331656E+01  0.27018053132E+02 -0.22663159869E+02  0.35668584269E+02  0.00000000000E+00 0.  1.
</event>
<event>
 7    1  0.2944263E-013  0.7246158E+02  0.7816164E-02  0.1226708E+00
        -11   -1    0    0    0    0  0.00000000000E+00  0.00000000000E+00  0.45593999997E+02  0.45594000000E+02  0.51100000000E-03 0. -1.
         11   -1    0    0    0    0 -0.00000000000E+00 -0.00000000000E+00 -0.45593999997E+02  0.45594000000E+02  0.51100000000E-03 0.  1.
    9900012    2    1    2    0    0  0.68064115505E+01 -0.82078770085E+01 -0.15394231950E+02  0.72461578545E+02  0.70000010747E+02 0.  0.
         12    1    1    2    0    0 -0.68064115505E+01  0.82078770085E+01  0.15394231950E+02  0.18726421455E+02  0.00000000000E+00 0. -1.
         11    1    3    3    0    0  0.61390094817E+01  0.36595881296E+01 -0.84253910395E+01  0.11048404280E+02  0.51100000000E-03 0. -1.
        -11    1    3    3    0    0  0.18859471338E+02  0.17959054899E+02 -0.40401569161E+01  0.26353940506E+02  0.51100000000E-03 0.  1.
         12    1    3    3    0    0 -0.18192069269E+02 -0.29826520038E+02 -0.29286839948E+01  0.35059233759E+02  0.00000000000E+00 0. -1.
</event>
<event>
 7    1  0.2944263E-013  0.7246151E+02  0.7816164E-02  0.1226708E+00
        -11   -1    0    0    0    0  0.00000000000E+00  0.00000000000E+00  0.45593999997E+02  0.45594000000E+02  0.51100000000E-03 0.  1.
         11   -1    0    0    0    0 -0.00000000000E+00 -0.00000000000E+00 -0.45593999997E+02  0.45594000000E+02  0.51100000000E-03 0. -1.
    9900012    2    1    2    0    0  0.39121142181E+01 -0.17078118878E+02  0.66117171525E+01  0.72461505780E+02  0.69999915958E+02 0.  0.
         12    1    1    2    0    0 -0.39121142181E+01  0.17078118878E+02 -0.66117171525E+01  0.18726494220E+02  0.00000000000E+00 0. -1.
         11    1    3    3    0    0  0.11212425878E+02  0.36034254098E+01 -0.24004826901E+01  0.12019379608E+02  0.51100000000E-03 0. -1.
        -11    1    3    3    0    0  0.21348852959E+02  0.10674072259E+01  0.11708035250E+02  0.24371929972E+02  0.51100000000E-03 0.  1.
        -12    1    3    3    0    0 -0.28649164620E+02 -0.21748951514E+02 -0.26958354074E+01  0.36070196200E+02  0.00000000000E+00 0.  1.
</event>
<event>
 7    1  0.2944263E-013  0.7246157E+02  0.7816164E-02  0.1226708E+00
        -11   -1    0    0    0    0  0.00000000000E+00  0.00000000000E+00  0.45593999997E+02  0.45594000000E+02  0.51100000000E-03 0. -1.
         11   -1    0    0    0    0 -0.00000000000E+00 -0.00000000000E+00 -0.45593999997E+02  0.45594000000E+02  0.51100000000E-03 0.  1.
    9900012    2    1    2    0    0 -0.14252852361E+02 -0.66191328104E+01 -0.10184423199E+02  0.72461569601E+02  0.69999999097E+02 0.  0.
         12    1    1    2    0    0  0.14252852361E+02  0.66191328104E+01  0.10184423199E+02  0.18726430399E+02  0.00000000000E+00 0. -1.
         11    1    3    3    0    0  0.62951793086E+01 -0.61492813341E+01  0.19628061436E+02  0.21510549492E+02  0.51100000000E-03 0. -1.
        -11    1    3    3    0    0 -0.10331984187E+02 -0.36819983136E+00  0.71711661297E+01  0.12582173591E+02  0.51100000000E-03 0.  1.
        -12    1    3    3    0    0 -0.10216047482E+02 -0.10165164492E+00 -0.36983650765E+02  0.38368846518E+02  0.00000000000E+00 0.  1.
</event>
<event>
 7    1  0.2944263E-013  0.7246157E+02  0.7816164E-02  0.1226708E+00
        -11   -1    0    0    0    0  0.00000000000E+00  0.00000000000E+00  0.45593999997E+02  0.45594000000E+02  0.51100000000E-03 0. -1.
         11   -1    0    0    0    0 -0.00000000000E+00 -0.00000000000E+00 -0.45593999997E+02  0.45594000000E+02  0.51100000000E-03 0.  1.
    9900012    2    1    2    0    0 -0.57746826712E+01 -0.18752804785E+01 -0.17714841069E+02  0.72461568655E+02  0.69999997864E+02 0.  0.
         12    1    1    2    0    0  0.57746826712E+01  0.18752804785E+01  0.17714841069E+02  0.18726431345E+02  0.00000000000E+00 0. -1.
         11    1    3    3    0    0 -0.72480626285E+01  0.12500632697E+02  0.17401634134E+02  0.22618954451E+02  0.51100000000E-03 0. -1.
        -11    1    3    3    0    0  0.12702216040E+01  0.10067538725E+02 -0.15376829336E+02  0.18423237490E+02  0.51100000000E-03 0.  1.
        -12    1    3    3    0    0  0.20315835324E+00 -0.24443451901E+02 -0.19739645867E+02  0.31419376714E+02  0.00000000000E+00 0.  1.
</event>
<event>
 7    1  0.2944263E-013  0.7246160E+02  0.7816164E-02  0.1226708E+00
        -11   -1    0    0    0    0  0.00000000000E+00  0.00000000000E+00  0.45593999997E+02  0.45594000000E+02  0.51100000000E-03 0.  1.
         11   -1    0    0    0    0 -0.00000000000E+00 -0.00000000000E+00 -0.45593999997E+02  0.45594000000E+02  0.51100000000E-03 0. -1.
    9900012    2    1    2    0    0  0.17677133294E+02  0.59125946318E+01 -0.17995431618E+01  0.72461596919E+02  0.70000034683E+02 0.  0.
         12    1    1    2    0    0 -0.17677133294E+02 -0.59125946318E+01  0.17995431618E+01  0.18726403081E+02  0.00000000000E+00 0. -1.
         11    1    3    3    0    0  0.87731862054E+01 -0.36301977836E+01 -0.74628825135E+00  0.95238688860E+01  0.51100000000E-03 0. -1.
        -11    1    3    3    0    0 -0.11951106377E+02 -0.18704593923E+02  0.12294732577E+02  0.25374223670E+02  0.51100000000E-03 0.  1.
         12    1    3    3    0    0  0.20855053466E+02  0.28247386338E+02 -0.13347987488E+02  0.37563504362E+02  0.00000000000E+00 0. -1.
</event>
<event>
 7    1  0.2944263E-013  0.7246142E+02  0.7816164E-02  0.1226708E+00
        -11   -1    0    0    0    0  0.00000000000E+00  0.00000000000E+00  0.45593999997E+02  0.45594000000E+02  0.51100000000E-03 0.  1.
         11   -1    0    0    0    0 -0.00000000000E+00 -0.00000000000E+00 -0.45593999997E+02  0.45594000000E+02  0.51100000000E-03 0. -1.
    9900012    2    1    2    0    0  0.84620760151E+01 -0.11975270772E+02  0.11647787333E+02  0.72461420219E+02  0.69999804499E+02 0.  0.
         12    1    1    2    0    0 -0.84620760151E+01  0.11975270772E+02 -0.11647787333E+02  0.18726579781E+02  0.00000000000E+00 0. -1.
         11    1    3    3    0    0 -0.78149393117E+01 -0.96002731402E+00 -0.74768293126E+01  0.10858080204E+02  0.51100000000E-03 0. -1.
        -11    1    3    3    0    0  0.26660547116E-01  0.21853790237E+02  0.60572209331E+01  0.22677715586E+02  0.51100000000E-03 0.  1.
         12    1    3    3    0    0  0.16250354780E+02 -0.32869033695E+02  0.13067395712E+02  0.38925624429E+02  0.00000000000E+00 0. -1.
</event>
<event>
 7    1  0.2944263E-013  0.7246159E+02  0.7816164E-02  0.1226708E+00
        -11   -1    0    0    0    0  0.00000000000E+00  0.00000000000E+00  0.45593999997E+02  0.45594000000E+02  0.51100000000E-03 0.  1.
         11   -1    0    0    0    0 -0.00000000000E+00 -0.00000000000E+00 -0.45593999997E+02  0.45594000000E+02  0.51100000000E-03 0. -1.
    9900012    2    1    2    0    0  0.17662016259E+02 -0.48294455640E+01  0.39253023354E+01  0.72461591876E+02  0.70000028115E+02 0.  0.
         12    1    1    2    0    0 -0.17662016259E+02  0.48294455640E+01 -0.39253023354E+01  0.18726408124E+02  0.00000000000E+00 0. -1.
         11    1    3    3    0    0  0.30003636855E+01 -0.16920346882E+01 -0.24695891338E+01  0.42383999790E+01  0.51100000000E-03 0. -1.
        -11    1    3    3    0    0  0.24473319270E+02 -0.30279884461E+01  0.32233256493E+02  0.40584416893E+02  0.51100000000E-03 0.  1.
         12    1    3    3    0    0 -0.98116666969E+01 -0.10942242977E+00 -0.25838365024E+02  0.27638775004E+02  0.00000000000E+00 0. -1.
</event>
<event>
 7    1  0.2944263E-013  0.7246157E+02  0.7816164E-02  0.1226708E+00
        -11   -1    0    0    0    0  0.00000000000E+00  0.00000000000E+00  0.45593999997E+02  0.45594000000E+02  0.51100000000E-03 0. -1.
         11   -1    0    0    0    0 -0.00000000000E+00 -0.00000000000E+00 -0.45593999997E+02  0.45594000000E+02  0.51100000000E-03 0.  1.
    9900012    2    1    2    0    0  0.11974177466E+02 -0.51584228059E+01 -0.13442064734E+02  0.72461565312E+02  0.69999993509E+02 0.  0.
         12    1    1    2    0    0 -0.11974177466E+02  0.51584228059E+01  0.13442064734E+02  0.18726434688E+02  0.00000000000E+00 0. -1.
         11    1    3    3    0    0 -0.22719784878E+02 -0.13048794397E+02 -0.17204408661E+02  0.31344079788E+02  0.51100000000E-03 0. -1.
        -11    1    3    3    0    0 -0.17838443030E+01  0.38238116134E+01 -0.18631024619E-01  0.42194766415E+01  0.51100000000E-03 0.  1.
        -12    1    3    3    0    0  0.36477806647E+02  0.40665599773E+01  0.37809749522E+01  0.36898008882E+02  0.00000000000E+00 0.  1.
</event>
<event>
 7    1  0.2944263E-013  0.7246160E+02  0.7816164E-02  0.1226708E+00
        -11   -1    0    0    0    0  0.00000000000E+00  0.00000000000E+00  0.45593999997E+02  0.45594000000E+02  0.51100000000E-03 0. -1.
         11   -1    0    0    0    0 -0.00000000000E+00 -0.00000000000E+00 -0.45593999997E+02  0.45594000000E+02  0.51100000000E-03 0.  1.
    9900012    2    1    2    0    0  0.11206951154E+01  0.11379275119E+02 -0.14830183700E+02  0.72461595957E+02  0.70000033431E+02 0.  0.
         12    1    1    2    0    0 -0.11206951154E+01 -0.11379275119E+02  0.14830183700E+02  0.18726404043E+02  0.00000000000E+00 0. -1.
         11    1    3    3    0    0 -0.33627289736E+01 -0.13757674160E+02 -0.67016651651E+01  0.15668243702E+02  0.51100000000E-03 0. -1.
        -11    1    3    3    0    0 -0.15253207462E+02  0.17969482187E+02 -0.21496967148E+02  0.31901132029E+02  0.51100000000E-03 0.  1.
         12    1    3    3    0    0  0.19736631551E+02  0.71674670922E+01  0.13368448612E+02  0.24892220226E+02  0.00000000000E+00 0. -1.
</event>
<event>
 7    1  0.2944263E-013  0.7246156E+02  0.7816164E-02  0.1226708E+00
        -11   -1    0    0    0    0  0.00000000000E+00  0.00000000000E+00  0.45593999997E+02  0.45594000000E+02  0.51100000000E-03 0. -1.
         11   -1    0    0    0    0 -0.00000000000E+00 -0.00000000000E+00 -0.45593999997E+02  0.45594000000E+02  0.51100000000E-03 0.  1.
    9900012    2    1    2    0    0 -0.11885061709E+02 -0.14432958933E+02 -0.10557940749E+01  0.72461556223E+02  0.69999981670E+02 0.  0.
         12    1    1    2    0    0  0.11885061709E+02  0.14432958933E+02  0.10557940749E+01  0.18726443777E+02  0.00000000000E+00 0. -1.
         11    1    3    3    0    0 -0.31407791554E+01  0.18503307354E+02 -0.18480796977E+02  0.26339641871E+02  0.51100000000E-03 0. -1.
        -11    1    3    3    0    0 -0.59434101707E+01  0.28380833015E+01  0.10155373289E+01  0.66640946581E+01  0.51100000000E-03 0.  1.
        -12    1    3    3    0    0 -0.28008723827E+01 -0.35774349589E+02  0.16409465573E+02  0.39457819694E+02  0.00000000000E+00 0.  1.
</event>
<event>
 7    1  0.2944263E-013  0.7246146E+02  0.7816164E-02  0.1226708E+00
        -11   -1    0    0    0    0  0.00000000000E+00  0.00000000000E+00  0.45593999997E+02  0.45594000000E+02  0.51100000000E-03 0. -1.
         11   -1    0    0    0    0 -0.00000000000E+00 -0.00000000000E+00 -0.45593999997E+02  0.45594000000E+02  0.51100000000E-03 0.  1.
    9900012    2    1    2    0    0 -0.16342625231E+02 -0.41499765596E+01 -0.81473726910E+01  0.72461457697E+02  0.69999853320E+02 0.  0.
         12    1    1    2    0    0  0.16342625231E+02  0.41499765596E+01  0.81473726910E+01  0.18726542303E+02  0.00000000000E+00 0. -1.
         11    1    3    3    0    0 -0.20679222094E+02  0.16306290170E+02  0.18483589661E+02  0.32174033203E+02  0.51100000000E-03 0. -1.
        -11    1    3    3    0    0 -0.29997849079E+01  0.24065485738E+01  0.69820209408E+00  0.39086662632E+01  0.51100000000E-03 0.  1.
        -12    1    3    3    0    0  0.73363817708E+01 -0.22862815303E+02 -0.27329164446E+02  0.36378758231E+02  0.00000000000E+00 0.  1.
</event>
<event>
 7    1  0.2944263E-013  0.7246162E+02  0.7816164E-02  0.1226708E+00
        -11   -1    0    0    0    0  0.00000000000E+00  0.00000000000E+00  0.45593999997E+02  0.45594000000E+02  0.51100000000E-03 0.  1.
         11   -1    0    0    0    0 -0.00000000000E+00 -0.00000000000E+00 -0.45593999997E+02  0.45594000000E+02  0.51100000000E-03 0. -1.
    9900012    2    1    2    0    0 -0.16614161355E+02 -0.30109754780E+00 -0.86345953547E+01  0.72461621434E+02  0.70000066618E+02 0.  0.
         12    1    1    2    0    0  0.16614161355E+02  0.30109754780E+00  0.86345953547E+01  0.18726378566E+02  0.00000000000E+00 0. -1.
         11    1    3    3    0    0  0.13870415273E+02  0.99198118824E+01 -0.18967623297E+02  0.25506113413E+02  0.51100000000E-03 0. -1.
        -11    1    3    3    0    0 -0.56386785630E+00 -0.15424329893E+02  0.35071131505E+01  0.15828068186E+02  0.51100000000E-03 0.  1.
        -12    1    3    3    0    0 -0.29920708772E+02  0.52034204624E+01  0.68259147914E+01  0.31127439835E+02  0.00000000000E+00 0.  1.
</event>
<event>
 7    1  0.2944263E-013  0.7246157E+02  0.7816164E-02  0.1226708E+00
        -11   -1    0    0    0    0  0.00000000000E+00  0.00000000000E+00  0.45593999997E+02  0.45594000000E+02  0.51100000000E-03 0.  1.
         11   -1    0    0    0    0 -0.00000000000E+00 -0.00000000000E+00 -0.45593999997E+02  0.45594000000E+02  0.51100000000E-03 0. -1.
    9900012    2    1    2    0    0  0.16893777855E+02 -0.26886194177E+01  0.76191091637E+01  0.72461568706E+02  0.69999997930E+02 0.  0.
         12    1    1    2    0    0 -0.16893777855E+02  0.26886194177E+01 -0.76191091637E+01  0.18726431294E+02  0.00000000000E+00 0. -1.
         11    1    3    3    0    0  0.45565491026E+00 -0.27005901260E+02  0.24028061266E+01  0.27116412037E+02  0.51100000000E-03 0. -1.
        -11    1    3    3    0    0 -0.15866234631E+01 -0.47111870391E+01  0.96835613726E+01  0.10885036447E+02  0.51100000000E-03 0.  1.
        -12    1    3    3    0    0  0.18024746408E+02  0.29028468881E+02 -0.44672583355E+01  0.34460120221E+02  0.00000000000E+00 0.  1.
</event>
<event>
 7    1  0.2944263E-013  0.7246123E+02  0.7816164E-02  0.1226709E+00
        -11   -1    0    0    0    0  0.00000000000E+00  0.00000000000E+00  0.45593999997E+02  0.45594000000E+02  0.51100000000E-03 0.  1.
         11   -1    0    0    0    0 -0.00000000000E+00 -0.00000000000E+00 -0.45593999997E+02  0.45594000000E+02  0.51100000000E-03 0. -1.
    9900012    2    1    2    0    0  0.17871676386E+01 -0.17932340807E+02  0.50920542488E+01  0.72461232221E+02  0.69999559595E+02 0.  0.
         12    1    1    2    0    0 -0.17871676386E+01  0.17932340807E+02 -0.50920542488E+01  0.18726767779E+02  0.00000000000E+00 0. -1.
         11    1    3    3    0    0 -0.16672794760E+01 -0.52249604881E+01 -0.16078529129E+02  0.16988205679E+02  0.51100000000E-03 0. -1.
        -11    1    3    3    0    0  0.11049310673E+02 -0.50283839293E+01 -0.14088269957E+02  0.18597076703E+02  0.51100000000E-03 0.  1.
        -12    1    3    3    0    0 -0.75948635582E+01 -0.76789963893E+01  0.35258853335E+02  0.36875949839E+02  0.00000000000E+00 0.  1.
</event>
<event>
 7    1  0.2944263E-013  0.7246172E+02  0.7816164E-02  0.1226708E+00
        -11   -1    0    0    0    0  0.00000000000E+00  0.00000000000E+00  0.45593999997E+02  0.45594000000E+02  0.51100000000E-03 0.  1.
         11   -1    0    0    0    0 -0.00000000000E+00 -0.00000000000E+00 -0.45593999997E+02  0.45594000000E+02  0.51100000000E-03 0. -1.
    9900012    2    1    2    0    0  0.18655109100E+02  0.14664488707E+01 -0.71419590042E+00  0.72461717838E+02  0.70000192203E+02 0.  0.
         12    1    1    2    0    0 -0.18655109100E+02 -0.14664488707E+01  0.71419590042E+00  0.18726282162E+02  0.00000000000E+00 0. -1.
         11    1    3    3    0    0  0.88537876929E+00 -0.68617608278E+01  0.16554234575E+01  0.71139359224E+01  0.51100000000E-03 0. -1.
        -11    1    3    3    0    0  0.26231595254E+02  0.35311595044E+01  0.24934140946E+02  0.36363127781E+02  0.51100000000E-03 0.  1.
         12    1    3    3    0    0 -0.84618649236E+01  0.47970501941E+01 -0.27303760304E+02  0.28984654134E+02  0.00000000000E+00 0. -1.
</event>
<event>
 7    1  0.2944263E-013  0.7246157E+02  0.7816164E-02  0.1226708E+00
        -11   -1    0    0    0    0  0.00000000000E+00  0.00000000000E+00  0.45593999997E+02  0.45594000000E+02  0.51100000000E-03 0.  1.
         11   -1    0    0    0    0 -0.00000000000E+00 -0.00000000000E+00 -0.45593999997E+02  0.45594000000E+02  0.51100000000E-03 0. -1.
    9900012    2    1    2    0    0 -0.15276832271E+02 -0.35736984922E+01  0.10223817272E+02  0.72461565081E+02  0.69999993208E+02 0.  0.
         12    1    1    2    0    0  0.15276832271E+02  0.35736984922E+01 -0.10223817272E+02  0.18726434919E+02  0.00000000000E+00 0. -1.
         11    1    3    3    0    0 -0.20579403318E+02  0.62627778291E+01 -0.43446468629E+01  0.21945618781E+02  0.51100000000E-03 0. -1.
        -11    1    3    3    0    0 -0.83945709960E+01 -0.53891133779E+01  0.28672771104E+02  0.30358510640E+02  0.51100000000E-03 0.  1.
         12    1    3    3    0    0  0.13697142043E+02 -0.44473629434E+01 -0.14104306969E+02  0.20157435660E+02  0.00000000000E+00 0. -1.
</event>
<event>
 7    1  0.2944263E-013  0.7246152E+02  0.7816164E-02  0.1226708E+00
        -11   -1    0    0    0    0  0.00000000000E+00  0.00000000000E+00  0.45593999997E+02  0.45594000000E+02  0.51100000000E-03 0.  1.
         11   -1    0    0    0    0 -0.00000000000E+00 -0.00000000000E+00 -0.45593999997E+02  0.45594000000E+02  0.51100000000E-03 0. -1.
    9900012    2    1    2    0    0 -0.13305393368E+02 -0.13144577030E+02 -0.93153353139E+00  0.72461517344E+02  0.69999931022E+02 0.  0.
         12    1    1    2    0    0  0.13305393368E+02  0.13144577030E+02  0.93153353139E+00  0.18726482656E+02  0.00000000000E+00 0. -1.
         11    1    3    3    0    0  0.90598526036E+01  0.93500396487E+01  0.55415461107E+00  0.13031164884E+02  0.51100000000E-03 0. -1.
        -11    1    3    3    0    0  0.12587576819E+02  0.10445980222E+01  0.95900210299E+01  0.15858965250E+02  0.51100000000E-03 0.  1.
        -12    1    3    3    0    0 -0.34952822790E+02 -0.23539214700E+02 -0.11075709172E+02  0.43571387210E+02  0.00000000000E+00 0.  1.
</event>
<event>
 7    1  0.2944263E-013  0.7246155E+02  0.7816164E-02  0.1226708E+00
        -11   -1    0    0    0    0  0.00000000000E+00  0.00000000000E+00  0.45593999997E+02  0.45594000000E+02  0.51100000000E-03 0.  1.
         11   -1    0    0    0    0 -0.00000000000E+00 -0.00000000000E+00 -0.45593999997E+02  0.45594000000E+02  0.51100000000E-03 0. -1.
    9900012    2    1    2    0    0  0.49957139067E-01  0.15848083147E+02  0.99757525813E+01  0.72461551466E+02  0.69999975472E+02 0.  0.
         12    1    1    2    0    0 -0.49957139067E-01 -0.15848083147E+02 -0.99757525813E+01  0.18726448534E+02  0.00000000000E+00 0. -1.
         11    1    3    3    0    0 -0.17320243048E+01  0.84614430146E+00  0.27887069863E+01  0.33900966488E+01  0.51100000000E-03 0. -1.
        -11    1    3    3    0    0  0.20791607989E+02  0.30437106060E+02  0.19458790831E+02  0.41681565817E+02  0.51100000000E-03 0.  1.
         12    1    3    3    0    0 -0.19009626545E+02 -0.15435167215E+02 -0.12271745236E+02  0.27389889001E+02  0.00000000000E+00 0. -1.
</event>
<event>
 7    1  0.2944263E-013  0.7246151E+02  0.7816164E-02  0.1226708E+00
        -11   -1    0    0    0    0  0.00000000000E+00  0.00000000000E+00  0.45593999997E+02  0.45594000000E+02  0.51100000000E-03 0.  1.
         11   -1    0    0    0    0 -0.00000000000E+00 -0.00000000000E+00 -0.45593999997E+02  0.45594000000E+02  0.51100000000E-03 0. -1.
    9900012    2    1    2    0    0  0.84742736029E+01  0.16078494001E+02 -0.45111028019E+01  0.72461512585E+02  0.69999924822E+02 0.  0.
         12    1    1    2    0    0 -0.84742736029E+01 -0.16078494001E+02  0.45111028019E+01  0.18726487415E+02  0.00000000000E+00 0. -1.
         11    1    3    3    0    0  0.30091433211E+01  0.10876134883E+02  0.74120098702E+01  0.13501227504E+02  0.51100000000E-03 0. -1.
        -11    1    3    3    0    0  0.27527328677E+02  0.15063315902E+02 -0.14669858827E+02  0.34639025221E+02  0.51100000000E-03 0.  1.
         12    1    3    3    0    0 -0.22062198395E+02 -0.98609567842E+01  0.27467461545E+01  0.24321259860E+02  0.00000000000E+00 0. -1.
</event>
<event>
 7    1  0.2944263E-013  0.7246096E+02  0.7816164E-02  0.1226710E+00
        -11   -1    0    0    0    0  0.00000000000E+00  0.00000000000E+00  0.45593999997E+02  0.45594000000E+02  0.51100000000E-03 0.  1.
         11   -1    0    0    0    0 -0.00000000000E+00 -0.00000000000E+00 -0.45593999997E+02  0.45594000000E+02  0.51100000000E-03 0. -1.
    9900012    2    1    2    0    0 -0.45044109711E+01 -0.10497478619E+02  0.14839654672E+02  0.72460957352E+02  0.69999201524E+02 0.  0.
         12    1    1    2    0    0  0.45044109711E+01  0.10497478619E+02 -0.14839654672E+02  0.18727042648E+02  0.00000000000E+00 0. -1.
         11    1    3    3    0    0 -0.46461836706E+01  0.11449395776E+02 -0.51393495032E+00  0.12366883833E+02  0.51100000000E-03 0. -1.
        -11    1    3    3    0    0 -0.19443569390E+01  0.14362033645E+02  0.18600964511E+02  0.23580594041E+02  0.51100000000E-03 0.  1.
         12    1    3    3    0    0  0.20861296386E+01 -0.36308908040E+02 -0.32473748887E+01  0.36513479478E+02  0.00000000000E+00 0. -1.
</event>
<event>
 7    1  0.2944263E-013  0.7246152E+02  0.7816164E-02  0.1226708E+00
        -11   -1    0    0    0    0  0.00000000000E+00  0.00000000000E+00  0.45593999997E+02  0.45594000000E+02  0.51100000000E-03 0. -1.
         11   -1    0    0    0    0 -0.00000000000E+00 -0.00000000000E+00 -0.45593999997E+02  0.45594000000E+02  0.51100000000E-03 0.  1.
    9900012    2    1    2    0    0 -0.18584713640E+02 -0.11118665167E+01  0.20132790051E+01  0.72461518201E+02  0.69999932138E+02 0.  0.
         12    1    1    2    0    0  0.18584713640E+02  0.11118665167E+01 -0.20132790051E+01  0.18726481799E+02  0.00000000000E+00 0. -1.
         11    1    3    3    0    0 -0.81993529052E+01  0.19952404983E+01  0.79326401914E+01  0.11581759511E+02  0.51100000000E-03 0. -1.
        -11    1    3    3    0    0 -0.30358917647E+02  0.14565334880E+02 -0.55792705921E+00  0.33676759698E+02  0.51100000000E-03 0.  1.
         12    1    3    3    0    0  0.19973556912E+02 -0.17672441895E+02 -0.53614341271E+01  0.27202998992E+02  0.00000000000E+00 0. -1.
</event>
<event>
 7    1  0.2944263E-013  0.7246168E+02  0.7816164E-02  0.1226708E+00
        -11   -1    0    0    0    0  0.00000000000E+00  0.00000000000E+00  0.45593999997E+02  0.45594000000E+02  0.51100000000E-03 0. -1.
         11   -1    0    0    0    0 -0.00000000000E+00 -0.00000000000E+00 -0.45593999997E+02  0.45594000000E+02  0.51100000000E-03 0.  1.
    9900012    2    1    2    0    0  0.10441819723E+02  0.59820304011E+01 -0.14347775767E+02  0.72461682789E+02  0.70000146545E+02 0.  0.
         12    1    1    2    0    0 -0.10441819723E+02 -0.59820304011E+01  0.14347775767E+02  0.18726317211E+02  0.00000000000E+00 0. -1.
         11    1    3    3    0    0  0.50374951084E+01  0.57793793590E+01  0.46640771310E+01  0.89739176778E+01  0.51100000000E-03 0. -1.
        -11    1    3    3    0    0  0.32673570995E+02 -0.31792200003E+01 -0.13314319520E+02  0.35425143414E+02  0.51100000000E-03 0.  1.
         12    1    3    3    0    0 -0.27269246381E+02  0.33818710423E+01 -0.56975333777E+01  0.28062621697E+02  0.00000000000E+00 0. -1.
</event>
<event>
 7    1  0.2944263E-013  0.7246155E+02  0.7816164E-02  0.1226708E+00
        -11   -1    0    0    0    0  0.00000000000E+00  0.00000000000E+00  0.45593999997E+02  0.45594000000E+02  0.51100000000E-03 0. -1.
         11   -1    0    0    0    0 -0.00000000000E+00 -0.00000000000E+00 -0.45593999997E+02  0.45594000000E+02  0.51100000000E-03 0.  1.
    9900012    2    1    2    0    0  0.41874941008E+01  0.17523998771E+02  0.51043381717E+01  0.72461550578E+02  0.69999974316E+02 0.  0.
         12    1    1    2    0    0 -0.41874941008E+01 -0.17523998771E+02 -0.51043381717E+01  0.18726449422E+02  0.00000000000E+00 0. -1.
         11    1    3    3    0    0  0.17259719932E+01 -0.62887763514E+01  0.99663783159E+01  0.11910347783E+02  0.51100000000E-03 0. -1.
        -11    1    3    3    0    0 -0.19692715463E+02 -0.66488315853E+01  0.54725991399E+01  0.21493239527E+02  0.51100000000E-03 0.  1.
        -12    1    3    3    0    0  0.22154237570E+02  0.30461606708E+02 -0.10334639284E+02  0.39057963268E+02  0.00000000000E+00 0.  1.
</event>
<event>
 7    1  0.2944263E-013  0.7246130E+02  0.7816164E-02  0.1226709E+00
        -11   -1    0    0    0    0  0.00000000000E+00  0.00000000000E+00  0.45593999997E+02  0.45594000000E+02  0.51100000000E-03 0.  1.
         11   -1    0    0    0    0 -0.00000000000E+00 -0.00000000000E+00 -0.45593999997E+02  0.45594000000E+02  0.51100000000E-03 0. -1.
    9900012    2    1    2    0    0 -0.95535586814E+01  0.14406728604E+02 -0.72017363900E+01  0.72461299287E+02  0.69999646962E+02 0.  0.
         12    1    1    2    0    0  0.95535586814E+01 -0.14406728604E+02  0.72017363900E+01  0.18726700713E+02  0.00000000000E+00 0. -1.
         11    1    3    3    0    0 -0.70490228475E+01 -0.55420889374E+01 -0.25585995758E+02  0.27111743804E+02  0.51100000000E-03 0. -1.
        -11    1    3    3    0    0 -0.59349936547E+01  0.81633992248E+01 -0.10133611509E+02  0.14302283701E+02  0.51100000000E-03 0.  1.
        -12    1    3    3    0    0  0.34304578208E+01  0.11785418317E+02  0.28517870877E+02  0.31047271782E+02  0.00000000000E+00 0.  1.
</event>
<event>
 7    1  0.2944263E-013  0.7246161E+02  0.7816164E-02  0.1226708E+00
        -11   -1    0    0    0    0  0.00000000000E+00  0.00000000000E+00  0.45593999997E+02  0.45594000000E+02  0.51100000000E-03 0. -1.
         11   -1    0    0    0    0 -0.00000000000E+00 -0.00000000000E+00 -0.45593999997E+02  0.45594000000E+02  0.51100000000E-03 0.  1.
    9900012    2    1    2    0    0 -0.14933273363E+01 -0.18663129205E+02  0.36763618172E+00  0.72461612878E+02  0.70000055473E+02 0.  0.
         12    1    1    2    0    0  0.14933273363E+01  0.18663129205E+02 -0.36763618172E+00  0.18726387122E+02  0.00000000000E+00 0. -1.
         11    1    3    3    0    0 -0.57690763286E+01 -0.19383089661E+02  0.17515183405E+00  0.20224170809E+02  0.51100000000E-03 0. -1.
        -11    1    3    3    0    0  0.14146200752E+02 -0.92499227015E+01  0.21115022233E+02  0.27046630656E+02  0.51100000000E-03 0.  1.
         12    1    3    3    0    0 -0.98704517593E+01  0.99698831574E+01 -0.20922537885E+02  0.25190811413E+02  0.00000000000E+00 0. -1.
</event>
<event>
 7    1  0.2944263E-013  0.7246157E+02  0.7816164E-02  0.1226708E+00
        -11   -1    0    0    0    0  0.00000000000E+00  0.00000000000E+00  0.45593999997E+02  0.45594000000E+02  0.51100000000E-03 0. -1.
         11   -1    0    0    0    0 -0.00000000000E+00 -0.00000000000E+00 -0.45593999997E+02  0.45594000000E+02  0.51100000000E-03 0.  1.
    9900012    2    1    2    0    0  0.12419620263E+02  0.47457904474E+01 -0.13187485084E+02  0.72461567951E+02  0.69999996948E+02 0.  0.
         12    1    1    2    0    0 -0.12419620263E+02 -0.47457904474E+01  0.13187485084E+02  0.18726432049E+02  0.00000000000E+00 0. -1.
         11    1    3    3    0    0 -0.59412621432E+01 -0.39583534739E+00 -0.59761326138E+01  0.84361983592E+01  0.51100000000E-03 0. -1.
        -11    1    3    3    0    0 -0.53380435081E+01  0.25932349380E+02 -0.16454017169E+02  0.31172361702E+02  0.51100000000E-03 0.  1.
         12    1    3    3    0    0  0.23698925914E+02 -0.20790723585E+02  0.92426646991E+01  0.32853007890E+02  0.00000000000E+00 0. -1.
</event>
<event>
 7    1  0.2944263E-013  0.7246183E+02  0.7816164E-02  0.1226707E+00
        -11   -1    0    0    0    0  0.00000000000E+00  0.00000000000E+00  0.45593999997E+02  0.45594000000E+02  0.51100000000E-03 0.  1.
         11   -1    0    0    0    0 -0.00000000000E+00 -0.00000000000E+00 -0.45593999997E+02  0.45594000000E+02  0.51100000000E-03 0. -1.
    9900012    2    1    2    0    0  0.16958409162E+02 -0.79107130734E+01 -0.70873383078E+00  0.72461833113E+02  0.70000342369E+02 0.  0.
         12    1    1    2    0    0 -0.16958409162E+02  0.79107130734E+01  0.70873383078E+00  0.18726166887E+02  0.00000000000E+00 0. -1.
         11    1    3    3    0    0 -0.20247248065E+02 -0.10679305731E+02  0.93287711436E+01  0.24718911716E+02  0.51100000000E-03 0. -1.
        -11    1    3    3    0    0  0.12369190695E+02 -0.80071538019E+01  0.64061526507E+01  0.16067052701E+02  0.51100000000E-03 0.  1.
         12    1    3    3    0    0  0.24836466532E+02  0.10775746460E+02 -0.16443657625E+02  0.31675868696E+02  0.00000000000E+00 0. -1.
</event>
<event>
 7    1  0.2944263E-013  0.7246182E+02  0.7816164E-02  0.1226707E+00
        -11   -1    0    0    0    0  0.00000000000E+00  0.00000000000E+00  0.45593999997E+02  0.45594000000E+02  0.51100000000E-03 0. -1.
         11   -1    0    0    0    0 -0.00000000000E+00 -0.00000000000E+00 -0.45593999997E+02  0.45594000000E+02  0.51100000000E-03 0.  1.
    9900012    2    1    2    0    0 -0.17319537918E+02  0.38121242846E+01  0.60142534729E+01  0.72461816991E+02  0.70000321367E+02 0.  0.
         12    1    1    2    0    0  0.17319537918E+02 -0.38121242846E+01 -0.60142534729E+01  0.18726183009E+02  0.00000000000E+00 0. -1.
         11    1    3    3    0    0 -0.12476848263E+02 -0.12639311832E+01  0.12150851976E+02  0.17461743001E+02  0.51100000000E-03 0. -1.
        -11    1    3    3    0    0  0.52393869550E+00  0.23004012390E+02  0.14456197386E+02  0.27174266153E+02  0.51100000000E-03 0.  1.
        -12    1    3    3    0    0 -0.53666283511E+01 -0.17927956922E+02 -0.20592795890E+02  0.27825807838E+02  0.00000000000E+00 0.  1.
</event>
<event>
 7    1  0.2944263E-013  0.7246155E+02  0.7816164E-02  0.1226708E+00
        -11   -1    0    0    0    0  0.00000000000E+00  0.00000000000E+00  0.45593999997E+02  0.45594000000E+02  0.51100000000E-03 0. -1.
         11   -1    0    0    0    0 -0.00000000000E+00 -0.00000000000E+00 -0.45593999997E+02  0.45594000000E+02  0.51100000000E-03 0.  1.
    9900012    2    1    2    0    0  0.12054426167E+02 -0.18785208213E+01 -0.14207101996E+02  0.72461554053E+02  0.69999978842E+02 0.  0.
         12    1    1    2    0    0 -0.12054426167E+02  0.18785208213E+01  0.14207101996E+02  0.18726445947E+02  0.00000000000E+00 0. -1.
         11    1    3    3    0    0  0.14676279942E+02  0.12632756539E+02  0.17901281544E+02  0.26371113209E+02  0.51100000000E-03 0. -1.
        -11    1    3    3    0    0  0.56747296187E+01 -0.27759004534E+01  0.38281050870E+01  0.73866479807E+01  0.51100000000E-03 0.  1.
        -12    1    3    3    0    0 -0.82965833939E+01 -0.11735376907E+02 -0.35936488627E+02  0.38703792863E+02  0.00000000000E+00 0.  1.
</event>
<event>
 7    1  0.2944263E-013  0.7246158E+02  0.7816164E-02  0.1226708E+00
        -11   -1    0    0    0    0  0.00000000000E+00  0.00000000000E+00  0.45593999997E+02  0.45594000000E+02  0.51100000000E-03 0. -1.
         11   -1    0    0    0    0 -0.00000000000E+00 -0.00000000000E+00 -0.45593999997E+02  0.45594000000E+02  0.51100000000E-03 0.  1.
    9900012    2    1    2    0    0 -0.72471890818E+01 -0.20134781507E+01  0.17149435526E+02  0.72461575282E+02  0.70000006497E+02 0.  0.
         12    1    1    2    0    0  0.72471890818E+01  0.20134781507E+01 -0.17149435526E+02  0.18726424718E+02  0.00000000000E+00 0. -1.
         11    1    3    3    0    0  0.10300385660E+02 -0.24413798500E+01 -0.86765245986E+00  0.10621257052E+02  0.51100000000E-03 0. -1.
        -11    1    3    3    0    0 -0.40907696622E+01  0.64339945978E+01 -0.19819442106E+02  0.21235370695E+02  0.51100000000E-03 0.  1.
         12    1    3    3    0    0 -0.13456805080E+02 -0.60060928985E+01  0.37836530092E+02  0.40604947534E+02  0.00000000000E+00 0. -1.
</event>
<event>
 7    1  0.2944263E-013  0.7246154E+02  0.7816164E-02  0.1226708E+00
        -11   -1    0    0    0    0  0.00000000000E+00  0.00000000000E+00  0.45593999997E+02  0.45594000000E+02  0.51100000000E-03 0.  1.
         11   -1    0    0    0    0 -0.00000000000E+00 -0.00000000000E+00 -0.45593999997E+02  0.45594000000E+02  0.51100000000E-03 0. -1.
    9900012    2    1    2    0    0 -0.59984705063E+01 -0.17716592906E+02  0.90617540495E+00  0.72461535666E+02  0.69999954890E+02 0.  0.
         12    1    1    2    0    0  0.59984705063E+01  0.17716592906E+02 -0.90617540495E+00  0.18726464334E+02  0.00000000000E+00 0. -1.
         11    1    3    3    0    0 -0.20344340738E+01  0.54638183602E+01 -0.86748768944E+01  0.10452067856E+02  0.51100000000E-03 0. -1.
        -11    1    3    3    0    0 -0.36944869836E+00  0.15471040641E+02  0.16453276613E+02  0.22587605062E+02  0.51100000000E-03 0.  1.
         12    1    3    3    0    0 -0.35945877341E+01 -0.38651451907E+02 -0.68722243135E+01  0.39421862748E+02  0.00000000000E+00 0. -1.
</event>
<event>
 7    1  0.2944263E-013  0.7246155E+02  0.7816164E-02  0.1226708E+00
        -11   -1    0    0    0    0  0.00000000000E+00  0.00000000000E+00  0.45593999997E+02  0.45594000000E+02  0.51100000000E-03 0. -1.
         11   -1    0    0    0    0 -0.00000000000E+00 -0.00000000000E+00 -0.45593999997E+02  0.45594000000E+02  0.51100000000E-03 0.  1.
    9900012    2    1    2    0    0  0.91320180261E+01  0.16192078426E+02  0.22589563563E+01  0.72461547031E+02  0.69999969696E+02 0.  0.
         12    1    1    2    0    0 -0.91320180261E+01 -0.16192078426E+02 -0.22589563563E+01  0.18726452969E+02  0.00000000000E+00 0. -1.
         11    1    3    3    0    0  0.99126440668E+01  0.13711013955E+02 -0.12167278250E+02  0.20839747511E+02  0.51100000000E-03 0. -1.
        -11    1    3    3    0    0  0.85121446251E+01 -0.15131371983E+02 -0.10056027155E+02  0.20063367280E+02  0.51100000000E-03 0.  1.
         12    1    3    3    0    0 -0.92927706658E+01  0.17612436454E+02  0.24482261761E+02  0.31558432240E+02  0.00000000000E+00 0. -1.
</event>
<event>
 7    1  0.2944263E-013  0.7246156E+02  0.7816164E-02  0.1226708E+00
        -11   -1    0    0    0    0  0.00000000000E+00  0.00000000000E+00  0.45593999997E+02  0.45594000000E+02  0.51100000000E-03 0. -1.
         11   -1    0    0    0    0 -0.00000000000E+00 -0.00000000000E+00 -0.45593999997E+02  0.45594000000E+02  0.51100000000E-03 0.  1.
    9900012    2    1    2    0    0 -0.69966691369E+01 -0.26433058791E+00 -0.17368259337E+02  0.72461556609E+02  0.69999982172E+02 0.  0.
         12    1    1    2    0    0  0.69966691369E+01  0.26433058791E+00  0.17368259337E+02  0.18726443391E+02  0.00000000000E+00 0. -1.
         11    1    3    3    0    0 -0.24162872108E+01  0.10167498659E+02 -0.94443635579E+00  0.10493256556E+02  0.51100000000E-03 0. -1.
        -11    1    3    3    0    0 -0.21926409776E+02 -0.13932768715E+02 -0.29985157485E+02  0.39673658256E+02  0.51100000000E-03 0.  1.
         12    1    3    3    0    0  0.17346027850E+02  0.35009394682E+01  0.13561334504E+02  0.22294641797E+02  0.00000000000E+00 0. -1.
</event>
<event>
 7    1  0.2944263E-013  0.7246162E+02  0.7816164E-02  0.1226708E+00
        -11   -1    0    0    0    0  0.00000000000E+00  0.00000000000E+00  0.45593999997E+02  0.45594000000E+02  0.51100000000E-03 0.  1.
         11   -1    0    0    0    0 -0.00000000000E+00 -0.00000000000E+00 -0.45593999997E+02  0.45594000000E+02  0.51100000000E-03 0. -1.
    9900012    2    1    2    0    0  0.17036348895E+02 -0.36050910824E+01  0.68879184970E+01  0.72461620568E+02  0.70000065491E+02 0.  0.
         12    1    1    2    0    0 -0.17036348895E+02  0.36050910824E+01 -0.68879184970E+01  0.18726379432E+02  0.00000000000E+00 0. -1.
         11    1    3    3    0    0  0.23108967503E+02 -0.10748707798E+01  0.55065278377E+01  0.23780277024E+02  0.51100000000E-03 0.  1.
        -11    1    3    3    0    0  0.15481469915E+02 -0.13865490412E+02 -0.84283223752E+01  0.22426866777E+02  0.51100000000E-03 0. -1.
         12    1    3    3    0    0 -0.21554088523E+02  0.11335270110E+02  0.98097130345E+01  0.26254476768E+02  0.00000000000E+00 0. -1.
</event>
<event>
 7    1  0.2944263E-013  0.7246149E+02  0.7816164E-02  0.1226708E+00
        -11   -1    0    0    0    0  0.00000000000E+00  0.00000000000E+00  0.45593999997E+02  0.45594000000E+02  0.51100000000E-03 0. -1.
         11   -1    0    0    0    0 -0.00000000000E+00 -0.00000000000E+00 -0.45593999997E+02  0.45594000000E+02  0.51100000000E-03 0.  1.
    9900012    2    1    2    0    0 -0.50639964313E+01 -0.42415922262E+01 -0.17522761879E+02  0.72461485419E+02  0.69999889434E+02 0.  0.
         12    1    1    2    0    0  0.50639964313E+01  0.42415922262E+01  0.17522761879E+02  0.18726514581E+02  0.00000000000E+00 0. -1.
         11    1    3    3    0    0  0.71161516061E+01  0.21551359220E+02 -0.10167407774E+02  0.24869195383E+02  0.51100000000E-03 0. -1.
        -11    1    3    3    0    0 -0.84128007628E+01  0.72971881411E+01  0.48168529650E+01  0.12133682219E+02  0.51100000000E-03 0.  1.
        -12    1    3    3    0    0 -0.37673472746E+01 -0.33090139587E+02 -0.12172207071E+02  0.35458607817E+02  0.00000000000E+00 0.  1.
</event>
<event>
 7    1  0.2944263E-013  0.7246157E+02  0.7816164E-02  0.1226708E+00
        -11   -1    0    0    0    0  0.00000000000E+00  0.00000000000E+00  0.45593999997E+02  0.45594000000E+02  0.51100000000E-03 0. -1.
         11   -1    0    0    0    0 -0.00000000000E+00 -0.00000000000E+00 -0.45593999997E+02  0.45594000000E+02  0.51100000000E-03 0.  1.
    9900012    2    1    2    0    0  0.16592978443E+02  0.67630077926E+01  0.54418765699E+01  0.72461568717E+02  0.69999997945E+02 0.  0.
         12    1    1    2    0    0 -0.16592978443E+02 -0.67630077926E+01 -0.54418765699E+01  0.18726431283E+02  0.00000000000E+00 0. -1.
         11    1    3    3    0    0  0.12456868828E+02  0.58894167176E+01  0.12535006702E+01  0.13835825760E+02  0.51100000000E-03 0. -1.
        -11    1    3    3    0    0  0.15515193616E+02  0.78789432259E+01 -0.22698684545E+02  0.28601210807E+02  0.51100000000E-03 0.  1.
         12    1    3    3    0    0 -0.11379084001E+02 -0.70053521508E+01  0.26887060445E+02  0.30024532150E+02  0.00000000000E+00 0. -1.
</event>
<event>
 7    1  0.2944263E-013  0.7246158E+02  0.7816164E-02  0.1226708E+00
        -11   -1    0    0    0    0  0.00000000000E+00  0.00000000000E+00  0.45593999997E+02  0.45594000000E+02  0.51100000000E-03 0.  1.
         11   -1    0    0    0    0 -0.00000000000E+00 -0.00000000000E+00 -0.45593999997E+02  0.45594000000E+02  0.51100000000E-03 0. -1.
    9900012    2    1    2    0    0  0.96408561809E+00  0.12467346734E+02  0.13939676353E+02  0.72461580895E+02  0.70000013810E+02 0.  0.
         12    1    1    2    0    0 -0.96408561809E+00 -0.12467346734E+02 -0.13939676353E+02  0.18726419105E+02  0.00000000000E+00 0. -1.
         11    1    3    3    0    0  0.74693022845E+01 -0.14347169143E+02 -0.70273879531E+01  0.17635643474E+02  0.51100000000E-03 0.  1.
        -11    1    3    3    0    0  0.47256796462E+01  0.12398078622E+02 -0.11507021286E+02  0.17562913790E+02  0.51100000000E-03 0. -1.
        -12    1    3    3    0    0 -0.11230896313E+02  0.14416437255E+02  0.32474085593E+02  0.37263023632E+02  0.00000000000E+00 0.  1.
</event>
<event>
 7    1  0.2944263E-013  0.7246158E+02  0.7816164E-02  0.1226708E+00
        -11   -1    0    0    0    0  0.00000000000E+00  0.00000000000E+00  0.45593999997E+02  0.45594000000E+02  0.51100000000E-03 0.  1.
         11   -1    0    0    0    0 -0.00000000000E+00 -0.00000000000E+00 -0.45593999997E+02  0.45594000000E+02  0.51100000000E-03 0. -1.
    9900012    2    1    2    0    0 -0.61640615329E+01  0.10041019801E+02  0.14555454298E+02  0.72461575274E+02  0.70000006487E+02 0.  0.
         12    1    1    2    0    0  0.61640615329E+01 -0.10041019801E+02 -0.14555454298E+02  0.18726424726E+02  0.00000000000E+00 0. -1.
         11    1    3    3    0    0 -0.11718827154E+02  0.26186439081E+02  0.19736400018E+02  0.34822205381E+02  0.51100000000E-03 0. -1.
        -11    1    3    3    0    0  0.51694345805E+01  0.99296627008E+01 -0.11888146806E+01  0.11257643441E+02  0.51100000000E-03 0.  1.
        -12    1    3    3    0    0  0.38533104087E+00 -0.26075081982E+02 -0.39921310400E+01  0.26381726452E+02  0.00000000000E+00 0.  1.
</event>
<event>
 7    1  0.2944263E-013  0.7246149E+02  0.7816164E-02  0.1226708E+00
        -11   -1    0    0    0    0  0.00000000000E+00  0.00000000000E+00  0.45593999997E+02  0.45594000000E+02  0.51100000000E-03 0. -1.
         11   -1    0    0    0    0 -0.00000000000E+00 -0.00000000000E+00 -0.45593999997E+02  0.45594000000E+02  0.51100000000E-03 0.  1.
    9900012    2    1    2    0    0  0.66153755166E+01 -0.87311497581E+01 -0.15188349424E+02  0.72461491314E+02  0.69999897114E+02 0.  0.
         12    1    1    2    0    0 -0.66153755166E+01  0.87311497581E+01  0.15188349424E+02  0.18726508686E+02  0.00000000000E+00 0. -1.
         11    1    3    3    0    0 -0.11370760281E+02  0.78073502169E+01  0.30999991217E+01  0.14137146161E+02  0.51100000000E-03 0. -1.
        -11    1    3    3    0    0 -0.56147035754E+01  0.14977406629E+02 -0.46819781523E+01  0.16666389089E+02  0.51100000000E-03 0.  1.
        -12    1    3    3    0    0  0.23600839373E+02 -0.31515906604E+02 -0.13606370394E+02  0.41657956064E+02  0.00000000000E+00 0.  1.
</event>
<event>
 7    1  0.2944263E-013  0.7246165E+02  0.7816164E-02  0.1226708E+00
        -11   -1    0    0    0    0  0.00000000000E+00  0.00000000000E+00  0.45593999997E+02  0.45594000000E+02  0.51100000000E-03 0. -1.
         11   -1    0    0    0    0 -0.00000000000E+00 -0.00000000000E+00 -0.45593999997E+02  0.45594000000E+02  0.51100000000E-03 0.  1.
    9900012    2    1    2    0    0 -0.10313158947E+02 -0.57968475903E+01 -0.14515908334E+02  0.72461647333E+02  0.70000100357E+02 0.  0.
         12    1    1    2    0    0  0.10313158947E+02  0.57968475903E+01  0.14515908334E+02  0.18726352667E+02  0.00000000000E+00 0. -1.
         11    1    3    3    0    0 -0.20050466715E+00  0.25883920463E+02 -0.13348550648E+02  0.29123896466E+02  0.51100000000E-03 0. -1.
        -11    1    3    3    0    0  0.12603861658E+01 -0.43020505359E+01 -0.11180331759E+02  0.12045581372E+02  0.51100000000E-03 0.  1.
        -12    1    3    3    0    0 -0.11373040446E+02 -0.27378717518E+02  0.10012974073E+02  0.31292169495E+02  0.00000000000E+00 0.  1.
</event>
<event>
 7    1  0.4530067E-013  0.7246166E+02  0.7816164E-02  0.1226708E+00
        -11   -1    0    0    0    0  0.00000000000E+00  0.00000000000E+00  0.45593999997E+02  0.45594000000E+02  0.51100000000E-03 0. -1.
         11   -1    0    0    0    0 -0.00000000000E+00 -0.00000000000E+00 -0.45593999997E+02  0.45594000000E+02  0.51100000000E-03 0.  1.
    9900012    2    1    2    0    0  0.64361930630E+01  0.17012533591E+02 -0.44525244597E+01  0.72461658809E+02  0.70000115307E+02 0.  0.
         12    1    1    2    0    0 -0.64361930630E+01 -0.17012533591E+02  0.44525244597E+01  0.18726341191E+02  0.00000000000E+00 0. -1.
         11    1    3    3    0    0  0.64167251757E+01  0.11869556329E+02  0.16735316937E+02  0.21497245467E+02  0.51100000000E-03 0. -1.
        -11    1    3    3    0    0  0.52204560468E+01  0.24164837922E+02 -0.18885556028E+02  0.31110396653E+02  0.51100000000E-03 0.  1.
         12    1    3    3    0    0 -0.52009881595E+01 -0.19021860660E+02 -0.23022853685E+01  0.19854016690E+02  0.00000000000E+00 0. -1.
</event>
<event>
 7    1  0.2944263E-013  0.7246152E+02  0.7816164E-02  0.1226708E+00
        -11   -1    0    0    0    0  0.00000000000E+00  0.00000000000E+00  0.45593999997E+02  0.45594000000E+02  0.51100000000E-03 0.  1.
         11   -1    0    0    0    0 -0.00000000000E+00 -0.00000000000E+00 -0.45593999997E+02  0.45594000000E+02  0.51100000000E-03 0. -1.
    9900012    2    1    2    0    0 -0.13959990512E+02 -0.11803217576E+02  0.40600257946E+01  0.72461519025E+02  0.69999933212E+02 0.  0.
         12    1    1    2    0    0  0.13959990512E+02  0.11803217576E+02 -0.40600257946E+01  0.18726480975E+02  0.00000000000E+00 0. -1.
         11    1    3    3    0    0 -0.28065299480E+02 -0.53824297375E+00 -0.38398004827E+01  0.28331869130E+02  0.51100000000E-03 0. -1.
        -11    1    3    3    0    0 -0.87883576095E+01  0.68063645060E+01  0.99125505759E+01  0.14893639127E+02  0.51100000000E-03 0.  1.
         12    1    3    3    0    0  0.22893666577E+02 -0.18071339109E+02 -0.20127242985E+01  0.29236010768E+02  0.00000000000E+00 0. -1.
</event>
<event>
 7    1  0.2944263E-013  0.7246156E+02  0.7816164E-02  0.1226708E+00
        -11   -1    0    0    0    0  0.00000000000E+00  0.00000000000E+00  0.45593999997E+02  0.45594000000E+02  0.51100000000E-03 0.  1.
         11   -1    0    0    0    0 -0.00000000000E+00 -0.00000000000E+00 -0.45593999997E+02  0.45594000000E+02  0.51100000000E-03 0. -1.
    9900012    2    1    2    0    0 -0.11494250828E+02  0.13393172862E+02  0.62597757863E+01  0.72461556817E+02  0.69999982443E+02 0.  0.
         12    1    1    2    0    0  0.11494250828E+02 -0.13393172862E+02 -0.62597757863E+01  0.18726443183E+02  0.00000000000E+00 0. -1.
         11    1    3    3    0    0  0.81090623752E+01 -0.15729128327E+01 -0.68661773572E+01  0.10741291316E+02  0.51100000000E-03 0. -1.
        -11    1    3    3    0    0 -0.12284225690E+02 -0.18927684426E+02  0.14832954876E+02  0.27003258862E+02  0.51100000000E-03 0.  1.
         12    1    3    3    0    0 -0.73190875133E+01  0.33893770120E+02 -0.17070017329E+01  0.34717006638E+02  0.00000000000E+00 0. -1.
</event>
<event>
 7    1  0.2944263E-013  0.7246154E+02  0.7816164E-02  0.1226708E+00
        -11   -1    0    0    0    0  0.00000000000E+00  0.00000000000E+00  0.45593999997E+02  0.45594000000E+02  0.51100000000E-03 0. -1.
         11   -1    0    0    0    0 -0.00000000000E+00 -0.00000000000E+00 -0.45593999997E+02  0.45594000000E+02  0.51100000000E-03 0.  1.
    9900012    2    1    2    0    0 -0.40151961817E+01  0.31082184299E+01 -0.18024914432E+02  0.72461538443E+02  0.69999958508E+02 0.  0.
         12    1    1    2    0    0  0.40151961817E+01 -0.31082184299E+01  0.18024914432E+02  0.18726461557E+02  0.00000000000E+00 0. -1.
         11    1    3    3    0    0  0.10874755549E+02  0.63817408233E+01  0.62488109195E+01  0.14072475345E+02  0.51100000000E-03 0. -1.
        -11    1    3    3    0    0 -0.32707608862E+01  0.19419412349E+02  0.42353722425E+01  0.20143232885E+02  0.51100000000E-03 0.  1.
        -12    1    3    3    0    0 -0.11619190844E+02 -0.22692934742E+02 -0.28509097594E+02  0.38245830213E+02  0.00000000000E+00 0.  1.
</event>
<event>
 7    1  0.2944263E-013  0.7246159E+02  0.7816164E-02  0.1226708E+00
        -11   -1    0    0    0    0  0.00000000000E+00  0.00000000000E+00  0.45593999997E+02  0.45594000000E+02  0.51100000000E-03 0. -1.
         11   -1    0    0    0    0 -0.00000000000E+00 -0.00000000000E+00 -0.45593999997E+02  0.45594000000E+02  0.51100000000E-03 0.  1.
    9900012    2    1    2    0    0 -0.17756475892E+02 -0.32572408419E+01 -0.49776052496E+01  0.72461585287E+02  0.70000019530E+02 0.  0.
         12    1    1    2    0    0  0.17756475892E+02  0.32572408419E+01  0.49776052496E+01  0.18726414713E+02  0.00000000000E+00 0. -1.
         11    1    3    3    0    0 -0.58707774335E+00  0.14549020284E+01  0.56472027425E+00  0.16674259919E+01  0.51100000000E-03 0. -1.
        -11    1    3    3    0    0  0.16210417323E+02  0.21876458443E+02 -0.69319421779E+01  0.28096421238E+02  0.51100000000E-03 0.  1.
         12    1    3    3    0    0 -0.33379815472E+02 -0.26588601313E+02  0.13896166540E+01  0.42697738056E+02  0.00000000000E+00 0. -1.
</event>
<event>
 7    1  0.2944263E-013  0.7246187E+02  0.7816164E-02  0.1226707E+00
        -11   -1    0    0    0    0  0.00000000000E+00  0.00000000000E+00  0.45593999997E+02  0.45594000000E+02  0.51100000000E-03 0. -1.
         11   -1    0    0    0    0 -0.00000000000E+00 -0.00000000000E+00 -0.45593999997E+02  0.45594000000E+02  0.51100000000E-03 0.  1.
    9900012    2    1    2    0    0 -0.18241815558E+02 -0.22759582643E+01 -0.35670730713E+01  0.72461873034E+02  0.70000394373E+02 0.  0.
         12    1    1    2    0    0  0.18241815558E+02  0.22759582643E+01  0.35670730713E+01  0.18726126966E+02  0.00000000000E+00 0. -1.
         11    1    3    3    0    0  0.83912484368E+01 -0.10377933933E+02  0.32679550143E+01  0.13740236289E+02  0.51100000000E-03 0. -1.
        -11    1    3    3    0    0  0.25623456074E+01  0.11221026649E+02 -0.22624426745E+02  0.25383887407E+02  0.51100000000E-03 0.  1.
         12    1    3    3    0    0 -0.29195409602E+02 -0.31190509808E+01  0.15789398660E+02  0.33337749337E+02  0.00000000000E+00 0. -1.
</event>
<event>
 7    1  0.2944263E-013  0.7246154E+02  0.7816164E-02  0.1226708E+00
        -11   -1    0    0    0    0  0.00000000000E+00  0.00000000000E+00  0.45593999997E+02  0.45594000000E+02  0.51100000000E-03 0.  1.
         11   -1    0    0    0    0 -0.00000000000E+00 -0.00000000000E+00 -0.45593999997E+02  0.45594000000E+02  0.51100000000E-03 0. -1.
    9900012    2    1    2    0    0  0.18663895566E+02  0.12046035374E+01  0.94245697206E+00  0.72461540310E+02  0.69999960940E+02 0.  0.
         12    1    1    2    0    0 -0.18663895566E+02 -0.12046035374E+01 -0.94245697206E+00  0.18726459690E+02  0.00000000000E+00 0. -1.
         11    1    3    3    0    0  0.23381116094E+00  0.84993596207E+01  0.81799612879E+00  0.85418323297E+01  0.51100000000E-03 0. -1.
        -11    1    3    3    0    0  0.27645552313E+02  0.20125803057E+02 -0.49452489764E+01  0.34551121532E+02  0.51100000000E-03 0.  1.
         12    1    3    3    0    0 -0.92154679080E+01 -0.27420559140E+02  0.50697098196E+01  0.29368586449E+02  0.00000000000E+00 0. -1.
</event>
<event>
 7    1  0.2944263E-013  0.7246160E+02  0.7816164E-02  0.1226708E+00
        -11   -1    0    0    0    0  0.00000000000E+00  0.00000000000E+00  0.45593999997E+02  0.45594000000E+02  0.51100000000E-03 0.  1.
         11   -1    0    0    0    0 -0.00000000000E+00 -0.00000000000E+00 -0.45593999997E+02  0.45594000000E+02  0.51100000000E-03 0. -1.
    9900012    2    1    2    0    0  0.37946002270E+01  0.54519204990E+01  0.17508724782E+02  0.72461604952E+02  0.70000045148E+02 0.  0.
         12    1    1    2    0    0 -0.37946002270E+01 -0.54519204990E+01 -0.17508724782E+02  0.18726395048E+02  0.00000000000E+00 0. -1.
         11    1    3    3    0    0 -0.50881188938E+01  0.59049200911E+01 -0.15191950541E+02  0.17074905466E+02  0.51100000000E-03 0. -1.
        -11    1    3    3    0    0 -0.83643804125E+01 -0.10133086711E+02 -0.39670083887E+01  0.13725139773E+02  0.51100000000E-03 0.  1.
         12    1    3    3    0    0  0.17247099533E+02  0.96800871190E+01  0.36667683712E+02  0.41661559713E+02  0.00000000000E+00 0. -1.
</event>
<event>
 7    1  0.2944263E-013  0.7246160E+02  0.7816164E-02  0.1226708E+00
        -11   -1    0    0    0    0  0.00000000000E+00  0.00000000000E+00  0.45593999997E+02  0.45594000000E+02  0.51100000000E-03 0. -1.
         11   -1    0    0    0    0 -0.00000000000E+00 -0.00000000000E+00 -0.45593999997E+02  0.45594000000E+02  0.51100000000E-03 0.  1.
    9900012    2    1    2    0    0 -0.99933233574E+01 -0.10711142698E+02  0.11665466582E+02  0.72461596176E+02  0.70000033715E+02 0.  0.
         12    1    1    2    0    0  0.99933233574E+01  0.10711142698E+02 -0.11665466582E+02  0.18726403824E+02  0.00000000000E+00 0. -1.
         11    1    3    3    0    0  0.19979256255E+01 -0.79599989619E+01 -0.46604277854E+00  0.82201269096E+01  0.51100000000E-03 0. -1.
        -11    1    3    3    0    0 -0.26507393904E+02 -0.23540390160E+02  0.15446062627E+02  0.38670049798E+02  0.51100000000E-03 0.  1.
        -12    1    3    3    0    0  0.14516144921E+02  0.20789246424E+02 -0.33145532660E+01  0.25571419468E+02  0.00000000000E+00 0.  1.
</event>
<event>
 7    1  0.2944263E-013  0.7246147E+02  0.7816164E-02  0.1226708E+00
        -11   -1    0    0    0    0  0.00000000000E+00  0.00000000000E+00  0.45593999997E+02  0.45594000000E+02  0.51100000000E-03 0. -1.
         11   -1    0    0    0    0 -0.00000000000E+00 -0.00000000000E+00 -0.45593999997E+02  0.45594000000E+02  0.51100000000E-03 0.  1.
    9900012    2    1    2    0    0 -0.12618231242E+02 -0.68614446376E+01 -0.12015981568E+02  0.72461468148E+02  0.69999866935E+02 0.  0.
         12    1    1    2    0    0  0.12618231242E+02  0.68614446376E+01  0.12015981568E+02  0.18726531852E+02  0.00000000000E+00 0. -1.
         11    1    3    3    0    0  0.19466552334E+01 -0.15274222248E+02 -0.14094330554E+01  0.15462141950E+02  0.51100000000E-03 0. -1.
        -11    1    3    3    0    0  0.13676111350E+02  0.49141571280E+01 -0.21983403066E+02  0.26352513591E+02  0.51100000000E-03 0.  1.
         12    1    3    3    0    0 -0.28240997825E+02  0.34986204823E+01  0.11376854554E+02  0.30646812607E+02  0.00000000000E+00 0. -1.
</event>
<event>
 7    1  0.2944263E-013  0.7246169E+02  0.7816164E-02  0.1226708E+00
        -11   -1    0    0    0    0  0.00000000000E+00  0.00000000000E+00  0.45593999997E+02  0.45594000000E+02  0.51100000000E-03 0. -1.
         11   -1    0    0    0    0 -0.00000000000E+00 -0.00000000000E+00 -0.45593999997E+02  0.45594000000E+02  0.51100000000E-03 0.  1.
    9900012    2    1    2    0    0 -0.11449733615E+02 -0.21301958894E+01 -0.14664258313E+02  0.72461692135E+02  0.70000158720E+02 0.  0.
         12    1    1    2    0    0  0.11449733615E+02  0.21301958894E+01  0.14664258313E+02  0.18726307865E+02  0.00000000000E+00 0. -1.
         11    1    3    3    0    0  0.10455552414E+02  0.34252386325E+01 -0.30143853437E+01  0.11407776087E+02  0.51100000000E-03 0. -1.
        -11    1    3    3    0    0 -0.27073896706E+01 -0.17751355104E+02  0.16827198622E+02  0.24608843544E+02  0.51100000000E-03 0.  1.
        -12    1    3    3    0    0 -0.19197896359E+02  0.12195920582E+02 -0.28477071591E+02  0.36445072504E+02  0.00000000000E+00 0.  1.
</event>
<event>
 7    1  0.2944263E-013  0.7246159E+02  0.7816164E-02  0.1226708E+00
        -11   -1    0    0    0    0  0.00000000000E+00  0.00000000000E+00  0.45593999997E+02  0.45594000000E+02  0.51100000000E-03 0. -1.
         11   -1    0    0    0    0 -0.00000000000E+00 -0.00000000000E+00 -0.45593999997E+02  0.45594000000E+02  0.51100000000E-03 0.  1.
    9900012    2    1    2    0    0  0.14595579582E+02  0.97850894806E+01  0.64729818369E+01  0.72461590485E+02  0.70000026302E+02 0.  0.
         12    1    1    2    0    0 -0.14595579582E+02 -0.97850894806E+01 -0.64729818369E+01  0.18726409515E+02  0.00000000000E+00 0. -1.
         11    1    3    3    0    0 -0.61753481751E+01  0.12162190654E+02  0.79122818547E+00  0.13663083433E+02  0.51100000000E-03 0. -1.
        -11    1    3    3    0    0  0.75414315318E+01 -0.77366425603E-01 -0.24569505785E+02  0.25700968657E+02  0.51100000000E-03 0.  1.
         12    1    3    3    0    0  0.13229496225E+02 -0.22997347476E+01  0.30251259437E+02  0.33097538395E+02  0.00000000000E+00 0. -1.
</event>
<event>
 7    1  0.2944263E-013  0.7246161E+02  0.7816164E-02  0.1226708E+00
        -11   -1    0    0    0    0  0.00000000000E+00  0.00000000000E+00  0.45593999997E+02  0.45594000000E+02  0.51100000000E-03 0.  1.
         11   -1    0    0    0    0 -0.00000000000E+00 -0.00000000000E+00 -0.45593999997E+02  0.45594000000E+02  0.51100000000E-03 0. -1.
    9900012    2    1    2    0    0  0.14243765322E+02 -0.93371949304E+01 -0.77852261170E+01  0.72461606716E+02  0.70000047447E+02 0.  0.
         12    1    1    2    0    0 -0.14243765322E+02  0.93371949304E+01  0.77852261170E+01  0.18726393284E+02  0.00000000000E+00 0. -1.
         11    1    3    3    0    0 -0.20755417734E+02 -0.59306536637E+01 -0.11389832581E+02  0.24406726627E+02  0.51100000000E-03 0. -1.
        -11    1    3    3    0    0  0.99765763546E+01 -0.43768287390E+01  0.16589626809E+02  0.19847025558E+02  0.51100000000E-03 0.  1.
         12    1    3    3    0    0  0.25022606701E+02  0.97028747238E+00 -0.12985020345E+02  0.28207854531E+02  0.00000000000E+00 0. -1.
</event>
<event>
 7    1  0.2944263E-013  0.7246156E+02  0.7816164E-02  0.1226708E+00
        -11   -1    0    0    0    0  0.00000000000E+00  0.00000000000E+00  0.45593999997E+02  0.45594000000E+02  0.51100000000E-03 0.  1.
         11   -1    0    0    0    0 -0.00000000000E+00 -0.00000000000E+00 -0.45593999997E+02  0.45594000000E+02  0.51100000000E-03 0. -1.
    9900012    2    1    2    0    0  0.15984511417E+02  0.97469698059E+01  0.41398138704E+00  0.72461563975E+02  0.69999991767E+02 0.  0.
         12    1    1    2    0    0 -0.15984511417E+02 -0.97469698059E+01 -0.41398138704E+00  0.18726436025E+02  0.00000000000E+00 0. -1.
         11    1    3    3    0    0 -0.69548672710E+01  0.10558631287E+02 -0.18693551621E+00  0.12644754587E+02  0.51100000000E-03 0. -1.
        -11    1    3    3    0    0  0.32074353809E+02 -0.76548833848E+01 -0.18318007162E+02  0.37721489877E+02  0.51100000000E-03 0.  1.
         12    1    3    3    0    0 -0.91349751213E+01  0.68432219038E+01  0.18918924066E+02  0.22095319511E+02  0.00000000000E+00 0. -1.
</event>
<event>
 7    1  0.2944263E-013  0.7246164E+02  0.7816164E-02  0.1226708E+00
        -11   -1    0    0    0    0  0.00000000000E+00  0.00000000000E+00  0.45593999997E+02  0.45594000000E+02  0.51100000000E-03 0.  1.
         11   -1    0    0    0    0 -0.00000000000E+00 -0.00000000000E+00 -0.45593999997E+02  0.45594000000E+02  0.51100000000E-03 0. -1.
    9900012    2    1    2    0    0  0.14519534675E+02 -0.38532836850E+01  0.11180872988E+02  0.72461638818E+02  0.70000089264E+02 0.  0.
         12    1    1    2    0    0 -0.14519534675E+02  0.38532836850E+01 -0.11180872988E+02  0.18726361182E+02  0.00000000000E+00 0. -1.
         11    1    3    3    0    0  0.21915202756E+02 -0.81843567476E+01 -0.22378460402E+01  0.23500377919E+02  0.51100000000E-03 0. -1.
        -11    1    3    3    0    0  0.16312102907E+02 -0.36892132440E+01 -0.54807913742E+01  0.17599263336E+02  0.51100000000E-03 0.  1.
        -12    1    3    3    0    0 -0.23707770988E+02  0.80202863066E+01  0.18899510403E+02  0.31361997562E+02  0.00000000000E+00 0.  1.
</event>
<event>
 7    1  0.2944263E-013  0.7246154E+02  0.7816164E-02  0.1226708E+00
        -11   -1    0    0    0    0  0.00000000000E+00  0.00000000000E+00  0.45593999997E+02  0.45594000000E+02  0.51100000000E-03 0. -1.
         11   -1    0    0    0    0 -0.00000000000E+00 -0.00000000000E+00 -0.45593999997E+02  0.45594000000E+02  0.51100000000E-03 0.  1.
    9900012    2    1    2    0    0 -0.11025209451E+02 -0.37833687452E+00 -0.15132148111E+02  0.72461540412E+02  0.69999961073E+02 0.  0.
         12    1    1    2    0    0  0.11025209451E+02  0.37833687452E+00  0.15132148111E+02  0.18726459588E+02  0.00000000000E+00 0. -1.
         11    1    3    3    0    0  0.12573972981E+01 -0.47689370739E+00  0.43404013396E+01  0.45439585851E+01  0.51100000000E-03 0. -1.
        -11    1    3    3    0    0  0.14252442541E+02 -0.22033443150E+02  0.34281811672E+01  0.26464261973E+02  0.51100000000E-03 0.  1.
         12    1    3    3    0    0 -0.26535049290E+02  0.22131999983E+02 -0.22900730618E+02  0.41453319854E+02  0.00000000000E+00 0. -1.
</event>
<event>
 7    1  0.2944263E-013  0.7246157E+02  0.7816164E-02  0.1226708E+00
        -11   -1    0    0    0    0  0.00000000000E+00  0.00000000000E+00  0.45593999997E+02  0.45594000000E+02  0.51100000000E-03 0.  1.
         11   -1    0    0    0    0 -0.00000000000E+00 -0.00000000000E+00 -0.45593999997E+02  0.45594000000E+02  0.51100000000E-03 0. -1.
    9900012    2    1    2    0    0 -0.23262073429E+01  0.10652623898E+02  0.15224639818E+02  0.72461566968E+02  0.69999995667E+02 0.  0.
         12    1    1    2    0    0  0.23262073429E+01 -0.10652623898E+02 -0.15224639818E+02  0.18726433032E+02  0.00000000000E+00 0. -1.
         11    1    3    3    0    0 -0.25822994458E+02  0.17008771527E+02  0.15045660731E+02  0.34387457869E+02  0.51100000000E-03 0. -1.
        -11    1    3    3    0    0  0.76512577953E+01  0.83308843593E+01  0.92792676020E+01  0.14630454113E+02  0.51100000000E-03 0.  1.
        -12    1    3    3    0    0  0.15845529320E+02 -0.14687031989E+02 -0.91002885147E+01  0.23443654986E+02  0.00000000000E+00 0.  1.
</event>
<event>
 7    1  0.2944263E-013  0.7246155E+02  0.7816164E-02  0.1226708E+00
        -11   -1    0    0    0    0  0.00000000000E+00  0.00000000000E+00  0.45593999997E+02  0.45594000000E+02  0.51100000000E-03 0.  1.
         11   -1    0    0    0    0 -0.00000000000E+00 -0.00000000000E+00 -0.45593999997E+02  0.45594000000E+02  0.51100000000E-03 0. -1.
    9900012    2    1    2    0    0 -0.62520829570E+01  0.14159244598E+02 -0.10540743574E+02  0.72461547481E+02  0.69999970281E+02 0.  0.
         12    1    1    2    0    0  0.62520829570E+01 -0.14159244598E+02  0.10540743574E+02  0.18726452519E+02  0.00000000000E+00 0. -1.
         11    1    3    3    0    0 -0.81000789563E+01 -0.75047830681E+01 -0.78953566261E+01  0.13574597766E+02  0.51100000000E-03 0. -1.
        -11    1    3    3    0    0 -0.18833313609E+02  0.78247517387E+01  0.17497555191E+02  0.26871637077E+02  0.51100000000E-03 0.  1.
         12    1    3    3    0    0  0.20681309608E+02  0.13839275927E+02 -0.20142942138E+02  0.32015312638E+02  0.00000000000E+00 0. -1.
</event>
<event>
 7    1  0.2944263E-013  0.7246153E+02  0.7816164E-02  0.1226708E+00
        -11   -1    0    0    0    0  0.00000000000E+00  0.00000000000E+00  0.45593999997E+02  0.45594000000E+02  0.51100000000E-03 0.  1.
         11   -1    0    0    0    0 -0.00000000000E+00 -0.00000000000E+00 -0.45593999997E+02  0.45594000000E+02  0.51100000000E-03 0. -1.
    9900012    2    1    2    0    0 -0.18461283144E+02  0.27502093086E+01  0.15159303780E+01  0.72461530191E+02  0.69999947758E+02 0.  0.
         12    1    1    2    0    0  0.18461283144E+02 -0.27502093086E+01 -0.15159303780E+01  0.18726469809E+02  0.00000000000E+00 0. -1.
         11    1    3    3    0    0  0.22668714887E+02  0.42676691016E+01 -0.38650463637E+01  0.23388506106E+02  0.51100000000E-03 0. -1.
        -11    1    3    3    0    0  0.36821029724E+01  0.61514910655E-01 -0.91150931901E+00  0.37937469451E+01  0.51100000000E-03 0.  1.
        -12    1    3    3    0    0 -0.44812101004E+02 -0.15789747036E+01  0.62924860607E+01  0.45279277140E+02  0.00000000000E+00 0.  1.
</event>
<event>
 7    1  0.2944263E-013  0.7246158E+02  0.7816164E-02  0.1226708E+00
        -11   -1    0    0    0    0  0.00000000000E+00  0.00000000000E+00  0.45593999997E+02  0.45594000000E+02  0.51100000000E-03 0. -1.
         11   -1    0    0    0    0 -0.00000000000E+00 -0.00000000000E+00 -0.45593999997E+02  0.45594000000E+02  0.51100000000E-03 0.  1.
    9900012    2    1    2    0    0  0.17111068282E+02 -0.45314592562E+01 -0.61119423260E+01  0.72461584973E+02  0.70000019122E+02 0.  0.
         12    1    1    2    0    0 -0.17111068282E+02  0.45314592562E+01  0.61119423260E+01  0.18726415027E+02  0.00000000000E+00 0. -1.
         11    1    3    3    0    0 -0.20440098037E+01  0.16626309057E+02 -0.12561019581E+02  0.20937796974E+02  0.51100000000E-03 0. -1.
        -11    1    3    3    0    0  0.11544012929E+02  0.14978641213E+01 -0.15289336294E+02  0.19216441815E+02  0.51100000000E-03 0.  1.
        -12    1    3    3    0    0  0.76110651569E+01 -0.22655632435E+02  0.21738413550E+02  0.32307346185E+02  0.00000000000E+00 0.  1.
</event>
<event>
 7    1  0.2944263E-013  0.7246168E+02  0.7816164E-02  0.1226708E+00
        -11   -1    0    0    0    0  0.00000000000E+00  0.00000000000E+00  0.45593999997E+02  0.45594000000E+02  0.51100000000E-03 0.  1.
         11   -1    0    0    0    0 -0.00000000000E+00 -0.00000000000E+00 -0.45593999997E+02  0.45594000000E+02  0.51100000000E-03 0. -1.
    9900012    2    1    2    0    0 -0.13701483233E+02 -0.75397286175E+01  0.10300336779E+02  0.72461679267E+02  0.70000141957E+02 0.  0.
         12    1    1    2    0    0  0.13701483233E+02  0.75397286175E+01 -0.10300336779E+02  0.18726320733E+02  0.00000000000E+00 0. -1.
         11    1    3    3    0    0  0.23667246897E+01 -0.21473366595E+02 -0.58920635438E+01  0.22392482483E+02  0.51100000000E-03 0. -1.
        -11    1    3    3    0    0  0.93849904203E+01 -0.82184408359E+01 -0.37092416422E+00  0.12480320507E+02  0.51100000000E-03 0.  1.
        -12    1    3    3    0    0 -0.25453198343E+02  0.22152078814E+02  0.16563324487E+02  0.37588876277E+02  0.00000000000E+00 0.  1.
</event>
<event>
 7    1  0.2944263E-013  0.7246156E+02  0.7816164E-02  0.1226708E+00
        -11   -1    0    0    0    0  0.00000000000E+00  0.00000000000E+00  0.45593999997E+02  0.45594000000E+02  0.51100000000E-03 0.  1.
         11   -1    0    0    0    0 -0.00000000000E+00 -0.00000000000E+00 -0.45593999997E+02  0.45594000000E+02  0.51100000000E-03 0. -1.
    9900012    2    1    2    0    0  0.39031493016E+01 -0.18009271457E+01  0.18226398217E+02  0.72461561336E+02  0.69999988330E+02 0.  0.
         12    1    1    2    0    0 -0.39031493016E+01  0.18009271457E+01 -0.18226398217E+02  0.18726438664E+02  0.00000000000E+00 0. -1.
         11    1    3    3    0    0 -0.34819082257E+00 -0.44144911755E+01  0.68230490168E+01  0.81340621668E+01  0.51100000000E-03 0. -1.
        -11    1    3    3    0    0  0.23913545340E+02 -0.18675181686E+02  0.17048403991E+02  0.34803277728E+02  0.51100000000E-03 0.  1.
         12    1    3    3    0    0 -0.19662205215E+02  0.21288745716E+02 -0.56450547908E+01  0.29524221441E+02  0.00000000000E+00 0. -1.
</event>
<event>
 7    1  0.3001553E-013  0.7246157E+02  0.7816164E-02  0.1226708E+00
        -11   -1    0    0    0    0  0.00000000000E+00  0.00000000000E+00  0.45593999997E+02  0.45594000000E+02  0.51100000000E-03 0. -1.
         11   -1    0    0    0    0 -0.00000000000E+00 -0.00000000000E+00 -0.45593999997E+02  0.45594000000E+02  0.51100000000E-03 0.  1.
    9900012    2    1    2    0    0 -0.94358433506E+01  0.17922726445E+01 -0.16075818752E+02  0.72461566022E+02  0.69999994435E+02 0.  0.
         12    1    1    2    0    0  0.94358433506E+01 -0.17922726445E+01  0.16075818752E+02  0.18726433978E+02  0.00000000000E+00 0. -1.
         11    1    3    3    0    0 -0.12100462499E+02 -0.19753232492E+01 -0.12708870552E+02  0.17658949164E+02  0.51100000000E-03 0.  1.
        -11    1    3    3    0    0  0.19154594008E+01 -0.12701986707E+02 -0.24700468842E+02  0.27841023909E+02  0.51100000000E-03 0. -1.
         12    1    3    3    0    0  0.74915974725E+00  0.16469582600E+02  0.21333520642E+02  0.26961592949E+02  0.00000000000E+00 0. -1.
</event>
<event>
 7    1  0.2944263E-013  0.7246156E+02  0.7816164E-02  0.1226708E+00
        -11   -1    0    0    0    0  0.00000000000E+00  0.00000000000E+00  0.45593999997E+02  0.45594000000E+02  0.51100000000E-03 0.  1.
         11   -1    0    0    0    0 -0.00000000000E+00 -0.00000000000E+00 -0.45593999997E+02  0.45594000000E+02  0.51100000000E-03 0. -1.
    9900012    2    1    2    0    0  0.17213518643E+02 -0.16198279299E+01 -0.71937835891E+01  0.72461559096E+02  0.69999985412E+02 0.  0.
         12    1    1    2    0    0 -0.17213518643E+02  0.16198279299E+01  0.71937835891E+01  0.18726440904E+02  0.00000000000E+00 0. -1.
         11    1    3    3    0    0  0.71744025520E+01  0.30437447326E+02 -0.40593275507E+01  0.31533924465E+02  0.51100000000E-03 0. -1.
        -11    1    3    3    0    0  0.59156113212E+01  0.19734440102E+01 -0.22722154353E+01  0.66371606738E+01  0.51100000000E-03 0.  1.
        -12    1    3    3    0    0  0.41235047703E+01 -0.34030719266E+02 -0.86224060313E+00  0.34290473957E+02  0.00000000000E+00 0.  1.
</event>
<event>
 7    1  0.2944263E-013  0.7246156E+02  0.7816164E-02  0.1226708E+00
        -11   -1    0    0    0    0  0.00000000000E+00  0.00000000000E+00  0.45593999997E+02  0.45594000000E+02  0.51100000000E-03 0. -1.
         11   -1    0    0    0    0 -0.00000000000E+00 -0.00000000000E+00 -0.45593999997E+02  0.45594000000E+02  0.51100000000E-03 0.  1.
    9900012    2    1    2    0    0  0.17761430485E+02  0.77512735822E+00  0.58830416923E+01  0.72461563744E+02  0.69999991467E+02 0.  0.
         12    1    1    2    0    0 -0.17761430485E+02 -0.77512735822E+00 -0.58830416923E+01  0.18726436256E+02  0.00000000000E+00 0. -1.
         11    1    3    3    0    0  0.40655310911E+01 -0.44767868778E+01 -0.11816720734E+02  0.13274225137E+02  0.51100000000E-03 0. -1.
        -11    1    3    3    0    0  0.18528103152E+02  0.88084177640E+00 -0.16224203735E+02  0.24643280540E+02  0.51100000000E-03 0.  1.
         12    1    3    3    0    0 -0.48322037580E+01  0.43710724596E+01  0.33923966162E+02  0.34544058067E+02  0.00000000000E+00 0. -1.
</event>
<event>
 7    1  0.2944263E-013  0.7246155E+02  0.7816164E-02  0.1226708E+00
        -11   -1    0    0    0    0  0.00000000000E+00  0.00000000000E+00  0.45593999997E+02  0.45594000000E+02  0.51100000000E-03 0. -1.
         11   -1    0    0    0    0 -0.00000000000E+00 -0.00000000000E+00 -0.45593999997E+02  0.45594000000E+02  0.51100000000E-03 0.  1.
    9900012    2    1    2    0    0  0.46038917594E+01 -0.15460763099E+02 -0.95104609070E+01  0.72461551282E+02  0.69999975233E+02 0.  0.
         12    1    1    2    0    0 -0.46038917594E+01  0.15460763099E+02  0.95104609070E+01  0.18726448718E+02  0.00000000000E+00 0. -1.
         11    1    3    3    0    0 -0.15959978097E+02 -0.14482064045E+02 -0.13255228689E+02  0.25301228581E+02  0.51100000000E-03 0. -1.
        -11    1    3    3    0    0  0.34378144534E+01 -0.20216550471E+02 -0.24972393358E+01  0.20658259504E+02  0.51100000000E-03 0.  1.
        -12    1    3    3    0    0  0.17126055403E+02  0.19237851417E+02  0.62420071182E+01  0.26502063197E+02  0.00000000000E+00 0.  1.
</event>
<event>
 7    1  0.2944263E-013  0.7246163E+02  0.7816164E-02  0.1226708E+00
        -11   -1    0    0    0    0  0.00000000000E+00  0.00000000000E+00  0.45593999997E+02  0.45594000000E+02  0.51100000000E-03 0.  1.
         11   -1    0    0    0    0 -0.00000000000E+00 -0.00000000000E+00 -0.45593999997E+02  0.45594000000E+02  0.51100000000E-03 0. -1.
    9900012    2    1    2    0    0  0.14599748401E+02 -0.11695568990E+02  0.85912209340E+00  0.72461626135E+02  0.70000072743E+02 0.  0.
         12    1    1    2    0    0 -0.14599748401E+02  0.11695568990E+02 -0.85912209340E+00  0.18726373865E+02  0.00000000000E+00 0. -1.
         11    1    3    3    0    0 -0.16859425701E+02 -0.14503418868E+01  0.34779962030E+01  0.17275421396E+02  0.51100000000E-03 0. -1.
        -11    1    3    3    0    0  0.13414967492E+02 -0.33835238155E+00  0.20328931527E+02  0.24358597916E+02  0.51100000000E-03 0.  1.
        -12    1    3    3    0    0  0.18044206609E+02 -0.99068747212E+01 -0.22947805637E+02  0.30827606823E+02  0.00000000000E+00 0.  1.
</event>
<event>
 7    1  0.2944263E-013  0.7246145E+02  0.7816164E-02  0.1226708E+00
        -11   -1    0    0    0    0  0.00000000000E+00  0.00000000000E+00  0.45593999997E+02  0.45594000000E+02  0.51100000000E-03 0. -1.
         11   -1    0    0    0    0 -0.00000000000E+00 -0.00000000000E+00 -0.45593999997E+02  0.45594000000E+02  0.51100000000E-03 0.  1.
    9900012    2    1    2    0    0  0.74513632627E+01  0.16092447420E+02 -0.60161465688E+01  0.72461449384E+02  0.69999842491E+02 0.  0.
         12    1    1    2    0    0 -0.74513632627E+01 -0.16092447420E+02  0.60161465688E+01  0.18726550616E+02  0.00000000000E+00 0. -1.
         11    1    3    3    0    0 -0.18455791242E+02 -0.99084170127E+01  0.98638473303E+01  0.23153583794E+02  0.51100000000E-03 0. -1.
        -11    1    3    3    0    0 -0.55311009916E+01  0.93774663235E+00 -0.53355911160E+01  0.77421560139E+01  0.51100000000E-03 0.  1.
        -12    1    3    3    0    0  0.31438255496E+02  0.25063117800E+02 -0.10544402783E+02  0.41565709576E+02  0.00000000000E+00 0.  1.
</event>
<event>
 7    1  0.2944263E-013  0.7246158E+02  0.7816164E-02  0.1226708E+00
        -11   -1    0    0    0    0  0.00000000000E+00  0.00000000000E+00  0.45593999997E+02  0.45594000000E+02  0.51100000000E-03 0.  1.
         11   -1    0    0    0    0 -0.00000000000E+00 -0.00000000000E+00 -0.45593999997E+02  0.45594000000E+02  0.51100000000E-03 0. -1.
    9900012    2    1    2    0    0 -0.15771461000E+02 -0.10090388207E+02 -0.35185407501E+00  0.72461582363E+02  0.70000015722E+02 0.  0.
         12    1    1    2    0    0  0.15771461000E+02  0.10090388207E+02  0.35185407501E+00  0.18726417637E+02  0.00000000000E+00 0. -1.
         11    1    3    3    0    0 -0.26234871589E+02 -0.32439167663E+02 -0.10870186955E+02  0.43112980071E+02  0.51100000000E-03 0. -1.
        -11    1    3    3    0    0 -0.10506466333E+01 -0.19380002771E+00 -0.10674800344E+01  0.15102750358E+01  0.51100000000E-03 0.  1.
        -12    1    3    3    0    0  0.11514057222E+02  0.22542579484E+02  0.11585812914E+02  0.27838327256E+02  0.00000000000E+00 0.  1.
</event>
<event>
 7    1  0.2944263E-013  0.7246155E+02  0.7816164E-02  0.1226708E+00
        -11   -1    0    0    0    0  0.00000000000E+00  0.00000000000E+00  0.45593999997E+02  0.45594000000E+02  0.51100000000E-03 0. -1.
         11   -1    0    0    0    0 -0.00000000000E+00 -0.00000000000E+00 -0.45593999997E+02  0.45594000000E+02  0.51100000000E-03 0.  1.
    9900012    2    1    2    0    0 -0.13361158310E+02 -0.11647985446E+02 -0.60401770851E+01  0.72461551978E+02  0.69999976139E+02 0.  0.
         12    1    1    2    0    0  0.13361158310E+02  0.11647985446E+02  0.60401770851E+01  0.18726448022E+02  0.00000000000E+00 0. -1.
         11    1    3    3    0    0 -0.63536127291E+01  0.10827757127E+01  0.83982286374E+01  0.10586361153E+02  0.51100000000E-03 0. -1.
        -11    1    3    3    0    0 -0.14454082037E+01  0.23451521864E+02 -0.70367422452E+01  0.24527103871E+02  0.51100000000E-03 0.  1.
         12    1    3    3    0    0 -0.55621373768E+01 -0.36182283022E+02 -0.74016634772E+01  0.37348086954E+02  0.00000000000E+00 0. -1.
</event>
<event>
 7    1  0.2944263E-013  0.7246154E+02  0.7816164E-02  0.1226708E+00
        -11   -1    0    0    0    0  0.00000000000E+00  0.00000000000E+00  0.45593999997E+02  0.45594000000E+02  0.51100000000E-03 0. -1.
         11   -1    0    0    0    0 -0.00000000000E+00 -0.00000000000E+00 -0.45593999997E+02  0.45594000000E+02  0.51100000000E-03 0.  1.
    9900012    2    1    2    0    0 -0.10403656071E+02  0.23758724869E+01 -0.15388289253E+02  0.72461540756E+02  0.69999961520E+02 0.  0.
         12    1    1    2    0    0  0.10403656071E+02 -0.23758724869E+01  0.15388289253E+02  0.18726459244E+02  0.00000000000E+00 0. -1.
         11    1    3    3    0    0  0.13173682981E+02  0.17227021792E+02  0.69516487360E+01  0.22773704651E+02  0.51100000000E-03 0. -1.
        -11    1    3    3    0    0  0.82615801133E+01 -0.28201126495E+01  0.42543132728E+00  0.87400076316E+01  0.51100000000E-03 0.  1.
        -12    1    3    3    0    0 -0.31838919164E+02 -0.12031036656E+02 -0.22765369316E+02  0.40947828473E+02  0.00000000000E+00 0.  1.
</event>
<event>
 7    1  0.2944263E-013  0.7246157E+02  0.7816164E-02  0.1226708E+00
        -11   -1    0    0    0    0  0.00000000000E+00  0.00000000000E+00  0.45593999997E+02  0.45594000000E+02  0.51100000000E-03 0.  1.
         11   -1    0    0    0    0 -0.00000000000E+00 -0.00000000000E+00 -0.45593999997E+02  0.45594000000E+02  0.51100000000E-03 0. -1.
    9900012    2    1    2    0    0 -0.14923828757E+02  0.71462697773E+01  0.87686575245E+01  0.72461569713E+02  0.69999999243E+02 0.  0.
         12    1    1    2    0    0  0.14923828757E+02 -0.71462697773E+01 -0.87686575245E+01  0.18726430287E+02  0.00000000000E+00 0. -1.
         11    1    3    3    0    0 -0.12804392728E+02  0.22943328329E+02 -0.23242400679E+02  0.35079309822E+02  0.51100000000E-03 0. -1.
        -11    1    3    3    0    0  0.26705271326E+01 -0.26951201941E+01  0.20035448106E+01  0.42906386582E+01  0.51100000000E-03 0.  1.
        -12    1    3    3    0    0 -0.47899631612E+01 -0.13101938358E+02  0.30007513393E+02  0.33091621234E+02  0.00000000000E+00 0.  1.
</event>
<event>
 7    1  0.2944263E-013  0.7246157E+02  0.7816164E-02  0.1226708E+00
        -11   -1    0    0    0    0  0.00000000000E+00  0.00000000000E+00  0.45593999997E+02  0.45594000000E+02  0.51100000000E-03 0.  1.
         11   -1    0    0    0    0 -0.00000000000E+00 -0.00000000000E+00 -0.45593999997E+02  0.45594000000E+02  0.51100000000E-03 0. -1.
    9900012    2    1    2    0    0 -0.97094304995E+01 -0.15885679829E+02 -0.20127836048E+01  0.72461570493E+02  0.70000000258E+02 0.  0.
         12    1    1    2    0    0  0.97094304995E+01  0.15885679829E+02  0.20127836048E+01  0.18726429507E+02  0.00000000000E+00 0. -1.
         11    1    3    3    0    0 -0.51991285290E+00 -0.82358930247E+01 -0.41401660352E+01  0.92326170910E+01  0.51100000000E-03 0. -1.
        -11    1    3    3    0    0  0.22468854936E+02 -0.14549594899E+02  0.12031011193E+02  0.29347664037E+02  0.51100000000E-03 0.  1.
         12    1    3    3    0    0 -0.31658372583E+02  0.68998080942E+01 -0.99036287628E+01  0.33881289364E+02  0.00000000000E+00 0. -1.
</event>
<event>
 7    1  0.2944263E-013  0.7246147E+02  0.7816164E-02  0.1226708E+00
        -11   -1    0    0    0    0  0.00000000000E+00  0.00000000000E+00  0.45593999997E+02  0.45594000000E+02  0.51100000000E-03 0. -1.
         11   -1    0    0    0    0 -0.00000000000E+00 -0.00000000000E+00 -0.45593999997E+02  0.45594000000E+02  0.51100000000E-03 0.  1.
    9900012    2    1    2    0    0 -0.10879597588E+02  0.33553796787E+01 -0.14868043963E+02  0.72461469414E+02  0.69999868585E+02 0.  0.
         12    1    1    2    0    0  0.10879597588E+02 -0.33553796787E+01  0.14868043963E+02  0.18726530586E+02  0.00000000000E+00 0. -1.
         11    1    3    3    0    0  0.15734122311E+02  0.33021716177E+01  0.10525472692E+02  0.19215944368E+02  0.51100000000E-03 0. -1.
        -11    1    3    3    0    0 -0.16506838704E+02  0.15809897861E+02 -0.15189037783E+01  0.22907109449E+02  0.51100000000E-03 0.  1.
         12    1    3    3    0    0 -0.10106881195E+02 -0.15756689800E+02 -0.23874612878E+02  0.30338415598E+02  0.00000000000E+00 0. -1.
</event>
<event>
 7    1  0.2944263E-013  0.7246142E+02  0.7816164E-02  0.1226708E+00
        -11   -1    0    0    0    0  0.00000000000E+00  0.00000000000E+00  0.45593999997E+02  0.45594000000E+02  0.51100000000E-03 0.  1.
         11   -1    0    0    0    0 -0.00000000000E+00 -0.00000000000E+00 -0.45593999997E+02  0.45594000000E+02  0.51100000000E-03 0. -1.
    9900012    2    1    2    0    0 -0.79328023167E+01 -0.15083524459E+02  0.77616118891E+01  0.72461423115E+02  0.69999808272E+02 0.  0.
         12    1    1    2    0    0  0.79328023167E+01  0.15083524459E+02 -0.77616118891E+01  0.18726576885E+02  0.00000000000E+00 0. -1.
         11    1    3    3    0    0 -0.14274686923E+02 -0.14950802727E+02 -0.17208574297E+01  0.20742577937E+02  0.51100000000E-03 0. -1.
        -11    1    3    3    0    0 -0.18565039232E+02 -0.98940189820E+01 -0.45308685922E+01  0.21519318385E+02  0.51100000000E-03 0.  1.
        -12    1    3    3    0    0  0.24906923838E+02  0.97612972504E+01  0.14013337911E+02  0.30199526793E+02  0.00000000000E+00 0.  1.
</event>
<event>
 7    1  0.2944263E-013  0.7246158E+02  0.7816164E-02  0.1226708E+00
        -11   -1    0    0    0    0  0.00000000000E+00  0.00000000000E+00  0.45593999997E+02  0.45594000000E+02  0.51100000000E-03 0. -1.
         11   -1    0    0    0    0 -0.00000000000E+00 -0.00000000000E+00 -0.45593999997E+02  0.45594000000E+02  0.51100000000E-03 0.  1.
    9900012    2    1    2    0    0 -0.13201391619E+02 -0.92920292001E+01 -0.94900115618E+01  0.72461578378E+02  0.70000010530E+02 0.  0.
         12    1    1    2    0    0  0.13201391619E+02  0.92920292001E+01  0.94900115618E+01  0.18726421622E+02  0.00000000000E+00 0. -1.
         11    1    3    3    0    0  0.76916919471E+01 -0.55723563022E+01 -0.37836751502E+01  0.10223965849E+02  0.51100000000E-03 0. -1.
        -11    1    3    3    0    0 -0.60959609072E+01  0.83104620269E+01 -0.29787323533E+02  0.31519980361E+02  0.51100000000E-03 0.  1.
         12    1    3    3    0    0 -0.14797122659E+02 -0.12030134925E+02  0.24080987121E+02  0.30717632168E+02  0.00000000000E+00 0. -1.
</event>
<event>
 7    1  0.2944263E-013  0.7246161E+02  0.7816164E-02  0.1226708E+00
        -11   -1    0    0    0    0  0.00000000000E+00  0.00000000000E+00  0.45593999997E+02  0.45594000000E+02  0.51100000000E-03 0.  1.
         11   -1    0    0    0    0 -0.00000000000E+00 -0.00000000000E+00 -0.45593999997E+02  0.45594000000E+02  0.51100000000E-03 0. -1.
    9900012    2    1    2    0    0  0.71604801065E+01 -0.15256795815E+02  0.81630531961E+01  0.72461608693E+02  0.70000050021E+02 0.  0.
         12    1    1    2    0    0 -0.71604801065E+01  0.15256795815E+02 -0.81630531961E+01  0.18726391307E+02  0.00000000000E+00 0. -1.
         11    1    3    3    0    0  0.14143670056E+02  0.13967907432E+02 -0.11738565611E+02  0.23085488159E+02  0.51100000000E-03 0. -1.
        -11    1    3    3    0    0 -0.11586593137E+02 -0.14544162993E+02 -0.57503537545E+01  0.19464028007E+02  0.51100000000E-03 0.  1.
        -12    1    3    3    0    0  0.46034031875E+01 -0.14680540254E+02  0.25651972561E+02  0.29912092527E+02  0.00000000000E+00 0.  1.
</event>
<event>
 7    1  0.2944263E-013  0.7246129E+02  0.7816164E-02  0.1226709E+00
        -11   -1    0    0    0    0  0.00000000000E+00  0.00000000000E+00  0.45593999997E+02  0.45594000000E+02  0.51100000000E-03 0.  1.
         11   -1    0    0    0    0 -0.00000000000E+00 -0.00000000000E+00 -0.45593999997E+02  0.45594000000E+02  0.51100000000E-03 0. -1.
    9900012    2    1    2    0    0 -0.18412185764E+02  0.33981999759E+01  0.36495782107E+00  0.72461293351E+02  0.69999639229E+02 0.  0.
         12    1    1    2    0    0  0.18412185764E+02 -0.33981999759E+01 -0.36495782107E+00  0.18726706649E+02  0.00000000000E+00 0. -1.
         11    1    3    3    0    0  0.75017164210E+01 -0.16275075628E+00  0.21160503297E+02  0.22451484074E+02  0.51100000000E-03 0. -1.
        -11    1    3    3    0    0 -0.40937283036E+01  0.56316330121E+01  0.10015714801E+02  0.12197886909E+02  0.51100000000E-03 0.  1.
        -12    1    3    3    0    0 -0.21820173882E+02 -0.20706822799E+01 -0.30811260277E+02  0.37811922368E+02  0.00000000000E+00 0.  1.
</event>
<event>
 7    1  0.2944263E-013  0.7246153E+02  0.7816164E-02  0.1226708E+00
        -11   -1    0    0    0    0  0.00000000000E+00  0.00000000000E+00  0.45593999997E+02  0.45594000000E+02  0.51100000000E-03 0. -1.
         11   -1    0    0    0    0 -0.00000000000E+00 -0.00000000000E+00 -0.45593999997E+02  0.45594000000E+02  0.51100000000E-03 0.  1.
    9900012    2    1    2    0    0  0.21679133796E+01 -0.10411938688E+02 -0.15413376625E+02  0.72461534913E+02  0.69999953910E+02 0.  0.
         12    1    1    2    0    0 -0.21679133796E+01  0.10411938688E+02  0.15413376625E+02  0.18726465087E+02  0.00000000000E+00 0. -1.
         11    1    3    3    0    0  0.16173340391E+02 -0.67468713651E+01 -0.15691555067E+01  0.17594301972E+02  0.51100000000E-03 0. -1.
        -11    1    3    3    0    0  0.34729966846E+01  0.95764102590E+01 -0.27300950055E+02  0.29139512927E+02  0.51100000000E-03 0.  1.
         12    1    3    3    0    0 -0.17478423696E+02 -0.13241477582E+02  0.13456728937E+02  0.25727720014E+02  0.00000000000E+00 0. -1.
</event>
<event>
 7    1  0.2944263E-013  0.7246147E+02  0.7816164E-02  0.1226708E+00
        -11   -1    0    0    0    0  0.00000000000E+00  0.00000000000E+00  0.45593999997E+02  0.45594000000E+02  0.51100000000E-03 0.  1.
         11   -1    0    0    0    0 -0.00000000000E+00 -0.00000000000E+00 -0.45593999997E+02  0.45594000000E+02  0.51100000000E-03 0. -1.
    9900012    2    1    2    0    0  0.62382099459E+01  0.74794979900E+01  0.15994522054E+02  0.72461470977E+02  0.69999870620E+02 0.  0.
         12    1    1    2    0    0 -0.62382099459E+01 -0.74794979900E+01 -0.15994522054E+02  0.18726529023E+02  0.00000000000E+00 0. -1.
         11    1    3    3    0    0 -0.15193673116E+02 -0.47399323673E+01 -0.19187724994E+02  0.24929569838E+02  0.51100000000E-03 0. -1.
        -11    1    3    3    0    0  0.12944532586E+02 -0.24847548215E+01  0.78073396588E+01  0.15319578428E+02  0.51100000000E-03 0.  1.
        -12    1    3    3    0    0  0.84873504757E+01  0.14704185179E+02  0.27374907390E+02  0.32212322711E+02  0.00000000000E+00 0.  1.
</event>
<event>
 7    1  0.2944263E-013  0.7246185E+02  0.7816164E-02  0.1226707E+00
        -11   -1    0    0    0    0  0.00000000000E+00  0.00000000000E+00  0.45593999997E+02  0.45594000000E+02  0.51100000000E-03 0.  1.
         11   -1    0    0    0    0 -0.00000000000E+00 -0.00000000000E+00 -0.45593999997E+02  0.45594000000E+02  0.51100000000E-03 0. -1.
    9900012    2    1    2    0    0  0.14837075885E+02  0.57244782156E+00 -0.11410609658E+02  0.72461854372E+02  0.70000370062E+02 0.  0.
         12    1    1    2    0    0 -0.14837075885E+02 -0.57244782156E+00  0.11410609658E+02  0.18726145628E+02  0.00000000000E+00 0. -1.
         11    1    3    3    0    0  0.12841871981E+02 -0.30029828415E+01 -0.57876826478E+01  0.14402390517E+02  0.51100000000E-03 0. -1.
        -11    1    3    3    0    0  0.28800246205E+02  0.95098810146E+01 -0.26705818861E+01  0.30447069256E+02  0.51100000000E-03 0.  1.
         12    1    3    3    0    0 -0.26805042301E+02 -0.59344503516E+01 -0.29523451243E+01  0.27612394599E+02  0.00000000000E+00 0. -1.
</event>
<event>
 7    1  0.2944263E-013  0.7246163E+02  0.7816164E-02  0.1226708E+00
        -11   -1    0    0    0    0  0.00000000000E+00  0.00000000000E+00  0.45593999997E+02  0.45594000000E+02  0.51100000000E-03 0.  1.
         11   -1    0    0    0    0 -0.00000000000E+00 -0.00000000000E+00 -0.45593999997E+02  0.45594000000E+02  0.51100000000E-03 0. -1.
    9900012    2    1    2    0    0 -0.17663343846E+02 -0.46248274469E+01 -0.41586323436E+01  0.72461629083E+02  0.70000076583E+02 0.  0.
         12    1    1    2    0    0  0.17663343846E+02  0.46248274469E+01  0.41586323436E+01  0.18726370917E+02  0.00000000000E+00 0. -1.
         11    1    3    3    0    0 -0.10605816524E+02 -0.33017287442E+01 -0.28535530835E+02  0.30621255316E+02  0.51100000000E-03 0. -1.
        -11    1    3    3    0    0  0.48670554514E+01  0.78312915711E+01 -0.37453541935E+01  0.99521371943E+01  0.51100000000E-03 0.  1.
        -12    1    3    3    0    0 -0.11924582774E+02 -0.91543902737E+01  0.28122252685E+02  0.31888236572E+02  0.00000000000E+00 0.  1.
</event>
<event>
 7    1  0.2944263E-013  0.7246156E+02  0.7816164E-02  0.1226708E+00
        -11   -1    0    0    0    0  0.00000000000E+00  0.00000000000E+00  0.45593999997E+02  0.45594000000E+02  0.51100000000E-03 0. -1.
         11   -1    0    0    0    0 -0.00000000000E+00 -0.00000000000E+00 -0.45593999997E+02  0.45594000000E+02  0.51100000000E-03 0.  1.
    9900012    2    1    2    0    0  0.35659897551E+00  0.11750853325E+02 -0.14576340297E+02  0.72461563789E+02  0.69999991526E+02 0.  0.
         12    1    1    2    0    0 -0.35659897551E+00 -0.11750853325E+02  0.14576340297E+02  0.18726436211E+02  0.00000000000E+00 0. -1.
         11    1    3    3    0    0 -0.29271468399E+01  0.12578744554E+01  0.21110598369E+02  0.21349655747E+02  0.51100000000E-03 0. -1.
        -11    1    3    3    0    0 -0.14370978311E+02 -0.52109680989E+00 -0.79325336280E+01  0.16423204606E+02  0.51100000000E-03 0.  1.
        -12    1    3    3    0    0  0.17654724127E+02  0.11014075680E+02 -0.27754405038E+02  0.34688703436E+02  0.00000000000E+00 0.  1.
</event>
<event>
 7    1  0.2944263E-013  0.7246159E+02  0.7816164E-02  0.1226708E+00
        -11   -1    0    0    0    0  0.00000000000E+00  0.00000000000E+00  0.45593999997E+02  0.45594000000E+02  0.51100000000E-03 0. -1.
         11   -1    0    0    0    0 -0.00000000000E+00 -0.00000000000E+00 -0.45593999997E+02  0.45594000000E+02  0.51100000000E-03 0.  1.
    9900012    2    1    2    0    0 -0.10879155543E+02  0.87447591479E+01 -0.12484057511E+02  0.72461587375E+02  0.70000022250E+02 0.  0.
         12    1    1    2    0    0  0.10879155543E+02 -0.87447591479E+01  0.12484057511E+02  0.18726412625E+02  0.00000000000E+00 0. -1.
         11    1    3    3    0    0  0.86929337221E+01 -0.10640046174E+02 -0.47804639867E+01  0.14547526094E+02  0.51100000000E-03 0. -1.
        -11    1    3    3    0    0 -0.19056157333E+02 -0.85107510006E+01  0.11703488079E+02  0.23927842535E+02  0.51100000000E-03 0.  1.
         12    1    3    3    0    0 -0.51593193246E+00  0.27895556322E+02 -0.19407081603E+02  0.33986218746E+02  0.00000000000E+00 0. -1.
</event>
<event>
 7    1  0.2944263E-013  0.7246159E+02  0.7816164E-02  0.1226708E+00
        -11   -1    0    0    0    0  0.00000000000E+00  0.00000000000E+00  0.45593999997E+02  0.45594000000E+02  0.51100000000E-03 0.  1.
         11   -1    0    0    0    0 -0.00000000000E+00 -0.00000000000E+00 -0.45593999997E+02  0.45594000000E+02  0.51100000000E-03 0. -1.
    9900012    2    1    2    0    0 -0.14090658081E+02 -0.87374755660E+01  0.87056549191E+01  0.72461586782E+02  0.70000021478E+02 0.  0.
         12    1    1    2    0    0  0.14090658081E+02  0.87374755660E+01 -0.87056549191E+01  0.18726413218E+02  0.00000000000E+00 0. -1.
         11    1    3    3    0    0 -0.21142998561E+02 -0.58555447293E+01  0.85382303051E+01  0.23541774981E+02  0.51100000000E-03 0. -1.
        -11    1    3    3    0    0 -0.97991565929E+01 -0.15384488715E+02  0.14674300870E+02  0.23410277000E+02  0.51100000000E-03 0.  1.
         12    1    3    3    0    0  0.16851497073E+02  0.12502557878E+02 -0.14506876255E+02  0.25509534801E+02  0.00000000000E+00 0. -1.
</event>
<event>
 7    1  0.2944263E-013  0.7246160E+02  0.7816164E-02  0.1226708E+00
        -11   -1    0    0    0    0  0.00000000000E+00  0.00000000000E+00  0.45593999997E+02  0.45594000000E+02  0.51100000000E-03 0. -1.
         11   -1    0    0    0    0 -0.00000000000E+00 -0.00000000000E+00 -0.45593999997E+02  0.45594000000E+02  0.51100000000E-03 0.  1.
    9900012    2    1    2    0    0  0.11021991949E+01 -0.15066694423E+02 -0.11066066783E+02  0.72461602644E+02  0.70000042141E+02 0.  0.
         12    1    1    2    0    0 -0.11021991949E+01  0.15066694423E+02  0.11066066783E+02  0.18726397356E+02  0.00000000000E+00 0. -1.
         11    1    3    3    0    0  0.16216766059E+02 -0.32284471332E+00 -0.11641092595E+02  0.19965038622E+02  0.51100000000E-03 0. -1.
        -11    1    3    3    0    0  0.69633962074E+01 -0.18905930237E+02 -0.15034978204E+02  0.25139086195E+02  0.51100000000E-03 0.  1.
         12    1    3    3    0    0 -0.22077963071E+02  0.41620805270E+01  0.15610004016E+02  0.27357477827E+02  0.00000000000E+00 0. -1.
</event>
<event>
 7    1  0.2944263E-013  0.7246156E+02  0.7816164E-02  0.1226708E+00
        -11   -1    0    0    0    0  0.00000000000E+00  0.00000000000E+00  0.45593999997E+02  0.45594000000E+02  0.51100000000E-03 0. -1.
         11   -1    0    0    0    0 -0.00000000000E+00 -0.00000000000E+00 -0.45593999997E+02  0.45594000000E+02  0.51100000000E-03 0.  1.
    9900012    2    1    2    0    0 -0.10705995395E+02  0.15582905002E+01 -0.15285056475E+02  0.72461559918E+02  0.69999986483E+02 0.  0.
         12    1    1    2    0    0  0.10705995395E+02 -0.15582905002E+01  0.15285056475E+02  0.18726440082E+02  0.00000000000E+00 0. -1.
         11    1    3    3    0    0 -0.21709258628E+02 -0.25348334997E+02  0.34818223936E+01  0.33555224403E+02  0.51100000000E-03 0. -1.
        -11    1    3    3    0    0 -0.43711600542E+01  0.28187100670E+01 -0.11198708148E+01  0.53203644202E+01  0.51100000000E-03 0.  1.
        -12    1    3    3    0    0  0.15374423287E+02  0.24087915430E+02 -0.17647008054E+02  0.33585971095E+02  0.00000000000E+00 0.  1.
</event>
<event>
 7    1  0.2944263E-013  0.7246152E+02  0.7816164E-02  0.1226708E+00
        -11   -1    0    0    0    0  0.00000000000E+00  0.00000000000E+00  0.45593999997E+02  0.45594000000E+02  0.51100000000E-03 0. -1.
         11   -1    0    0    0    0 -0.00000000000E+00 -0.00000000000E+00 -0.45593999997E+02  0.45594000000E+02  0.51100000000E-03 0.  1.
    9900012    2    1    2    0    0 -0.16130787488E+02 -0.87262131448E+01 -0.37857508825E+01  0.72461521138E+02  0.69999935965E+02 0.  0.
         12    1    1    2    0    0  0.16130787488E+02  0.87262131448E+01  0.37857508825E+01  0.18726478862E+02  0.00000000000E+00 0. -1.
         11    1    3    3    0    0  0.10464447575E+02  0.23269758627E+02  0.64688220627E+01  0.26321701859E+02  0.51100000000E-03 0. -1.
        -11    1    3    3    0    0 -0.23633955505E+01  0.20203373972E+01  0.99296121887E-01  0.31108297459E+01  0.51100000000E-03 0.  1.
        -12    1    3    3    0    0 -0.24231839512E+02 -0.34016309169E+02 -0.10353869067E+02  0.43028989533E+02  0.00000000000E+00 0.  1.
</event>
<event>
 7    1  0.2957827E-013  0.7246158E+02  0.7816164E-02  0.1226708E+00
        -11   -1    0    0    0    0  0.00000000000E+00  0.00000000000E+00  0.45593999997E+02  0.45594000000E+02  0.51100000000E-03 0. -1.
         11   -1    0    0    0    0 -0.00000000000E+00 -0.00000000000E+00 -0.45593999997E+02  0.45594000000E+02  0.51100000000E-03 0.  1.
    9900012    2    1    2    0    0  0.22026890512E+01 -0.11052863102E+02 -0.14955308878E+02  0.72461577880E+02  0.70000009881E+02 0.  0.
         12    1    1    2    0    0 -0.22026890512E+01  0.11052863102E+02  0.14955308878E+02  0.18726422120E+02  0.00000000000E+00 0. -1.
         11    1    3    3    0    0  0.59207183919E+01  0.66216704980E+01  0.19336599954E+02  0.21279227535E+02  0.51100000000E-03 0. -1.
        -11    1    3    3    0    0  0.35145544939E+01  0.86206095307E+01 -0.32456914742E+01  0.98590828873E+01  0.51100000000E-03 0.  1.
        -12    1    3    3    0    0 -0.72325838345E+01 -0.26295143130E+02 -0.31046217357E+02  0.41323267457E+02  0.00000000000E+00 0.  1.
</event>
<event>
 7    1  0.2944263E-013  0.7246155E+02  0.7816164E-02  0.1226708E+00
        -11   -1    0    0    0    0  0.00000000000E+00  0.00000000000E+00  0.45593999997E+02  0.45594000000E+02  0.51100000000E-03 0.  1.
         11   -1    0    0    0    0 -0.00000000000E+00 -0.00000000000E+00 -0.45593999997E+02  0.45594000000E+02  0.51100000000E-03 0. -1.
    9900012    2    1    2    0    0 -0.15369289627E+02  0.72448425966E+01 -0.78725475839E+01  0.72461553104E+02  0.69999977606E+02 0.  0.
         12    1    1    2    0    0  0.15369289627E+02 -0.72448425966E+01  0.78725475839E+01  0.18726446896E+02  0.00000000000E+00 0. -1.
         11    1    3    3    0    0  0.94083337728E+00  0.11607078377E+02 -0.18256184582E+02  0.21654046080E+02  0.51100000000E-03 0. -1.
        -11    1    3    3    0    0 -0.28202981018E+02 -0.29870177074E+01 -0.74546811730E+01  0.29324097339E+02  0.51100000000E-03 0.  1.
        -12    1    3    3    0    0  0.11892858014E+02 -0.13752180730E+01  0.17838318171E+02  0.21483409685E+02  0.00000000000E+00 0.  1.
</event>
<event>
 7    1  0.2944263E-013  0.7246161E+02  0.7816164E-02  0.1226708E+00
        -11   -1    0    0    0    0  0.00000000000E+00  0.00000000000E+00  0.45593999997E+02  0.45594000000E+02  0.51100000000E-03 0. -1.
         11   -1    0    0    0    0 -0.00000000000E+00 -0.00000000000E+00 -0.45593999997E+02  0.45594000000E+02  0.51100000000E-03 0.  1.
    9900012    2    1    2    0    0  0.85363382477E+01 -0.16141323435E+02 -0.41552530112E+01  0.72461614324E+02  0.70000057357E+02 0.  0.
         12    1    1    2    0    0 -0.85363382477E+01  0.16141323435E+02  0.41552530112E+01  0.18726385676E+02  0.00000000000E+00 0. -1.
         11    1    3    3    0    0  0.11555400721E+02  0.22376504396E+02 -0.63680981141E+01  0.25976680093E+02  0.51100000000E-03 0. -1.
        -11    1    3    3    0    0  0.71393696080E+01 -0.76869129671E+00 -0.10496621298E+01  0.72569467104E+01  0.51100000000E-03 0.  1.
         12    1    3    3    0    0 -0.10158432081E+02 -0.37749136534E+02  0.32625072327E+01  0.39227987520E+02  0.00000000000E+00 0. -1.
</event>
<event>
 7    1  0.2944263E-013  0.7246164E+02  0.7816164E-02  0.1226708E+00
        -11   -1    0    0    0    0  0.00000000000E+00  0.00000000000E+00  0.45593999997E+02  0.45594000000E+02  0.51100000000E-03 0. -1.
         11   -1    0    0    0    0 -0.00000000000E+00 -0.00000000000E+00 -0.45593999997E+02  0.45594000000E+02  0.51100000000E-03 0.  1.
    9900012    2    1    2    0    0 -0.14731175253E+02  0.86490673811E+01 -0.76722044911E+01  0.72461638564E+02  0.70000088934E+02 0.  0.
         12    1    1    2    0    0  0.14731175253E+02 -0.86490673811E+01  0.76722044911E+01  0.18726361436E+02  0.00000000000E+00 0. -1.
         11    1    3    3    0    0 -0.13207489036E+02  0.22442745556E+02  0.22760878941E+01  0.26139915284E+02  0.51100000000E-03 0. -1.
        -11    1    3    3    0    0 -0.85790606576E+01  0.14059059085E+02 -0.45466127175E+01  0.17085933149E+02  0.51100000000E-03 0.  1.
        -12    1    3    3    0    0  0.70553744406E+01 -0.27852737259E+02 -0.54016796677E+01  0.29235790131E+02  0.00000000000E+00 0.  1.
</event>
<event>
 7    1  0.2944263E-013  0.7246159E+02  0.7816164E-02  0.1226708E+00
        -11   -1    0    0    0    0  0.00000000000E+00  0.00000000000E+00  0.45593999997E+02  0.45594000000E+02  0.51100000000E-03 0.  1.
         11   -1    0    0    0    0 -0.00000000000E+00 -0.00000000000E+00 -0.45593999997E+02  0.45594000000E+02  0.51100000000E-03 0. -1.
    9900012    2    1    2    0    0 -0.43454484093E+01 -0.18052802679E+02 -0.24272990713E+01  0.72461591182E+02  0.70000027210E+02 0.  0.
         12    1    1    2    0    0  0.43454484093E+01  0.18052802679E+02  0.24272990713E+01  0.18726408818E+02  0.00000000000E+00 0. -1.
         11    1    3    3    0    0  0.43022253785E+01  0.43820170859E+01  0.17362942382E+02  0.18416921170E+02  0.51100000000E-03 0. -1.
        -11    1    3    3    0    0 -0.90950881586E+01 -0.56420847727E+00  0.12238562722E+02  0.15258485428E+02  0.51100000000E-03 0.  1.
         12    1    3    3    0    0  0.44741437074E+00 -0.21870611288E+02 -0.32028804175E+02  0.38786184584E+02  0.00000000000E+00 0. -1.
</event>
<event>
 7    1  0.2944263E-013  0.7246157E+02  0.7816164E-02  0.1226708E+00
        -11   -1    0    0    0    0  0.00000000000E+00  0.00000000000E+00  0.45593999997E+02  0.45594000000E+02  0.51100000000E-03 0.  1.
         11   -1    0    0    0    0 -0.00000000000E+00 -0.00000000000E+00 -0.45593999997E+02  0.45594000000E+02  0.51100000000E-03 0. -1.
    9900012    2    1    2    0    0  0.71854387908E+01 -0.75032461935E+01  0.15580430541E+02  0.72461573488E+02  0.70000004160E+02 0.  0.
         12    1    1    2    0    0 -0.71854387908E+01  0.75032461935E+01 -0.15580430541E+02  0.18726426512E+02  0.00000000000E+00 0. -1.
         11    1    3    3    0    0 -0.19721705121E+02 -0.72123171285E+01 -0.10990829445E+02  0.23701508462E+02  0.51100000000E-03 0. -1.
        -11    1    3    3    0    0  0.15358953892E+02  0.10511928520E+02  0.93034680236E+00  0.18635011438E+02  0.51100000000E-03 0.  1.
        -12    1    3    3    0    0  0.11548190020E+02 -0.10802857585E+02  0.25640913184E+02  0.30125053588E+02  0.00000000000E+00 0.  1.
</event>
<event>
 7    1  0.2944263E-013  0.7246155E+02  0.7816164E-02  0.1226708E+00
        -11   -1    0    0    0    0  0.00000000000E+00  0.00000000000E+00  0.45593999997E+02  0.45594000000E+02  0.51100000000E-03 0.  1.
         11   -1    0    0    0    0 -0.00000000000E+00 -0.00000000000E+00 -0.45593999997E+02  0.45594000000E+02  0.51100000000E-03 0. -1.
    9900012    2    1    2    0    0 -0.17109929070E+02 -0.17539816372E+01 -0.74063246756E+01  0.72461554273E+02  0.69999979130E+02 0.  0.
         12    1    1    2    0    0  0.17109929070E+02  0.17539816372E+01  0.74063246756E+01  0.18726445727E+02  0.00000000000E+00 0. -1.
         11    1    3    3    0    0 -0.18180173617E+02  0.19410716220E+02 -0.17855266503E+02  0.32032876223E+02  0.51100000000E-03 0. -1.
        -11    1    3    3    0    0  0.79436849779E+01 -0.99135884155E+01 -0.99523403647E+01  0.16137857519E+02  0.51100000000E-03 0.  1.
        -12    1    3    3    0    0 -0.68734404299E+01 -0.11251109442E+02  0.20401282193E+02  0.24290820532E+02  0.00000000000E+00 0.  1.
</event>
<event>
 7    1  0.2944263E-013  0.7246164E+02  0.7816164E-02  0.1226708E+00
        -11   -1    0    0    0    0  0.00000000000E+00  0.00000000000E+00  0.45593999997E+02  0.45594000000E+02  0.51100000000E-03 0.  1.
         11   -1    0    0    0    0 -0.00000000000E+00 -0.00000000000E+00 -0.45593999997E+02  0.45594000000E+02  0.51100000000E-03 0. -1.
    9900012    2    1    2    0    0 -0.10650858352E+01  0.67437851967E+01  0.17437416615E+02  0.72461640375E+02  0.70000091293E+02 0.  0.
         12    1    1    2    0    0  0.10650858352E+01 -0.67437851967E+01 -0.17437416615E+02  0.18726359625E+02  0.00000000000E+00 0. -1.
         11    1    3    3    0    0  0.53013383095E+01 -0.25566358726E+02  0.81586174251E+01  0.27355180952E+02  0.51100000000E-03 0. -1.
        -11    1    3    3    0    0  0.92446464078E+01  0.65958164738E+01 -0.42455119644E+01  0.12124052716E+02  0.51100000000E-03 0.  1.
        -12    1    3    3    0    0 -0.15611070552E+02  0.25714327449E+02  0.13524311154E+02  0.32982406706E+02  0.00000000000E+00 0.  1.
</event>
<event>
 7    1  0.2944263E-013  0.7246158E+02  0.7816164E-02  0.1226708E+00
        -11   -1    0    0    0    0  0.00000000000E+00  0.00000000000E+00  0.45593999997E+02  0.45594000000E+02  0.51100000000E-03 0.  1.
         11   -1    0    0    0    0 -0.00000000000E+00 -0.00000000000E+00 -0.45593999997E+02  0.45594000000E+02  0.51100000000E-03 0. -1.
    9900012    2    1    2    0    0  0.56916273818E+01 -0.35130984535E+01  0.17491204995E+02  0.72461581892E+02  0.70000015108E+02 0.  0.
         12    1    1    2    0    0 -0.56916273818E+01  0.35130984535E+01 -0.17491204995E+02  0.18726418108E+02  0.00000000000E+00 0. -1.
         11    1    3    3    0    0 -0.13047613766E+02 -0.14792202355E+02 -0.18674392162E+02  0.27162150106E+02  0.51100000000E-03 0. -1.
        -11    1    3    3    0    0  0.30149754206E+01 -0.26918907869E+01  0.75366061508E+00  0.41114908950E+01  0.51100000000E-03 0.  1.
        -12    1    3    3    0    0  0.15724265727E+02  0.13970994688E+02  0.35411936542E+02  0.41187940891E+02  0.00000000000E+00 0.  1.
</event>
<event>
 7    1  0.2944263E-013  0.7246160E+02  0.7816164E-02  0.1226708E+00
        -11   -1    0    0    0    0  0.00000000000E+00  0.00000000000E+00  0.45593999997E+02  0.45594000000E+02  0.51100000000E-03 0. -1.
         11   -1    0    0    0    0 -0.00000000000E+00 -0.00000000000E+00 -0.45593999997E+02  0.45594000000E+02  0.51100000000E-03 0.  1.
    9900012    2    1    2    0    0  0.36632774978E+01  0.11280730877E+02 -0.14491501236E+02  0.72461598872E+02  0.70000037228E+02 0.  0.
         12    1    1    2    0    0 -0.36632774978E+01 -0.11280730877E+02  0.14491501236E+02  0.18726401128E+02  0.00000000000E+00 0. -1.
         11    1    3    3    0    0  0.28143143100E+02 -0.35635527852E+01 -0.26419956056E+02  0.38765312978E+02  0.51100000000E-03 0.  1.
        -11    1    3    3    0    0 -0.45173783822E+01  0.29779964475E+01 -0.29039654887E+01  0.61406991548E+01  0.51100000000E-03 0. -1.
        -12    1    3    3    0    0 -0.19962487220E+02  0.11866287215E+02  0.14832420310E+02  0.27555586739E+02  0.00000000000E+00 0.  1.
</event>
<event>
 7    1  0.2944263E-013  0.7246180E+02  0.7816164E-02  0.1226707E+00
        -11   -1    0    0    0    0  0.00000000000E+00  0.00000000000E+00  0.45593999997E+02  0.45594000000E+02  0.51100000000E-03 0. -1.
         11   -1    0    0    0    0 -0.00000000000E+00 -0.00000000000E+00 -0.45593999997E+02  0.45594000000E+02  0.51100000000E-03 0.  1.
    9900012    2    1    2    0    0 -0.18818783138E+01 -0.18379408658E+02 -0.30539182850E+01  0.72461800559E+02  0.70000299962E+02 0.  0.
         12    1    1    2    0    0  0.18818783138E+01  0.18379408658E+02  0.30539182850E+01  0.18726199441E+02  0.00000000000E+00 0. -1.
         11    1    3    3    0    0  0.26127016503E+02 -0.10439365800E+02 -0.15468480841E+02  0.32107246058E+02  0.51100000000E-03 0. -1.
        -11    1    3    3    0    0  0.22635474313E+01  0.38998755157E+01 -0.18281711687E+01  0.48656845454E+01  0.51100000000E-03 0.  1.
        -12    1    3    3    0    0 -0.30272442248E+02 -0.11839918374E+02  0.14242733724E+02  0.35488869955E+02  0.00000000000E+00 0.  1.
</event>
<event>
 7    1  0.2944263E-013  0.7246159E+02  0.7816164E-02  0.1226708E+00
        -11   -1    0    0    0    0  0.00000000000E+00  0.00000000000E+00  0.45593999997E+02  0.45594000000E+02  0.51100000000E-03 0. -1.
         11   -1    0    0    0    0 -0.00000000000E+00 -0.00000000000E+00 -0.45593999997E+02  0.45594000000E+02  0.51100000000E-03 0.  1.
    9900012    2    1    2    0    0  0.49917897425E+01  0.11085169732E+02 -0.14243574519E+02  0.72461591698E+02  0.70000027882E+02 0.  0.
         12    1    1    2    0    0 -0.49917897425E+01 -0.11085169732E+02  0.14243574519E+02  0.18726408302E+02  0.00000000000E+00 0. -1.
         11    1    3    3    0    0 -0.17349781996E+02  0.34510502989E+01 -0.19735243997E+02  0.26502915677E+02  0.51100000000E-03 0. -1.
        -11    1    3    3    0    0 -0.34716770459E+01  0.79652892513E+01 -0.11970806545E+02  0.14791841804E+02  0.51100000000E-03 0.  1.
        -12    1    3    3    0    0  0.25813248784E+02 -0.33116981859E+00  0.17462476023E+02  0.31166834217E+02  0.00000000000E+00 0.  1.
</event>
<event>
 7    1  0.2944263E-013  0.7246082E+02  0.7816164E-02  0.1226710E+00
        -11   -1    0    0    0    0  0.00000000000E+00  0.00000000000E+00  0.45593999997E+02  0.45594000000E+02  0.51100000000E-03 0. -1.
         11   -1    0    0    0    0 -0.00000000000E+00 -0.00000000000E+00 -0.45593999997E+02  0.45594000000E+02  0.51100000000E-03 0.  1.
    9900012    2    1    2    0    0  0.10904281298E+02  0.14283114620E+02 -0.52722513286E+01  0.72460817939E+02  0.69999019910E+02 0.  0.
         12    1    1    2    0    0 -0.10904281298E+02 -0.14283114620E+02  0.52722513286E+01  0.18727182061E+02  0.00000000000E+00 0. -1.
         11    1    3    3    0    0 -0.21720687064E+01  0.99405948619E+01  0.16076098496E+02  0.19025620930E+02  0.51100000000E-03 0. -1.
        -11    1    3    3    0    0  0.42020553308E+01  0.22190073301E+02 -0.24426009110E+02  0.33266898614E+02  0.51100000000E-03 0.  1.
         12    1    3    3    0    0  0.88742946738E+01 -0.17847553543E+02  0.30776592854E+01  0.20168298394E+02  0.00000000000E+00 0. -1.
</event>
<event>
 7    1  0.2944263E-013  0.7246154E+02  0.7816164E-02  0.1226708E+00
        -11   -1    0    0    0    0  0.00000000000E+00  0.00000000000E+00  0.45593999997E+02  0.45594000000E+02  0.51100000000E-03 0. -1.
         11   -1    0    0    0    0 -0.00000000000E+00 -0.00000000000E+00 -0.45593999997E+02  0.45594000000E+02  0.51100000000E-03 0.  1.
    9900012    2    1    2    0    0 -0.29479709392E+01  0.37732586992E+01 -0.18103927855E+02  0.72461542309E+02  0.69999963544E+02 0.  0.
         12    1    1    2    0    0  0.29479709392E+01 -0.37732586992E+01  0.18103927855E+02  0.18726457691E+02  0.00000000000E+00 0. -1.
         11    1    3    3    0    0 -0.18739693999E+02  0.26710691124E+01  0.11793579518E+01  0.18965801508E+02  0.51100000000E-03 0. -1.
        -11    1    3    3    0    0 -0.61616361959E+01 -0.24148560372E+01  0.12830439437E+02  0.14436670900E+02  0.51100000000E-03 0.  1.
        -12    1    3    3    0    0  0.21953359256E+02  0.35170456240E+01 -0.32113725243E+02  0.39059069901E+02  0.00000000000E+00 0.  1.
</event>
<event>
 7    1  0.2944263E-013  0.7246154E+02  0.7816164E-02  0.1226708E+00
        -11   -1    0    0    0    0  0.00000000000E+00  0.00000000000E+00  0.45593999997E+02  0.45594000000E+02  0.51100000000E-03 0. -1.
         11   -1    0    0    0    0 -0.00000000000E+00 -0.00000000000E+00 -0.45593999997E+02  0.45594000000E+02  0.51100000000E-03 0.  1.
    9900012    2    1    2    0    0  0.16788659783E+02  0.10802423982E+01 -0.82252138289E+01  0.72461543756E+02  0.69999965429E+02 0.  0.
         12    1    1    2    0    0 -0.16788659783E+02 -0.10802423982E+01  0.82252138289E+01  0.18726456244E+02  0.00000000000E+00 0. -1.
         11    1    3    3    0    0 -0.12529760793E+02 -0.11732480452E+02  0.30246587698E+01  0.17429703498E+02  0.51100000000E-03 0. -1.
        -11    1    3    3    0    0  0.63992720997E+01 -0.11458454459E+02  0.90682122841E+01  0.15952408479E+02  0.51100000000E-03 0.  1.
        -12    1    3    3    0    0  0.22919148476E+02  0.24271177309E+02 -0.20318084883E+02  0.39079431779E+02  0.00000000000E+00 0.  1.
</event>
<event>
 7    1  0.2944263E-013  0.7246148E+02  0.7816164E-02  0.1226708E+00
        -11   -1    0    0    0    0  0.00000000000E+00  0.00000000000E+00  0.45593999997E+02  0.45594000000E+02  0.51100000000E-03 0. -1.
         11   -1    0    0    0    0 -0.00000000000E+00 -0.00000000000E+00 -0.45593999997E+02  0.45594000000E+02  0.51100000000E-03 0.  1.
    9900012    2    1    2    0    0 -0.11623396212E+02  0.62835330052E+01 -0.13270134593E+02  0.72461478736E+02  0.69999880729E+02 0.  0.
         12    1    1    2    0    0  0.11623396212E+02 -0.62835330052E+01  0.13270134593E+02  0.18726521264E+02  0.00000000000E+00 0. -1.
         11    1    3    3    0    0 -0.18331692655E+02  0.15570718109E+02  0.43077650969E+01  0.24434710115E+02  0.51100000000E-03 0. -1.
        -11    1    3    3    0    0  0.19552421396E+02  0.76527905176E+01 -0.16564177375E+02  0.26743865793E+02  0.51100000000E-03 0.  1.
         12    1    3    3    0    0 -0.12844124954E+02 -0.16939975622E+02 -0.10137223143E+01  0.21282902829E+02  0.00000000000E+00 0. -1.
</event>
<event>
 7    1  0.2944263E-013  0.7246162E+02  0.7816164E-02  0.1226708E+00
        -11   -1    0    0    0    0  0.00000000000E+00  0.00000000000E+00  0.45593999997E+02  0.45594000000E+02  0.51100000000E-03 0. -1.
         11   -1    0    0    0    0 -0.00000000000E+00 -0.00000000000E+00 -0.45593999997E+02  0.45594000000E+02  0.51100000000E-03 0.  1.
    9900012    2    1    2    0    0  0.10315450654E+02  0.15168636736E+02  0.37658069115E+01  0.72461618494E+02  0.70000062789E+02 0.  0.
         12    1    1    2    0    0 -0.10315450654E+02 -0.15168636736E+02 -0.37658069115E+01  0.18726381506E+02  0.00000000000E+00 0. -1.
         11    1    3    3    0    0 -0.36395287567E+01  0.83363175315E+01  0.55370961521E+01  0.10648933919E+02  0.51100000000E-03 0. -1.
        -11    1    3    3    0    0 -0.14848154524E+02 -0.16710443586E+02 -0.86723749863E+01  0.23977420749E+02  0.51100000000E-03 0.  1.
         12    1    3    3    0    0  0.28803133935E+02  0.23542762791E+02  0.69010857457E+01  0.37835263826E+02  0.00000000000E+00 0. -1.
</event>
<event>
 7    1  0.2944263E-013  0.7246151E+02  0.7816164E-02  0.1226708E+00
        -11   -1    0    0    0    0  0.00000000000E+00  0.00000000000E+00  0.45593999997E+02  0.45594000000E+02  0.51100000000E-03 0. -1.
         11   -1    0    0    0    0 -0.00000000000E+00 -0.00000000000E+00 -0.45593999997E+02  0.45594000000E+02  0.51100000000E-03 0.  1.
    9900012    2    1    2    0    0  0.10627979940E+02  0.15097105445E+02 -0.31312739082E+01  0.72461510027E+02  0.69999921490E+02 0.  0.
         12    1    1    2    0    0 -0.10627979940E+02 -0.15097105445E+02  0.31312739082E+01  0.18726489973E+02  0.00000000000E+00 0. -1.
         11    1    3    3    0    0 -0.98935631778E+00 -0.43429773719E+01 -0.13297437224E+02  0.14023627040E+02  0.51100000000E-03 0.  1.
        -11    1    3    3    0    0 -0.10885278301E+02 -0.46736677511E+01  0.20669408393E+02  0.23823452678E+02  0.51100000000E-03 0. -1.
         12    1    3    3    0    0  0.22502614559E+02  0.24113750568E+02 -0.10503245077E+02  0.34614430309E+02  0.00000000000E+00 0. -1.
</event>
<event>
 7    1  0.2944263E-013  0.7246155E+02  0.7816164E-02  0.1226708E+00
        -11   -1    0    0    0    0  0.00000000000E+00  0.00000000000E+00  0.45593999997E+02  0.45594000000E+02  0.51100000000E-03 0.  1.
         11   -1    0    0    0    0 -0.00000000000E+00 -0.00000000000E+00 -0.45593999997E+02  0.45594000000E+02  0.51100000000E-03 0. -1.
    9900012    2    1    2    0    0  0.16885283699E+02 -0.47681604942E+01 -0.65445897956E+01  0.72461553042E+02  0.69999977526E+02 0.  0.
         12    1    1    2    0    0 -0.16885283699E+02  0.47681604942E+01  0.65445897956E+01  0.18726446958E+02  0.00000000000E+00 0. -1.
         11    1    3    3    0    0  0.19218766652E+01  0.43781220733E+01 -0.18774180133E+02  0.19373471623E+02  0.51100000000E-03 0. -1.
        -11    1    3    3    0    0 -0.78565696437E+01  0.53517134328E+01 -0.13002570572E+02  0.16106935307E+02  0.51100000000E-03 0.  1.
        -12    1    3    3    0    0  0.22819976677E+02 -0.14497996000E+02  0.25232160910E+02  0.36981146112E+02  0.00000000000E+00 0.  1.
</event>
<event>
 7    1  0.2944263E-013  0.7246160E+02  0.7816164E-02  0.1226708E+00
        -11   -1    0    0    0    0  0.00000000000E+00  0.00000000000E+00  0.45593999997E+02  0.45594000000E+02  0.51100000000E-03 0. -1.
         11   -1    0    0    0    0 -0.00000000000E+00 -0.00000000000E+00 -0.45593999997E+02  0.45594000000E+02  0.51100000000E-03 0.  1.
    9900012    2    1    2    0    0 -0.13936854509E+02  0.13601426724E+01 -0.12433511102E+02  0.72461598850E+02  0.70000037199E+02 0.  0.
         12    1    1    2    0    0  0.13936854509E+02 -0.13601426724E+01  0.12433511102E+02  0.18726401150E+02  0.00000000000E+00 0. -1.
         11    1    3    3    0    0 -0.63399775820E+01 -0.12845146652E+00 -0.28568259310E+01  0.69550895163E+01  0.51100000000E-03 0. -1.
        -11    1    3    3    0    0 -0.31098648182E+02 -0.14987182700E+02 -0.12366104788E+02  0.36669634739E+02  0.51100000000E-03 0.  1.
         12    1    3    3    0    0  0.23501771255E+02  0.16475776839E+02  0.27894196164E+01  0.28836874594E+02  0.00000000000E+00 0. -1.
</event>
<event>
 7    1  0.2944263E-013  0.7246156E+02  0.7816164E-02  0.1226708E+00
        -11   -1    0    0    0    0  0.00000000000E+00  0.00000000000E+00  0.45593999997E+02  0.45594000000E+02  0.51100000000E-03 0. -1.
         11   -1    0    0    0    0 -0.00000000000E+00 -0.00000000000E+00 -0.45593999997E+02  0.45594000000E+02  0.51100000000E-03 0.  1.
    9900012    2    1    2    0    0 -0.53863740084E+01  0.58400350362E-02 -0.17935061983E+02  0.72461561273E+02  0.69999988248E+02 0.  0.
         12    1    1    2    0    0  0.53863740084E+01 -0.58400350362E-02  0.17935061983E+02  0.18726438727E+02  0.00000000000E+00 0. -1.
         11    1    3    3    0    0 -0.17703819142E+02  0.52645765267E+01 -0.25030261054E+02  0.31107152665E+02  0.51100000000E-03 0. -1.
        -11    1    3    3    0    0 -0.11609015328E+02  0.64594581921E+01 -0.14780121620E+01  0.13367062401E+02  0.51100000000E-03 0.  1.
         12    1    3    3    0    0  0.23926460462E+02 -0.11718194684E+02  0.85732112327E+01  0.27987346207E+02  0.00000000000E+00 0. -1.
</event>
<event>
 7    1  0.2944263E-013  0.7246208E+02  0.7816164E-02  0.1226707E+00
        -11   -1    0    0    0    0  0.00000000000E+00  0.00000000000E+00  0.45593999997E+02  0.45594000000E+02  0.51100000000E-03 0.  1.
         11   -1    0    0    0    0 -0.00000000000E+00 -0.00000000000E+00 -0.45593999997E+02  0.45594000000E+02  0.51100000000E-03 0. -1.
    9900012    2    1    2    0    0 -0.18718318163E+02 -0.40780719206E-01 -0.53212217017E+00  0.72462075405E+02  0.70000657998E+02 0.  0.
         12    1    1    2    0    0  0.18718318163E+02  0.40780719206E-01  0.53212217017E+00  0.18725924595E+02  0.00000000000E+00 0. -1.
         11    1    3    3    0    0  0.37754200568E+01  0.10753281994E+02 -0.85509775485E+01  0.14248020478E+02  0.51100000000E-03 0. -1.
        -11    1    3    3    0    0 -0.21825889038E+02  0.81035045213E+00  0.27749728736E+02  0.35313928489E+02  0.51100000000E-03 0.  1.
         12    1    3    3    0    0 -0.66784918167E+00 -0.11604413165E+02 -0.19730873357E+02  0.22900126438E+02  0.00000000000E+00 0. -1.
</event>
<event>
 7    1  0.2944263E-013  0.7246158E+02  0.7816164E-02  0.1226708E+00
        -11   -1    0    0    0    0  0.00000000000E+00  0.00000000000E+00  0.45593999997E+02  0.45594000000E+02  0.51100000000E-03 0.  1.
         11   -1    0    0    0    0 -0.00000000000E+00 -0.00000000000E+00 -0.45593999997E+02  0.45594000000E+02  0.51100000000E-03 0. -1.
    9900012    2    1    2    0    0 -0.85724728380E+01 -0.83183749414E+01  0.14422066185E+02  0.72461584292E+02  0.70000018234E+02 0.  0.
         12    1    1    2    0    0  0.85724728380E+01  0.83183749414E+01 -0.14422066185E+02  0.18726415708E+02  0.00000000000E+00 0. -1.
         11    1    3    3    0    0  0.18153673614E+01 -0.11371151658E+01  0.20056579700E+02  0.20170646471E+02  0.51100000000E-03 0. -1.
        -11    1    3    3    0    0 -0.14088971338E+02 -0.24338900337E+01  0.20766418554E+02  0.25212438873E+02  0.51100000000E-03 0.  1.
         12    1    3    3    0    0  0.37011311389E+01 -0.47473697418E+01 -0.26400932069E+02  0.27078498948E+02  0.00000000000E+00 0. -1.
</event>
<event>
 7    1  0.2944263E-013  0.7246147E+02  0.7816164E-02  0.1226708E+00
        -11   -1    0    0    0    0  0.00000000000E+00  0.00000000000E+00  0.45593999997E+02  0.45594000000E+02  0.51100000000E-03 0.  1.
         11   -1    0    0    0    0 -0.00000000000E+00 -0.00000000000E+00 -0.45593999997E+02  0.45594000000E+02  0.51100000000E-03 0. -1.
    9900012    2    1    2    0    0  0.14456299587E+02  0.77892474603E+01  0.90014408699E+01  0.72461470383E+02  0.69999869847E+02 0.  0.
         12    1    1    2    0    0 -0.14456299587E+02 -0.77892474603E+01 -0.90014408699E+01  0.18726529617E+02  0.00000000000E+00 0. -1.
         11    1    3    3    0    0  0.14653063552E+02 -0.10325597093E+02  0.15932983090E+02  0.23983122757E+02  0.51100000000E-03 0.  1.
        -11    1    3    3    0    0 -0.59895313718E+00 -0.13059894214E+02  0.64170477489E+01  0.14563587601E+02  0.51100000000E-03 0. -1.
        -12    1    3    3    0    0  0.40218917239E+00  0.31174738768E+02 -0.13348589969E+02  0.33914760025E+02  0.00000000000E+00 0.  1.
</event>
<event>
 7    1  0.2944263E-013  0.7246155E+02  0.7816164E-02  0.1226708E+00
        -11   -1    0    0    0    0  0.00000000000E+00  0.00000000000E+00  0.45593999997E+02  0.45594000000E+02  0.51100000000E-03 0.  1.
         11   -1    0    0    0    0 -0.00000000000E+00 -0.00000000000E+00 -0.45593999997E+02  0.45594000000E+02  0.51100000000E-03 0. -1.
    9900012    2    1    2    0    0 -0.69838324445E+01  0.15317352009E+02 -0.82027209439E+01  0.72461552951E+02  0.69999977408E+02 0.  0.
         12    1    1    2    0    0  0.69838324445E+01 -0.15317352009E+02  0.82027209439E+01  0.18726447049E+02  0.00000000000E+00 0. -1.
         11    1    3    3    0    0 -0.40593939220E+01 -0.14583327012E+02 -0.22328010436E+02  0.26975769795E+02  0.51100000000E-03 0. -1.
        -11    1    3    3    0    0  0.44511481757E+01 -0.54634111135E+01  0.13987713087E+01  0.71845767107E+01  0.51100000000E-03 0.  1.
        -12    1    3    3    0    0 -0.73755866983E+01  0.35364090134E+02  0.12726518183E+02  0.38301206446E+02  0.00000000000E+00 0.  1.
</event>
<event>
 7    1  0.2944263E-013  0.7246157E+02  0.7816164E-02  0.1226708E+00
        -11   -1    0    0    0    0  0.00000000000E+00  0.00000000000E+00  0.45593999997E+02  0.45594000000E+02  0.51100000000E-03 0.  1.
         11   -1    0    0    0    0 -0.00000000000E+00 -0.00000000000E+00 -0.45593999997E+02  0.45594000000E+02  0.51100000000E-03 0. -1.
    9900012    2    1    2    0    0  0.13865879316E+02  0.10410767818E+02  0.70733704446E+01  0.72461567740E+02  0.69999996672E+02 0.  0.
         12    1    1    2    0    0 -0.13865879316E+02 -0.10410767818E+02 -0.70733704446E+01  0.18726432260E+02  0.00000000000E+00 0. -1.
         11    1    3    3    0    0 -0.18070594144E+01 -0.11936462422E+01 -0.19498769046E+02  0.19618670945E+02  0.51100000000E-03 0. -1.
        -11    1    3    3    0    0  0.10111575269E+02  0.12686723821E+02 -0.78041624586E+01  0.18002829435E+02  0.51100000000E-03 0.  1.
        -12    1    3    3    0    0  0.55613634612E+01 -0.10823097603E+01  0.34376301949E+02  0.34840067360E+02  0.00000000000E+00 0.  1.
</event>
<event>
 7    1  0.2944263E-013  0.7246158E+02  0.7816164E-02  0.1226708E+00
        -11   -1    0    0    0    0  0.00000000000E+00  0.00000000000E+00  0.45593999997E+02  0.45594000000E+02  0.51100000000E-03 0. -1.
         11   -1    0    0    0    0 -0.00000000000E+00 -0.00000000000E+00 -0.45593999997E+02  0.45594000000E+02  0.51100000000E-03 0.  1.
    9900012    2    1    2    0    0  0.10982199062E+01 -0.14160934970E+02 -0.12204116456E+02  0.72461584842E+02  0.70000018951E+02 0.  0.
         12    1    1    2    0    0 -0.10982199062E+01  0.14160934970E+02  0.12204116456E+02  0.18726415158E+02  0.00000000000E+00 0. -1.
         11    1    3    3    0    0 -0.17757001835E+02  0.45011970943E+01 -0.20491673847E+02  0.27486007108E+02  0.51100000000E-03 0. -1.
        -11    1    3    3    0    0 -0.33357682169E+01 -0.19618716085E+02 -0.28917570718E+01  0.20109292122E+02  0.51100000000E-03 0.  1.
        -12    1    3    3    0    0  0.22190989958E+02  0.95658401990E+00  0.11179314462E+02  0.24866285612E+02  0.00000000000E+00 0.  1.
</event>
<event>
 7    1  0.2944263E-013  0.7246156E+02  0.7816164E-02  0.1226708E+00
        -11   -1    0    0    0    0  0.00000000000E+00  0.00000000000E+00  0.45593999997E+02  0.45594000000E+02  0.51100000000E-03 0. -1.
         11   -1    0    0    0    0 -0.00000000000E+00 -0.00000000000E+00 -0.45593999997E+02  0.45594000000E+02  0.51100000000E-03 0.  1.
    9900012    2    1    2    0    0 -0.15148911529E+02 -0.82938808712E+01 -0.72388992404E+01  0.72461557662E+02  0.69999983544E+02 0.  0.
         12    1    1    2    0    0  0.15148911529E+02  0.82938808712E+01  0.72388992404E+01  0.18726442338E+02  0.00000000000E+00 0. -1.
         11    1    3    3    0    0 -0.87645662486E+01  0.20200272621E+02  0.37893376035E+01  0.22343404289E+02  0.51100000000E-03 0. -1.
        -11    1    3    3    0    0  0.97247260515E+01  0.13868648524E+01  0.66321767254E+01  0.11852403101E+02  0.51100000000E-03 0.  1.
        -12    1    3    3    0    0 -0.16109071332E+02 -0.29881018344E+02 -0.17660413569E+02  0.38265750272E+02  0.00000000000E+00 0.  1.
</event>
<event>
 7    1  0.2944263E-013  0.7246155E+02  0.7816164E-02  0.1226708E+00
        -11   -1    0    0    0    0  0.00000000000E+00  0.00000000000E+00  0.45593999997E+02  0.45594000000E+02  0.51100000000E-03 0. -1.
         11   -1    0    0    0    0 -0.00000000000E+00 -0.00000000000E+00 -0.45593999997E+02  0.45594000000E+02  0.51100000000E-03 0.  1.
    9900012    2    1    2    0    0  0.16612021726E+02  0.45806144410E+01 -0.73306545751E+01  0.72461553701E+02  0.69999978384E+02 0.  0.
         12    1    1    2    0    0 -0.16612021726E+02 -0.45806144410E+01  0.73306545751E+01  0.18726446299E+02  0.00000000000E+00 0. -1.
         11    1    3    3    0    0 -0.49531125294E+01  0.91929965216E+01 -0.22622807477E+01  0.10684681709E+02  0.51100000000E-03 0. -1.
        -11    1    3    3    0    0  0.41104493916E+01  0.19844671042E+02 -0.19782577331E+02  0.28320613148E+02  0.51100000000E-03 0.  1.
        -12    1    3    3    0    0  0.17454684864E+02 -0.24457053122E+02  0.14714203504E+02  0.33456258844E+02  0.00000000000E+00 0.  1.
</event>
<event>
 7    1  0.2944263E-013  0.7246157E+02  0.7816164E-02  0.1226708E+00
        -11   -1    0    0    0    0  0.00000000000E+00  0.00000000000E+00  0.45593999997E+02  0.45594000000E+02  0.51100000000E-03 0. -1.
         11   -1    0    0    0    0 -0.00000000000E+00 -0.00000000000E+00 -0.45593999997E+02  0.45594000000E+02  0.51100000000E-03 0.  1.
    9900012    2    1    2    0    0 -0.53071665055E+01  0.17804962988E+02  0.23444330605E+01  0.72461572425E+02  0.70000002776E+02 0.  0.
         12    1    1    2    0    0  0.53071665055E+01 -0.17804962988E+02 -0.23444330605E+01  0.18726427575E+02  0.00000000000E+00 0. -1.
         11    1    3    3    0    0 -0.27612711909E+02  0.14626360948E+02  0.68918887602E+01  0.31998287837E+02  0.51100000000E-03 0. -1.
        -11    1    3    3    0    0 -0.42835825739E+01 -0.92227412179E+01 -0.45101949444E+01  0.11124292963E+02  0.51100000000E-03 0.  1.
         12    1    3    3    0    0  0.26589127978E+02  0.12401343258E+02 -0.37260755331E-01  0.29338991625E+02  0.00000000000E+00 0. -1.
</event>
<event>
 7    1  0.2944263E-013  0.7246161E+02  0.7816164E-02  0.1226708E+00
        -11   -1    0    0    0    0  0.00000000000E+00  0.00000000000E+00  0.45593999997E+02  0.45594000000E+02  0.51100000000E-03 0. -1.
         11   -1    0    0    0    0 -0.00000000000E+00 -0.00000000000E+00 -0.45593999997E+02  0.45594000000E+02  0.51100000000E-03 0.  1.
    9900012    2    1    2    0    0 -0.70271406190E+01 -0.13558273073E+02 -0.10838361796E+02  0.72461613258E+02  0.70000055968E+02 0.  0.
         12    1    1    2    0    0  0.70271406190E+01  0.13558273073E+02  0.10838361796E+02  0.18726386742E+02  0.00000000000E+00 0. -1.
         11    1    3    3    0    0  0.12708238131E+01 -0.76192439095E+01  0.13264327599E+02  0.15349601227E+02  0.51100000000E-03 0. -1.
        -11    1    3    3    0    0 -0.38173578345E+01  0.18079163899E+02  0.49715450361E+01  0.19134906543E+02  0.51100000000E-03 0.  1.
        -12    1    3    3    0    0 -0.44806065976E+01 -0.24018193062E+02 -0.29074234431E+02  0.37977105487E+02  0.00000000000E+00 0.  1.
</event>
<event>
 7    1  0.2944263E-013  0.7246153E+02  0.7816164E-02  0.1226708E+00
        -11   -1    0    0    0    0  0.00000000000E+00  0.00000000000E+00  0.45593999997E+02  0.45594000000E+02  0.51100000000E-03 0.  1.
         11   -1    0    0    0    0 -0.00000000000E+00 -0.00000000000E+00 -0.45593999997E+02  0.45594000000E+02  0.51100000000E-03 0. -1.
    9900012    2    1    2    0    0  0.67752286544E+01 -0.86414963231E+01  0.15169095555E+02  0.72461530979E+02  0.69999948785E+02 0.  0.
         12    1    1    2    0    0 -0.67752286544E+01  0.86414963231E+01 -0.15169095555E+02  0.18726469021E+02  0.00000000000E+00 0. -1.
         11    1    3    3    0    0  0.44160406093E+01  0.19050371765E+02 -0.67715485102E+01  0.20694732386E+02  0.51100000000E-03 0. -1.
        -11    1    3    3    0    0  0.14943475885E+02 -0.91296721019E+00  0.67813022266E-01  0.14971492228E+02  0.51100000000E-03 0.  1.
         12    1    3    3    0    0 -0.12584287840E+02 -0.26778900878E+02  0.21872831043E+02  0.36795306365E+02  0.00000000000E+00 0. -1.
</event>
<event>
 7    1  0.2944263E-013  0.7246155E+02  0.7816164E-02  0.1226708E+00
        -11   -1    0    0    0    0  0.00000000000E+00  0.00000000000E+00  0.45593999997E+02  0.45594000000E+02  0.51100000000E-03 0. -1.
         11   -1    0    0    0    0 -0.00000000000E+00 -0.00000000000E+00 -0.45593999997E+02  0.45594000000E+02  0.51100000000E-03 0.  1.
    9900012    2    1    2    0    0  0.74712835994E+00  0.15374661009E+02 -0.10664959521E+02  0.72461554434E+02  0.69999979339E+02 0.  0.
         12    1    1    2    0    0 -0.74712835994E+00 -0.15374661009E+02  0.10664959521E+02  0.18726445566E+02  0.00000000000E+00 0. -1.
         11    1    3    3    0    0 -0.29750395048E+01  0.35296810071E+02 -0.95161968114E+01  0.36677972452E+02  0.51100000000E-03 0. -1.
        -11    1    3    3    0    0  0.53456110898E+01 -0.92966339204E+01 -0.14882435233E+02  0.18343659365E+02  0.51100000000E-03 0.  1.
         12    1    3    3    0    0 -0.16234432251E+01 -0.10625515141E+02  0.13733672523E+02  0.17439922617E+02  0.00000000000E+00 0. -1.
</event>
<event>
 7    1  0.2944263E-013  0.7246163E+02  0.7816164E-02  0.1226708E+00
        -11   -1    0    0    0    0  0.00000000000E+00  0.00000000000E+00  0.45593999997E+02  0.45594000000E+02  0.51100000000E-03 0.  1.
         11   -1    0    0    0    0 -0.00000000000E+00 -0.00000000000E+00 -0.45593999997E+02  0.45594000000E+02  0.51100000000E-03 0. -1.
    9900012    2    1    2    0    0 -0.98762829648E+00 -0.22108111046E+01  0.18569158730E+02  0.72461634861E+02  0.70000084110E+02 0.  0.
         12    1    1    2    0    0  0.98762829648E+00  0.22108111046E+01 -0.18569158730E+02  0.18726365139E+02  0.00000000000E+00 0. -1.
         11    1    3    3    0    0  0.26321180267E+02 -0.29230344708E+01  0.71946927619E+00  0.26492759340E+02  0.51100000000E-03 0. -1.
        -11    1    3    3    0    0 -0.62586502932E+01  0.10082412250E+02 -0.55749217098E+01  0.13111273493E+02  0.51100000000E-03 0.  1.
        -12    1    3    3    0    0 -0.21050158270E+02 -0.93701888838E+01  0.23424611163E+02  0.32857602028E+02  0.00000000000E+00 0.  1.
</event>
<event>
 7    1  0.2944263E-013  0.7246158E+02  0.7816164E-02  0.1226708E+00
        -11   -1    0    0    0    0  0.00000000000E+00  0.00000000000E+00  0.45593999997E+02  0.45594000000E+02  0.51100000000E-03 0.  1.
         11   -1    0    0    0    0 -0.00000000000E+00 -0.00000000000E+00 -0.45593999997E+02  0.45594000000E+02  0.51100000000E-03 0. -1.
    9900012    2    1    2    0    0  0.17347939578E+01  0.13278370358E+02  0.13090230740E+02  0.72461580954E+02  0.70000013886E+02 0.  0.
         12    1    1    2    0    0 -0.17347939578E+01 -0.13278370358E+02 -0.13090230740E+02  0.18726419046E+02  0.00000000000E+00 0. -1.
         11    1    3    3    0    0  0.11157363325E+02  0.22027187473E+01 -0.48249803801E+00  0.11382949129E+02  0.51100000000E-03 0. -1.
        -11    1    3    3    0    0 -0.85548339163E+01  0.23124399820E+02 -0.15823685151E+02  0.29296963365E+02  0.51100000000E-03 0.  1.
         12    1    3    3    0    0 -0.86773545116E+00 -0.12048748209E+02  0.29396413930E+02  0.31781668461E+02  0.00000000000E+00 0. -1.
</event>
<event>
 7    1  0.2944263E-013  0.7246147E+02  0.7816164E-02  0.1226708E+00
        -11   -1    0    0    0    0  0.00000000000E+00  0.00000000000E+00  0.45593999997E+02  0.45594000000E+02  0.51100000000E-03 0.  1.
         11   -1    0    0    0    0 -0.00000000000E+00 -0.00000000000E+00 -0.45593999997E+02  0.45594000000E+02  0.51100000000E-03 0. -1.
    9900012    2    1    2    0    0 -0.86637219864E+01 -0.14844455315E+02  0.74340554238E+01  0.72461465021E+02  0.69999862862E+02 0.  0.
         12    1    1    2    0    0  0.86637219864E+01  0.14844455315E+02 -0.74340554238E+01  0.18726534979E+02  0.00000000000E+00 0. -1.
         11    1    3    3    0    0 -0.11813802013E+02  0.62571986340E+01  0.25029099223E+01  0.13600845970E+02  0.51100000000E-03 0. -1.
        -11    1    3    3    0    0 -0.18730737286E+02 -0.17649139135E+02  0.19550690235E+02  0.32319686268E+02  0.51100000000E-03 0.  1.
        -12    1    3    3    0    0  0.21880817313E+02 -0.34525148140E+01 -0.14619544734E+02  0.26540932784E+02  0.00000000000E+00 0.  1.
</event>
<event>
 7    1  0.2944263E-013  0.7246157E+02  0.7816164E-02  0.1226708E+00
        -11   -1    0    0    0    0  0.00000000000E+00  0.00000000000E+00  0.45593999997E+02  0.45594000000E+02  0.51100000000E-03 0. -1.
         11   -1    0    0    0    0 -0.00000000000E+00 -0.00000000000E+00 -0.45593999997E+02  0.45594000000E+02  0.51100000000E-03 0.  1.
    9900012    2    1    2    0    0 -0.97220296577E+01  0.13331838462E+02 -0.88557006364E+01  0.72461569181E+02  0.69999998550E+02 0.  0.
         12    1    1    2    0    0  0.97220296577E+01 -0.13331838462E+02  0.88557006364E+01  0.18726430819E+02  0.00000000000E+00 0. -1.
         11    1    3    3    0    0  0.15856424416E+02  0.12990476675E+02 -0.56416122491E+01  0.21260443752E+02  0.51100000000E-03 0. -1.
        -11    1    3    3    0    0 -0.10886221108E+02  0.21820055365E+02 -0.57536187746E+01  0.25054515669E+02  0.51100000000E-03 0.  1.
        -12    1    3    3    0    0 -0.14692232966E+02 -0.21478693578E+02  0.25395303872E+01  0.26146609759E+02  0.00000000000E+00 0.  1.
</event>
<event>
 7    1  0.2944263E-013  0.7246156E+02  0.7816164E-02  0.1226708E+00
        -11   -1    0    0    0    0  0.00000000000E+00  0.00000000000E+00  0.45593999997E+02  0.45594000000E+02  0.51100000000E-03 0.  1.
         11   -1    0    0    0    0 -0.00000000000E+00 -0.00000000000E+00 -0.45593999997E+02  0.45594000000E+02  0.51100000000E-03 0. -1.
    9900012    2    1    2    0    0 -0.93833363696E+01 -0.70847768726E+01  0.14575272708E+02  0.72461557752E+02  0.69999983661E+02 0.  0.
         12    1    1    2    0    0  0.93833363696E+01  0.70847768726E+01 -0.14575272708E+02  0.18726442248E+02  0.00000000000E+00 0. -1.
         11    1    3    3    0    0 -0.11598132836E+02 -0.69596906611E+00  0.19541728348E+01  0.11782183582E+02  0.51100000000E-03 0. -1.
        -11    1    3    3    0    0 -0.23508464551E+02 -0.88489801798E+00  0.22526176579E+02  0.32570839436E+02  0.51100000000E-03 0.  1.
        -12    1    3    3    0    0  0.25723261017E+02 -0.55039097885E+01 -0.99050767056E+01  0.28108534734E+02  0.00000000000E+00 0.  1.
</event>
<event>
 7    1  0.2944263E-013  0.7246158E+02  0.7816164E-02  0.1226708E+00
        -11   -1    0    0    0    0  0.00000000000E+00  0.00000000000E+00  0.45593999997E+02  0.45594000000E+02  0.51100000000E-03 0. -1.
         11   -1    0    0    0    0 -0.00000000000E+00 -0.00000000000E+00 -0.45593999997E+02  0.45594000000E+02  0.51100000000E-03 0.  1.
    9900012    2    1    2    0    0  0.15711620010E+02 -0.10033933554E+02  0.17731228334E+01  0.72461580415E+02  0.70000013184E+02 0.  0.
         12    1    1    2    0    0 -0.15711620010E+02  0.10033933554E+02 -0.17731228334E+01  0.18726419585E+02  0.00000000000E+00 0. -1.
         11    1    3    3    0    0  0.64157302068E+01 -0.11724445194E+02  0.17112655630E+02  0.21713295286E+02  0.51100000000E-03 0. -1.
        -11    1    3    3    0    0  0.98247237214E+01  0.11553404058E+02  0.13475273753E+02  0.20287664836E+02  0.51100000000E-03 0.  1.
         12    1    3    3    0    0 -0.52883391858E+00 -0.98628924178E+01 -0.28814806550E+02  0.30460620293E+02  0.00000000000E+00 0. -1.
</event>
<event>
 7    1  0.2944263E-013  0.7246153E+02  0.7816164E-02  0.1226708E+00
        -11   -1    0    0    0    0  0.00000000000E+00  0.00000000000E+00  0.45593999997E+02  0.45594000000E+02  0.51100000000E-03 0.  1.
         11   -1    0    0    0    0 -0.00000000000E+00 -0.00000000000E+00 -0.45593999997E+02  0.45594000000E+02  0.51100000000E-03 0. -1.
    9900012    2    1    2    0    0  0.11948687485E+02 -0.86047846563E+00 -0.14393372487E+02  0.72461528700E+02  0.69999945815E+02 0.  0.
         12    1    1    2    0    0 -0.11948687485E+02  0.86047846563E+00  0.14393372487E+02  0.18726471300E+02  0.00000000000E+00 0. -1.
         11    1    3    3    0    0  0.26462631578E+01 -0.16728593770E+01 -0.23131727908E+02  0.23342622034E+02  0.51100000000E-03 0. -1.
        -11    1    3    3    0    0  0.20469935456E+02 -0.14293203953E+02 -0.54784461925E+01  0.25560268186E+02  0.51100000000E-03 0.  1.
        -12    1    3    3    0    0 -0.11167511128E+02  0.15105584864E+02  0.14216801613E+02  0.23558638479E+02  0.00000000000E+00 0.  1.
</event>
<event>
 7    1  0.2944263E-013  0.7246158E+02  0.7816164E-02  0.1226708E+00
        -11   -1    0    0    0    0  0.00000000000E+00  0.00000000000E+00  0.45593999997E+02  0.45594000000E+02  0.51100000000E-03 0.  1.
         11   -1    0    0    0    0 -0.00000000000E+00 -0.00000000000E+00 -0.45593999997E+02  0.45594000000E+02  0.51100000000E-03 0. -1.
    9900012    2    1    2    0    0 -0.13979199142E+02 -0.12381829644E+02  0.13968363700E+01  0.72461578403E+02  0.70000010563E+02 0.  0.
         12    1    1    2    0    0  0.13979199142E+02  0.12381829644E+02 -0.13968363700E+01  0.18726421597E+02  0.00000000000E+00 0. -1.
         11    1    3    3    0    0  0.78320667331E+01 -0.82470329705E+01 -0.63809013607E+01  0.13041116692E+02  0.51100000000E-03 0. -1.
        -11    1    3    3    0    0 -0.35758750495E+02  0.66288270387E+01 -0.62487599212E+01  0.36900902234E+02  0.51100000000E-03 0.  1.
         12    1    3    3    0    0  0.13947484620E+02 -0.10763623712E+02  0.14026497652E+02  0.22519559477E+02  0.00000000000E+00 0. -1.
</event>
<event>
 7    1  0.2944263E-013  0.7246091E+02  0.7816164E-02  0.1226710E+00
        -11   -1    0    0    0    0  0.00000000000E+00  0.00000000000E+00  0.45593999997E+02  0.45594000000E+02  0.51100000000E-03 0.  1.
         11   -1    0    0    0    0 -0.00000000000E+00 -0.00000000000E+00 -0.45593999997E+02  0.45594000000E+02  0.51100000000E-03 0. -1.
    9900012    2    1    2    0    0 -0.42902556670E+01  0.16345113139E+02  0.80706275107E+01  0.72460906109E+02  0.69999134769E+02 0.  0.
         12    1    1    2    0    0  0.42902556670E+01 -0.16345113139E+02 -0.80706275107E+01  0.18727093891E+02  0.00000000000E+00 0. -1.
         11    1    3    3    0    0 -0.35201764715E+00  0.14282864500E+02 -0.87719197244E+01  0.16765163604E+02  0.51100000000E-03 0. -1.
        -11    1    3    3    0    0 -0.12070088500E+02  0.14216416907E+02  0.30458690055E+02  0.35714497703E+02  0.51100000000E-03 0.  1.
         12    1    3    3    0    0  0.81318504800E+01 -0.12154168269E+02 -0.13616142819E+02  0.19981244802E+02  0.00000000000E+00 0. -1.
</event>
<event>
 7    1  0.2944263E-013  0.7246157E+02  0.7816164E-02  0.1226708E+00
        -11   -1    0    0    0    0  0.00000000000E+00  0.00000000000E+00  0.45593999997E+02  0.45594000000E+02  0.51100000000E-03 0.  1.
         11   -1    0    0    0    0 -0.00000000000E+00 -0.00000000000E+00 -0.45593999997E+02  0.45594000000E+02  0.51100000000E-03 0. -1.
    9900012    2    1    2    0    0  0.12731919413E+02  0.88401979019E+01  0.10508481762E+02  0.72461573223E+02  0.70000003815E+02 0.  0.
         12    1    1    2    0    0 -0.12731919413E+02 -0.88401979019E+01 -0.10508481762E+02  0.18726426777E+02  0.00000000000E+00 0. -1.
         11    1    3    3    0    0  0.26175404240E+02  0.23213988871E+02  0.18340447350E+02  0.39502064195E+02  0.51100000000E-03 0. -1.
        -11    1    3    3    0    0  0.20023943265E+01  0.60235475186E+01 -0.25118636545E+01  0.68265779880E+01  0.51100000000E-03 0.  1.
        -12    1    3    3    0    0 -0.15445879153E+02 -0.20397338487E+02 -0.53201019331E+01  0.26132931040E+02  0.00000000000E+00 0.  1.
</event>
<event>
 7    1  0.2944263E-013  0.7246160E+02  0.7816164E-02  0.1226708E+00
        -11   -1    0    0    0    0  0.00000000000E+00  0.00000000000E+00  0.45593999997E+02  0.45594000000E+02  0.51100000000E-03 0.  1.
         11   -1    0    0    0    0 -0.00000000000E+00 -0.00000000000E+00 -0.45593999997E+02  0.45594000000E+02  0.51100000000E-03 0. -1.
    9900012    2    1    2    0    0 -0.72974000460E+01 -0.22435655455E+01  0.17099489952E+02  0.72461596437E+02  0.70000034056E+02 0.  0.
         12    1    1    2    0    0  0.72974000460E+01  0.22435655455E+01 -0.17099489952E+02  0.18726403563E+02  0.00000000000E+00 0. -1.
         11    1    3    3    0    0 -0.11895394348E+02 -0.11753627217E+02 -0.13800275679E+02  0.21681692013E+02  0.51100000000E-03 0. -1.
        -11    1    3    3    0    0  0.88522506837E+01 -0.49572097434E+01 -0.53850412819E+01  0.11486293592E+02  0.51100000000E-03 0.  1.
        -12    1    3    3    0    0 -0.42542563818E+01  0.14467271415E+02  0.36284806913E+02  0.39293610833E+02  0.00000000000E+00 0.  1.
</event>
<event>
 7    1  0.2944263E-013  0.7246153E+02  0.7816164E-02  0.1226708E+00
        -11   -1    0    0    0    0  0.00000000000E+00  0.00000000000E+00  0.45593999997E+02  0.45594000000E+02  0.51100000000E-03 0.  1.
         11   -1    0    0    0    0 -0.00000000000E+00 -0.00000000000E+00 -0.45593999997E+02  0.45594000000E+02  0.51100000000E-03 0. -1.
    9900012    2    1    2    0    0  0.91659522408E+01  0.50946422524E+01  0.15514854185E+02  0.72461527813E+02  0.69999944661E+02 0.  0.
         12    1    1    2    0    0 -0.91659522408E+01 -0.50946422524E+01 -0.15514854185E+02  0.18726472187E+02  0.00000000000E+00 0. -1.
         11    1    3    3    0    0  0.22236408767E+02  0.18352342047E+01  0.12306750635E+02  0.25481013930E+02  0.51100000000E-03 0.  1.
        -11    1    3    3    0    0 -0.16293134632E+02 -0.96489393955E+01 -0.15190186698E+02  0.24275708842E+02  0.51100000000E-03 0. -1.
         12    1    3    3    0    0  0.32226781060E+01  0.12908347443E+02  0.18398290248E+02  0.22704805041E+02  0.00000000000E+00 0. -1.
</event>
<event>
 7    1  0.2944263E-013  0.7246162E+02  0.7816164E-02  0.1226708E+00
        -11   -1    0    0    0    0  0.00000000000E+00  0.00000000000E+00  0.45593999997E+02  0.45594000000E+02  0.51100000000E-03 0. -1.
         11   -1    0    0    0    0 -0.00000000000E+00 -0.00000000000E+00 -0.45593999997E+02  0.45594000000E+02  0.51100000000E-03 0.  1.
    9900012    2    1    2    0    0 -0.32960264897E+01 -0.18394516812E+02 -0.12063826183E+01  0.72461617584E+02  0.70000061604E+02 0.  0.
         12    1    1    2    0    0  0.32960264897E+01  0.18394516812E+02  0.12063826183E+01  0.18726382416E+02  0.00000000000E+00 0. -1.
         11    1    3    3    0    0  0.14061123378E+02 -0.28401713969E+02  0.11542591312E+01  0.31712850099E+02  0.51100000000E-03 0. -1.
        -11    1    3    3    0    0 -0.39285708257E+00 -0.12206385226E+02 -0.37156812522E+01  0.12765440235E+02  0.51100000000E-03 0.  1.
        -12    1    3    3    0    0 -0.16964292785E+02  0.22213582382E+02  0.13550395027E+01  0.27983327250E+02  0.00000000000E+00 0.  1.
</event>
<event>
 7    1  0.2944263E-013  0.7246156E+02  0.7816164E-02  0.1226708E+00
        -11   -1    0    0    0    0  0.00000000000E+00  0.00000000000E+00  0.45593999997E+02  0.45594000000E+02  0.51100000000E-03 0.  1.
         11   -1    0    0    0    0 -0.00000000000E+00 -0.00000000000E+00 -0.45593999997E+02  0.45594000000E+02  0.51100000000E-03 0. -1.
    9900012    2    1    2    0    0  0.11153997354E+02  0.32065796798E+01  0.14696457013E+02  0.72461557226E+02  0.69999982976E+02 0.  0.
         12    1    1    2    0    0 -0.11153997354E+02 -0.32065796798E+01 -0.14696457013E+02  0.18726442774E+02  0.00000000000E+00 0. -1.
         11    1    3    3    0    0 -0.39201045817E+01  0.51953587821E+01 -0.10188827489E+01  0.65876471614E+01  0.51100000000E-03 0. -1.
        -11    1    3    3    0    0 -0.41769803503E+01  0.23859553648E+02  0.22361735445E+02  0.32966235416E+02  0.51100000000E-03 0.  1.
         12    1    3    3    0    0  0.19251082286E+02 -0.25848332751E+02 -0.66463956830E+01  0.32907674648E+02  0.00000000000E+00 0. -1.
</event>
<event>
 7    1  0.2944263E-013  0.7246170E+02  0.7816164E-02  0.1226708E+00
        -11   -1    0    0    0    0  0.00000000000E+00  0.00000000000E+00  0.45593999997E+02  0.45594000000E+02  0.51100000000E-03 0. -1.
         11   -1    0    0    0    0 -0.00000000000E+00 -0.00000000000E+00 -0.45593999997E+02  0.45594000000E+02  0.51100000000E-03 0.  1.
    9900012    2    1    2    0    0 -0.20214361440E+00  0.42480311132E+01 -0.18236985459E+02  0.72461701140E+02  0.70000170450E+02 0.  0.
         12    1    1    2    0    0  0.20214361440E+00 -0.42480311132E+01  0.18236985459E+02  0.18726298860E+02  0.00000000000E+00 0. -1.
         11    1    3    3    0    0  0.13957017676E+02 -0.78524359013E+01  0.28883765084E+01  0.16272732134E+02  0.51100000000E-03 0. -1.
        -11    1    3    3    0    0  0.45049273762E+01 -0.16782410183E+02 -0.42782687280E+01  0.17895453215E+02  0.51100000000E-03 0.  1.
        -12    1    3    3    0    0 -0.18664088667E+02  0.28882877197E+02 -0.16847093239E+02  0.38293515790E+02  0.00000000000E+00 0.  1.
</event>
<event>
 7    1  0.2944263E-013  0.7246160E+02  0.7816164E-02  0.1226708E+00
        -11   -1    0    0    0    0  0.00000000000E+00  0.00000000000E+00  0.45593999997E+02  0.45594000000E+02  0.51100000000E-03 0.  1.
         11   -1    0    0    0    0 -0.00000000000E+00 -0.00000000000E+00 -0.45593999997E+02  0.45594000000E+02  0.51100000000E-03 0. -1.
    9900012    2    1    2    0    0  0.69677849509E+01  0.12437137981E+02  0.12142719613E+02  0.72461599708E+02  0.70000038317E+02 0.  0.
         12    1    1    2    0    0 -0.69677849509E+01 -0.12437137981E+02 -0.12142719613E+02  0.18726400292E+02  0.00000000000E+00 0. -1.
         11    1    3    3    0    0  0.55873943086E+01 -0.77997853968E+01  0.57941537682E+01  0.11208382825E+02  0.51100000000E-03 0. -1.
        -11    1    3    3    0    0  0.10611789044E+02 -0.17577814550E+02 -0.41264272861E+01  0.20943185848E+02  0.51100000000E-03 0.  1.
         12    1    3    3    0    0 -0.92313984017E+01  0.37814737928E+02  0.10474993131E+02  0.40310031036E+02  0.00000000000E+00 0. -1.
</event>
<event>
 7    1  0.2944263E-013  0.7246155E+02  0.7816164E-02  0.1226708E+00
        -11   -1    0    0    0    0  0.00000000000E+00  0.00000000000E+00  0.45593999997E+02  0.45594000000E+02  0.51100000000E-03 0.  1.
         11   -1    0    0    0    0 -0.00000000000E+00 -0.00000000000E+00 -0.45593999997E+02  0.45594000000E+02  0.51100000000E-03 0. -1.
    9900012    2    1    2    0    0  0.61296720800E+01 -0.39531769257E+01  0.17247590496E+02  0.72461551710E+02  0.69999975791E+02 0.  0.
         12    1    1    2    0    0 -0.61296720800E+01  0.39531769257E+01 -0.17247590496E+02  0.18726448290E+02  0.00000000000E+00 0. -1.
         11    1    3    3    0    0 -0.10337955993E+02 -0.14831102425E+02  0.61913379704E+01  0.19109358948E+02  0.51100000000E-03 0. -1.
        -11    1    3    3    0    0  0.53329356944E+01 -0.18191615139E+02  0.11588340357E+02  0.22218566492E+02  0.51100000000E-03 0.  1.
         12    1    3    3    0    0  0.11134692379E+02  0.29069540638E+02 -0.53208783084E+00  0.31133626271E+02  0.00000000000E+00 0. -1.
</event>
<event>
 7    1  0.2944263E-013  0.7246166E+02  0.7816164E-02  0.1226708E+00
        -11   -1    0    0    0    0  0.00000000000E+00  0.00000000000E+00  0.45593999997E+02  0.45594000000E+02  0.51100000000E-03 0. -1.
         11   -1    0    0    0    0 -0.00000000000E+00 -0.00000000000E+00 -0.45593999997E+02  0.45594000000E+02  0.51100000000E-03 0.  1.
    9900012    2    1    2    0    0  0.13179684113E+02  0.79104329732E+01 -0.10695648610E+02  0.72461656995E+02  0.70000112943E+02 0.  0.
         12    1    1    2    0    0 -0.13179684113E+02 -0.79104329732E+01  0.10695648610E+02  0.18726343005E+02  0.00000000000E+00 0. -1.
         11    1    3    3    0    0  0.23262195782E+02 -0.11441683725E+01  0.93027403730E+01  0.25079470740E+02  0.51100000000E-03 0. -1.
        -11    1    3    3    0    0  0.52310921000E+01  0.21129574423E+02 -0.17069093021E+02  0.27661836105E+02  0.51100000000E-03 0.  1.
        -12    1    3    3    0    0 -0.15313603769E+02 -0.12074973078E+02 -0.29292959628E+01  0.19720350151E+02  0.00000000000E+00 0.  1.
</event>
<event>
 7    1  0.2944263E-013  0.7246155E+02  0.7816164E-02  0.1226708E+00
        -11   -1    0    0    0    0  0.00000000000E+00  0.00000000000E+00  0.45593999997E+02  0.45594000000E+02  0.51100000000E-03 0. -1.
         11   -1    0    0    0    0 -0.00000000000E+00 -0.00000000000E+00 -0.45593999997E+02  0.45594000000E+02  0.51100000000E-03 0.  1.
    9900012    2    1    2    0    0 -0.18248550887E+02 -0.99812575227E+00 -0.40834107556E+01  0.72461545240E+02  0.69999967361E+02 0.  0.
         12    1    1    2    0    0  0.18248550887E+02  0.99812575227E+00  0.40834107556E+01  0.18726454760E+02  0.00000000000E+00 0. -1.
         11    1    3    3    0    0 -0.33217344441E+02  0.87770774515E+01  0.74438076470E+01  0.35154506580E+02  0.51100000000E-03 0. -1.
        -11    1    3    3    0    0 -0.30567450068E+01  0.65223497309E+01  0.42217567866E+01  0.83491296956E+01  0.51100000000E-03 0.  1.
        -12    1    3    3    0    0  0.18025538561E+02 -0.16297552935E+02 -0.15748975189E+02  0.28957908964E+02  0.00000000000E+00 0.  1.
</event>
<event>
 7    1  0.2944263E-013  0.7246156E+02  0.7816164E-02  0.1226708E+00
        -11   -1    0    0    0    0  0.00000000000E+00  0.00000000000E+00  0.45593999997E+02  0.45594000000E+02  0.51100000000E-03 0.  1.
         11   -1    0    0    0    0 -0.00000000000E+00 -0.00000000000E+00 -0.45593999997E+02  0.45594000000E+02  0.51100000000E-03 0. -1.
    9900012    2    1    2    0    0 -0.10375473836E+02  0.23313894662E+01  0.15414073215E+02  0.72461561811E+02  0.69999988949E+02 0.  0.
         12    1    1    2    0    0  0.10375473836E+02 -0.23313894662E+01 -0.15414073215E+02  0.18726438189E+02  0.00000000000E+00 0. -1.
         11    1    3    3    0    0  0.31838708959E+01  0.14483346986E+02 -0.49320443076E+00  0.14837372566E+02  0.51100000000E-03 0. -1.
        -11    1    3    3    0    0 -0.30136035124E+02 -0.12288267181E+02  0.22731079967E+02  0.39697406969E+02  0.51100000000E-03 0.  1.
         12    1    3    3    0    0  0.16576690391E+02  0.13630966124E+00 -0.68238023217E+01  0.17926782276E+02  0.00000000000E+00 0. -1.
</event>
<event>
 7    1  0.2944263E-013  0.7246146E+02  0.7816164E-02  0.1226708E+00
        -11   -1    0    0    0    0  0.00000000000E+00  0.00000000000E+00  0.45593999997E+02  0.45594000000E+02  0.51100000000E-03 0.  1.
         11   -1    0    0    0    0 -0.00000000000E+00 -0.00000000000E+00 -0.45593999997E+02  0.45594000000E+02  0.51100000000E-03 0. -1.
    9900012    2    1    2    0    0 -0.11326787616E+02  0.80834160542E+01  0.12531780722E+02  0.72461461055E+02  0.69999857695E+02 0.  0.
         12    1    1    2    0    0  0.11326787616E+02 -0.80834160542E+01 -0.12531780722E+02  0.18726538945E+02  0.00000000000E+00 0. -1.
         11    1    3    3    0    0 -0.17791710590E+02  0.24870947456E+02  0.17908046529E+01  0.30631943697E+02  0.51100000000E-03 0.  1.
        -11    1    3    3    0    0 -0.11647298040E+02  0.14592757680E+00 -0.47650560561E+01  0.12585174054E+02  0.51100000000E-03 0. -1.
        -12    1    3    3    0    0  0.18112221014E+02 -0.16933458979E+02  0.15506032125E+02  0.29244343305E+02  0.00000000000E+00 0.  1.
</event>
<event>
 7    1  0.2944263E-013  0.7246158E+02  0.7816164E-02  0.1226708E+00
        -11   -1    0    0    0    0  0.00000000000E+00  0.00000000000E+00  0.45593999997E+02  0.45594000000E+02  0.51100000000E-03 0.  1.
         11   -1    0    0    0    0 -0.00000000000E+00 -0.00000000000E+00 -0.45593999997E+02  0.45594000000E+02  0.51100000000E-03 0. -1.
    9900012    2    1    2    0    0  0.11816314552E+02  0.14280436845E+02 -0.26688214582E+01  0.72461580853E+02  0.70000013755E+02 0.  0.
         12    1    1    2    0    0 -0.11816314552E+02 -0.14280436845E+02  0.26688214582E+01  0.18726419147E+02  0.00000000000E+00 0. -1.
         11    1    3    3    0    0  0.11802937935E+02  0.11093371343E+01 -0.32791576188E+00  0.11859489947E+02  0.51100000000E-03 0. -1.
        -11    1    3    3    0    0  0.33552948129E+01  0.34123852119E+02 -0.13231439926E+02  0.36752772541E+02  0.51100000000E-03 0.  1.
         12    1    3    3    0    0 -0.33419181963E+01 -0.20952752408E+02  0.10890534230E+02  0.23849318365E+02  0.00000000000E+00 0. -1.
</event>
<event>
 7    1  0.2944263E-013  0.7246175E+02  0.7816164E-02  0.1226708E+00
        -11   -1    0    0    0    0  0.00000000000E+00  0.00000000000E+00  0.45593999997E+02  0.45594000000E+02  0.51100000000E-03 0. -1.
         11   -1    0    0    0    0 -0.00000000000E+00 -0.00000000000E+00 -0.45593999997E+02  0.45594000000E+02  0.51100000000E-03 0.  1.
    9900012    2    1    2    0    0 -0.48478125040E+01  0.14535744370E+02 -0.10764908675E+02  0.72461750797E+02  0.70000235137E+02 0.  0.
         12    1    1    2    0    0  0.48478125040E+01 -0.14535744370E+02  0.10764908675E+02  0.18726249203E+02  0.00000000000E+00 0. -1.
         11    1    3    3    0    0 -0.19283943338E+02  0.55012585583E+01  0.35213674279E+01  0.20360116533E+02  0.51100000000E-03 0. -1.
        -11    1    3    3    0    0 -0.16605555852E+02  0.87297796775E+01 -0.26378808562E+01  0.18944971735E+02  0.51100000000E-03 0.  1.
         12    1    3    3    0    0  0.31041686687E+02  0.30470613385E+00 -0.11648395247E+02  0.33156662528E+02  0.00000000000E+00 0. -1.
</event>
<event>
 7    1  0.2944263E-013  0.7246158E+02  0.7816164E-02  0.1226708E+00
        -11   -1    0    0    0    0  0.00000000000E+00  0.00000000000E+00  0.45593999997E+02  0.45594000000E+02  0.51100000000E-03 0.  1.
         11   -1    0    0    0    0 -0.00000000000E+00 -0.00000000000E+00 -0.45593999997E+02  0.45594000000E+02  0.51100000000E-03 0. -1.
    9900012    2    1    2    0    0  0.14563507240E+02 -0.11626001920E+02 -0.18490731682E+01  0.72461581887E+02  0.70000015101E+02 0.  0.
         12    1    1    2    0    0 -0.14563507240E+02  0.11626001920E+02  0.18490731682E+01  0.18726418113E+02  0.00000000000E+00 0. -1.
         11    1    3    3    0    0  0.29998518701E+02  0.30278402226E+01 -0.17985656160E+02  0.35107873311E+02  0.51100000000E-03 0.  1.
        -11    1    3    3    0    0 -0.13081798316E+02 -0.10819869824E+02 -0.33933576963E+01  0.17312362834E+02  0.51100000000E-03 0. -1.
        -12    1    3    3    0    0 -0.23532131453E+01 -0.38339723187E+01  0.19529940688E+02  0.20041345741E+02  0.00000000000E+00 0.  1.
</event>
<event>
 7    1  0.2944263E-013  0.7246157E+02  0.7816164E-02  0.1226708E+00
        -11   -1    0    0    0    0  0.00000000000E+00  0.00000000000E+00  0.45593999997E+02  0.45594000000E+02  0.51100000000E-03 0.  1.
         11   -1    0    0    0    0 -0.00000000000E+00 -0.00000000000E+00 -0.45593999997E+02  0.45594000000E+02  0.51100000000E-03 0. -1.
    9900012    2    1    2    0    0  0.14440457627E+02 -0.11912295130E+02 -0.49944506538E+00  0.72461573829E+02  0.70000004605E+02 0.  0.
         12    1    1    2    0    0 -0.14440457627E+02  0.11912295130E+02  0.49944506538E+00  0.18726426171E+02  0.00000000000E+00 0. -1.
         11    1    3    3    0    0 -0.16299878056E+01  0.78040512089E+00  0.25081114725E+01  0.30913614830E+01  0.51100000000E-03 0. -1.
        -11    1    3    3    0    0 -0.18231185811E+02 -0.25981894029E+02 -0.65674237302E+01  0.32412436010E+02  0.51100000000E-03 0.  1.
         12    1    3    3    0    0  0.34301631244E+02  0.13289193778E+02  0.35598671923E+01  0.36957776336E+02  0.00000000000E+00 0. -1.
</event>
<event>
 7    1  0.2944263E-013  0.7246165E+02  0.7816164E-02  0.1226708E+00
        -11   -1    0    0    0    0  0.00000000000E+00  0.00000000000E+00  0.45593999997E+02  0.45594000000E+02  0.51100000000E-03 0.  1.
         11   -1    0    0    0    0 -0.00000000000E+00 -0.00000000000E+00 -0.45593999997E+02  0.45594000000E+02  0.51100000000E-03 0. -1.
    9900012    2    1    2    0    0  0.84596347796E+01 -0.22038658410E+01  0.16560603332E+02  0.72461654175E+02  0.70000109270E+02 0.  0.
         12    1    1    2    0    0 -0.84596347796E+01  0.22038658410E+01 -0.16560603332E+02  0.18726345825E+02  0.00000000000E+00 0. -1.
         11    1    3    3    0    0  0.28215661036E+02  0.58838522788E+00  0.14892203958E+02  0.31909990033E+02  0.51100000000E-03 0.  1.
        -11    1    3    3    0    0 -0.26834218133E+01 -0.57884106278E+01  0.16530452121E+02  0.17718981285E+02  0.51100000000E-03 0. -1.
         12    1    3    3    0    0 -0.17072604444E+02  0.29961595589E+01 -0.14862052747E+02  0.22832682857E+02  0.00000000000E+00 0. -1.
</event>
<event>
 7    1  0.2944263E-013  0.7246158E+02  0.7816164E-02  0.1226708E+00
        -11   -1    0    0    0    0  0.00000000000E+00  0.00000000000E+00  0.45593999997E+02  0.45594000000E+02  0.51100000000E-03 0. -1.
         11   -1    0    0    0    0 -0.00000000000E+00 -0.00000000000E+00 -0.45593999997E+02  0.45594000000E+02  0.51100000000E-03 0.  1.
    9900012    2    1    2    0    0 -0.79736819824E+01 -0.69909165672E+01 -0.15434575960E+02  0.72461584063E+02  0.70000017936E+02 0.  0.
         12    1    1    2    0    0  0.79736819824E+01  0.69909165672E+01  0.15434575960E+02  0.18726415937E+02  0.00000000000E+00 0. -1.
         11    1    3    3    0    0 -0.50308805012E+01  0.16059562171E+02 -0.44807056792E+01  0.17415396044E+02  0.51100000000E-03 0. -1.
        -11    1    3    3    0    0 -0.10724490759E+02 -0.16645739305E+02 -0.28563843030E+02  0.34756128495E+02  0.51100000000E-03 0.  1.
         12    1    3    3    0    0  0.77816892783E+01 -0.64047394332E+01  0.17609972750E+02  0.20290059524E+02  0.00000000000E+00 0. -1.
</event>
<event>
 7    1  0.2944263E-013  0.7246158E+02  0.7816164E-02  0.1226708E+00
        -11   -1    0    0    0    0  0.00000000000E+00  0.00000000000E+00  0.45593999997E+02  0.45594000000E+02  0.51100000000E-03 0.  1.
         11   -1    0    0    0    0 -0.00000000000E+00 -0.00000000000E+00 -0.45593999997E+02  0.45594000000E+02  0.51100000000E-03 0. -1.
    9900012    2    1    2    0    0 -0.65908257574E+00 -0.18479358124E+02  0.29593228421E+01  0.72461583947E+02  0.70000017785E+02 0.  0.
         12    1    1    2    0    0  0.65908257574E+00  0.18479358124E+02 -0.29593228421E+01  0.18726416053E+02  0.00000000000E+00 0. -1.
         11    1    3    3    0    0 -0.43654604063E+01  0.15076796999E+02  0.12064692820E+02  0.19797067091E+02  0.51100000000E-03 0. -1.
        -11    1    3    3    0    0  0.75118333236E+01  0.51959329303E+01 -0.10224357417E+02  0.13709954185E+02  0.51100000000E-03 0.  1.
        -12    1    3    3    0    0 -0.38054554931E+01 -0.38752088053E+02  0.11189874399E+01  0.38954562671E+02  0.00000000000E+00 0.  1.
</event>
<event>
 7    1  0.2944263E-013  0.7246154E+02  0.7816164E-02  0.1226708E+00
        -11   -1    0    0    0    0  0.00000000000E+00  0.00000000000E+00  0.45593999997E+02  0.45594000000E+02  0.51100000000E-03 0.  1.
         11   -1    0    0    0    0 -0.00000000000E+00 -0.00000000000E+00 -0.45593999997E+02  0.45594000000E+02  0.51100000000E-03 0. -1.
    9900012    2    1    2    0    0 -0.19301796525E+01  0.36153755815E+01  0.18272482470E+02  0.72461544123E+02  0.69999965907E+02 0.  0.
         12    1    1    2    0    0  0.19301796525E+01 -0.36153755815E+01 -0.18272482470E+02  0.18726455877E+02  0.00000000000E+00 0. -1.
         11    1    3    3    0    0 -0.12662388901E+02  0.51005191837E+01 -0.87131038023E+01  0.16194738860E+02  0.51100000000E-03 0.  1.
        -11    1    3    3    0    0  0.12486425810E+02 -0.11310334462E+02 -0.88758289772E+01  0.19042448252E+02  0.51100000000E-03 0. -1.
        -12    1    3    3    0    0 -0.17542165612E+01  0.98251908594E+01  0.35861415250E+02  0.37224357011E+02  0.00000000000E+00 0.  1.
</event>
<event>
 7    1  0.2944263E-013  0.7246164E+02  0.7816164E-02  0.1226708E+00
        -11   -1    0    0    0    0  0.00000000000E+00  0.00000000000E+00  0.45593999997E+02  0.45594000000E+02  0.51100000000E-03 0.  1.
         11   -1    0    0    0    0 -0.00000000000E+00 -0.00000000000E+00 -0.45593999997E+02  0.45594000000E+02  0.51100000000E-03 0. -1.
    9900012    2    1    2    0    0 -0.17206998949E+02  0.55298263499E+01  0.49006790363E+01  0.72461642978E+02  0.70000094684E+02 0.  0.
         12    1    1    2    0    0  0.17206998949E+02 -0.55298263499E+01 -0.49006790363E+01  0.18726357022E+02  0.00000000000E+00 0. -1.
         11    1    3    3    0    0 -0.10889364287E+02 -0.16044919822E+02 -0.21888953979E+02  0.29242845505E+02  0.51100000000E-03 0. -1.
        -11    1    3    3    0    0  0.44534268243E+01  0.42353830970E-02  0.16349627878E+02  0.16945304967E+02  0.51100000000E-03 0.  1.
        -12    1    3    3    0    0 -0.10771061486E+02  0.21570510789E+02  0.10440005137E+02  0.26273492506E+02  0.00000000000E+00 0.  1.
</event>
<event>
 7    1  0.2944263E-013  0.7246138E+02  0.7816164E-02  0.1226709E+00
        -11   -1    0    0    0    0  0.00000000000E+00  0.00000000000E+00  0.45593999997E+02  0.45594000000E+02  0.51100000000E-03 0.  1.
         11   -1    0    0    0    0 -0.00000000000E+00 -0.00000000000E+00 -0.45593999997E+02  0.45594000000E+02  0.51100000000E-03 0. -1.
    9900012    2    1    2    0    0  0.17791719969E+02 -0.41298119899E+01  0.41334800642E+01  0.72461379804E+02  0.69999751851E+02 0.  0.
         12    1    1    2    0    0 -0.17791719969E+02  0.41298119899E+01 -0.41334800642E+01  0.18726620196E+02  0.00000000000E+00 0. -1.
         11    1    3    3    0    0 -0.50162847285E+00  0.51061135140E+01 -0.16018065470E+01  0.53749242615E+01  0.51100000000E-03 0. -1.
        -11    1    3    3    0    0 -0.22226642218E+02 -0.11710404514E+02  0.81703290052E+01  0.26418014204E+02  0.51100000000E-03 0.  1.
         12    1    3    3    0    0  0.40519990660E+02  0.24744790100E+01 -0.24350423940E+01  0.40668441338E+02  0.00000000000E+00 0. -1.
</event>
<event>
 7    1  0.2944263E-013  0.7246157E+02  0.7816164E-02  0.1226708E+00
        -11   -1    0    0    0    0  0.00000000000E+00  0.00000000000E+00  0.45593999997E+02  0.45594000000E+02  0.51100000000E-03 0. -1.
         11   -1    0    0    0    0 -0.00000000000E+00 -0.00000000000E+00 -0.45593999997E+02  0.45594000000E+02  0.51100000000E-03 0.  1.
    9900012    2    1    2    0    0  0.67973618313E+01  0.17232225796E+02  0.27432805009E+01  0.72461566233E+02  0.69999994709E+02 0.  0.
         12    1    1    2    0    0 -0.67973618313E+01 -0.17232225796E+02 -0.27432805009E+01  0.18726433767E+02  0.00000000000E+00 0. -1.
         11    1    3    3    0    0  0.13208371289E+02  0.22296720795E+02 -0.24003441466E+00  0.25916451282E+02  0.51100000000E-03 0. -1.
        -11    1    3    3    0    0  0.39747654694E+01 -0.19845826951E+02 -0.11599795789E+02  0.23328327641E+02  0.51100000000E-03 0.  1.
         12    1    3    3    0    0 -0.10385774927E+02  0.14781331952E+02  0.14583110705E+02  0.23216787309E+02  0.00000000000E+00 0. -1.
</event>
<event>
 7    1  0.2944263E-013  0.7246156E+02  0.7816164E-02  0.1226708E+00
        -11   -1    0    0    0    0  0.00000000000E+00  0.00000000000E+00  0.45593999997E+02  0.45594000000E+02  0.51100000000E-03 0.  1.
         11   -1    0    0    0    0 -0.00000000000E+00 -0.00000000000E+00 -0.45593999997E+02  0.45594000000E+02  0.51100000000E-03 0. -1.
    9900012    2    1    2    0    0 -0.32690262602E+01 -0.17180023354E+01  0.18358686440E+02  0.72461563272E+02  0.69999990852E+02 0.  0.
         12    1    1    2    0    0  0.32690262602E+01  0.17180023354E+01 -0.18358686440E+02  0.18726436728E+02  0.00000000000E+00 0. -1.
         11    1    3    3    0    0 -0.27569255529E+01 -0.12260603359E+02  0.12637972837E+01  0.12630131317E+02  0.51100000000E-03 0. -1.
        -11    1    3    3    0    0 -0.13613729893E+02 -0.13670626799E+02  0.24631527417E+02  0.31287886184E+02  0.51100000000E-03 0.  1.
        -12    1    3    3    0    0  0.13101629186E+02  0.24213227823E+02 -0.75366382604E+01  0.28543545772E+02  0.00000000000E+00 0.  1.
</event>
<event>
 7    1  0.2944263E-013  0.7246152E+02  0.7816164E-02  0.1226708E+00
        -11   -1    0    0    0    0  0.00000000000E+00  0.00000000000E+00  0.45593999997E+02  0.45594000000E+02  0.51100000000E-03 0.  1.
         11   -1    0    0    0    0 -0.00000000000E+00 -0.00000000000E+00 -0.45593999997E+02  0.45594000000E+02  0.51100000000E-03 0. -1.
    9900012    2    1    2    0    0 -0.97531184196E+01 -0.96412080587E+01  0.12751661265E+02  0.72461519371E+02  0.69999933662E+02 0.  0.
         12    1    1    2    0    0  0.97531184196E+01  0.96412080587E+01 -0.12751661265E+02  0.18726480629E+02  0.00000000000E+00 0. -1.
         11    1    3    3    0    0  0.16030853162E+02 -0.90619182122E+00  0.24027771787E+01  0.16235232526E+02  0.51100000000E-03 0. -1.
        -11    1    3    3    0    0 -0.23391156187E+01 -0.25809803192E+02  0.17489285464E+01  0.25974528946E+02  0.51100000000E-03 0.  1.
         12    1    3    3    0    0 -0.23444855963E+02  0.17074786954E+02  0.85999555403E+01  0.30251757899E+02  0.00000000000E+00 0. -1.
</event>
<event>
 7    1  0.2944263E-013  0.7246146E+02  0.7816164E-02  0.1226708E+00
        -11   -1    0    0    0    0  0.00000000000E+00  0.00000000000E+00  0.45593999997E+02  0.45594000000E+02  0.51100000000E-03 0. -1.
         11   -1    0    0    0    0 -0.00000000000E+00 -0.00000000000E+00 -0.45593999997E+02  0.45594000000E+02  0.51100000000E-03 0.  1.
    9900012    2    1    2    0    0  0.60604065947E+01  0.52575003639E+01 -0.16920799976E+02  0.72461459743E+02  0.69999855986E+02 0.  0.
         12    1    1    2    0    0 -0.60604065947E+01 -0.52575003639E+01  0.16920799976E+02  0.18726540257E+02  0.00000000000E+00 0. -1.
         11    1    3    3    0    0 -0.66024864556E+01  0.90994764756E+01  0.21019649055E+02  0.23837343522E+02  0.51100000000E-03 0. -1.
        -11    1    3    3    0    0  0.75206060543E+01  0.74170832771E+01 -0.21844739423E+01  0.10786313848E+02  0.51100000000E-03 0.  1.
        -12    1    3    3    0    0  0.51422869960E+01 -0.11259059389E+02 -0.35755975089E+02  0.37837802373E+02  0.00000000000E+00 0.  1.
</event>
<event>
 7    1  0.2944263E-013  0.7246160E+02  0.7816164E-02  0.1226708E+00
        -11   -1    0    0    0    0  0.00000000000E+00  0.00000000000E+00  0.45593999997E+02  0.45594000000E+02  0.51100000000E-03 0. -1.
         11   -1    0    0    0    0 -0.00000000000E+00 -0.00000000000E+00 -0.45593999997E+02  0.45594000000E+02  0.51100000000E-03 0.  1.
    9900012    2    1    2    0    0 -0.67235416115E+01 -0.52697206805E+01 -0.16664398059E+02  0.72461598036E+02  0.70000036138E+02 0.  0.
         12    1    1    2    0    0  0.67235416115E+01  0.52697206805E+01  0.16664398059E+02  0.18726401964E+02  0.00000000000E+00 0. -1.
         11    1    3    3    0    0 -0.50317221840E+00  0.25031429508E+01  0.19311600820E+02  0.19479651778E+02  0.51100000000E-03 0. -1.
        -11    1    3    3    0    0 -0.16893465542E+02 -0.16926421211E+02 -0.16896613418E+02  0.29281196326E+02  0.51100000000E-03 0.  1.
         12    1    3    3    0    0  0.10673096149E+02  0.91535575795E+01 -0.19079385461E+02  0.23700749931E+02  0.00000000000E+00 0. -1.
</event>
<event>
 7    1  0.2944263E-013  0.7246151E+02  0.7816164E-02  0.1226708E+00
        -11   -1    0    0    0    0  0.00000000000E+00  0.00000000000E+00  0.45593999997E+02  0.45594000000E+02  0.51100000000E-03 0. -1.
         11   -1    0    0    0    0 -0.00000000000E+00 -0.00000000000E+00 -0.45593999997E+02  0.45594000000E+02  0.51100000000E-03 0.  1.
    9900012    2    1    2    0    0  0.11560584568E+02  0.99737707782E+01 -0.10842418415E+02  0.72461514580E+02  0.69999927422E+02 0.  0.
         12    1    1    2    0    0 -0.11560584568E+02 -0.99737707782E+01  0.10842418415E+02  0.18726485420E+02  0.00000000000E+00 0. -1.
         11    1    3    3    0    0  0.14834605328E+02  0.13956607059E+02  0.35023214042E+01  0.20666849090E+02  0.51100000000E-03 0. -1.
        -11    1    3    3    0    0 -0.27200564064E+01  0.21089379117E+02  0.27543495697E+01  0.21441713090E+02  0.51100000000E-03 0.  1.
        -12    1    3    3    0    0 -0.55396435358E+00 -0.25072215398E+02 -0.17099089389E+02  0.30352952400E+02  0.00000000000E+00 0.  1.
</event>
<event>
 7    1  0.2944263E-013  0.7246154E+02  0.7816164E-02  0.1226708E+00
        -11   -1    0    0    0    0  0.00000000000E+00  0.00000000000E+00  0.45593999997E+02  0.45594000000E+02  0.51100000000E-03 0. -1.
         11   -1    0    0    0    0 -0.00000000000E+00 -0.00000000000E+00 -0.45593999997E+02  0.45594000000E+02  0.51100000000E-03 0.  1.
    9900012    2    1    2    0    0 -0.61725717124E+01 -0.22216167495E+01 -0.17539788059E+02  0.72461537769E+02  0.69999957630E+02 0.  0.
         12    1    1    2    0    0  0.61725717124E+01  0.22216167495E+01  0.17539788059E+02  0.18726462231E+02  0.00000000000E+00 0. -1.
         11    1    3    3    0    0  0.15438789772E+02  0.20895825516E+02 -0.17451902118E+02  0.31297933501E+02  0.51100000000E-03 0.  1.
        -11    1    3    3    0    0 -0.39297162275E-01 -0.10966926422E+02 -0.96642000687E+01  0.14617516295E+02  0.51100000000E-03 0. -1.
        -12    1    3    3    0    0 -0.21572064322E+02 -0.12150515844E+02  0.95763141275E+01  0.26546087973E+02  0.00000000000E+00 0.  1.
</event>
<event>
 7    1  0.2944263E-013  0.7246146E+02  0.7816164E-02  0.1226708E+00
        -11   -1    0    0    0    0  0.00000000000E+00  0.00000000000E+00  0.45593999997E+02  0.45594000000E+02  0.51100000000E-03 0.  1.
         11   -1    0    0    0    0 -0.00000000000E+00 -0.00000000000E+00 -0.45593999997E+02  0.45594000000E+02  0.51100000000E-03 0. -1.
    9900012    2    1    2    0    0  0.85896817885E+01  0.13943699197E+02  0.90815095275E+01  0.72461462791E+02  0.69999859957E+02 0.  0.
         12    1    1    2    0    0 -0.85896817885E+01 -0.13943699197E+02 -0.90815095275E+01  0.18726537209E+02  0.00000000000E+00 0. -1.
         11    1    3    3    0    0  0.44947130231E+01  0.20028019811E+02  0.20777025466E+02  0.29206314561E+02  0.51100000000E-03 0. -1.
        -11    1    3    3    0    0 -0.73493262923E+01  0.15186223924E+02 -0.11822571699E+01  0.16912472507E+02  0.51100000000E-03 0.  1.
        -12    1    3    3    0    0  0.11444295058E+02 -0.21270544538E+02 -0.10513258769E+02  0.26342675723E+02  0.00000000000E+00 0.  1.
</event>
<event>
 7    1  0.2944263E-013  0.7246156E+02  0.7816164E-02  0.1226708E+00
        -11   -1    0    0    0    0  0.00000000000E+00  0.00000000000E+00  0.45593999997E+02  0.45594000000E+02  0.51100000000E-03 0.  1.
         11   -1    0    0    0    0 -0.00000000000E+00 -0.00000000000E+00 -0.45593999997E+02  0.45594000000E+02  0.51100000000E-03 0. -1.
    9900012    2    1    2    0    0  0.56091896025E+01  0.17824664702E+02  0.12238193080E+01  0.72461563782E+02  0.69999991516E+02 0.  0.
         12    1    1    2    0    0 -0.56091896025E+01 -0.17824664702E+02 -0.12238193080E+01  0.18726436218E+02  0.00000000000E+00 0. -1.
         11    1    3    3    0    0 -0.20561233386E+02 -0.95896776245E+01  0.69273923170E+01  0.23721614613E+02  0.51100000000E-03 0. -1.
        -11    1    3    3    0    0  0.86856806080E+01  0.91716539584E+01 -0.16902203923E+02  0.21100824194E+02  0.51100000000E-03 0.  1.
        -12    1    3    3    0    0  0.17484742380E+02  0.18242688368E+02  0.11198630914E+02  0.27639124974E+02  0.00000000000E+00 0.  1.
</event>
<event>
 7    1  0.2944263E-013  0.7246163E+02  0.7816164E-02  0.1226708E+00
        -11   -1    0    0    0    0  0.00000000000E+00  0.00000000000E+00  0.45593999997E+02  0.45594000000E+02  0.51100000000E-03 0.  1.
         11   -1    0    0    0    0 -0.00000000000E+00 -0.00000000000E+00 -0.45593999997E+02  0.45594000000E+02  0.51100000000E-03 0. -1.
    9900012    2    1    2    0    0  0.13369759041E+01 -0.17914302790E+02  0.52884092772E+01  0.72461627642E+02  0.70000074706E+02 0.  0.
         12    1    1    2    0    0 -0.13369759041E+01  0.17914302790E+02 -0.52884092772E+01  0.18726372358E+02  0.00000000000E+00 0. -1.
         11    1    3    3    0    0 -0.11091039155E+02 -0.74258454035E+00  0.25740756199E+02  0.28038350724E+02  0.51100000000E-03 0. -1.
        -11    1    3    3    0    0 -0.81049300200E+01 -0.19917270236E+01  0.38327879874E+01  0.91840694239E+01  0.51100000000E-03 0.  1.
        -12    1    3    3    0    0  0.20532945079E+02 -0.15179991226E+02 -0.24285134910E+02  0.35239207494E+02  0.00000000000E+00 0.  1.
</event>
<event>
 7    1  0.2944263E-013  0.7246154E+02  0.7816164E-02  0.1226708E+00
        -11   -1    0    0    0    0  0.00000000000E+00  0.00000000000E+00  0.45593999997E+02  0.45594000000E+02  0.51100000000E-03 0.  1.
         11   -1    0    0    0    0 -0.00000000000E+00 -0.00000000000E+00 -0.45593999997E+02  0.45594000000E+02  0.51100000000E-03 0. -1.
    9900012    2    1    2    0    0  0.86091884943E+01 -0.16403946870E+02 -0.27336335721E+01  0.72461538723E+02  0.69999958873E+02 0.  0.
         12    1    1    2    0    0 -0.86091884943E+01  0.16403946870E+02  0.27336335721E+01  0.18726461277E+02  0.00000000000E+00 0. -1.
         11    1    3    3    0    0  0.50270349249E+01 -0.24164596460E+01 -0.39325412097E+01  0.68246053354E+01  0.51100000000E-03 0. -1.
        -11    1    3    3    0    0  0.28701761900E+02  0.10210999623E+02 -0.24769162672E+01  0.30564534414E+02  0.51100000000E-03 0.  1.
         12    1    3    3    0    0 -0.25119608331E+02 -0.24198486847E+02  0.36758239049E+01  0.35072398974E+02  0.00000000000E+00 0. -1.
</event>
<event>
 7    1  0.2944263E-013  0.7246159E+02  0.7816164E-02  0.1226708E+00
        -11   -1    0    0    0    0  0.00000000000E+00  0.00000000000E+00  0.45593999997E+02  0.45594000000E+02  0.51100000000E-03 0. -1.
         11   -1    0    0    0    0 -0.00000000000E+00 -0.00000000000E+00 -0.45593999997E+02  0.45594000000E+02  0.51100000000E-03 0.  1.
    9900012    2    1    2    0    0  0.61120333588E+01 -0.11946255960E+02 -0.13061721485E+02  0.72461586798E+02  0.70000021499E+02 0.  0.
         12    1    1    2    0    0 -0.61120333588E+01  0.11946255960E+02  0.13061721485E+02  0.18726413202E+02  0.00000000000E+00 0. -1.
         11    1    3    3    0    0  0.86505045036E+00  0.98314403998E+00 -0.13800641925E+02  0.13862633310E+02  0.51100000000E-03 0. -1.
        -11    1    3    3    0    0  0.26408379137E+01  0.19321257746E+02  0.13606277733E+02  0.23778473875E+02  0.51100000000E-03 0.  1.
         12    1    3    3    0    0  0.26061449947E+01 -0.32250657747E+02 -0.12867357293E+02  0.34820479614E+02  0.00000000000E+00 0. -1.
</event>
<event>
 7    1  0.2944263E-013  0.7246161E+02  0.7816164E-02  0.1226708E+00
        -11   -1    0    0    0    0  0.00000000000E+00  0.00000000000E+00  0.45593999997E+02  0.45594000000E+02  0.51100000000E-03 0. -1.
         11   -1    0    0    0    0 -0.00000000000E+00 -0.00000000000E+00 -0.45593999997E+02  0.45594000000E+02  0.51100000000E-03 0.  1.
    9900012    2    1    2    0    0 -0.16289237764E+01  0.16827924483E+02 -0.80526536180E+01  0.72461610456E+02  0.70000052318E+02 0.  0.
         12    1    1    2    0    0  0.16289237764E+01 -0.16827924483E+02  0.80526536180E+01  0.18726389544E+02  0.00000000000E+00 0. -1.
         11    1    3    3    0    0 -0.15896180685E+01 -0.33154089986E+01  0.18955083393E+01  0.41366380742E+01  0.51100000000E-03 0. -1.
        -11    1    3    3    0    0 -0.30894961161E+02  0.15988888465E+02  0.23121307247E+01  0.34863865653E+02  0.51100000000E-03 0.  1.
         12    1    3    3    0    0  0.30855655454E+02  0.41544450169E+01 -0.12260292682E+02  0.33461106729E+02  0.00000000000E+00 0. -1.
</event>
<event>
 7    1  0.2944263E-013  0.7246154E+02  0.7816164E-02  0.1226708E+00
        -11   -1    0    0    0    0  0.00000000000E+00  0.00000000000E+00  0.45593999997E+02  0.45594000000E+02  0.51100000000E-03 0.  1.
         11   -1    0    0    0    0 -0.00000000000E+00 -0.00000000000E+00 -0.45593999997E+02  0.45594000000E+02  0.51100000000E-03 0. -1.
    9900012    2    1    2    0    0  0.17865600099E+02  0.45757066421E+01  0.32501398739E+01  0.72461543652E+02  0.69999965293E+02 0.  0.
         12    1    1    2    0    0 -0.17865600099E+02 -0.45757066421E+01 -0.32501398739E+01  0.18726456348E+02  0.00000000000E+00 0. -1.
         11    1    3    3    0    0  0.16110105058E+02  0.89502478679E+01  0.22964585858E+01  0.18571918160E+02  0.51100000000E-03 0. -1.
        -11    1    3    3    0    0 -0.20958240263E+02  0.13367633268E+02  0.27603385417E+01  0.25011215949E+02  0.51100000000E-03 0.  1.
         12    1    3    3    0    0  0.22713735305E+02 -0.17742174494E+02 -0.18066572536E+01  0.28878409542E+02  0.00000000000E+00 0. -1.
</event>
<event>
 7    1  0.2944263E-013  0.7246162E+02  0.7816164E-02  0.1226708E+00
        -11   -1    0    0    0    0  0.00000000000E+00  0.00000000000E+00  0.45593999997E+02  0.45594000000E+02  0.51100000000E-03 0. -1.
         11   -1    0    0    0    0 -0.00000000000E+00 -0.00000000000E+00 -0.45593999997E+02  0.45594000000E+02  0.51100000000E-03 0.  1.
    9900012    2    1    2    0    0  0.14044005488E+02  0.12190351336E+02 -0.21997101384E+01  0.72461615391E+02  0.70000058747E+02 0.  0.
         12    1    1    2    0    0 -0.14044005488E+02 -0.12190351336E+02  0.21997101384E+01  0.18726384609E+02  0.00000000000E+00 0. -1.
         11    1    3    3    0    0 -0.19501881473E+02 -0.15113476845E+02  0.47792595402E+01  0.25131292950E+02  0.51100000000E-03 0. -1.
        -11    1    3    3    0    0  0.17213509499E+02  0.31216512403E+01 -0.86391295197E+00  0.17515591956E+02  0.51100000000E-03 0.  1.
        -12    1    3    3    0    0  0.16332377461E+02  0.24182176940E+02 -0.61150567266E+01  0.29814730485E+02  0.00000000000E+00 0.  1.
</event>
<event>
 7    1  0.2944263E-013  0.7246154E+02  0.7816164E-02  0.1226708E+00
        -11   -1    0    0    0    0  0.00000000000E+00  0.00000000000E+00  0.45593999997E+02  0.45594000000E+02  0.51100000000E-03 0.  1.
         11   -1    0    0    0    0 -0.00000000000E+00 -0.00000000000E+00 -0.45593999997E+02  0.45594000000E+02  0.51100000000E-03 0. -1.
    9900012    2    1    2    0    0 -0.22987735025E+01  0.16900323592E+02  0.77314212375E+01  0.72461543542E+02  0.69999965150E+02 0.  0.
         12    1    1    2    0    0  0.22987735025E+01 -0.16900323592E+02 -0.77314212375E+01  0.18726456458E+02  0.00000000000E+00 0. -1.
         11    1    3    3    0    0 -0.97034087389E+00 -0.85158878350E+01 -0.21378898641E+02  0.23033002722E+02  0.51100000000E-03 0. -1.
        -11    1    3    3    0    0  0.26571202954E+01 -0.47689480086E+01  0.14822093168E+02  0.15795493012E+02  0.51100000000E-03 0.  1.
        -12    1    3    3    0    0 -0.39855529240E+01  0.30185159435E+02  0.14288226711E+02  0.33633047807E+02  0.00000000000E+00 0.  1.
</event>
<event>
 7    1  0.2944263E-013  0.7246160E+02  0.7816164E-02  0.1226708E+00
        -11   -1    0    0    0    0  0.00000000000E+00  0.00000000000E+00  0.45593999997E+02  0.45594000000E+02  0.51100000000E-03 0. -1.
         11   -1    0    0    0    0 -0.00000000000E+00 -0.00000000000E+00 -0.45593999997E+02  0.45594000000E+02  0.51100000000E-03 0.  1.
    9900012    2    1    2    0    0  0.66722698322E+01  0.10036556963E+02 -0.14332697586E+02  0.72461604712E+02  0.70000044836E+02 0.  0.
         12    1    1    2    0    0 -0.66722698322E+01 -0.10036556963E+02  0.14332697586E+02  0.18726395288E+02  0.00000000000E+00 0. -1.
         11    1    3    3    0    0  0.10087869891E+02 -0.98094670419E+01 -0.14047137708E+02  0.19882475717E+02  0.51100000000E-03 0.  1.
        -11    1    3    3    0    0 -0.14643901000E+02  0.69514168791E+01 -0.20479794613E+02  0.26118729310E+02  0.51100000000E-03 0. -1.
         12    1    3    3    0    0  0.11228300941E+02  0.12894607126E+02  0.20194234735E+02  0.26460399685E+02  0.00000000000E+00 0. -1.
</event>
<event>
 7    1  0.2944263E-013  0.7246159E+02  0.7816164E-02  0.1226708E+00
        -11   -1    0    0    0    0  0.00000000000E+00  0.00000000000E+00  0.45593999997E+02  0.45594000000E+02  0.51100000000E-03 0.  1.
         11   -1    0    0    0    0 -0.00000000000E+00 -0.00000000000E+00 -0.45593999997E+02  0.45594000000E+02  0.51100000000E-03 0. -1.
    9900012    2    1    2    0    0  0.27615689537E+01  0.14112997362E+02 -0.11994807990E+02  0.72461591472E+02  0.70000027588E+02 0.  0.
         12    1    1    2    0    0 -0.27615689537E+01 -0.14112997362E+02  0.11994807990E+02  0.18726408528E+02  0.00000000000E+00 0. -1.
         11    1    3    3    0    0  0.83256309637E+01  0.17010525048E+02 -0.14202486963E+02  0.23672446632E+02  0.51100000000E-03 0. -1.
        -11    1    3    3    0    0  0.22191063228E+01 -0.21718235718E+02 -0.11069165439E+02  0.24477185691E+02  0.51100000000E-03 0.  1.
         12    1    3    3    0    0 -0.77831683328E+01  0.18820708033E+02  0.13276844412E+02  0.24311959150E+02  0.00000000000E+00 0. -1.
</event>
<event>
 7    1  0.2944263E-013  0.7246149E+02  0.7816164E-02  0.1226708E+00
        -11   -1    0    0    0    0  0.00000000000E+00  0.00000000000E+00  0.45593999997E+02  0.45594000000E+02  0.51100000000E-03 0. -1.
         11   -1    0    0    0    0 -0.00000000000E+00 -0.00000000000E+00 -0.45593999997E+02  0.45594000000E+02  0.51100000000E-03 0.  1.
    9900012    2    1    2    0    0 -0.59510222479E+01  0.47657658771E+01 -0.17104233415E+02  0.72461494963E+02  0.69999901867E+02 0.  0.
         12    1    1    2    0    0  0.59510222479E+01 -0.47657658771E+01  0.17104233415E+02  0.18726505037E+02  0.00000000000E+00 0. -1.
         11    1    3    3    0    0 -0.10415297714E+01 -0.74565724704E+01 -0.30821597338E+02  0.31727844553E+02  0.51100000000E-03 0.  1.
        -11    1    3    3    0    0 -0.13872674131E+02 -0.14801796867E+01 -0.59287617780E+01  0.15158899562E+02  0.51100000000E-03 0. -1.
         12    1    3    3    0    0  0.89631816550E+01  0.13702518034E+02  0.19646125701E+02  0.25574750848E+02  0.00000000000E+00 0. -1.
</event>
<event>
 7    1  0.2944263E-013  0.7246149E+02  0.7816164E-02  0.1226708E+00
        -11   -1    0    0    0    0  0.00000000000E+00  0.00000000000E+00  0.45593999997E+02  0.45594000000E+02  0.51100000000E-03 0. -1.
         11   -1    0    0    0    0 -0.00000000000E+00 -0.00000000000E+00 -0.45593999997E+02  0.45594000000E+02  0.51100000000E-03 0.  1.
    9900012    2    1    2    0    0 -0.88755523981E+01 -0.11876686483E+02 -0.11439007071E+02  0.72461494855E+02  0.69999901726E+02 0.  0.
         12    1    1    2    0    0  0.88755523981E+01  0.11876686483E+02  0.11439007071E+02  0.18726505145E+02  0.00000000000E+00 0. -1.
         11    1    3    3    0    0 -0.17024995025E+02  0.57486018653E+01  0.55470406049E+01  0.18806024001E+02  0.51100000000E-03 0. -1.
        -11    1    3    3    0    0  0.74122908869E+01  0.14995435710E+02 -0.12140153429E+02  0.20668538261E+02  0.51100000000E-03 0.  1.
         12    1    3    3    0    0  0.73715173992E+00 -0.32620724058E+02 -0.48458942470E+01  0.32986932592E+02  0.00000000000E+00 0. -1.
</event>
<event>
 7    1  0.2944263E-013  0.7246160E+02  0.7816164E-02  0.1226708E+00
        -11   -1    0    0    0    0  0.00000000000E+00  0.00000000000E+00  0.45593999997E+02  0.45594000000E+02  0.51100000000E-03 0. -1.
         11   -1    0    0    0    0 -0.00000000000E+00 -0.00000000000E+00 -0.45593999997E+02  0.45594000000E+02  0.51100000000E-03 0.  1.
    9900012    2    1    2    0    0  0.10150033224E+02 -0.15300192800E+02 -0.36822749906E+01  0.72461595559E+02  0.70000032912E+02 0.  0.
         12    1    1    2    0    0 -0.10150033224E+02  0.15300192800E+02  0.36822749906E+01  0.18726404441E+02  0.00000000000E+00 0. -1.
         11    1    3    3    0    0  0.40525147739E+01  0.62037931126E+01  0.43902427793E+01  0.86130225181E+01  0.51100000000E-03 0. -1.
        -11    1    3    3    0    0  0.26477161614E+02  0.34912395848E+01  0.79126666905E+01  0.27853889053E+02  0.51100000000E-03 0.  1.
         12    1    3    3    0    0 -0.20379643164E+02 -0.24995225497E+02 -0.15985184460E+02  0.35994683988E+02  0.00000000000E+00 0. -1.
</event>
<event>
 7    1  0.2944263E-013  0.7246155E+02  0.7816164E-02  0.1226708E+00
        -11   -1    0    0    0    0  0.00000000000E+00  0.00000000000E+00  0.45593999997E+02  0.45594000000E+02  0.51100000000E-03 0.  1.
         11   -1    0    0    0    0 -0.00000000000E+00 -0.00000000000E+00 -0.45593999997E+02  0.45594000000E+02  0.51100000000E-03 0. -1.
    9900012    2    1    2    0    0 -0.11123096033E+02 -0.12446080416E+02 -0.84883265310E+01  0.72461551582E+02  0.69999975623E+02 0.  0.
         12    1    1    2    0    0  0.11123096033E+02  0.12446080416E+02  0.84883265310E+01  0.18726448418E+02  0.00000000000E+00 0. -1.
         11    1    3    3    0    0  0.68300688550E+01  0.44300533581E+01  0.41882168010E+01  0.91551282653E+01  0.51100000000E-03 0. -1.
        -11    1    3    3    0    0  0.10399240270E+02  0.10172951686E+01 -0.25385510468E+02  0.27451834723E+02  0.51100000000E-03 0.  1.
        -12    1    3    3    0    0 -0.28352405158E+02 -0.17893428942E+02  0.12708967136E+02  0.35854588594E+02  0.00000000000E+00 0.  1.
</event>
<event>
 7    1  0.2944263E-013  0.7246165E+02  0.7816164E-02  0.1226708E+00
        -11   -1    0    0    0    0  0.00000000000E+00  0.00000000000E+00  0.45593999997E+02  0.45594000000E+02  0.51100000000E-03 0. -1.
         11   -1    0    0    0    0 -0.00000000000E+00 -0.00000000000E+00 -0.45593999997E+02  0.45594000000E+02  0.51100000000E-03 0.  1.
    9900012    2    1    2    0    0 -0.12922357683E+02 -0.91941240561E+01 -0.99577573775E+01  0.72461650189E+02  0.70000104078E+02 0.  0.
         12    1    1    2    0    0  0.12922357683E+02  0.91941240561E+01  0.99577573775E+01  0.18726349811E+02  0.00000000000E+00 0. -1.
         11    1    3    3    0    0  0.10075227480E+02  0.11212405269E+02  0.15267674953E+02  0.21455305624E+02  0.51100000000E-03 0. -1.
        -11    1    3    3    0    0 -0.13958422561E+02  0.20788073420E+01  0.23375385647E+01  0.14304652640E+02  0.51100000000E-03 0.  1.
        -12    1    3    3    0    0 -0.90391626023E+01 -0.22485336667E+02 -0.27562970895E+02  0.36701691925E+02  0.00000000000E+00 0.  1.
</event>
<event>
 7    1  0.2944263E-013  0.7246158E+02  0.7816164E-02  0.1226708E+00
        -11   -1    0    0    0    0  0.00000000000E+00  0.00000000000E+00  0.45593999997E+02  0.45594000000E+02  0.51100000000E-03 0. -1.
         11   -1    0    0    0    0 -0.00000000000E+00 -0.00000000000E+00 -0.45593999997E+02  0.45594000000E+02  0.51100000000E-03 0.  1.
    9900012    2    1    2    0    0  0.22623658466E+00 -0.79616684639E+01 -0.16948135534E+02  0.72461584277E+02  0.70000018216E+02 0.  0.
         12    1    1    2    0    0 -0.22623658466E+00  0.79616684639E+01  0.16948135534E+02  0.18726415723E+02  0.00000000000E+00 0. -1.
         11    1    3    3    0    0 -0.34036561812E+00  0.90940177615E+01  0.21469230929E+01  0.93502025020E+01  0.51100000000E-03 0. -1.
        -11    1    3    3    0    0  0.11108548061E+02 -0.11131612843E+02  0.18113166496E+02  0.23987485181E+02  0.51100000000E-03 0.  1.
        -12    1    3    3    0    0 -0.10541945858E+02 -0.59240733829E+01 -0.37208225124E+02  0.39123896595E+02  0.00000000000E+00 0.  1.
</event>
<event>
 7    1  0.2944263E-013  0.7246161E+02  0.7816164E-02  0.1226708E+00
        -11   -1    0    0    0    0  0.00000000000E+00  0.00000000000E+00  0.45593999997E+02  0.45594000000E+02  0.51100000000E-03 0. -1.
         11   -1    0    0    0    0 -0.00000000000E+00 -0.00000000000E+00 -0.45593999997E+02  0.45594000000E+02  0.51100000000E-03 0.  1.
    9900012    2    1    2    0    0  0.18617497310E+02  0.15012578629E+01  0.13463691426E+01  0.72461609767E+02  0.70000051421E+02 0.  0.
         12    1    1    2    0    0 -0.18617497310E+02 -0.15012578629E+01 -0.13463691426E+01  0.18726390233E+02  0.00000000000E+00 0. -1.
         11    1    3    3    0    0  0.54253671183E+01 -0.18124114688E+02  0.19771866253E+02  0.27365029453E+02  0.51100000000E-03 0. -1.
        -11    1    3    3    0    0  0.68785368216E+00  0.72943840741E+01  0.95676402891E+01  0.12050764402E+02  0.51100000000E-03 0.  1.
        -12    1    3    3    0    0  0.12504276510E+02  0.12330988476E+02 -0.27993137400E+02  0.33045815912E+02  0.00000000000E+00 0.  1.
</event>
<event>
 7    1  0.2944263E-013  0.7246157E+02  0.7816164E-02  0.1226708E+00
        -11   -1    0    0    0    0  0.00000000000E+00  0.00000000000E+00  0.45593999997E+02  0.45594000000E+02  0.51100000000E-03 0.  1.
         11   -1    0    0    0    0 -0.00000000000E+00 -0.00000000000E+00 -0.45593999997E+02  0.45594000000E+02  0.51100000000E-03 0. -1.
    9900012    2    1    2    0    0  0.10868655172E+02 -0.10469088880E+02  0.11088267301E+02  0.72461570576E+02  0.70000000367E+02 0.  0.
         12    1    1    2    0    0 -0.10868655172E+02  0.10469088880E+02 -0.11088267301E+02  0.18726429424E+02  0.00000000000E+00 0. -1.
         11    1    3    3    0    0  0.24054233738E+02  0.15018456296E+02  0.22261709133E+02  0.36051960890E+02  0.51100000000E-03 0. -1.
        -11    1    3    3    0    0 -0.50389441480E+01 -0.74706048092E+01  0.54896178572E+01  0.10551625411E+02  0.51100000000E-03 0.  1.
        -12    1    3    3    0    0 -0.81466344175E+01 -0.18016940367E+02 -0.16663059689E+02  0.25857984274E+02  0.00000000000E+00 0.  1.
</event>
<event>
 7    1  0.2944263E-013  0.7246159E+02  0.7816164E-02  0.1226708E+00
        -11   -1    0    0    0    0  0.00000000000E+00  0.00000000000E+00  0.45593999997E+02  0.45594000000E+02  0.51100000000E-03 0. -1.
         11   -1    0    0    0    0 -0.00000000000E+00 -0.00000000000E+00 -0.45593999997E+02  0.45594000000E+02  0.51100000000E-03 0.  1.
    9900012    2    1    2    0    0  0.98635519835E+01  0.42553632523E+00 -0.15912504461E+02  0.72461587180E+02  0.70000021997E+02 0.  0.
         12    1    1    2    0    0 -0.98635519835E+01 -0.42553632523E+00  0.15912504461E+02  0.18726412820E+02  0.00000000000E+00 0. -1.
         11    1    3    3    0    0  0.76423325715E+01 -0.20916291127E+02  0.39995979514E+00  0.22272324749E+02  0.51100000000E-03 0. -1.
        -11    1    3    3    0    0  0.38842727890E+00  0.23116970872E+02  0.89545595368E+01  0.24793736201E+02  0.51100000000E-03 0.  1.
         12    1    3    3    0    0  0.18327921331E+01 -0.17751434195E+01 -0.25267023793E+02  0.25395526230E+02  0.00000000000E+00 0. -1.
</event>
<event>
 7    1  0.2944263E-013  0.7246150E+02  0.7816164E-02  0.1226708E+00
        -11   -1    0    0    0    0  0.00000000000E+00  0.00000000000E+00  0.45593999997E+02  0.45594000000E+02  0.51100000000E-03 0.  1.
         11   -1    0    0    0    0 -0.00000000000E+00 -0.00000000000E+00 -0.45593999997E+02  0.45594000000E+02  0.51100000000E-03 0. -1.
    9900012    2    1    2    0    0  0.91153071542E+01  0.15805288118E+02  0.42173106907E+01  0.72461503625E+02  0.69999913151E+02 0.  0.
         12    1    1    2    0    0 -0.91153071542E+01 -0.15805288118E+02 -0.42173106907E+01  0.18726496375E+02  0.00000000000E+00 0. -1.
         11    1    3    3    0    0 -0.21622223061E+01  0.25967274774E+01 -0.83250526359E+01  0.89846925682E+01  0.51100000000E-03 0. -1.
        -11    1    3    3    0    0  0.16153699458E+02  0.33383621479E+02 -0.34894773455E+01  0.37250297202E+02  0.51100000000E-03 0.  1.
        -12    1    3    3    0    0 -0.48761699977E+01 -0.20175060838E+02  0.16031840672E+02  0.26226513855E+02  0.00000000000E+00 0.  1.
</event>
<event>
 7    1  0.2944263E-013  0.7246161E+02  0.7816164E-02  0.1226708E+00
        -11   -1    0    0    0    0  0.00000000000E+00  0.00000000000E+00  0.45593999997E+02  0.45594000000E+02  0.51100000000E-03 0.  1.
         11   -1    0    0    0    0 -0.00000000000E+00 -0.00000000000E+00 -0.45593999997E+02  0.45594000000E+02  0.51100000000E-03 0. -1.
    9900012    2    1    2    0    0 -0.72785010755E+01  0.16837377409E+02  0.37688117578E+01  0.72461606915E+02  0.70000047705E+02 0.  0.
         12    1    1    2    0    0  0.72785010755E+01 -0.16837377409E+02 -0.37688117578E+01  0.18726393085E+02  0.00000000000E+00 0. -1.
         11    1    3    3    0    0  0.50029524957E+01 -0.17050623504E+02 -0.57854806094E+01  0.18687564894E+02  0.51100000000E-03 0. -1.
        -11    1    3    3    0    0 -0.91045200593E+01 -0.45889658918E+01 -0.63579356784E+01  0.12015583208E+02  0.51100000000E-03 0.  1.
        -12    1    3    3    0    0 -0.31769335119E+01  0.38476966805E+02  0.15912228046E+02  0.41758458813E+02  0.00000000000E+00 0.  1.
</event>
<event>
 7    1  0.2944263E-013  0.7246155E+02  0.7816164E-02  0.1226708E+00
        -11   -1    0    0    0    0  0.00000000000E+00  0.00000000000E+00  0.45593999997E+02  0.45594000000E+02  0.51100000000E-03 0. -1.
         11   -1    0    0    0    0 -0.00000000000E+00 -0.00000000000E+00 -0.45593999997E+02  0.45594000000E+02  0.51100000000E-03 0.  1.
    9900012    2    1    2    0    0 -0.16617857194E+02 -0.37771279996E+01 -0.77627339037E+01  0.72461550488E+02  0.69999974199E+02 0.  0.
         12    1    1    2    0    0  0.16617857194E+02  0.37771279996E+01  0.77627339037E+01  0.18726449512E+02  0.00000000000E+00 0. -1.
         11    1    3    3    0    0  0.65642027596E+01 -0.10876104504E+02 -0.11629321421E+02  0.17222645674E+02  0.51100000000E-03 0. -1.
        -11    1    3    3    0    0 -0.14119683131E+02  0.19950737524E+02 -0.16513295368E+02  0.29497225355E+02  0.51100000000E-03 0.  1.
        -12    1    3    3    0    0 -0.90623768234E+01 -0.12851761020E+02  0.20379882885E+02  0.25741679460E+02  0.00000000000E+00 0.  1.
</event>
<event>
 7    1  0.3201365E-013  0.7246162E+02  0.7816164E-02  0.1226708E+00
        -11   -1    0    0    0    0  0.00000000000E+00  0.00000000000E+00  0.45593999997E+02  0.45594000000E+02  0.51100000000E-03 0. -1.
         11   -1    0    0    0    0 -0.00000000000E+00 -0.00000000000E+00 -0.45593999997E+02  0.45594000000E+02  0.51100000000E-03 0.  1.
    9900012    2    1    2    0    0  0.32846805290E+01  0.80870763696E+01 -0.16567665389E+02  0.72461615757E+02  0.70000059223E+02 0.  0.
         12    1    1    2    0    0 -0.32846805290E+01 -0.80870763696E+01  0.16567665389E+02  0.18726384243E+02  0.00000000000E+00 0. -1.
         11    1    3    3    0    0  0.36856341663E+01 -0.13388146760E+02 -0.10753190306E+02  0.17562957464E+02  0.51100000000E-03 0. -1.
        -11    1    3    3    0    0 -0.66874275557E+01  0.22267828356E+02 -0.25328424511E+02  0.34381782320E+02  0.51100000000E-03 0.  1.
         12    1    3    3    0    0  0.62864739185E+01 -0.79260522676E+00  0.19513949428E+02  0.20516875972E+02  0.00000000000E+00 0. -1.
</event>
<event>
 7    1  0.2944263E-013  0.7246192E+02  0.7816164E-02  0.1226707E+00
        -11   -1    0    0    0    0  0.00000000000E+00  0.00000000000E+00  0.45593999997E+02  0.45594000000E+02  0.51100000000E-03 0. -1.
         11   -1    0    0    0    0 -0.00000000000E+00 -0.00000000000E+00 -0.45593999997E+02  0.45594000000E+02  0.51100000000E-03 0.  1.
    9900012    2    1    2    0    0 -0.50599638789E+01  0.88620073100E+00 -0.18007701719E+02  0.72461924400E+02  0.70000461286E+02 0.  0.
         12    1    1    2    0    0  0.50599638789E+01 -0.88620073100E+00  0.18007701719E+02  0.18726075600E+02  0.00000000000E+00 0. -1.
         11    1    3    3    0    0 -0.59562818406E+01 -0.12773703165E+02  0.60612193900E+00  0.14107167326E+02  0.51100000000E-03 0. -1.
        -11    1    3    3    0    0 -0.12989800804E+02 -0.93814622438E+01  0.10152637941E+02  0.18968996183E+02  0.51100000000E-03 0.  1.
         12    1    3    3    0    0  0.13886118766E+02  0.23041366139E+02 -0.28766461600E+02  0.39385760890E+02  0.00000000000E+00 0. -1.
</event>
<event>
 7    1  0.2944263E-013  0.7246173E+02  0.7816164E-02  0.1226708E+00
        -11   -1    0    0    0    0  0.00000000000E+00  0.00000000000E+00  0.45593999997E+02  0.45594000000E+02  0.51100000000E-03 0.  1.
         11   -1    0    0    0    0 -0.00000000000E+00 -0.00000000000E+00 -0.45593999997E+02  0.45594000000E+02  0.51100000000E-03 0. -1.
    9900012    2    1    2    0    0 -0.11272552028E+02  0.13131649129E+02  0.71528080070E+01  0.72461727000E+02  0.70000204138E+02 0.  0.
         12    1    1    2    0    0  0.11272552028E+02 -0.13131649129E+02 -0.71528080070E+01  0.18726273000E+02  0.00000000000E+00 0. -1.
         11    1    3    3    0    0  0.13141793543E+02  0.10935915770E+02 -0.97796630641E+01  0.19696263635E+02  0.51100000000E-03 0. -1.
        -11    1    3    3    0    0 -0.11818732214E+02 -0.17910924907E+02 -0.31403016773E+01  0.21687442381E+02  0.51100000000E-03 0.  1.
        -12    1    3    3    0    0 -0.12595613357E+02  0.20106658266E+02  0.20072772748E+02  0.31078020984E+02  0.00000000000E+00 0.  1.
</event>
<event>
 7    1  0.2944263E-013  0.7246155E+02  0.7816164E-02  0.1226708E+00
        -11   -1    0    0    0    0  0.00000000000E+00  0.00000000000E+00  0.45593999997E+02  0.45594000000E+02  0.51100000000E-03 0.  1.
         11   -1    0    0    0    0 -0.00000000000E+00 -0.00000000000E+00 -0.45593999997E+02  0.45594000000E+02  0.51100000000E-03 0. -1.
    9900012    2    1    2    0    0  0.12095748866E+02 -0.68679813181E+01  0.12538091709E+02  0.72461546739E+02  0.69999969315E+02 0.  0.
         12    1    1    2    0    0 -0.12095748866E+02  0.68679813181E+01 -0.12538091709E+02  0.18726453261E+02  0.00000000000E+00 0. -1.
         11    1    3    3    0    0  0.62714698354E+01 -0.31539477447E+02  0.15311546887E+02  0.35616196313E+02  0.51100000000E-03 0. -1.
        -11    1    3    3    0    0  0.66827753825E+00 -0.56831726030E+01 -0.19480844362E+01  0.60448390330E+01  0.51100000000E-03 0.  1.
         12    1    3    3    0    0  0.51560014922E+01  0.30354668732E+02 -0.82537074102E+00  0.30800511393E+02  0.00000000000E+00 0. -1.
</event>
<event>
 7    1  0.2944263E-013  0.7246155E+02  0.7816164E-02  0.1226708E+00
        -11   -1    0    0    0    0  0.00000000000E+00  0.00000000000E+00  0.45593999997E+02  0.45594000000E+02  0.51100000000E-03 0.  1.
         11   -1    0    0    0    0 -0.00000000000E+00 -0.00000000000E+00 -0.45593999997E+02  0.45594000000E+02  0.51100000000E-03 0. -1.
    9900012    2    1    2    0    0  0.74839539945E+01  0.16390714040E+02  0.51004884636E+01  0.72461546607E+02  0.69999969142E+02 0.  0.
         12    1    1    2    0    0 -0.74839539945E+01 -0.16390714040E+02 -0.51004884636E+01  0.18726453393E+02  0.00000000000E+00 0. -1.
         11    1    3    3    0    0 -0.22952247621E+02  0.11243885168E+02  0.11525776476E+02  0.28037013896E+02  0.51100000000E-03 0. -1.
        -11    1    3    3    0    0 -0.57460466244E+01 -0.28863072951E+01 -0.33057657596E+01  0.72302080973E+01  0.51100000000E-03 0.  1.
        -12    1    3    3    0    0  0.36182248240E+02  0.80331361668E+01 -0.31195222529E+01  0.37194324614E+02  0.00000000000E+00 0.  1.
</event>
<event>
 7    1  0.2944263E-013  0.7246154E+02  0.7816164E-02  0.1226708E+00
        -11   -1    0    0    0    0  0.00000000000E+00  0.00000000000E+00  0.45593999997E+02  0.45594000000E+02  0.51100000000E-03 0. -1.
         11   -1    0    0    0    0 -0.00000000000E+00 -0.00000000000E+00 -0.45593999997E+02  0.45594000000E+02  0.51100000000E-03 0.  1.
    9900012    2    1    2    0    0 -0.86742333990E+01 -0.12452184374E+02 -0.10971823700E+02  0.72461544488E+02  0.69999966382E+02 0.  0.
         12    1    1    2    0    0  0.86742333990E+01  0.12452184374E+02  0.10971823700E+02  0.18726455512E+02  0.00000000000E+00 0. -1.
         11    1    3    3    0    0 -0.28486070113E+02 -0.14017773394E+01  0.11892809815E+02  0.30900810600E+02  0.51100000000E-03 0. -1.
        -11    1    3    3    0    0  0.13159617630E+02 -0.44713379455E+01  0.28580754696E+01  0.14189326793E+02  0.51100000000E-03 0.  1.
        -12    1    3    3    0    0  0.66522190840E+01 -0.65790690896E+01 -0.25722708985E+02  0.27371407095E+02  0.00000000000E+00 0.  1.
</event>
<event>
 7    1  0.2944263E-013  0.7246158E+02  0.7816164E-02  0.1226708E+00
        -11   -1    0    0    0    0  0.00000000000E+00  0.00000000000E+00  0.45593999997E+02  0.45594000000E+02  0.51100000000E-03 0.  1.
         11   -1    0    0    0    0 -0.00000000000E+00 -0.00000000000E+00 -0.45593999997E+02  0.45594000000E+02  0.51100000000E-03 0. -1.
    9900012    2    1    2    0    0 -0.93951498052E+01 -0.77268206340E+01  0.14237491900E+02  0.72461580893E+02  0.70000013806E+02 0.  0.
         12    1    1    2    0    0  0.93951498052E+01  0.77268206340E+01 -0.14237491900E+02  0.18726419107E+02  0.00000000000E+00 0. -1.
         11    1    3    3    0    0 -0.23094843301E+02 -0.12325529992E+02 -0.67462694304E+01  0.27033361393E+02  0.51100000000E-03 0. -1.
        -11    1    3    3    0    0  0.32232449836E+01 -0.11597487778E+02  0.23075118043E+02  0.26025989010E+02  0.51100000000E-03 0.  1.
        -12    1    3    3    0    0  0.10476448513E+02  0.16196197136E+02 -0.20913567122E+01  0.19402230490E+02  0.00000000000E+00 0.  1.
</event>
<event>
 7    1  0.2944263E-013  0.7246154E+02  0.7816164E-02  0.1226708E+00
        -11   -1    0    0    0    0  0.00000000000E+00  0.00000000000E+00  0.45593999997E+02  0.45594000000E+02  0.51100000000E-03 0. -1.
         11   -1    0    0    0    0 -0.00000000000E+00 -0.00000000000E+00 -0.45593999997E+02  0.45594000000E+02  0.51100000000E-03 0.  1.
    9900012    2    1    2    0    0 -0.11847264060E+02  0.31568418572E+01 -0.14154751635E+02  0.72461539842E+02  0.69999960330E+02 0.  0.
         12    1    1    2    0    0  0.11847264060E+02 -0.31568418572E+01  0.14154751635E+02  0.18726460158E+02  0.00000000000E+00 0. -1.
         11    1    3    3    0    0 -0.31342909948E+01  0.38644189688E+01  0.48261656572E+01  0.69317666737E+01  0.51100000000E-03 0. -1.
        -11    1    3    3    0    0 -0.20093146501E+02  0.11614926649E+02 -0.35222609266E+02  0.42181432659E+02  0.51100000000E-03 0.  1.
         12    1    3    3    0    0  0.11380173436E+02 -0.12322503761E+02  0.16241691974E+02  0.23348340510E+02  0.00000000000E+00 0. -1.
</event>
<event>
 7    1  0.2944263E-013  0.7246127E+02  0.7816164E-02  0.1226709E+00
        -11   -1    0    0    0    0  0.00000000000E+00  0.00000000000E+00  0.45593999997E+02  0.45594000000E+02  0.51100000000E-03 0.  1.
         11   -1    0    0    0    0 -0.00000000000E+00 -0.00000000000E+00 -0.45593999997E+02  0.45594000000E+02  0.51100000000E-03 0. -1.
    9900012    2    1    2    0    0  0.14613124591E+02  0.35000536070E+01  0.11175712854E+02  0.72461271952E+02  0.69999611353E+02 0.  0.
         12    1    1    2    0    0 -0.14613124591E+02 -0.35000536070E+01 -0.11175712854E+02  0.18726728048E+02  0.00000000000E+00 0. -1.
         11    1    3    3    0    0 -0.16641438742E+02  0.89026070142E+00  0.27163866731E+02  0.31868569211E+02  0.51100000000E-03 0. -1.
        -11    1    3    3    0    0 -0.16060648911E+01  0.31920927847E+01  0.83768277754E+00  0.36702334364E+01  0.51100000000E-03 0.  1.
         12    1    3    3    0    0  0.32860628225E+02 -0.58229987916E+00 -0.16825836654E+02  0.36922469305E+02  0.00000000000E+00 0. -1.
</event>
<event>
 7    1  0.2944263E-013  0.7246127E+02  0.7816164E-02  0.1226709E+00
        -11   -1    0    0    0    0  0.00000000000E+00  0.00000000000E+00  0.45593999997E+02  0.45594000000E+02  0.51100000000E-03 0.  1.
         11   -1    0    0    0    0 -0.00000000000E+00 -0.00000000000E+00 -0.45593999997E+02  0.45594000000E+02  0.51100000000E-03 0. -1.
    9900012    2    1    2    0    0 -0.76759655045E+01  0.15477342702E+02  0.72264664648E+01  0.72461270411E+02  0.69999609345E+02 0.  0.
         12    1    1    2    0    0  0.76759655045E+01 -0.15477342702E+02 -0.72264664648E+01  0.18726729589E+02  0.00000000000E+00 0. -1.
         11    1    3    3    0    0 -0.75225190446E+01  0.10779769940E+02 -0.20570285437E+02  0.24411644270E+02  0.51100000000E-03 0. -1.
        -11    1    3    3    0    0  0.53854773950E+01  0.11564344813E+02 -0.52875446026E+01  0.13809256530E+02  0.51100000000E-03 0.  1.
        -12    1    3    3    0    0 -0.55389238549E+01 -0.68667720513E+01  0.33084296504E+02  0.34240369611E+02  0.00000000000E+00 0.  1.
</event>
<event>
 7    1  0.2944263E-013  0.7246156E+02  0.7816164E-02  0.1226708E+00
        -11   -1    0    0    0    0  0.00000000000E+00  0.00000000000E+00  0.45593999997E+02  0.45594000000E+02  0.51100000000E-03 0. -1.
         11   -1    0    0    0    0 -0.00000000000E+00 -0.00000000000E+00 -0.45593999997E+02  0.45594000000E+02  0.51100000000E-03 0.  1.
    9900012    2    1    2    0    0  0.69765910268E+01 -0.37529058127E+01 -0.16968280605E+02  0.72461556903E+02  0.69999982555E+02 0.  0.
         12    1    1    2    0    0 -0.69765910268E+01  0.37529058127E+01  0.16968280605E+02  0.18726443097E+02  0.00000000000E+00 0. -1.
         11    1    3    3    0    0 -0.10142941481E+02  0.48803865679E+01 -0.13718440473E+02  0.17745225956E+02  0.51100000000E-03 0. -1.
        -11    1    3    3    0    0 -0.88683475692E+01 -0.76154847414E+01 -0.20436068261E+02  0.23543068676E+02  0.51100000000E-03 0.  1.
         12    1    3    3    0    0  0.25987880077E+02 -0.10178076392E+01  0.17186228129E+02  0.31173262271E+02  0.00000000000E+00 0. -1.
</event>
<event>
 7    1  0.2944263E-013  0.7246153E+02  0.7816164E-02  0.1226708E+00
        -11   -1    0    0    0    0  0.00000000000E+00  0.00000000000E+00  0.45593999997E+02  0.45594000000E+02  0.51100000000E-03 0. -1.
         11   -1    0    0    0    0 -0.00000000000E+00 -0.00000000000E+00 -0.45593999997E+02  0.45594000000E+02  0.51100000000E-03 0.  1.
    9900012    2    1    2    0    0  0.20390479759E+01 -0.17266028616E+01 -0.18534882476E+02  0.72461528296E+02  0.69999945289E+02 0.  0.
         12    1    1    2    0    0 -0.20390479759E+01  0.17266028616E+01  0.18534882476E+02  0.18726471704E+02  0.00000000000E+00 0. -1.
         11    1    3    3    0    0  0.22987254212E+02  0.72889024321E+01  0.78516413403E+01  0.25361195296E+02  0.51100000000E-03 0. -1.
        -11    1    3    3    0    0  0.29083565852E+01 -0.75632247739E+01  0.35046677092E+01  0.88285674387E+01  0.51100000000E-03 0.  1.
        -12    1    3    3    0    0 -0.23856562821E+02 -0.14522805198E+01 -0.29891191525E+02  0.38271765561E+02  0.00000000000E+00 0.  1.
</event>
<event>
 7    1  0.2944263E-013  0.7246156E+02  0.7816164E-02  0.1226708E+00
        -11   -1    0    0    0    0  0.00000000000E+00  0.00000000000E+00  0.45593999997E+02  0.45594000000E+02  0.51100000000E-03 0.  1.
         11   -1    0    0    0    0 -0.00000000000E+00 -0.00000000000E+00 -0.45593999997E+02  0.45594000000E+02  0.51100000000E-03 0. -1.
    9900012    2    1    2    0    0 -0.65476608910E+00 -0.10129812783E+02  0.15736506084E+02  0.72461562822E+02  0.69999990266E+02 0.  0.
         12    1    1    2    0    0  0.65476608910E+00  0.10129812783E+02 -0.15736506084E+02  0.18726437178E+02  0.00000000000E+00 0. -1.
         11    1    3    3    0    0 -0.61907691307E+01  0.46257259598E+00  0.47168919117E+01  0.77967086263E+01  0.51100000000E-03 0. -1.
        -11    1    3    3    0    0  0.18961192189E+02 -0.32618235631E+02  0.40545981837E+01  0.37946223417E+02  0.51100000000E-03 0.  1.
         12    1    3    3    0    0 -0.13425189147E+02  0.22025850253E+02  0.69650159886E+01  0.26718630779E+02  0.00000000000E+00 0. -1.
</event>
<event>
 7    1  0.2944263E-013  0.7246159E+02  0.7816164E-02  0.1226708E+00
        -11   -1    0    0    0    0  0.00000000000E+00  0.00000000000E+00  0.45593999997E+02  0.45594000000E+02  0.51100000000E-03 0.  1.
         11   -1    0    0    0    0 -0.00000000000E+00 -0.00000000000E+00 -0.45593999997E+02  0.45594000000E+02  0.51100000000E-03 0. -1.
    9900012    2    1    2    0    0 -0.92329640196E+01 -0.14686534018E+02 -0.70524118840E+01  0.72461590322E+02  0.70000026089E+02 0.  0.
         12    1    1    2    0    0  0.92329640196E+01  0.14686534018E+02  0.70524118840E+01  0.18726409678E+02  0.00000000000E+00 0. -1.
         11    1    3    3    0    0 -0.16847434297E+02 -0.27158268025E+02 -0.70619822458E+01  0.32730401128E+02  0.51100000000E-03 0. -1.
        -11    1    3    3    0    0 -0.78281227118E+01  0.57390513700E+01  0.14541223016E+02  0.17483231477E+02  0.51100000000E-03 0.  1.
         12    1    3    3    0    0  0.15442592989E+02  0.67326826365E+01 -0.14531652654E+02  0.22247957717E+02  0.00000000000E+00 0. -1.
</event>
<event>
 7    1  0.2944263E-013  0.7246156E+02  0.7816164E-02  0.1226708E+00
        -11   -1    0    0    0    0  0.00000000000E+00  0.00000000000E+00  0.45593999997E+02  0.45594000000E+02  0.51100000000E-03 0.  1.
         11   -1    0    0    0    0 -0.00000000000E+00 -0.00000000000E+00 -0.45593999997E+02  0.45594000000E+02  0.51100000000E-03 0. -1.
    9900012    2    1    2    0    0 -0.20185969853E+01 -0.81215148204E+01  0.16752492360E+02  0.72461555142E+02  0.69999980261E+02 0.  0.
         12    1    1    2    0    0  0.20185969853E+01  0.81215148204E+01 -0.16752492360E+02  0.18726444858E+02  0.00000000000E+00 0. -1.
         11    1    3    3    0    0 -0.11271304145E+02  0.16637432434E+02 -0.12822588215E+02  0.23838314201E+02  0.51100000000E-03 0. -1.
        -11    1    3    3    0    0 -0.67693442793E+01 -0.11092814400E+01 -0.82351467996E+00  0.69088858706E+01  0.51100000000E-03 0.  1.
        -12    1    3    3    0    0  0.16022051439E+02 -0.23649665815E+02  0.30398595255E+02  0.41714355070E+02  0.00000000000E+00 0.  1.
</event>
<event>
 7    1  0.2944263E-013  0.7246160E+02  0.7816164E-02  0.1226708E+00
        -11   -1    0    0    0    0  0.00000000000E+00  0.00000000000E+00  0.45593999997E+02  0.45594000000E+02  0.51100000000E-03 0. -1.
         11   -1    0    0    0    0 -0.00000000000E+00 -0.00000000000E+00 -0.45593999997E+02  0.45594000000E+02  0.51100000000E-03 0.  1.
    9900012    2    1    2    0    0  0.92881949644E+01  0.12222605923E+02  0.10724514819E+02  0.72461604742E+02  0.70000044875E+02 0.  0.
         12    1    1    2    0    0 -0.92881949644E+01 -0.12222605923E+02 -0.10724514819E+02  0.18726395258E+02  0.00000000000E+00 0. -1.
         11    1    3    3    0    0 -0.11066931560E+02 -0.10284559212E+02  0.44381164232E+01  0.15746301470E+02  0.51100000000E-03 0. -1.
        -11    1    3    3    0    0  0.17543448224E+02 -0.10605681389E+02  0.10812021465E+02  0.23176558453E+02  0.51100000000E-03 0.  1.
        -12    1    3    3    0    0  0.28116783011E+01  0.33112846525E+02 -0.45256230697E+01  0.33538744819E+02  0.00000000000E+00 0.  1.
</event>
<event>
 7    1  0.2944263E-013  0.7246154E+02  0.7816164E-02  0.1226708E+00
        -11   -1    0    0    0    0  0.00000000000E+00  0.00000000000E+00  0.45593999997E+02  0.45594000000E+02  0.51100000000E-03 0.  1.
         11   -1    0    0    0    0 -0.00000000000E+00 -0.00000000000E+00 -0.45593999997E+02  0.45594000000E+02  0.51100000000E-03 0. -1.
    9900012    2    1    2    0    0  0.12314164070E+02 -0.11803575981E+02 -0.77276948726E+01  0.72461539824E+02  0.69999960307E+02 0.  0.
         12    1    1    2    0    0 -0.12314164070E+02  0.11803575981E+02  0.77276948726E+01  0.18726460176E+02  0.00000000000E+00 0. -1.
         11    1    3    3    0    0  0.22898716719E+02 -0.11367590546E+02  0.12772189259E+02  0.28578001346E+02  0.51100000000E-03 0.  1.
        -11    1    3    3    0    0  0.26970458657E+01  0.10122308218E+02  0.62560685184E+01  0.12201375891E+02  0.51100000000E-03 0. -1.
         12    1    3    3    0    0 -0.13281598515E+02 -0.10558293653E+02 -0.26755952650E+02  0.31682162587E+02  0.00000000000E+00 0. -1.
</event>
<event>
 7    1  0.2944263E-013  0.7246154E+02  0.7816164E-02  0.1226708E+00
        -11   -1    0    0    0    0  0.00000000000E+00  0.00000000000E+00  0.45593999997E+02  0.45594000000E+02  0.51100000000E-03 0. -1.
         11   -1    0    0    0    0 -0.00000000000E+00 -0.00000000000E+00 -0.45593999997E+02  0.45594000000E+02  0.51100000000E-03 0.  1.
    9900012    2    1    2    0    0  0.13413616417E+02  0.74512107381E+01 -0.10734733620E+02  0.72461544042E+02  0.69999965802E+02 0.  0.
         12    1    1    2    0    0 -0.13413616417E+02 -0.74512107381E+01  0.10734733620E+02  0.18726455958E+02  0.00000000000E+00 0. -1.
         11    1    3    3    0    0  0.22671824753E+01 -0.27462758051E+02  0.53614527954E+01  0.28072911721E+02  0.51100000000E-03 0. -1.
        -11    1    3    3    0    0 -0.29325276232E+01  0.61756286436E+01  0.26133783864E+01  0.73190063708E+01  0.51100000000E-03 0.  1.
        -12    1    3    3    0    0  0.14078961564E+02  0.28738340146E+02 -0.18709564802E+02  0.37069625951E+02  0.00000000000E+00 0.  1.
</event>
<event>
 7    1  0.2944263E-013  0.7246152E+02  0.7816164E-02  0.1226708E+00
        -11   -1    0    0    0    0  0.00000000000E+00  0.00000000000E+00  0.45593999997E+02  0.45594000000E+02  0.51100000000E-03 0.  1.
         11   -1    0    0    0    0 -0.00000000000E+00 -0.00000000000E+00 -0.45593999997E+02  0.45594000000E+02  0.51100000000E-03 0. -1.
    9900012    2    1    2    0    0 -0.58689786903E+01  0.12051601205E+02  0.13076503818E+02  0.72461522632E+02  0.69999937912E+02 0.  0.
         12    1    1    2    0    0  0.58689786903E+01 -0.12051601205E+02 -0.13076503818E+02  0.18726477368E+02  0.00000000000E+00 0. -1.
         11    1    3    3    0    0 -0.12234826062E+02 -0.22547400527E+02  0.11347147057E+02  0.28050561240E+02  0.51100000000E-03 0. -1.
        -11    1    3    3    0    0 -0.10373678188E+02  0.99927043537E+01  0.26063642401E+01  0.14637638958E+02  0.51100000000E-03 0.  1.
        -12    1    3    3    0    0  0.16739525560E+02  0.24606297379E+02 -0.87700747901E+00  0.29773322434E+02  0.00000000000E+00 0.  1.
</event>
<event>
 7    1  0.2944263E-013  0.7246158E+02  0.7816164E-02  0.1226708E+00
        -11   -1    0    0    0    0  0.00000000000E+00  0.00000000000E+00  0.45593999997E+02  0.45594000000E+02  0.51100000000E-03 0. -1.
         11   -1    0    0    0    0 -0.00000000000E+00 -0.00000000000E+00 -0.45593999997E+02  0.45594000000E+02  0.51100000000E-03 0.  1.
    9900012    2    1    2    0    0  0.71502299415E+01 -0.17260937448E+02  0.12700965619E+01  0.72461577622E+02  0.70000009546E+02 0.  0.
         12    1    1    2    0    0 -0.71502299415E+01  0.17260937448E+02 -0.12700965619E+01  0.18726422378E+02  0.00000000000E+00 0. -1.
         11    1    3    3    0    0  0.29149603084E+02 -0.13948983912E+02 -0.41345195055E+01  0.32578639688E+02  0.51100000000E-03 0. -1.
        -11    1    3    3    0    0  0.51749633154E+01 -0.10237259354E+02  0.14259103878E+01  0.11559193099E+02  0.51100000000E-03 0.  1.
        -12    1    3    3    0    0 -0.27174336458E+02  0.69253058178E+01  0.39787056796E+01  0.28323744835E+02  0.00000000000E+00 0.  1.
</event>
<event>
 7    1  0.2944263E-013  0.7246159E+02  0.7816164E-02  0.1226708E+00
        -11   -1    0    0    0    0  0.00000000000E+00  0.00000000000E+00  0.45593999997E+02  0.45594000000E+02  0.51100000000E-03 0.  1.
         11   -1    0    0    0    0 -0.00000000000E+00 -0.00000000000E+00 -0.45593999997E+02  0.45594000000E+02  0.51100000000E-03 0. -1.
    9900012    2    1    2    0    0  0.13047846498E+02  0.11810504019E+02  0.63987676580E+01  0.72461587344E+02  0.70000022210E+02 0.  0.
         12    1    1    2    0    0 -0.13047846498E+02 -0.11810504019E+02 -0.63987676580E+01  0.18726412656E+02  0.00000000000E+00 0. -1.
         11    1    3    3    0    0  0.16934065360E+02  0.78942478845E+01 -0.13065566785E+02  0.22798920039E+02  0.51100000000E-03 0. -1.
        -11    1    3    3    0    0 -0.19330816779E+02  0.82725877398E+01 -0.38333939822E+01  0.21373139566E+02  0.51100000000E-03 0.  1.
         12    1    3    3    0    0  0.15444597917E+02 -0.43563316050E+01  0.23297728425E+02  0.28289527738E+02  0.00000000000E+00 0. -1.
</event>
<event>
 7    1  0.2944263E-013  0.7246159E+02  0.7816164E-02  0.1226708E+00
        -11   -1    0    0    0    0  0.00000000000E+00  0.00000000000E+00  0.45593999997E+02  0.45594000000E+02  0.51100000000E-03 0.  1.
         11   -1    0    0    0    0 -0.00000000000E+00 -0.00000000000E+00 -0.45593999997E+02  0.45594000000E+02  0.51100000000E-03 0. -1.
    9900012    2    1    2    0    0 -0.46887587913E+01 -0.84392303114E+01  0.16045975042E+02  0.72461591314E+02  0.70000027382E+02 0.  0.
         12    1    1    2    0    0  0.46887587913E+01  0.84392303114E+01 -0.16045975042E+02  0.18726408686E+02  0.00000000000E+00 0. -1.
         11    1    3    3    0    0  0.35177367976E-01  0.74761287627E+01 -0.20700262282E+02  0.22008966298E+02  0.51100000000E-03 0. -1.
        -11    1    3    3    0    0  0.77738213895E+01 -0.39088983913E+01 -0.11545046320E+01  0.87775091475E+01  0.51100000000E-03 0.  1.
        -12    1    3    3    0    0 -0.12497757549E+02 -0.12006460683E+02  0.37900741955E+02  0.41675115868E+02  0.00000000000E+00 0.  1.
</event>
<event>
 7    1  0.2944263E-013  0.7246158E+02  0.7816164E-02  0.1226708E+00
        -11   -1    0    0    0    0  0.00000000000E+00  0.00000000000E+00  0.45593999997E+02  0.45594000000E+02  0.51100000000E-03 0. -1.
         11   -1    0    0    0    0 -0.00000000000E+00 -0.00000000000E+00 -0.45593999997E+02  0.45594000000E+02  0.51100000000E-03 0.  1.
    9900012    2    1    2    0    0 -0.15674675807E+02 -0.11401081118E+01 -0.10182515969E+02  0.72461576433E+02  0.70000007997E+02 0.  0.
         12    1    1    2    0    0  0.15674675807E+02  0.11401081118E+01  0.10182515969E+02  0.18726423567E+02  0.00000000000E+00 0. -1.
         11    1    3    3    0    0  0.58762667965E+01  0.46391256485E+01 -0.13443327872E+02  0.15387496963E+02  0.51100000000E-03 0. -1.
        -11    1    3    3    0    0 -0.28093513133E+02  0.15848652988E+02  0.95130873311E+01  0.33629215163E+02  0.51100000000E-03 0.  1.
         12    1    3    3    0    0  0.65425705298E+01 -0.21627886748E+02 -0.62522754277E+01  0.23444864306E+02  0.00000000000E+00 0. -1.
</event>
<event>
 7    1  0.2944263E-013  0.7246156E+02  0.7816164E-02  0.1226708E+00
        -11   -1    0    0    0    0  0.00000000000E+00  0.00000000000E+00  0.45593999997E+02  0.45594000000E+02  0.51100000000E-03 0. -1.
         11   -1    0    0    0    0 -0.00000000000E+00 -0.00000000000E+00 -0.45593999997E+02  0.45594000000E+02  0.51100000000E-03 0.  1.
    9900012    2    1    2    0    0  0.50521771150E+01 -0.12854276960E+02 -0.12646046021E+02  0.72461563880E+02  0.69999991645E+02 0.  0.
         12    1    1    2    0    0 -0.50521771150E+01  0.12854276960E+02  0.12646046021E+02  0.18726436120E+02  0.00000000000E+00 0. -1.
         11    1    3    3    0    0 -0.98034921811E+01  0.10171164063E+02 -0.52686157757E+01  0.15077113444E+02  0.51100000000E-03 0. -1.
        -11    1    3    3    0    0  0.16874841724E+02  0.76891004776E+01 -0.16976812401E+02  0.25141493769E+02  0.51100000000E-03 0.  1.
         12    1    3    3    0    0 -0.20191724279E+01 -0.30714541501E+02  0.95993821556E+01  0.32242956668E+02  0.00000000000E+00 0. -1.
</event>
<event>
 7    1  0.2944263E-013  0.7246158E+02  0.7816164E-02  0.1226708E+00
        -11   -1    0    0    0    0  0.00000000000E+00  0.00000000000E+00  0.45593999997E+02  0.45594000000E+02  0.51100000000E-03 0.  1.
         11   -1    0    0    0    0 -0.00000000000E+00 -0.00000000000E+00 -0.45593999997E+02  0.45594000000E+02  0.51100000000E-03 0. -1.
    9900012    2    1    2    0    0  0.18124745188E+02 -0.32624567054E+01  0.33954176283E+01  0.72461578218E+02  0.70000010322E+02 0.  0.
         12    1    1    2    0    0 -0.18124745188E+02  0.32624567054E+01 -0.33954176283E+01  0.18726421782E+02  0.00000000000E+00 0. -1.
         11    1    3    3    0    0  0.65447926629E+01 -0.13706077279E+02  0.15848774858E+01  0.15270975813E+02  0.51100000000E-03 0. -1.
        -11    1    3    3    0    0  0.13346122118E+02 -0.16832236836E+02  0.15627034904E+02  0.26564024406E+02  0.51100000000E-03 0.  1.
         12    1    3    3    0    0 -0.17661695930E+01  0.27275857409E+02 -0.13816494761E+02  0.30626577999E+02  0.00000000000E+00 0. -1.
</event>
<event>
 7    1  0.2944263E-013  0.7246160E+02  0.7816164E-02  0.1226708E+00
        -11   -1    0    0    0    0  0.00000000000E+00  0.00000000000E+00  0.45593999997E+02  0.45594000000E+02  0.51100000000E-03 0.  1.
         11   -1    0    0    0    0 -0.00000000000E+00 -0.00000000000E+00 -0.45593999997E+02  0.45594000000E+02  0.51100000000E-03 0. -1.
    9900012    2    1    2    0    0 -0.17659994351E+02 -0.60036788655E+01 -0.16608750752E+01  0.72461599747E+02  0.70000038368E+02 0.  0.
         12    1    1    2    0    0  0.17659994351E+02  0.60036788655E+01  0.16608750752E+01  0.18726400253E+02  0.00000000000E+00 0. -1.
         11    1    3    3    0    0 -0.15195983832E+00 -0.11766784955E+02 -0.13028685998E+02  0.17556394249E+02  0.51100000000E-03 0. -1.
        -11    1    3    3    0    0  0.66882723833E+01  0.23034173963E+02  0.48405036445E+01  0.24469095476E+02  0.51100000000E-03 0.  1.
         12    1    3    3    0    0 -0.24196306896E+02 -0.17271067874E+02  0.65273072779E+01  0.30436110021E+02  0.00000000000E+00 0. -1.
</event>
<event>
 7    1  0.2944263E-013  0.7246156E+02  0.7816164E-02  0.1226708E+00
        -11   -1    0    0    0    0  0.00000000000E+00  0.00000000000E+00  0.45593999997E+02  0.45594000000E+02  0.51100000000E-03 0. -1.
         11   -1    0    0    0    0 -0.00000000000E+00 -0.00000000000E+00 -0.45593999997E+02  0.45594000000E+02  0.51100000000E-03 0.  1.
    9900012    2    1    2    0    0  0.15367183265E+02 -0.10520086044E+02 -0.19639237005E+01  0.72461560718E+02  0.69999987525E+02 0.  0.
         12    1    1    2    0    0 -0.15367183265E+02  0.10520086044E+02  0.19639237005E+01  0.18726439282E+02  0.00000000000E+00 0. -1.
         11    1    3    3    0    0 -0.14775241419E+02  0.15620350998E+02 -0.69597526867E+00  0.21512496511E+02  0.51100000000E-03 0. -1.
        -11    1    3    3    0    0  0.64438218654E+01 -0.14343872033E+02  0.13421918843E+02  0.20674075816E+02  0.51100000000E-03 0.  1.
        -12    1    3    3    0    0  0.23698602818E+02 -0.11796565009E+02 -0.14689867275E+02  0.30274988392E+02  0.00000000000E+00 0.  1.
</event>
<event>
 7    1  0.2944263E-013  0.7246143E+02  0.7816164E-02  0.1226708E+00
        -11   -1    0    0    0    0  0.00000000000E+00  0.00000000000E+00  0.45593999997E+02  0.45594000000E+02  0.51100000000E-03 0.  1.
         11   -1    0    0    0    0 -0.00000000000E+00 -0.00000000000E+00 -0.45593999997E+02  0.45594000000E+02  0.51100000000E-03 0. -1.
    9900012    2    1    2    0    0 -0.67992039377E+01  0.12677294945E+02  0.11989223765E+02  0.72461428830E+02  0.69999815716E+02 0.  0.
         12    1    1    2    0    0  0.67992039377E+01 -0.12677294945E+02 -0.11989223765E+02  0.18726571170E+02  0.00000000000E+00 0. -1.
         11    1    3    3    0    0  0.18704419564E+02 -0.65357484245E+01 -0.40932541215E+01  0.20231807835E+02  0.51100000000E-03 0. -1.
        -11    1    3    3    0    0  0.67723422478E+01  0.66265754731E+01  0.14786882547E+02  0.17562118829E+02  0.51100000000E-03 0.  1.
         12    1    3    3    0    0 -0.32275965750E+02  0.12586467896E+02  0.12955953391E+01  0.34667502166E+02  0.00000000000E+00 0. -1.
</event>
<event>
 7    1  0.2944263E-013  0.7246161E+02  0.7816164E-02  0.1226708E+00
        -11   -1    0    0    0    0  0.00000000000E+00  0.00000000000E+00  0.45593999997E+02  0.45594000000E+02  0.51100000000E-03 0. -1.
         11   -1    0    0    0    0 -0.00000000000E+00 -0.00000000000E+00 -0.45593999997E+02  0.45594000000E+02  0.51100000000E-03 0.  1.
    9900012    2    1    2    0    0 -0.64855906747E+01  0.64357559875E+00 -0.17555646663E+02  0.72461606708E+02  0.70000047436E+02 0.  0.
         12    1    1    2    0    0  0.64855906747E+01 -0.64357559875E+00  0.17555646663E+02  0.18726393292E+02  0.00000000000E+00 0. -1.
         11    1    3    3    0    0  0.41350597077E+01  0.34231325105E+01 -0.22583088671E+01  0.58237886441E+01  0.51100000000E-03 0. -1.
        -11    1    3    3    0    0 -0.12176930779E+02 -0.15035761163E+02 -0.36949583005E+02  0.41708793335E+02  0.51100000000E-03 0.  1.
         12    1    3    3    0    0  0.15562803970E+01  0.12256204251E+02  0.21652245209E+02  0.24929024729E+02  0.00000000000E+00 0. -1.
</event>
<event>
 7    1  0.2944263E-013  0.7246149E+02  0.7816164E-02  0.1226708E+00
        -11   -1    0    0    0    0  0.00000000000E+00  0.00000000000E+00  0.45593999997E+02  0.45594000000E+02  0.51100000000E-03 0.  1.
         11   -1    0    0    0    0 -0.00000000000E+00 -0.00000000000E+00 -0.45593999997E+02  0.45594000000E+02  0.51100000000E-03 0. -1.
    9900012    2    1    2    0    0  0.76716728762E+01 -0.16974789368E+02  0.19193784143E+01  0.72461493323E+02  0.69999899731E+02 0.  0.
         12    1    1    2    0    0 -0.76716728762E+01  0.16974789368E+02 -0.19193784143E+01  0.18726506677E+02  0.00000000000E+00 0. -1.
         11    1    3    3    0    0  0.10379585032E+02  0.13299613413E+02  0.13134123131E+01  0.16921600236E+02  0.51100000000E-03 0. -1.
        -11    1    3    3    0    0  0.17125906888E+02 -0.29794194963E+02 -0.54534466069E+01  0.34795557481E+02  0.51100000000E-03 0.  1.
         12    1    3    3    0    0 -0.19833819044E+02 -0.48020781825E+00  0.60594127081E+01  0.20744335607E+02  0.00000000000E+00 0. -1.
</event>
<event>
 7    1  0.2944263E-013  0.7246158E+02  0.7816164E-02  0.1226708E+00
        -11   -1    0    0    0    0  0.00000000000E+00  0.00000000000E+00  0.45593999997E+02  0.45594000000E+02  0.51100000000E-03 0.  1.
         11   -1    0    0    0    0 -0.00000000000E+00 -0.00000000000E+00 -0.45593999997E+02  0.45594000000E+02  0.51100000000E-03 0. -1.
    9900012    2    1    2    0    0  0.17714856654E+02  0.23103347096E+01  0.56147221853E+01  0.72461577545E+02  0.70000009446E+02 0.  0.
         12    1    1    2    0    0 -0.17714856654E+02 -0.23103347096E+01 -0.56147221853E+01  0.18726422455E+02  0.00000000000E+00 0. -1.
         11    1    3    3    0    0  0.96491406297E+00  0.80925862010E+01  0.20744521853E+01  0.84097778032E+01  0.51100000000E-03 0. -1.
        -11    1    3    3    0    0  0.17648590139E+01  0.15206860879E+02  0.25789621145E+02  0.29991130426E+02  0.51100000000E-03 0.  1.
         12    1    3    3    0    0  0.14985083577E+02 -0.20989112370E+02 -0.22249351145E+02  0.34060669316E+02  0.00000000000E+00 0. -1.
</event>
<event>
 7    1  0.2944263E-013  0.7246173E+02  0.7816164E-02  0.1226708E+00
        -11   -1    0    0    0    0  0.00000000000E+00  0.00000000000E+00  0.45593999997E+02  0.45594000000E+02  0.51100000000E-03 0.  1.
         11   -1    0    0    0    0 -0.00000000000E+00 -0.00000000000E+00 -0.45593999997E+02  0.45594000000E+02  0.51100000000E-03 0. -1.
    9900012    2    1    2    0    0  0.90299961902E+01  0.61152043059E+01  0.15222903653E+02  0.72461725663E+02  0.70000202397E+02 0.  0.
         12    1    1    2    0    0 -0.90299961902E+01 -0.61152043059E+01 -0.15222903653E+02  0.18726274337E+02  0.00000000000E+00 0. -1.
         11    1    3    3    0    0 -0.11668208474E+02  0.75751452581E+01 -0.94551744694E+01  0.16820530288E+02  0.51100000000E-03 0. -1.
        -11    1    3    3    0    0  0.70500075203E+01  0.13654555293E+02  0.30762300815E+02  0.34387041716E+02  0.51100000000E-03 0.  1.
         12    1    3    3    0    0  0.13648197144E+02 -0.15114496245E+02 -0.60842226924E+01  0.21254153659E+02  0.00000000000E+00 0. -1.
</event>
<event>
 7    1  0.2944263E-013  0.7246155E+02  0.7816164E-02  0.1226708E+00
        -11   -1    0    0    0    0  0.00000000000E+00  0.00000000000E+00  0.45593999997E+02  0.45594000000E+02  0.51100000000E-03 0.  1.
         11   -1    0    0    0    0 -0.00000000000E+00 -0.00000000000E+00 -0.45593999997E+02  0.45594000000E+02  0.51100000000E-03 0. -1.
    9900012    2    1    2    0    0  0.15365973694E+02 -0.67219879189E+01  0.83295669340E+01  0.72461549337E+02  0.69999972699E+02 0.  0.
         12    1    1    2    0    0 -0.15365973694E+02  0.67219879189E+01 -0.83295669340E+01  0.18726450663E+02  0.00000000000E+00 0. -1.
         11    1    3    3    0    0  0.34615140425E+01 -0.53787106955E+01  0.22586520741E+01  0.67833706713E+01  0.51100000000E-03 0. -1.
        -11    1    3    3    0    0  0.36914247301E+02  0.24269437510E+01 -0.62932948864E+01  0.37525421658E+02  0.51100000000E-03 0.  1.
         12    1    3    3    0    0 -0.25009787650E+02 -0.37702209744E+01  0.12364209746E+02  0.28152757008E+02  0.00000000000E+00 0. -1.
</event>
<event>
 7    1  0.2944263E-013  0.7246165E+02  0.7816164E-02  0.1226708E+00
        -11   -1    0    0    0    0  0.00000000000E+00  0.00000000000E+00  0.45593999997E+02  0.45594000000E+02  0.51100000000E-03 0.  1.
         11   -1    0    0    0    0 -0.00000000000E+00 -0.00000000000E+00 -0.45593999997E+02  0.45594000000E+02  0.51100000000E-03 0. -1.
    9900012    2    1    2    0    0  0.75131480229E+01 -0.13271550664E+01  0.17101675123E+02  0.72461654232E+02  0.70000109345E+02 0.  0.
         12    1    1    2    0    0 -0.75131480229E+01  0.13271550664E+01 -0.17101675123E+02  0.18726345768E+02  0.00000000000E+00 0. -1.
         11    1    3    3    0    0 -0.95427131995E+01  0.29006520734E+01  0.27461261273E+01  0.10344968179E+02  0.51100000000E-03 0. -1.
        -11    1    3    3    0    0 -0.12226622419E+01  0.21057279764E+01  0.34268217626E+02  0.34354617343E+02  0.51100000000E-03 0.  1.
         12    1    3    3    0    0  0.18278523464E+02 -0.63335351162E+01 -0.19912668630E+02  0.27762068710E+02  0.00000000000E+00 0. -1.
</event>
<event>
 7    1  0.2944263E-013  0.7246156E+02  0.7816164E-02  0.1226708E+00
        -11   -1    0    0    0    0  0.00000000000E+00  0.00000000000E+00  0.45593999997E+02  0.45594000000E+02  0.51100000000E-03 0. -1.
         11   -1    0    0    0    0 -0.00000000000E+00 -0.00000000000E+00 -0.45593999997E+02  0.45594000000E+02  0.51100000000E-03 0.  1.
    9900012    2    1    2    0    0  0.89400791033E+01  0.16257846914E+02  0.25371434508E+01  0.72461556196E+02  0.69999981634E+02 0.  0.
         12    1    1    2    0    0 -0.89400791033E+01 -0.16257846914E+02 -0.25371434508E+01  0.18726443804E+02  0.00000000000E+00 0. -1.
         11    1    3    3    0    0  0.47573372528E+01 -0.11357770087E+02 -0.78000798091E+00  0.12338541721E+02  0.51100000000E-03 0. -1.
        -11    1    3    3    0    0  0.59286477419E+01 -0.46186008601E+01 -0.19296892016E+02  0.20708702994E+02  0.51100000000E-03 0.  1.
         12    1    3    3    0    0 -0.17459058913E+01  0.32234217861E+02  0.22614043447E+02  0.39414311481E+02  0.00000000000E+00 0. -1.
</event>
<event>
 7    1  0.2944263E-013  0.7246156E+02  0.7816164E-02  0.1226708E+00
        -11   -1    0    0    0    0  0.00000000000E+00  0.00000000000E+00  0.45593999997E+02  0.45594000000E+02  0.51100000000E-03 0.  1.
         11   -1    0    0    0    0 -0.00000000000E+00 -0.00000000000E+00 -0.45593999997E+02  0.45594000000E+02  0.51100000000E-03 0. -1.
    9900012    2    1    2    0    0 -0.56116537411E+01  0.89571532285E+01  0.15458279557E+02  0.72461557238E+02  0.69999982992E+02 0.  0.
         12    1    1    2    0    0  0.56116537411E+01 -0.89571532285E+01 -0.15458279557E+02  0.18726442762E+02  0.00000000000E+00 0. -1.
         11    1    3    3    0    0  0.12839429182E+02  0.17041272087E+02 -0.87208615455E+01  0.23050147991E+02  0.51100000000E-03 0. -1.
        -11    1    3    3    0    0  0.11888991974E+02 -0.16886194444E+01  0.80863756840E+01  0.14477190258E+02  0.51100000000E-03 0.  1.
        -12    1    3    3    0    0 -0.30340074898E+02 -0.63954994143E+01  0.16092765418E+02  0.34934218989E+02  0.00000000000E+00 0.  1.
</event>
<event>
 7    1  0.2944263E-013  0.7246158E+02  0.7816164E-02  0.1226708E+00
        -11   -1    0    0    0    0  0.00000000000E+00  0.00000000000E+00  0.45593999997E+02  0.45594000000E+02  0.51100000000E-03 0.  1.
         11   -1    0    0    0    0 -0.00000000000E+00 -0.00000000000E+00 -0.45593999997E+02  0.45594000000E+02  0.51100000000E-03 0. -1.
    9900012    2    1    2    0    0  0.15794900741E+02  0.12766554162E+01 -0.99784883764E+01  0.72461575655E+02  0.70000006983E+02 0.  0.
         12    1    1    2    0    0 -0.15794900741E+02 -0.12766554162E+01  0.99784883764E+01  0.18726424345E+02  0.00000000000E+00 0. -1.
         11    1    3    3    0    0 -0.15405208272E+01  0.48451401321E+00  0.47181130283E+01  0.49868375808E+01  0.51100000000E-03 0. -1.
        -11    1    3    3    0    0 -0.20569159853E+02  0.14330697328E+02 -0.14888396943E+01  0.25113260778E+02  0.51100000000E-03 0.  1.
         12    1    3    3    0    0  0.37904581422E+02 -0.13538555925E+02 -0.13207761710E+02  0.42361477296E+02  0.00000000000E+00 0. -1.
</event>
<event>
 7    1  0.2944263E-013  0.7246142E+02  0.7816164E-02  0.1226708E+00
        -11   -1    0    0    0    0  0.00000000000E+00  0.00000000000E+00  0.45593999997E+02  0.45594000000E+02  0.51100000000E-03 0.  1.
         11   -1    0    0    0    0 -0.00000000000E+00 -0.00000000000E+00 -0.45593999997E+02  0.45594000000E+02  0.51100000000E-03 0. -1.
    9900012    2    1    2    0    0  0.88586978518E+01 -0.22287493138E+01  0.16347505580E+02  0.72461420232E+02  0.69999804516E+02 0.  0.
         12    1    1    2    0    0 -0.88586978518E+01  0.22287493138E+01 -0.16347505580E+02  0.18726579768E+02  0.00000000000E+00 0. -1.
         11    1    3    3    0    0  0.89699951847E+01  0.95334404344E+01  0.17906666119E+02  0.22180982663E+02  0.51100000000E-03 0. -1.
        -11    1    3    3    0    0  0.96583490955E+01 -0.18693865082E+02  0.17769452585E+02  0.27540837758E+02  0.51100000000E-03 0.  1.
         12    1    3    3    0    0 -0.97696464284E+01  0.69316753339E+01 -0.19328613124E+02  0.22739599811E+02  0.00000000000E+00 0. -1.
</event>
<event>
 7    1  0.2944263E-013  0.7246155E+02  0.7816164E-02  0.1226708E+00
        -11   -1    0    0    0    0  0.00000000000E+00  0.00000000000E+00  0.45593999997E+02  0.45594000000E+02  0.51100000000E-03 0. -1.
         11   -1    0    0    0    0 -0.00000000000E+00 -0.00000000000E+00 -0.45593999997E+02  0.45594000000E+02  0.51100000000E-03 0.  1.
    9900012    2    1    2    0    0  0.17585570551E+02  0.62031464435E+01 -0.17171586937E+01  0.72461549419E+02  0.69999972806E+02 0.  0.
         12    1    1    2    0    0 -0.17585570551E+02 -0.62031464435E+01  0.17171586937E+01  0.18726450581E+02  0.00000000000E+00 0. -1.
         11    1    3    3    0    0 -0.14076641889E+01 -0.88643445133E+01  0.33282970068E+01  0.95726528896E+01  0.51100000000E-03 0. -1.
        -11    1    3    3    0    0  0.44246205791E+01  0.12612759744E+02 -0.30588283922E+02  0.33381163688E+02  0.51100000000E-03 0.  1.
         12    1    3    3    0    0  0.14568614161E+02  0.24547312128E+01  0.25542828221E+02  0.29507732841E+02  0.00000000000E+00 0. -1.
</event>
<event>
 7    1  0.2944263E-013  0.7246152E+02  0.7816164E-02  0.1226708E+00
        -11   -1    0    0    0    0  0.00000000000E+00  0.00000000000E+00  0.45593999997E+02  0.45594000000E+02  0.51100000000E-03 0. -1.
         11   -1    0    0    0    0 -0.00000000000E+00 -0.00000000000E+00 -0.45593999997E+02  0.45594000000E+02  0.51100000000E-03 0.  1.
    9900012    2    1    2    0    0  0.35465849229E+01 -0.15696717471E+02  0.95768413036E+01  0.72461518928E+02  0.69999933086E+02 0.  0.
         12    1    1    2    0    0 -0.35465849229E+01  0.15696717471E+02 -0.95768413036E+01  0.18726481072E+02  0.00000000000E+00 0. -1.
         11    1    3    3    0    0  0.15778438920E+02  0.13332080733E+02  0.79537147260E+01  0.22135155062E+02  0.51100000000E-03 0. -1.
        -11    1    3    3    0    0  0.37371077705E+01  0.14425196250E+01 -0.12508893557E+02  0.13134658566E+02  0.51100000000E-03 0.  1.
        -12    1    3    3    0    0 -0.15968961767E+02 -0.30471317828E+02  0.14132020134E+02  0.37191705301E+02  0.00000000000E+00 0.  1.
</event>
<event>
 7    1  0.2944263E-013  0.7246143E+02  0.7816164E-02  0.1226708E+00
        -11   -1    0    0    0    0  0.00000000000E+00  0.00000000000E+00  0.45593999997E+02  0.45594000000E+02  0.51100000000E-03 0.  1.
         11   -1    0    0    0    0 -0.00000000000E+00 -0.00000000000E+00 -0.45593999997E+02  0.45594000000E+02  0.51100000000E-03 0. -1.
    9900012    2    1    2    0    0 -0.13242401962E+01  0.87066811180E+01  0.16526483720E+02  0.72461426039E+02  0.69999812080E+02 0.  0.
         12    1    1    2    0    0  0.13242401962E+01 -0.87066811180E+01 -0.16526483720E+02  0.18726573961E+02  0.00000000000E+00 0. -1.
         11    1    3    3    0    0  0.49955833647E+01 -0.10906209872E+01  0.89363089602E+01  0.10295772209E+02  0.51100000000E-03 0. -1.
        -11    1    3    3    0    0 -0.85831381169E+01  0.81259332730E+01  0.33799097406E+02  0.35806145244E+02  0.51100000000E-03 0.  1.
         12    1    3    3    0    0  0.22633145560E+01  0.16713688322E+01 -0.26208922647E+02  0.26359508585E+02  0.00000000000E+00 0. -1.
</event>
<event>
 7    1  0.2944263E-013  0.7246160E+02  0.7816164E-02  0.1226708E+00
        -11   -1    0    0    0    0  0.00000000000E+00  0.00000000000E+00  0.45593999997E+02  0.45594000000E+02  0.51100000000E-03 0.  1.
         11   -1    0    0    0    0 -0.00000000000E+00 -0.00000000000E+00 -0.45593999997E+02  0.45594000000E+02  0.51100000000E-03 0. -1.
    9900012    2    1    2    0    0  0.86118184864E+00  0.77406446940E+01  0.17029940942E+02  0.72461598772E+02  0.70000037098E+02 0.  0.
         12    1    1    2    0    0 -0.86118184864E+00 -0.77406446940E+01 -0.17029940942E+02  0.18726401228E+02  0.00000000000E+00 0. -1.
         11    1    3    3    0    0  0.91442483558E+01 -0.17234807123E+02  0.16273553612E+01  0.19578154670E+02  0.51100000000E-03 0. -1.
        -11    1    3    3    0    0 -0.14180759646E+02 -0.64781447396E+01  0.13834099458E+02  0.20843286965E+02  0.51100000000E-03 0.  1.
        -12    1    3    3    0    0  0.58976931387E+01  0.31453596556E+02  0.15684861226E+01  0.32040157138E+02  0.00000000000E+00 0.  1.
</event>
<event>
 7    1  0.2944263E-013  0.7246160E+02  0.7816164E-02  0.1226708E+00
        -11   -1    0    0    0    0  0.00000000000E+00  0.00000000000E+00  0.45593999997E+02  0.45594000000E+02  0.51100000000E-03 0. -1.
         11   -1    0    0    0    0 -0.00000000000E+00 -0.00000000000E+00 -0.45593999997E+02  0.45594000000E+02  0.51100000000E-03 0.  1.
    9900012    2    1    2    0    0  0.15140901389E+02 -0.89940532573E+01 -0.63669704620E+01  0.72461596134E+02  0.70000033661E+02 0.  0.
         12    1    1    2    0    0 -0.15140901389E+02  0.89940532573E+01  0.63669704620E+01  0.18726403866E+02  0.00000000000E+00 0. -1.
         11    1    3    3    0    0  0.18407407025E+02 -0.12624486893E+02 -0.44709930584E+01  0.22764008476E+02  0.51100000000E-03 0. -1.
        -11    1    3    3    0    0  0.13693182211E+02 -0.17096590433E+02  0.40212943127E+01  0.22270326709E+02  0.51100000000E-03 0.  1.
        -12    1    3    3    0    0 -0.16959687847E+02  0.20727024069E+02 -0.59172717164E+01  0.27427260949E+02  0.00000000000E+00 0.  1.
</event>
<event>
 7    1  0.2944263E-013  0.7246158E+02  0.7816164E-02  0.1226708E+00
        -11   -1    0    0    0    0  0.00000000000E+00  0.00000000000E+00  0.45593999997E+02  0.45594000000E+02  0.51100000000E-03 0.  1.
         11   -1    0    0    0    0 -0.00000000000E+00 -0.00000000000E+00 -0.45593999997E+02  0.45594000000E+02  0.51100000000E-03 0. -1.
    9900012    2    1    2    0    0  0.15799634644E+02 -0.62813300613E+01  0.78482717922E+01  0.72461576627E+02  0.70000008250E+02 0.  0.
         12    1    1    2    0    0 -0.15799634644E+02  0.62813300613E+01 -0.78482717922E+01  0.18726423373E+02  0.00000000000E+00 0. -1.
         11    1    3    3    0    0  0.88409640584E+00 -0.70480955026E+01  0.10376634236E+02  0.12575047316E+02  0.51100000000E-03 0.  1.
        -11    1    3    3    0    0  0.31004080840E+02 -0.16087554032E+02 -0.82573398531E+01  0.35892145174E+02  0.51100000000E-03 0. -1.
        -12    1    3    3    0    0 -0.16088542602E+02  0.16854319473E+02  0.57289774089E+01  0.23994384137E+02  0.00000000000E+00 0.  1.
</event>
<event>
 7    1  0.2944263E-013  0.7246162E+02  0.7816164E-02  0.1226708E+00
        -11   -1    0    0    0    0  0.00000000000E+00  0.00000000000E+00  0.45593999997E+02  0.45594000000E+02  0.51100000000E-03 0.  1.
         11   -1    0    0    0    0 -0.00000000000E+00 -0.00000000000E+00 -0.45593999997E+02  0.45594000000E+02  0.51100000000E-03 0. -1.
    9900012    2    1    2    0    0  0.10808182667E+02 -0.14901409669E+02 -0.34363260775E+01  0.72461623960E+02  0.70000069909E+02 0.  0.
         12    1    1    2    0    0 -0.10808182667E+02  0.14901409669E+02  0.34363260775E+01  0.18726376040E+02  0.00000000000E+00 0. -1.
         11    1    3    3    0    0  0.84556466779E+01 -0.17828497834E+02 -0.20211164273E+01  0.19835276848E+02  0.51100000000E-03 0. -1.
        -11    1    3    3    0    0 -0.20373645388E+02  0.12403781631E+02  0.95230409755E+01  0.25683215041E+02  0.51100000000E-03 0.  1.
         12    1    3    3    0    0  0.22726181377E+02 -0.94766934660E+01 -0.10938250626E+02  0.26943132071E+02  0.00000000000E+00 0. -1.
</event>
<event>
 7    1  0.2944263E-013  0.7246157E+02  0.7816164E-02  0.1226708E+00
        -11   -1    0    0    0    0  0.00000000000E+00  0.00000000000E+00  0.45593999997E+02  0.45594000000E+02  0.51100000000E-03 0. -1.
         11   -1    0    0    0    0 -0.00000000000E+00 -0.00000000000E+00 -0.45593999997E+02  0.45594000000E+02  0.51100000000E-03 0.  1.
    9900012    2    1    2    0    0 -0.16970447062E+01  0.49787813858E+01 -0.17972501754E+02  0.72461573643E+02  0.70000004362E+02 0.  0.
         12    1    1    2    0    0  0.16970447062E+01 -0.49787813858E+01  0.17972501754E+02  0.18726426357E+02  0.00000000000E+00 0. -1.
         11    1    3    3    0    0  0.63877398383E+01  0.55158237148E+01  0.18125922801E+01  0.86320925928E+01  0.51100000000E-03 0. -1.
        -11    1    3    3    0    0  0.20359219307E+02 -0.50010025775E+01 -0.26964798458E+02  0.34155646586E+02  0.51100000000E-03 0.  1.
        -12    1    3    3    0    0 -0.28444003852E+02  0.44639602485E+01  0.71797044237E+01  0.29673834464E+02  0.00000000000E+00 0.  1.
</event>
<event>
 7    1  0.2944263E-013  0.7246156E+02  0.7816164E-02  0.1226708E+00
        -11   -1    0    0    0    0  0.00000000000E+00  0.00000000000E+00  0.45593999997E+02  0.45594000000E+02  0.51100000000E-03 0.  1.
         11   -1    0    0    0    0 -0.00000000000E+00 -0.00000000000E+00 -0.45593999997E+02  0.45594000000E+02  0.51100000000E-03 0. -1.
    9900012    2    1    2    0    0 -0.13915443820E+02  0.11609786960E+02  0.47173084278E+01  0.72461555362E+02  0.69999980548E+02 0.  0.
         12    1    1    2    0    0  0.13915443820E+02 -0.11609786960E+02 -0.47173084278E+01  0.18726444638E+02  0.00000000000E+00 0. -1.
         11    1    3    3    0    0 -0.18980056886E+00  0.10848796449E+02  0.56168131828E+01  0.12218060371E+02  0.51100000000E-03 0. -1.
        -11    1    3    3    0    0 -0.32456000780E+02  0.18573137764E+01  0.14856455268E+02  0.35742913486E+02  0.51100000000E-03 0.  1.
         12    1    3    3    0    0  0.18730357528E+02 -0.10963232647E+01 -0.15755960023E+02  0.24500581505E+02  0.00000000000E+00 0. -1.
</event>
<event>
 7    1  0.2944263E-013  0.7246157E+02  0.7816164E-02  0.1226708E+00
        -11   -1    0    0    0    0  0.00000000000E+00  0.00000000000E+00  0.45593999997E+02  0.45594000000E+02  0.51100000000E-03 0.  1.
         11   -1    0    0    0    0 -0.00000000000E+00 -0.00000000000E+00 -0.45593999997E+02  0.45594000000E+02  0.51100000000E-03 0. -1.
    9900012    2    1    2    0    0  0.11713713670E+02  0.14143062493E+02 -0.36662973865E+01  0.72461573722E+02  0.70000004466E+02 0.  0.
         12    1    1    2    0    0 -0.11713713670E+02 -0.14143062493E+02  0.36662973865E+01  0.18726426278E+02  0.00000000000E+00 0. -1.
         11    1    3    3    0    0 -0.91149965232E+01 -0.11444109348E+02  0.52109026298E+01  0.15530753583E+02  0.51100000000E-03 0. -1.
        -11    1    3    3    0    0 -0.12815167202E+02  0.70516880052E+01  0.59030675049E+01  0.15773427667E+02  0.51100000000E-03 0.  1.
        -12    1    3    3    0    0  0.33643877395E+02  0.18535483835E+02 -0.14780267521E+02  0.41157392473E+02  0.00000000000E+00 0.  1.
</event>
<event>
 7    1  0.2944263E-013  0.7246162E+02  0.7816164E-02  0.1226708E+00
        -11   -1    0    0    0    0  0.00000000000E+00  0.00000000000E+00  0.45593999997E+02  0.45594000000E+02  0.51100000000E-03 0. -1.
         11   -1    0    0    0    0 -0.00000000000E+00 -0.00000000000E+00 -0.45593999997E+02  0.45594000000E+02  0.51100000000E-03 0.  1.
    9900012    2    1    2    0    0  0.29460891372E+01 -0.14399388262E+02 -0.11604111639E+02  0.72461622068E+02  0.70000067445E+02 0.  0.
         12    1    1    2    0    0 -0.29460891372E+01  0.14399388262E+02  0.11604111639E+02  0.18726377932E+02  0.00000000000E+00 0. -1.
         11    1    3    3    0    0  0.14220910581E+02 -0.24416399444E+02  0.64554551757E+01  0.28983922463E+02  0.51100000000E-03 0. -1.
        -11    1    3    3    0    0  0.73567962590E+01 -0.31689816923E+01 -0.19013725043E+02  0.20632174787E+02  0.51100000000E-03 0.  1.
        -12    1    3    3    0    0 -0.18631617703E+02  0.13185992874E+02  0.95415822883E+00  0.22845524818E+02  0.00000000000E+00 0.  1.
</event>
<event>
 7    1  0.2944263E-013  0.7246154E+02  0.7816164E-02  0.1226708E+00
        -11   -1    0    0    0    0  0.00000000000E+00  0.00000000000E+00  0.45593999997E+02  0.45594000000E+02  0.51100000000E-03 0.  1.
         11   -1    0    0    0    0 -0.00000000000E+00 -0.00000000000E+00 -0.45593999997E+02  0.45594000000E+02  0.51100000000E-03 0. -1.
    9900012    2    1    2    0    0 -0.45949648094E+01 -0.16713448857E+02  0.70871241548E+01  0.72461537358E+02  0.69999957095E+02 0.  0.
         12    1    1    2    0    0  0.45949648094E+01  0.16713448857E+02 -0.70871241548E+01  0.18726462642E+02  0.00000000000E+00 0. -1.
         11    1    3    3    0    0  0.12309803576E+02 -0.22082165453E+02 -0.49162087364E+01  0.25755046181E+02  0.51100000000E-03 0. -1.
        -11    1    3    3    0    0 -0.75110859510E+01 -0.18241235897E+02  0.53627730381E+01  0.20443053444E+02  0.51100000000E-03 0.  1.
        -12    1    3    3    0    0 -0.93936824346E+01  0.23609952493E+02  0.66405598531E+01  0.26263437733E+02  0.00000000000E+00 0.  1.
</event>
<event>
 7    1  0.2944263E-013  0.7246139E+02  0.7816164E-02  0.1226709E+00
        -11   -1    0    0    0    0  0.00000000000E+00  0.00000000000E+00  0.45593999997E+02  0.45594000000E+02  0.51100000000E-03 0.  1.
         11   -1    0    0    0    0 -0.00000000000E+00 -0.00000000000E+00 -0.45593999997E+02  0.45594000000E+02  0.51100000000E-03 0. -1.
    9900012    2    1    2    0    0  0.13314204055E+02  0.39992587015E+01  0.12546869174E+02  0.72461387230E+02  0.69999761524E+02 0.  0.
         12    1    1    2    0    0 -0.13314204055E+02 -0.39992587015E+01 -0.12546869174E+02  0.18726612770E+02  0.00000000000E+00 0. -1.
         11    1    3    3    0    0  0.15606214810E+02  0.15754727297E+02  0.14225566867E+02  0.26346387339E+02  0.51100000000E-03 0. -1.
        -11    1    3    3    0    0 -0.94472955395E+01 -0.13411553464E+02  0.18449838091E+02  0.24688411962E+02  0.51100000000E-03 0.  1.
         12    1    3    3    0    0  0.71552847846E+01  0.16560848687E+01 -0.20128535784E+02  0.21426587929E+02  0.00000000000E+00 0. -1.
</event>
<event>
 7    1  0.2944263E-013  0.7246159E+02  0.7816164E-02  0.1226708E+00
        -11   -1    0    0    0    0  0.00000000000E+00  0.00000000000E+00  0.45593999997E+02  0.45594000000E+02  0.51100000000E-03 0. -1.
         11   -1    0    0    0    0 -0.00000000000E+00 -0.00000000000E+00 -0.45593999997E+02  0.45594000000E+02  0.51100000000E-03 0.  1.
    9900012    2    1    2    0    0  0.51230040678E+01 -0.16785351571E+02 -0.65333974772E+01  0.72461588688E+02  0.70000023961E+02 0.  0.
         12    1    1    2    0    0 -0.51230040678E+01  0.16785351571E+02  0.65333974772E+01  0.18726411312E+02  0.00000000000E+00 0. -1.
         11    1    3    3    0    0 -0.12365338341E+02 -0.51062712414E+01 -0.12252233174E+02  0.18140915531E+02  0.51100000000E-03 0. -1.
        -11    1    3    3    0    0 -0.10896698893E+01 -0.23509910322E+02 -0.11659607131E+02  0.26264990054E+02  0.51100000000E-03 0.  1.
        -12    1    3    3    0    0  0.18578012298E+02  0.11830829992E+02  0.17378442828E+02  0.28055683103E+02  0.00000000000E+00 0.  1.
</event>
<event>
 7    1  0.2944263E-013  0.7246157E+02  0.7816164E-02  0.1226708E+00
        -11   -1    0    0    0    0  0.00000000000E+00  0.00000000000E+00  0.45593999997E+02  0.45594000000E+02  0.51100000000E-03 0. -1.
         11   -1    0    0    0    0 -0.00000000000E+00 -0.00000000000E+00 -0.45593999997E+02  0.45594000000E+02  0.51100000000E-03 0.  1.
    9900012    2    1    2    0    0  0.13577322306E+02 -0.94051435434E+01 -0.88248863002E+01  0.72461574172E+02  0.70000005052E+02 0.  0.
         12    1    1    2    0    0 -0.13577322306E+02  0.94051435434E+01  0.88248863002E+01  0.18726425828E+02  0.00000000000E+00 0. -1.
         11    1    3    3    0    0  0.61784710623E+01 -0.91247206180E+01  0.18687645303E+02  0.21694748633E+02  0.51100000000E-03 0. -1.
        -11    1    3    3    0    0  0.18173006075E+02 -0.12718818128E+02 -0.47593333728E+01  0.22686510062E+02  0.51100000000E-03 0.  1.
        -12    1    3    3    0    0 -0.10774154832E+02  0.12438395203E+02 -0.22753198231E+02  0.28080315477E+02  0.00000000000E+00 0.  1.
</event>
<event>
 7    1  0.2944263E-013  0.7246211E+02  0.7816164E-02  0.1226707E+00
        -11   -1    0    0    0    0  0.00000000000E+00  0.00000000000E+00  0.45593999997E+02  0.45594000000E+02  0.51100000000E-03 0.  1.
         11   -1    0    0    0    0 -0.00000000000E+00 -0.00000000000E+00 -0.45593999997E+02  0.45594000000E+02  0.51100000000E-03 0. -1.
    9900012    2    1    2    0    0  0.24305792461E+01  0.18296588293E+02  0.31600873106E+01  0.72462108554E+02  0.70000701180E+02 0.  0.
         12    1    1    2    0    0 -0.24305792461E+01 -0.18296588293E+02 -0.31600873106E+01  0.18725891446E+02  0.00000000000E+00 0. -1.
         11    1    3    3    0    0  0.18282599507E+02  0.23762758755E+02 -0.12207068389E+02  0.32371819029E+02  0.51100000000E-03 0. -1.
        -11    1    3    3    0    0  0.87622192072E+01  0.48727451512E+01  0.19611864554E+01  0.10215986654E+02  0.51100000000E-03 0.  1.
        -12    1    3    3    0    0 -0.24614239468E+02 -0.10338915613E+02  0.13405969244E+02  0.29874302871E+02  0.00000000000E+00 0.  1.
</event>
<event>
 7    1  0.2944263E-013  0.7246156E+02  0.7816164E-02  0.1226708E+00
        -11   -1    0    0    0    0  0.00000000000E+00  0.00000000000E+00  0.45593999997E+02  0.45594000000E+02  0.51100000000E-03 0.  1.
         11   -1    0    0    0    0 -0.00000000000E+00 -0.00000000000E+00 -0.45593999997E+02  0.45594000000E+02  0.51100000000E-03 0. -1.
    9900012    2    1    2    0    0  0.79394810230E+01  0.14895477189E+02  0.81097955431E+01  0.72461564585E+02  0.69999992563E+02 0.  0.
         12    1    1    2    0    0 -0.79394810230E+01 -0.14895477189E+02 -0.81097955431E+01  0.18726435415E+02  0.00000000000E+00 0. -1.
         11    1    3    3    0    0 -0.95572279060E+01 -0.32685019359E+01 -0.14507684709E+02  0.17677574099E+02  0.51100000000E-03 0. -1.
        -11    1    3    3    0    0 -0.51153171614E+00 -0.27704079389E+01 -0.10956356117E+02  0.11312761134E+02  0.51100000000E-03 0.  1.
        -12    1    3    3    0    0  0.18008240645E+02  0.20934387063E+02  0.33573836369E+02  0.43471229352E+02  0.00000000000E+00 0.  1.
</event>
<event>
 7    1  0.2944263E-013  0.7246159E+02  0.7816164E-02  0.1226708E+00
        -11   -1    0    0    0    0  0.00000000000E+00  0.00000000000E+00  0.45593999997E+02  0.45594000000E+02  0.51100000000E-03 0. -1.
         11   -1    0    0    0    0 -0.00000000000E+00 -0.00000000000E+00 -0.45593999997E+02  0.45594000000E+02  0.51100000000E-03 0.  1.
    9900012    2    1    2    0    0 -0.32543776349E+01 -0.11512222361E+02 -0.14406814982E+02  0.72461586691E+02  0.70000021360E+02 0.  0.
         12    1    1    2    0    0  0.32543776349E+01  0.11512222361E+02  0.14406814982E+02  0.18726413309E+02  0.00000000000E+00 0. -1.
         11    1    3    3    0    0 -0.12431309683E+02  0.21350007714E+01  0.58044976727E+01  0.13884807605E+02  0.51100000000E-03 0.  1.
        -11    1    3    3    0    0  0.64909927981E+01 -0.21876184058E+02  0.11607554786E+02  0.25601479349E+02  0.51100000000E-03 0. -1.
        -12    1    3    3    0    0  0.26859392500E+01  0.82289609264E+01 -0.31818867441E+02  0.32975299738E+02  0.00000000000E+00 0.  1.
</event>
<event>
 7    1  0.2944263E-013  0.7246133E+02  0.7816164E-02  0.1226709E+00
        -11   -1    0    0    0    0  0.00000000000E+00  0.00000000000E+00  0.45593999997E+02  0.45594000000E+02  0.51100000000E-03 0.  1.
         11   -1    0    0    0    0 -0.00000000000E+00 -0.00000000000E+00 -0.45593999997E+02  0.45594000000E+02  0.51100000000E-03 0. -1.
    9900012    2    1    2    0    0 -0.17125824530E+01 -0.56898014023E+01  0.17758983528E+02  0.72461327188E+02  0.69999683308E+02 0.  0.
         12    1    1    2    0    0  0.17125824530E+01  0.56898014023E+01 -0.17758983528E+02  0.18726672812E+02  0.00000000000E+00 0. -1.
         11    1    3    3    0    0  0.96667460665E-01 -0.80717738166E+00  0.89370447729E+01  0.89739428044E+01  0.51100000000E-03 0. -1.
        -11    1    3    3    0    0  0.21746855208E+02  0.12810626267E+01  0.25827314490E+02  0.33787823352E+02  0.51100000000E-03 0.  1.
         12    1    3    3    0    0 -0.23556105121E+02 -0.61636866473E+01 -0.17005375734E+02  0.29699561031E+02  0.00000000000E+00 0. -1.
</event>
<event>
 7    1  0.2944263E-013  0.7246094E+02  0.7816164E-02  0.1226710E+00
        -11   -1    0    0    0    0  0.00000000000E+00  0.00000000000E+00  0.45593999997E+02  0.45594000000E+02  0.51100000000E-03 0.  1.
         11   -1    0    0    0    0 -0.00000000000E+00 -0.00000000000E+00 -0.45593999997E+02  0.45594000000E+02  0.51100000000E-03 0. -1.
    9900012    2    1    2    0    0  0.76247479274E+01 -0.13145579409E+02  0.10943485103E+02  0.72460936558E+02  0.69999174436E+02 0.  0.
         12    1    1    2    0    0 -0.76247479274E+01  0.13145579409E+02 -0.10943485103E+02  0.18727063442E+02  0.00000000000E+00 0. -1.
         11    1    3    3    0    0  0.35285170871E+00  0.22300889977E+01  0.10549564595E+02  0.10788471378E+02  0.51100000000E-03 0. -1.
        -11    1    3    3    0    0  0.14695868221E+02 -0.30748023060E+02  0.16800370583E+02  0.37995551277E+02  0.51100000000E-03 0.  1.
         12    1    3    3    0    0 -0.74239720022E+01  0.15372354653E+02 -0.16406450076E+02  0.23676913903E+02  0.00000000000E+00 0. -1.
</event>
<event>
 7    1  0.2944263E-013  0.7246152E+02  0.7816164E-02  0.1226708E+00
        -11   -1    0    0    0    0  0.00000000000E+00  0.00000000000E+00  0.45593999997E+02  0.45594000000E+02  0.51100000000E-03 0. -1.
         11   -1    0    0    0    0 -0.00000000000E+00 -0.00000000000E+00 -0.45593999997E+02  0.45594000000E+02  0.51100000000E-03 0.  1.
    9900012    2    1    2    0    0 -0.14712973354E+02  0.22539899088E+01 -0.11363489827E+02  0.72461522582E+02  0.69999937846E+02 0.  0.
         12    1    1    2    0    0  0.14712973354E+02 -0.22539899088E+01  0.11363489827E+02  0.18726477418E+02  0.00000000000E+00 0. -1.
         11    1    3    3    0    0 -0.13149994963E+02  0.73764691871E+00  0.10566619385E+02  0.16885494840E+02  0.51100000000E-03 0. -1.
        -11    1    3    3    0    0  0.18177546096E+02  0.17687663579E+02 -0.13293410261E+02  0.28635491642E+02  0.51100000000E-03 0.  1.
         12    1    3    3    0    0 -0.19740524486E+02 -0.16171320589E+02 -0.86366989519E+01  0.26940536100E+02  0.00000000000E+00 0. -1.
</event>
<event>
 7    1  0.2944263E-013  0.7246159E+02  0.7816164E-02  0.1226708E+00
        -11   -1    0    0    0    0  0.00000000000E+00  0.00000000000E+00  0.45593999997E+02  0.45594000000E+02  0.51100000000E-03 0. -1.
         11   -1    0    0    0    0 -0.00000000000E+00 -0.00000000000E+00 -0.45593999997E+02  0.45594000000E+02  0.51100000000E-03 0.  1.
    9900012    2    1    2    0    0 -0.15773496037E+02  0.32736478329E+01 -0.95476970351E+01  0.72461589078E+02  0.70000024469E+02 0.  0.
         12    1    1    2    0    0  0.15773496037E+02 -0.32736478329E+01  0.95476970351E+01  0.18726410922E+02  0.00000000000E+00 0. -1.
         11    1    3    3    0    0 -0.41208313239E+01 -0.36870088178E+01  0.32425554039E+01  0.64101053526E+01  0.51100000000E-03 0. -1.
        -11    1    3    3    0    0  0.84068352588E+01  0.29582646030E+02  0.47172599669E+01  0.31113668493E+02  0.51100000000E-03 0.  1.
         12    1    3    3    0    0 -0.20059499972E+02 -0.22621989379E+02 -0.17507512406E+02  0.34937815233E+02  0.00000000000E+00 0. -1.
</event>
<event>
 7    1  0.2944263E-013  0.7246158E+02  0.7816164E-02  0.1226708E+00
        -11   -1    0    0    0    0  0.00000000000E+00  0.00000000000E+00  0.45593999997E+02  0.45594000000E+02  0.51100000000E-03 0. -1.
         11   -1    0    0    0    0 -0.00000000000E+00 -0.00000000000E+00 -0.45593999997E+02  0.45594000000E+02  0.51100000000E-03 0.  1.
    9900012    2    1    2    0    0 -0.10325865907E+02 -0.14016327001E+02 -0.68991306298E+01  0.72461576615E+02  0.70000008234E+02 0.  0.
         12    1    1    2    0    0  0.10325865907E+02  0.14016327001E+02  0.68991306298E+01  0.18726423385E+02  0.00000000000E+00 0. -1.
         11    1    3    3    0    0  0.17591098624E+02  0.38395854095E+01 -0.81866230567E+01  0.19779028395E+02  0.51100000000E-03 0. -1.
        -11    1    3    3    0    0  0.95602755745E+01 -0.94344163596E+01 -0.37415145187E+01  0.13942955650E+02  0.51100000000E-03 0.  1.
        -12    1    3    3    0    0 -0.37477240106E+02 -0.84214960509E+01  0.50290069456E+01  0.38739592570E+02  0.00000000000E+00 0.  1.
</event>
<event>
 7    1  0.2944263E-013  0.7246159E+02  0.7816164E-02  0.1226708E+00
        -11   -1    0    0    0    0  0.00000000000E+00  0.00000000000E+00  0.45593999997E+02  0.45594000000E+02  0.51100000000E-03 0. -1.
         11   -1    0    0    0    0 -0.00000000000E+00 -0.00000000000E+00 -0.45593999997E+02  0.45594000000E+02  0.51100000000E-03 0.  1.
    9900012    2    1    2    0    0  0.79110250867E+00  0.18567112483E+02 -0.23054242987E+01  0.72461588429E+02  0.70000023624E+02 0.  0.
         12    1    1    2    0    0 -0.79110250867E+00 -0.18567112483E+02  0.23054242987E+01  0.18726411571E+02  0.00000000000E+00 0. -1.
         11    1    3    3    0    0 -0.15988547228E+02 -0.71830253157E+01  0.15181255671E+02  0.23188359561E+02  0.51100000000E-03 0. -1.
        -11    1    3    3    0    0 -0.50407509914E+01  0.45668299138E+01 -0.17592352551E+02  0.18861494495E+02  0.51100000000E-03 0.  1.
        -12    1    3    3    0    0  0.21820400728E+02  0.21183307885E+02  0.10567258212E+00  0.30411734373E+02  0.00000000000E+00 0.  1.
</event>
<event>
 7    1  0.2944263E-013  0.7246160E+02  0.7816164E-02  0.1226708E+00
        -11   -1    0    0    0    0  0.00000000000E+00  0.00000000000E+00  0.45593999997E+02  0.45594000000E+02  0.51100000000E-03 0.  1.
         11   -1    0    0    0    0 -0.00000000000E+00 -0.00000000000E+00 -0.45593999997E+02  0.45594000000E+02  0.51100000000E-03 0. -1.
    9900012    2    1    2    0    0  0.21279391617E+01  0.97076035372E+01  0.15871746415E+02  0.72461600832E+02  0.70000039781E+02 0.  0.
         12    1    1    2    0    0 -0.21279391617E+01 -0.97076035372E+01 -0.15871746415E+02  0.18726399168E+02  0.00000000000E+00 0. -1.
         11    1    3    3    0    0  0.60462030974E+00  0.57305490642E+01  0.84607191611E+01  0.10236626753E+02  0.51100000000E-03 0. -1.
        -11    1    3    3    0    0 -0.10770607623E+02  0.28468675948E+02 -0.70437684572E+01  0.31242377840E+02  0.51100000000E-03 0.  1.
         12    1    3    3    0    0  0.12293926475E+02 -0.24491621475E+02  0.14454795712E+02  0.30982596239E+02  0.00000000000E+00 0. -1.
</event>
<event>
 7    1  0.2944263E-013  0.7246153E+02  0.7816164E-02  0.1226708E+00
        -11   -1    0    0    0    0  0.00000000000E+00  0.00000000000E+00  0.45593999997E+02  0.45594000000E+02  0.51100000000E-03 0. -1.
         11   -1    0    0    0    0 -0.00000000000E+00 -0.00000000000E+00 -0.45593999997E+02  0.45594000000E+02  0.51100000000E-03 0.  1.
    9900012    2    1    2    0    0 -0.15913612451E+02  0.96858921365E+01 -0.19029681890E+01  0.72461525274E+02  0.69999941353E+02 0.  0.
         12    1    1    2    0    0  0.15913612451E+02 -0.96858921365E+01  0.19029681890E+01  0.18726474726E+02  0.00000000000E+00 0. -1.
         11    1    3    3    0    0 -0.26013781692E+02  0.10094219219E+02 -0.92900784752E+01  0.29409448446E+02  0.51100000000E-03 0.  1.
        -11    1    3    3    0    0 -0.15328562888E+02 -0.37502776291E+01  0.73411149314E+01  0.17404637060E+02  0.51100000000E-03 0. -1.
        -12    1    3    3    0    0  0.25428732128E+02  0.33419505464E+01  0.45995354848E-01  0.25647439768E+02  0.00000000000E+00 0.  1.
</event>
<event>
 7    1  0.2944263E-013  0.7246157E+02  0.7816164E-02  0.1226708E+00
        -11   -1    0    0    0    0  0.00000000000E+00  0.00000000000E+00  0.45593999997E+02  0.45594000000E+02  0.51100000000E-03 0.  1.
         11   -1    0    0    0    0 -0.00000000000E+00 -0.00000000000E+00 -0.45593999997E+02  0.45594000000E+02  0.51100000000E-03 0. -1.
    9900012    2    1    2    0    0  0.13370650913E+02 -0.98525849068E+01  0.86505099809E+01  0.72461573269E+02  0.70000003875E+02 0.  0.
         12    1    1    2    0    0 -0.13370650913E+02  0.98525849068E+01 -0.86505099809E+01  0.18726426731E+02  0.00000000000E+00 0. -1.
         11    1    3    3    0    0  0.13459500985E+02 -0.62795504602E+01 -0.44846008956E+01  0.15514592041E+02  0.51100000000E-03 0. -1.
        -11    1    3    3    0    0  0.19893732802E+02 -0.20975917508E+02  0.65234123602E+01  0.29636204702E+02  0.51100000000E-03 0.  1.
         12    1    3    3    0    0 -0.19982582874E+02  0.17402883061E+02  0.66116985163E+01  0.27310776526E+02  0.00000000000E+00 0. -1.
</event>
<event>
 7    1  0.2944263E-013  0.7246153E+02  0.7816164E-02  0.1226708E+00
        -11   -1    0    0    0    0  0.00000000000E+00  0.00000000000E+00  0.45593999997E+02  0.45594000000E+02  0.51100000000E-03 0.  1.
         11   -1    0    0    0    0 -0.00000000000E+00 -0.00000000000E+00 -0.45593999997E+02  0.45594000000E+02  0.51100000000E-03 0. -1.
    9900012    2    1    2    0    0 -0.14848970837E+02 -0.22311982544E+01  0.11189750888E+02  0.72461529284E+02  0.69999946576E+02 0.  0.
         12    1    1    2    0    0  0.14848970837E+02  0.22311982544E+01 -0.11189750888E+02  0.18726470716E+02  0.00000000000E+00 0. -1.
         11    1    3    3    0    0 -0.81222478334E+00  0.10399661220E+02 -0.61884646591E+01  0.12128881139E+02  0.51100000000E-03 0. -1.
        -11    1    3    3    0    0  0.13645733346E+02 -0.95546721545E+01  0.26259942741E+02  0.31097948350E+02  0.51100000000E-03 0.  1.
         12    1    3    3    0    0 -0.27682479399E+02 -0.30761873197E+01 -0.88817271948E+01  0.29234699795E+02  0.00000000000E+00 0. -1.
</event>
<event>
 7    1  0.2944263E-013  0.7246157E+02  0.7816164E-02  0.1226708E+00
        -11   -1    0    0    0    0  0.00000000000E+00  0.00000000000E+00  0.45593999997E+02  0.45594000000E+02  0.51100000000E-03 0. -1.
         11   -1    0    0    0    0 -0.00000000000E+00 -0.00000000000E+00 -0.45593999997E+02  0.45594000000E+02  0.51100000000E-03 0.  1.
    9900012    2    1    2    0    0  0.16939774796E+02 -0.35645843076E+01 -0.71426257652E+01  0.72461565896E+02  0.69999994271E+02 0.  0.
         12    1    1    2    0    0 -0.16939774796E+02  0.35645843076E+01  0.71426257652E+01  0.18726434104E+02  0.00000000000E+00 0. -1.
         11    1    3    3    0    0 -0.16367576383E+02 -0.10357387993E+02  0.17805290435E+02  0.26309720835E+02  0.51100000000E-03 0. -1.
        -11    1    3    3    0    0  0.17250292495E+02 -0.50806120634E+01 -0.69858560125E+01  0.19292158889E+02  0.51100000000E-03 0.  1.
        -12    1    3    3    0    0  0.16057058684E+02  0.11873415749E+02 -0.17962060188E+02  0.26859686173E+02  0.00000000000E+00 0.  1.
</event>
<event>
 7    1  0.2944263E-013  0.7246184E+02  0.7816164E-02  0.1226707E+00
        -11   -1    0    0    0    0  0.00000000000E+00  0.00000000000E+00  0.45593999997E+02  0.45594000000E+02  0.51100000000E-03 0. -1.
         11   -1    0    0    0    0 -0.00000000000E+00 -0.00000000000E+00 -0.45593999997E+02  0.45594000000E+02  0.51100000000E-03 0.  1.
    9900012    2    1    2    0    0  0.95117510171E+01  0.15915235434E+02 -0.26269459235E+01  0.72461842593E+02  0.70000354719E+02 0.  0.
         12    1    1    2    0    0 -0.95117510171E+01 -0.15915235434E+02  0.26269459235E+01  0.18726157407E+02  0.00000000000E+00 0. -1.
         11    1    3    3    0    0  0.80475872883E+01  0.27081885799E+02  0.18819104045E+02  0.33946294009E+02  0.51100000000E-03 0. -1.
        -11    1    3    3    0    0  0.13585923313E+02  0.22878465005E+01 -0.10824095972E+02  0.17520633771E+02  0.51100000000E-03 0.  1.
         12    1    3    3    0    0 -0.12121759584E+02 -0.13454496865E+02 -0.10621953996E+02  0.20994914813E+02  0.00000000000E+00 0. -1.
</event>
<event>
 7    1  0.2944263E-013  0.7246154E+02  0.7816164E-02  0.1226708E+00
        -11   -1    0    0    0    0  0.00000000000E+00  0.00000000000E+00  0.45593999997E+02  0.45594000000E+02  0.51100000000E-03 0. -1.
         11   -1    0    0    0    0 -0.00000000000E+00 -0.00000000000E+00 -0.45593999997E+02  0.45594000000E+02  0.51100000000E-03 0.  1.
    9900012    2    1    2    0    0  0.15510032972E+02 -0.19971625449E+00 -0.10491863622E+02  0.72461542469E+02  0.69999963753E+02 0.  0.
         12    1    1    2    0    0 -0.15510032972E+02  0.19971625449E+00  0.10491863622E+02  0.18726457531E+02  0.00000000000E+00 0. -1.
         11    1    3    3    0    0  0.30752548140E+02  0.84257631999E+01 -0.26072538754E+02  0.41188469017E+02  0.51100000000E-03 0. -1.
        -11    1    3    3    0    0  0.27332795159E+01  0.37070046472E+01  0.23075505843E+00  0.46115017645E+01  0.51100000000E-03 0.  1.
         12    1    3    3    0    0 -0.17975794684E+02 -0.12332484102E+02  0.15349920073E+02  0.26661571688E+02  0.00000000000E+00 0. -1.
</event>
<event>
 7    1  0.2944263E-013  0.7246160E+02  0.7816164E-02  0.1226708E+00
        -11   -1    0    0    0    0  0.00000000000E+00  0.00000000000E+00  0.45593999997E+02  0.45594000000E+02  0.51100000000E-03 0.  1.
         11   -1    0    0    0    0 -0.00000000000E+00 -0.00000000000E+00 -0.45593999997E+02  0.45594000000E+02  0.51100000000E-03 0. -1.
    9900012    2    1    2    0    0  0.13759459783E+02  0.15206802401E+01  0.12611224124E+02  0.72461596826E+02  0.70000034563E+02 0.  0.
         12    1    1    2    0    0 -0.13759459783E+02 -0.15206802401E+01 -0.12611224124E+02  0.18726403174E+02  0.00000000000E+00 0. -1.
         11    1    3    3    0    0  0.91680543989E+01  0.13785228889E+01 -0.33957013704E+00  0.92773301631E+01  0.51100000000E-03 0. -1.
        -11    1    3    3    0    0  0.12870228515E+02 -0.26352184940E+01  0.36114252458E+02  0.38429498948E+02  0.51100000000E-03 0.  1.
         12    1    3    3    0    0 -0.82788231308E+01  0.27773758451E+01 -0.23163458197E+02  0.24754767715E+02  0.00000000000E+00 0. -1.
</event>
<event>
 7    1  0.2944263E-013  0.7246154E+02  0.7816164E-02  0.1226708E+00
        -11   -1    0    0    0    0  0.00000000000E+00  0.00000000000E+00  0.45593999997E+02  0.45594000000E+02  0.51100000000E-03 0.  1.
         11   -1    0    0    0    0 -0.00000000000E+00 -0.00000000000E+00 -0.45593999997E+02  0.45594000000E+02  0.51100000000E-03 0. -1.
    9900012    2    1    2    0    0  0.11689264739E+02 -0.38078035763E+01  0.14125931011E+02  0.72461542643E+02  0.69999963979E+02 0.  0.
         12    1    1    2    0    0 -0.11689264739E+02  0.38078035763E+01 -0.14125931011E+02  0.18726457357E+02  0.00000000000E+00 0. -1.
         11    1    3    3    0    0 -0.44658718235E+01  0.83349210665E+01 -0.10359819711E+02  0.14026431657E+02  0.51100000000E-03 0. -1.
        -11    1    3    3    0    0 -0.15968079119E+02 -0.77345403008E+01 -0.10118583404E+00  0.17742967713E+02  0.51100000000E-03 0.  1.
        -12    1    3    3    0    0  0.32123215681E+02 -0.44081843420E+01  0.24586936557E+02  0.40692143273E+02  0.00000000000E+00 0.  1.
</event>
<event>
 7    1  0.2944263E-013  0.7246163E+02  0.7816164E-02  0.1226708E+00
        -11   -1    0    0    0    0  0.00000000000E+00  0.00000000000E+00  0.45593999997E+02  0.45594000000E+02  0.51100000000E-03 0.  1.
         11   -1    0    0    0    0 -0.00000000000E+00 -0.00000000000E+00 -0.45593999997E+02  0.45594000000E+02  0.51100000000E-03 0. -1.
    9900012    2    1    2    0    0 -0.16923507744E+02  0.47544480468E+01 -0.64550062445E+01  0.72461628322E+02  0.70000075592E+02 0.  0.
         12    1    1    2    0    0  0.16923507744E+02 -0.47544480468E+01  0.64550062445E+01  0.18726371678E+02  0.00000000000E+00 0. -1.
         11    1    3    3    0    0  0.14267563671E+02  0.48645901600E+01 -0.22015239181E+01  0.15233985635E+02  0.51100000000E-03 0.  1.
        -11    1    3    3    0    0 -0.22172198307E+02  0.18080367824E+02  0.12192275698E+02  0.31099158596E+02  0.51100000000E-03 0. -1.
         12    1    3    3    0    0 -0.90188731078E+01 -0.18190509937E+02 -0.16445758024E+02  0.26128484091E+02  0.00000000000E+00 0. -1.
</event>
<event>
 7    1  0.2944263E-013  0.7246160E+02  0.7816164E-02  0.1226708E+00
        -11   -1    0    0    0    0  0.00000000000E+00  0.00000000000E+00  0.45593999997E+02  0.45594000000E+02  0.51100000000E-03 0. -1.
         11   -1    0    0    0    0 -0.00000000000E+00 -0.00000000000E+00 -0.45593999997E+02  0.45594000000E+02  0.51100000000E-03 0.  1.
    9900012    2    1    2    0    0  0.17471774958E+02 -0.11902042284E+01 -0.66331320414E+01  0.72461602936E+02  0.70000042522E+02 0.  0.
         12    1    1    2    0    0 -0.17471774958E+02  0.11902042284E+01  0.66331320414E+01  0.18726397064E+02  0.00000000000E+00 0. -1.
         11    1    3    3    0    0 -0.12611767167E+02 -0.11227980458E+02 -0.14650299963E+02  0.22355212044E+02  0.51100000000E-03 0. -1.
        -11    1    3    3    0    0 -0.79926769961E+01 -0.38317288157E+01  0.39710971358E+00  0.88725829197E+01  0.51100000000E-03 0.  1.
        -12    1    3    3    0    0  0.38076219122E+02  0.13869505046E+02  0.76200582081E+01  0.41233807973E+02  0.00000000000E+00 0.  1.
</event>
<event>
 7    1  0.2944263E-013  0.7246154E+02  0.7816164E-02  0.1226708E+00
        -11   -1    0    0    0    0  0.00000000000E+00  0.00000000000E+00  0.45593999997E+02  0.45594000000E+02  0.51100000000E-03 0. -1.
         11   -1    0    0    0    0 -0.00000000000E+00 -0.00000000000E+00 -0.45593999997E+02  0.45594000000E+02  0.51100000000E-03 0.  1.
    9900012    2    1    2    0    0  0.14773550967E+02  0.86454484932E+01 -0.75946448454E+01  0.72461542296E+02  0.69999963527E+02 0.  0.
         12    1    1    2    0    0 -0.14773550967E+02 -0.86454484932E+01  0.75946448454E+01  0.18726457704E+02  0.00000000000E+00 0. -1.
         11    1    3    3    0    0 -0.61110720039E+01 -0.10679337233E+02  0.70253213486E+01  0.14168577384E+02  0.51100000000E-03 0. -1.
        -11    1    3    3    0    0  0.55415588105E+01  0.14091776694E+02  0.16996171456E+02  0.22763059744E+02  0.51100000000E-03 0.  1.
        -12    1    3    3    0    0  0.15343064160E+02  0.52330090318E+01 -0.31616137650E+02  0.35529905168E+02  0.00000000000E+00 0.  1.
</event>
<event>
 7    1  0.2944263E-013  0.7246136E+02  0.7816164E-02  0.1226709E+00
        -11   -1    0    0    0    0  0.00000000000E+00  0.00000000000E+00  0.45593999997E+02  0.45594000000E+02  0.51100000000E-03 0.  1.
         11   -1    0    0    0    0 -0.00000000000E+00 -0.00000000000E+00 -0.45593999997E+02  0.45594000000E+02  0.51100000000E-03 0. -1.
    9900012    2    1    2    0    0  0.15493055468E+02  0.81781762051E+01 -0.66158746517E+01  0.72461357717E+02  0.69999723078E+02 0.  0.
         12    1    1    2    0    0 -0.15493055468E+02 -0.81781762051E+01  0.66158746517E+01  0.18726642283E+02  0.00000000000E+00 0. -1.
         11    1    3    3    0    0  0.31866076671E+01  0.14777354061E+01 -0.17324227100E+02  0.17676736555E+02  0.51100000000E-03 0. -1.
        -11    1    3    3    0    0 -0.11066989840E+02  0.22801314965E+02  0.51560171110E+01  0.25864314044E+02  0.51100000000E-03 0.  1.
        -12    1    3    3    0    0  0.23373437642E+02 -0.16100874166E+02  0.55523353375E+01  0.28920307118E+02  0.00000000000E+00 0.  1.
</event>
<event>
 7    1  0.2944263E-013  0.7246159E+02  0.7816164E-02  0.1226708E+00
        -11   -1    0    0    0    0  0.00000000000E+00  0.00000000000E+00  0.45593999997E+02  0.45594000000E+02  0.51100000000E-03 0.  1.
         11   -1    0    0    0    0 -0.00000000000E+00 -0.00000000000E+00 -0.45593999997E+02  0.45594000000E+02  0.51100000000E-03 0. -1.
    9900012    2    1    2    0    0  0.15389244236E+02  0.73199622677E+01  0.77632291342E+01  0.72461590511E+02  0.70000026336E+02 0.  0.
         12    1    1    2    0    0 -0.15389244236E+02 -0.73199622677E+01 -0.77632291342E+01  0.18726409489E+02  0.00000000000E+00 0. -1.
         11    1    3    3    0    0  0.49320300825E+01 -0.74115445129E+01  0.65452517231E+01  0.11049716430E+02  0.51100000000E-03 0. -1.
        -11    1    3    3    0    0  0.31009362896E+02 -0.12497333045E+01 -0.10635038665E+02  0.32806195577E+02  0.51100000000E-03 0.  1.
         12    1    3    3    0    0 -0.20552148742E+02  0.15981240085E+02  0.11853016076E+02  0.28605678504E+02  0.00000000000E+00 0. -1.
</event>
<event>
 7    1  0.2944263E-013  0.7246152E+02  0.7816164E-02  0.1226708E+00
        -11   -1    0    0    0    0  0.00000000000E+00  0.00000000000E+00  0.45593999997E+02  0.45594000000E+02  0.51100000000E-03 0. -1.
         11   -1    0    0    0    0 -0.00000000000E+00 -0.00000000000E+00 -0.45593999997E+02  0.45594000000E+02  0.51100000000E-03 0.  1.
    9900012    2    1    2    0    0  0.81649311965E+01  0.69694891552E+00 -0.16838321955E+02  0.72461523409E+02  0.69999938923E+02 0.  0.
         12    1    1    2    0    0 -0.81649311965E+01 -0.69694891552E+00  0.16838321955E+02  0.18726476591E+02  0.00000000000E+00 0. -1.
         11    1    3    3    0    0  0.82476721793E+01 -0.17674978062E+02 -0.28314970181E+01  0.19709041618E+02  0.51100000000E-03 0. -1.
        -11    1    3    3    0    0 -0.19705966860E+02 -0.33594790335E+01  0.66658860369E+00  0.20001389199E+02  0.51100000000E-03 0.  1.
        -12    1    3    3    0    0  0.19623225877E+02  0.21731406011E+02 -0.14673413541E+02  0.32751092592E+02  0.00000000000E+00 0.  1.
</event>
<event>
 7    1  0.2944263E-013  0.7246169E+02  0.7816164E-02  0.1226708E+00
        -11   -1    0    0    0    0  0.00000000000E+00  0.00000000000E+00  0.45593999997E+02  0.45594000000E+02  0.51100000000E-03 0. -1.
         11   -1    0    0    0    0 -0.00000000000E+00 -0.00000000000E+00 -0.45593999997E+02  0.45594000000E+02  0.51100000000E-03 0.  1.
    9900012    2    1    2    0    0 -0.94828907581E+01  0.80926444133E+01 -0.13973492387E+02  0.72461692296E+02  0.70000158929E+02 0.  0.
         12    1    1    2    0    0  0.94828907581E+01 -0.80926444133E+01  0.13973492387E+02  0.18726307704E+02  0.00000000000E+00 0. -1.
         11    1    3    3    0    0 -0.23075378268E+02 -0.91679335554E+01 -0.22322205714E+02  0.33388695034E+02  0.51100000000E-03 0. -1.
        -11    1    3    3    0    0  0.20746365666E+01 -0.66908162039E+00 -0.10438460764E+02  0.10663641520E+02  0.51100000000E-03 0.  1.
         12    1    3    3    0    0  0.11517850944E+02  0.17929659589E+02  0.18787174090E+02  0.28409355741E+02  0.00000000000E+00 0. -1.
</event>
<event>
 7    1  0.2944263E-013  0.7246158E+02  0.7816164E-02  0.1226708E+00
        -11   -1    0    0    0    0  0.00000000000E+00  0.00000000000E+00  0.45593999997E+02  0.45594000000E+02  0.51100000000E-03 0.  1.
         11   -1    0    0    0    0 -0.00000000000E+00 -0.00000000000E+00 -0.45593999997E+02  0.45594000000E+02  0.51100000000E-03 0. -1.
    9900012    2    1    2    0    0 -0.18217015903E+02 -0.42652756348E+01  0.79161827450E+00  0.72461577380E+02  0.70000009231E+02 0.  0.
         12    1    1    2    0    0  0.18217015903E+02  0.42652756348E+01 -0.79161827450E+00  0.18726422620E+02  0.00000000000E+00 0. -1.
         11    1    3    3    0    0 -0.36978617950E+01  0.11320207492E+02 -0.15992106282E+01  0.12015771070E+02  0.51100000000E-03 0. -1.
        -11    1    3    3    0    0 -0.22856759305E+02  0.71769774127E+01  0.19404485881E+02  0.30829766838E+02  0.51100000000E-03 0.  1.
         12    1    3    3    0    0  0.83376051976E+01 -0.22762460540E+02 -0.17013656978E+02  0.29616039472E+02  0.00000000000E+00 0. -1.
</event>
<event>
 7    1  0.2944263E-013  0.7246158E+02  0.7816164E-02  0.1226708E+00
        -11   -1    0    0    0    0  0.00000000000E+00  0.00000000000E+00  0.45593999997E+02  0.45594000000E+02  0.51100000000E-03 0.  1.
         11   -1    0    0    0    0 -0.00000000000E+00 -0.00000000000E+00 -0.45593999997E+02  0.45594000000E+02  0.51100000000E-03 0. -1.
    9900012    2    1    2    0    0 -0.59513180484E+01  0.99935543514E+01 -0.14676159787E+02  0.72461575323E+02  0.70000006551E+02 0.  0.
         12    1    1    2    0    0  0.59513180484E+01 -0.99935543514E+01  0.14676159787E+02  0.18726424677E+02  0.00000000000E+00 0. -1.
         11    1    3    3    0    0 -0.21434008277E+02  0.19583161704E+02 -0.10607515570E+02  0.30910132966E+02  0.51100000000E-03 0. -1.
        -11    1    3    3    0    0  0.65698886865E+01 -0.11024904604E+02 -0.19693388070E+02  0.23506201156E+02  0.51100000000E-03 0.  1.
        -12    1    3    3    0    0  0.89128015424E+01  0.14352972515E+01  0.15624743853E+02  0.18045241201E+02  0.00000000000E+00 0.  1.
</event>
<event>
 7    1  0.2944263E-013  0.7246157E+02  0.7816164E-02  0.1226708E+00
        -11   -1    0    0    0    0  0.00000000000E+00  0.00000000000E+00  0.45593999997E+02  0.45594000000E+02  0.51100000000E-03 0. -1.
         11   -1    0    0    0    0 -0.00000000000E+00 -0.00000000000E+00 -0.45593999997E+02  0.45594000000E+02  0.51100000000E-03 0.  1.
    9900012    2    1    2    0    0  0.15617348635E+02  0.37625825585E+01  0.96239620785E+01  0.72461568092E+02  0.69999997131E+02 0.  0.
         12    1    1    2    0    0 -0.15617348635E+02 -0.37625825585E+01 -0.96239620785E+01  0.18726431908E+02  0.00000000000E+00 0. -1.
         11    1    3    3    0    0  0.22819916045E+02 -0.12736421714E+02 -0.47624331404E+01  0.26563993977E+02  0.51100000000E-03 0. -1.
        -11    1    3    3    0    0 -0.14590960758E+02 -0.84242420547E+01  0.15892791072E+01  0.16923055232E+02  0.51100000000E-03 0.  1.
         12    1    3    3    0    0  0.73883933487E+01  0.24923246327E+02  0.12797116112E+02  0.28974518883E+02  0.00000000000E+00 0. -1.
</event>
<event>
 7    1  0.2944263E-013  0.7246157E+02  0.7816164E-02  0.1226708E+00
        -11   -1    0    0    0    0  0.00000000000E+00  0.00000000000E+00  0.45593999997E+02  0.45594000000E+02  0.51100000000E-03 0. -1.
         11   -1    0    0    0    0 -0.00000000000E+00 -0.00000000000E+00 -0.45593999997E+02  0.45594000000E+02  0.51100000000E-03 0.  1.
    9900012    2    1    2    0    0  0.16834782609E+00  0.14699924888E+02 -0.11600135382E+02  0.72461567516E+02  0.69999996381E+02 0.  0.
         12    1    1    2    0    0 -0.16834782609E+00 -0.14699924888E+02  0.11600135382E+02  0.18726432484E+02  0.00000000000E+00 0. -1.
         11    1    3    3    0    0  0.42013798849E+01  0.23648061237E+01 -0.18566913922E+02  0.19182653461E+02  0.51100000000E-03 0. -1.
        -11    1    3    3    0    0  0.20086679264E+02  0.18476154406E+02 -0.49155114122E+00  0.27296237621E+02  0.51100000000E-03 0.  1.
         12    1    3    3    0    0 -0.24119711323E+02 -0.61410356420E+01  0.74583296813E+01  0.25982676434E+02  0.00000000000E+00 0. -1.
</event>
<event>
 7    1  0.2944263E-013  0.7246161E+02  0.7816164E-02  0.1226708E+00
        -11   -1    0    0    0    0  0.00000000000E+00  0.00000000000E+00  0.45593999997E+02  0.45594000000E+02  0.51100000000E-03 0. -1.
         11   -1    0    0    0    0 -0.00000000000E+00 -0.00000000000E+00 -0.45593999997E+02  0.45594000000E+02  0.51100000000E-03 0.  1.
    9900012    2    1    2    0    0  0.17448619677E+02 -0.29144963435E+00 -0.67925131195E+01  0.72461614711E+02  0.70000057860E+02 0.  0.
         12    1    1    2    0    0 -0.17448619677E+02  0.29144963435E+00  0.67925131195E+01  0.18726385289E+02  0.00000000000E+00 0. -1.
         11    1    3    3    0    0 -0.98200264313E+01  0.27688143378E+01 -0.19184879460E+02  0.21729216555E+02  0.51100000000E-03 0.  1.
        -11    1    3    3    0    0  0.39544671352E+01 -0.18801272323E+02  0.11896138687E+02  0.22597428332E+02  0.51100000000E-03 0. -1.
        -12    1    3    3    0    0  0.23314178973E+02  0.15741008351E+02  0.49622765354E+00  0.28134969824E+02  0.00000000000E+00 0.  1.
</event>
<event>
 7    1  0.2944263E-013  0.7246153E+02  0.7816164E-02  0.1226708E+00
        -11   -1    0    0    0    0  0.00000000000E+00  0.00000000000E+00  0.45593999997E+02  0.45594000000E+02  0.51100000000E-03 0. -1.
         11   -1    0    0    0    0 -0.00000000000E+00 -0.00000000000E+00 -0.45593999997E+02  0.45594000000E+02  0.51100000000E-03 0.  1.
    9900012    2    1    2    0    0  0.66656620485E+01  0.17192324390E+02 -0.32670443142E+01  0.72461530845E+02  0.69999948610E+02 0.  0.
         12    1    1    2    0    0 -0.66656620485E+01 -0.17192324390E+02  0.32670443142E+01  0.18726469155E+02  0.00000000000E+00 0. -1.
         11    1    3    3    0    0 -0.16547907601E+02 -0.10307926919E+02  0.69769923133E+01  0.20706642058E+02  0.51100000000E-03 0. -1.
        -11    1    3    3    0    0  0.28900361351E+01 -0.69042901598E+01 -0.90957983256E+01  0.11779434575E+02  0.51100000000E-03 0.  1.
        -12    1    3    3    0    0  0.20323533514E+02  0.34404541469E+02 -0.11482383019E+01  0.39975454211E+02  0.00000000000E+00 0.  1.
</event>
<event>
 7    1  0.2944263E-013  0.7246156E+02  0.7816164E-02  0.1226708E+00
        -11   -1    0    0    0    0  0.00000000000E+00  0.00000000000E+00  0.45593999997E+02  0.45594000000E+02  0.51100000000E-03 0. -1.
         11   -1    0    0    0    0 -0.00000000000E+00 -0.00000000000E+00 -0.45593999997E+02  0.45594000000E+02  0.51100000000E-03 0.  1.
    9900012    2    1    2    0    0 -0.73932006691E+01 -0.49803321152E+01 -0.16468647964E+02  0.72461561741E+02  0.69999988857E+02 0.  0.
         12    1    1    2    0    0  0.73932006691E+01  0.49803321152E+01  0.16468647964E+02  0.18726438259E+02  0.00000000000E+00 0. -1.
         11    1    3    3    0    0  0.62848060284E+01 -0.74332371690E+01 -0.49164370917E+01  0.10905189387E+02  0.51100000000E-03 0. -1.
        -11    1    3    3    0    0  0.16631195480E+02 -0.14348545407E+02 -0.15197978375E+02  0.26710596499E+02  0.51100000000E-03 0.  1.
         12    1    3    3    0    0 -0.30309202178E+02  0.16801450461E+02  0.36457675022E+01  0.34845775855E+02  0.00000000000E+00 0. -1.
</event>
<event>
 7    1  0.2944263E-013  0.7246150E+02  0.7816164E-02  0.1226708E+00
        -11   -1    0    0    0    0  0.00000000000E+00  0.00000000000E+00  0.45593999997E+02  0.45594000000E+02  0.51100000000E-03 0. -1.
         11   -1    0    0    0    0 -0.00000000000E+00 -0.00000000000E+00 -0.45593999997E+02  0.45594000000E+02  0.51100000000E-03 0.  1.
    9900012    2    1    2    0    0  0.87111368862E+01  0.16194084315E+02  0.35425076490E+01  0.72461504517E+02  0.69999914312E+02 0.  0.
         12    1    1    2    0    0 -0.87111368862E+01 -0.16194084315E+02 -0.35425076490E+01  0.18726495483E+02  0.00000000000E+00 0. -1.
         11    1    3    3    0    0 -0.15875957156E+02  0.14514048618E+02 -0.53108956321E+01  0.22156471641E+02  0.51100000000E-03 0. -1.
        -11    1    3    3    0    0  0.11657611035E+02  0.39969203572E+00 -0.17437333759E+02  0.20979043296E+02  0.51100000000E-03 0.  1.
        -12    1    3    3    0    0  0.12929483007E+02  0.12803436610E+01  0.26290737040E+02  0.29325989579E+02  0.00000000000E+00 0.  1.
</event>
<event>
 7    1  0.2944263E-013  0.7246168E+02  0.7816164E-02  0.1226708E+00
        -11   -1    0    0    0    0  0.00000000000E+00  0.00000000000E+00  0.45593999997E+02  0.45594000000E+02  0.51100000000E-03 0.  1.
         11   -1    0    0    0    0 -0.00000000000E+00 -0.00000000000E+00 -0.45593999997E+02  0.45594000000E+02  0.51100000000E-03 0. -1.
    9900012    2    1    2    0    0  0.10620286374E+01 -0.15504526383E+02  0.10447816496E+02  0.72461678612E+02  0.70000141104E+02 0.  0.
         12    1    1    2    0    0 -0.10620286374E+01  0.15504526383E+02 -0.10447816496E+02  0.18726321388E+02  0.00000000000E+00 0. -1.
         11    1    3    3    0    0 -0.73232792448E+01 -0.20514959497E+02 -0.28174198107E+01  0.21964331010E+02  0.51100000000E-03 0. -1.
        -11    1    3    3    0    0 -0.47098380793E+01 -0.18564494778E+02  0.13663102053E+02  0.23526652950E+02  0.51100000000E-03 0.  1.
         12    1    3    3    0    0  0.13095145961E+02  0.23574927892E+02 -0.39786574579E+00  0.26970694652E+02  0.00000000000E+00 0. -1.
</event>
<event>
 7    1  0.2944263E-013  0.7246166E+02  0.7816164E-02  0.1226708E+00
        -11   -1    0    0    0    0  0.00000000000E+00  0.00000000000E+00  0.45593999997E+02  0.45594000000E+02  0.51100000000E-03 0. -1.
         11   -1    0    0    0    0 -0.00000000000E+00 -0.00000000000E+00 -0.45593999997E+02  0.45594000000E+02  0.51100000000E-03 0.  1.
    9900012    2    1    2    0    0 -0.15388796932E+02 -0.38890857021E+01 -0.99365926580E+01  0.72461656730E+02  0.70000112598E+02 0.  0.
         12    1    1    2    0    0  0.15388796932E+02  0.38890857021E+01  0.99365926580E+01  0.18726343270E+02  0.00000000000E+00 0. -1.
         11    1    3    3    0    0  0.10079788925E+02 -0.10801094949E+02  0.36065401664E+01  0.15207660211E+02  0.51100000000E-03 0. -1.
        -11    1    3    3    0    0 -0.97089542327E+01  0.11312908355E+02 -0.30339978843E+02  0.33804733459E+02  0.51100000000E-03 0.  1.
         12    1    3    3    0    0 -0.15759631624E+02 -0.44008991075E+01  0.16796846019E+02  0.23449263060E+02  0.00000000000E+00 0. -1.
</event>
<event>
 7    1  0.2944263E-013  0.7246156E+02  0.7816164E-02  0.1226708E+00
        -11   -1    0    0    0    0  0.00000000000E+00  0.00000000000E+00  0.45593999997E+02  0.45594000000E+02  0.51100000000E-03 0. -1.
         11   -1    0    0    0    0 -0.00000000000E+00 -0.00000000000E+00 -0.45593999997E+02  0.45594000000E+02  0.51100000000E-03 0.  1.
    9900012    2    1    2    0    0 -0.60591665802E+01 -0.17668600556E+02 -0.13365761849E+01  0.72461564644E+02  0.69999992639E+02 0.  0.
         12    1    1    2    0    0  0.60591665802E+01  0.17668600556E+02  0.13365761849E+01  0.18726435356E+02  0.00000000000E+00 0. -1.
         11    1    3    3    0    0  0.41227616034E+01  0.89419304153E+01 -0.37205575482E+01  0.10526054889E+02  0.51100000000E-03 0. -1.
        -11    1    3    3    0    0 -0.20219708634E+02 -0.24946807571E+02 -0.19663057200E+02  0.37653892813E+02  0.51100000000E-03 0.  1.
         12    1    3    3    0    0  0.10037780451E+02 -0.16637234003E+01  0.22047038563E+02  0.24281616942E+02  0.00000000000E+00 0. -1.
</event>
<event>
 7    1  0.2944263E-013  0.7246157E+02  0.7816164E-02  0.1226708E+00
        -11   -1    0    0    0    0  0.00000000000E+00  0.00000000000E+00  0.45593999997E+02  0.45594000000E+02  0.51100000000E-03 0.  1.
         11   -1    0    0    0    0 -0.00000000000E+00 -0.00000000000E+00 -0.45593999997E+02  0.45594000000E+02  0.51100000000E-03 0. -1.
    9900012    2    1    2    0    0 -0.12095200081E+02 -0.10185471992E+02  0.10032021574E+02  0.72461570507E+02  0.70000000277E+02 0.  0.
         12    1    1    2    0    0  0.12095200081E+02  0.10185471992E+02 -0.10032021574E+02  0.18726429493E+02  0.00000000000E+00 0. -1.
         11    1    3    3    0    0  0.47795040761E+01  0.88054686278E+01 -0.96874520175E+01  0.13936522659E+02  0.51100000000E-03 0. -1.
        -11    1    3    3    0    0 -0.55270021594E+01  0.16594445251E+02  0.89778889721E+01  0.19660260851E+02  0.51100000000E-03 0.  1.
        -12    1    3    3    0    0 -0.11347701998E+02 -0.35585385871E+02  0.10741584619E+02  0.38864786997E+02  0.00000000000E+00 0.  1.
</event>
<event>
 7    1  0.2944263E-013  0.7246156E+02  0.7816164E-02  0.1226708E+00
        -11   -1    0    0    0    0  0.00000000000E+00  0.00000000000E+00  0.45593999997E+02  0.45594000000E+02  0.51100000000E-03 0.  1.
         11   -1    0    0    0    0 -0.00000000000E+00 -0.00000000000E+00 -0.45593999997E+02  0.45594000000E+02  0.51100000000E-03 0. -1.
    9900012    2    1    2    0    0  0.84223647301E-01  0.64366322056E+01  0.17585283259E+02  0.72461561068E+02  0.69999987981E+02 0.  0.
         12    1    1    2    0    0 -0.84223647301E-01 -0.64366322056E+01 -0.17585283259E+02  0.18726438932E+02  0.00000000000E+00 0. -1.
         11    1    3    3    0    0 -0.53923523845E+01 -0.21732266191E+02 -0.92759482945E+01  0.24236585466E+02  0.51100000000E-03 0. -1.
        -11    1    3    3    0    0  0.35686126934E+01 -0.51978276879E+01  0.66686438511E+01  0.91773209763E+01  0.51100000000E-03 0.  1.
        -12    1    3    3    0    0  0.19079633384E+01  0.33366726084E+02  0.20192587702E+02  0.39047654626E+02  0.00000000000E+00 0.  1.
</event>
<event>
 7    1  0.2944263E-013  0.7246159E+02  0.7816164E-02  0.1226708E+00
        -11   -1    0    0    0    0  0.00000000000E+00  0.00000000000E+00  0.45593999997E+02  0.45594000000E+02  0.51100000000E-03 0.  1.
         11   -1    0    0    0    0 -0.00000000000E+00 -0.00000000000E+00 -0.45593999997E+02  0.45594000000E+02  0.51100000000E-03 0. -1.
    9900012    2    1    2    0    0 -0.93593788788E+01  0.11270347687E+02  0.11664465610E+02  0.72461589027E+02  0.70000024403E+02 0.  0.
         12    1    1    2    0    0  0.93593788788E+01 -0.11270347687E+02 -0.11664465610E+02  0.18726410973E+02  0.00000000000E+00 0. -1.
         11    1    3    3    0    0 -0.19948099058E+02  0.30379336299E+01 -0.16236567758E+02  0.25899456164E+02  0.51100000000E-03 0. -1.
        -11    1    3    3    0    0 -0.10471401681E+02  0.39369595443E+01 -0.19343407625E+00  0.11188713984E+02  0.51100000000E-03 0.  1.
        -12    1    3    3    0    0  0.21060121860E+02  0.42954545126E+01  0.28094467444E+02  0.35373418879E+02  0.00000000000E+00 0.  1.
</event>
<event>
 7    1  0.2944263E-013  0.7246155E+02  0.7816164E-02  0.1226708E+00
        -11   -1    0    0    0    0  0.00000000000E+00  0.00000000000E+00  0.45593999997E+02  0.45594000000E+02  0.51100000000E-03 0. -1.
         11   -1    0    0    0    0 -0.00000000000E+00 -0.00000000000E+00 -0.45593999997E+02  0.45594000000E+02  0.51100000000E-03 0.  1.
    9900012    2    1    2    0    0 -0.12484592286E+02 -0.13954100908E+02 -0.31324875386E+00  0.72461545410E+02  0.69999967584E+02 0.  0.
         12    1    1    2    0    0  0.12484592286E+02  0.13954100908E+02  0.31324875386E+00  0.18726454590E+02  0.00000000000E+00 0. -1.
         11    1    3    3    0    0 -0.70314067780E+01  0.94277150119E+01 -0.11420846253E+02  0.16393847048E+02  0.51100000000E-03 0. -1.
        -11    1    3    3    0    0 -0.25853029643E+01 -0.93521787709E+01 -0.19774715499E+02  0.22026947417E+02  0.51100000000E-03 0.  1.
        -12    1    3    3    0    0 -0.28678825441E+01 -0.14029637149E+02  0.30882312998E+02  0.34040750946E+02  0.00000000000E+00 0.  1.
</event>
<event>
 7    1  0.2944263E-013  0.7246203E+02  0.7816164E-02  0.1226707E+00
        -11   -1    0    0    0    0  0.00000000000E+00  0.00000000000E+00  0.45593999997E+02  0.45594000000E+02  0.51100000000E-03 0. -1.
         11   -1    0    0    0    0 -0.00000000000E+00 -0.00000000000E+00 -0.45593999997E+02  0.45594000000E+02  0.51100000000E-03 0.  1.
    9900012    2    1    2    0    0  0.17273513886E+02 -0.13329610552E+01 -0.71071108092E+01  0.72462026295E+02  0.70000594023E+02 0.  0.
         12    1    1    2    0    0 -0.17273513886E+02  0.13329610552E+01  0.71071108092E+01  0.18725973705E+02  0.00000000000E+00 0. -1.
         11    1    3    3    0    0  0.21538246786E+02 -0.55126551698E+01 -0.22879308516E+02  0.31902166072E+02  0.51100000000E-03 0. -1.
        -11    1    3    3    0    0  0.10780369314E+02  0.85147496490E+01 -0.49373025883E+01  0.14597749184E+02  0.51100000000E-03 0.  1.
         12    1    3    3    0    0 -0.15045102215E+02 -0.43350555345E+01  0.20709500295E+02  0.25962111039E+02  0.00000000000E+00 0. -1.
</event>
<event>
 7    1  0.2944263E-013  0.7246177E+02  0.7816164E-02  0.1226707E+00
        -11   -1    0    0    0    0  0.00000000000E+00  0.00000000000E+00  0.45593999997E+02  0.45594000000E+02  0.51100000000E-03 0. -1.
         11   -1    0    0    0    0 -0.00000000000E+00 -0.00000000000E+00 -0.45593999997E+02  0.45594000000E+02  0.51100000000E-03 0.  1.
    9900012    2    1    2    0    0  0.31518827355E+01 -0.10873901981E+02 -0.14916285238E+02  0.72461770417E+02  0.70000260697E+02 0.  0.
         12    1    1    2    0    0 -0.31518827355E+01  0.10873901981E+02  0.14916285238E+02  0.18726229583E+02  0.00000000000E+00 0. -1.
         11    1    3    3    0    0  0.45075024218E+01  0.15974767121E+02 -0.89454345812E+01  0.18855544616E+02  0.51100000000E-03 0. -1.
        -11    1    3    3    0    0 -0.10479545606E+02 -0.12364518758E+02 -0.23861142314E+02  0.28845386338E+02  0.51100000000E-03 0.  1.
         12    1    3    3    0    0  0.91239259193E+01 -0.14484150344E+02  0.17890291657E+02  0.24760839463E+02  0.00000000000E+00 0. -1.
</event>
<event>
 7    1  0.2944263E-013  0.7246167E+02  0.7816164E-02  0.1226708E+00
        -11   -1    0    0    0    0  0.00000000000E+00  0.00000000000E+00  0.45593999997E+02  0.45594000000E+02  0.51100000000E-03 0.  1.
         11   -1    0    0    0    0 -0.00000000000E+00 -0.00000000000E+00 -0.45593999997E+02  0.45594000000E+02  0.51100000000E-03 0. -1.
    9900012    2    1    2    0    0 -0.35369012514E+01  0.10764663513E+02  0.14909316968E+02  0.72461671383E+02  0.70000131686E+02 0.  0.
         12    1    1    2    0    0  0.35369012514E+01 -0.10764663513E+02 -0.14909316968E+02  0.18726328617E+02  0.00000000000E+00 0. -1.
         11    1    3    3    0    0 -0.11208486397E+01  0.10347226532E+02  0.32727700433E+01  0.10910198101E+02  0.51100000000E-03 0. -1.
        -11    1    3    3    0    0 -0.23144841066E+02  0.38222366110E+01  0.26820448925E+02  0.35631862728E+02  0.51100000000E-03 0.  1.
        -12    1    3    3    0    0  0.20728788454E+02 -0.34047996303E+01 -0.15183902000E+02  0.25919610554E+02  0.00000000000E+00 0.  1.
</event>
<event>
 7    1  0.2944263E-013  0.7246153E+02  0.7816164E-02  0.1226708E+00
        -11   -1    0    0    0    0  0.00000000000E+00  0.00000000000E+00  0.45593999997E+02  0.45594000000E+02  0.51100000000E-03 0. -1.
         11   -1    0    0    0    0 -0.00000000000E+00 -0.00000000000E+00 -0.45593999997E+02  0.45594000000E+02  0.51100000000E-03 0.  1.
    9900012    2    1    2    0    0 -0.37498389091E+01  0.18344585561E+02 -0.30909677302E+00  0.72461530710E+02  0.69999948434E+02 0.  0.
         12    1    1    2    0    0  0.37498389091E+01 -0.18344585561E+02  0.30909677302E+00  0.18726469290E+02  0.00000000000E+00 0. -1.
         11    1    3    3    0    0  0.78432807700E+01  0.20092954818E+02  0.24784774427E+02  0.32856185570E+02  0.51100000000E-03 0. -1.
        -11    1    3    3    0    0  0.78155590127E+01  0.25612181894E+01 -0.87447491957E+00  0.82708831416E+01  0.51100000000E-03 0.  1.
        -12    1    3    3    0    0 -0.19408678692E+02 -0.43095874467E+01 -0.24219396281E+02  0.31334461998E+02  0.00000000000E+00 0.  1.
</event>
<event>
 7    1  0.2944263E-013  0.7246149E+02  0.7816164E-02  0.1226708E+00
        -11   -1    0    0    0    0  0.00000000000E+00  0.00000000000E+00  0.45593999997E+02  0.45594000000E+02  0.51100000000E-03 0.  1.
         11   -1    0    0    0    0 -0.00000000000E+00 -0.00000000000E+00 -0.45593999997E+02  0.45594000000E+02  0.51100000000E-03 0. -1.
    9900012    2    1    2    0    0 -0.15228222120E+02  0.99691236913E+01  0.44045616395E+01  0.72461485659E+02  0.69999889747E+02 0.  0.
         12    1    1    2    0    0  0.15228222120E+02 -0.99691236913E+01 -0.44045616395E+01  0.18726514341E+02  0.00000000000E+00 0. -1.
         11    1    3    3    0    0 -0.43885374352E+01 -0.17192212134E+02 -0.10220177465E+02  0.20476411955E+02  0.51100000000E-03 0. -1.
        -11    1    3    3    0    0  0.48288618709E+01 -0.65564728406E+01 -0.53847090654E+01  0.97621890505E+01  0.51100000000E-03 0.  1.
        -12    1    3    3    0    0 -0.15668546556E+02  0.33717808666E+02  0.20009448170E+02  0.42222884654E+02  0.00000000000E+00 0.  1.
</event>
<event>
 7    1  0.2944263E-013  0.7246150E+02  0.7816164E-02  0.1226708E+00
        -11   -1    0    0    0    0  0.00000000000E+00  0.00000000000E+00  0.45593999997E+02  0.45594000000E+02  0.51100000000E-03 0.  1.
         11   -1    0    0    0    0 -0.00000000000E+00 -0.00000000000E+00 -0.45593999997E+02  0.45594000000E+02  0.51100000000E-03 0. -1.
    9900012    2    1    2    0    0  0.18685776389E+02  0.10847211819E+01 -0.58898703318E+00  0.72461500994E+02  0.69999909723E+02 0.  0.
         12    1    1    2    0    0 -0.18685776389E+02 -0.10847211819E+01  0.58898703318E+00  0.18726499006E+02  0.00000000000E+00 0. -1.
         11    1    3    3    0    0  0.88905194514E+01  0.20527597129E+02 -0.44386646576E+01  0.22806256252E+02  0.51100000000E-03 0. -1.
        -11    1    3    3    0    0  0.17445826852E+02  0.49183667343E+01  0.13242691398E+02  0.22448075232E+02  0.51100000000E-03 0.  1.
        -12    1    3    3    0    0 -0.76505699147E+01 -0.24361242682E+02 -0.93930137734E+01  0.27207169510E+02  0.00000000000E+00 0.  1.
</event>
<event>
 7    1  0.2944263E-013  0.7246148E+02  0.7816164E-02  0.1226708E+00
        -11   -1    0    0    0    0  0.00000000000E+00  0.00000000000E+00  0.45593999997E+02  0.45594000000E+02  0.51100000000E-03 0. -1.
         11   -1    0    0    0    0 -0.00000000000E+00 -0.00000000000E+00 -0.45593999997E+02  0.45594000000E+02  0.51100000000E-03 0.  1.
    9900012    2    1    2    0    0  0.13987899346E+02 -0.92326112789E+01 -0.83534445250E+01  0.72461482049E+02  0.69999885044E+02 0.  0.
         12    1    1    2    0    0 -0.13987899346E+02  0.92326112789E+01  0.83534445250E+01  0.18726517951E+02  0.00000000000E+00 0. -1.
         11    1    3    3    0    0 -0.70762629089E+01 -0.94727968972E+01 -0.75861903353E+01  0.14048404247E+02  0.51100000000E-03 0. -1.
        -11    1    3    3    0    0 -0.14010913940E+02 -0.18020802327E+01 -0.14909721502E+02  0.20539060303E+02  0.51100000000E-03 0.  1.
         12    1    3    3    0    0  0.35075076195E+02  0.20422658510E+01  0.14142467313E+02  0.37874017499E+02  0.00000000000E+00 0. -1.
</event>
<event>
 7    1  0.2944263E-013  0.7246167E+02  0.7816164E-02  0.1226708E+00
        -11   -1    0    0    0    0  0.00000000000E+00  0.00000000000E+00  0.45593999997E+02  0.45594000000E+02  0.51100000000E-03 0.  1.
         11   -1    0    0    0    0 -0.00000000000E+00 -0.00000000000E+00 -0.45593999997E+02  0.45594000000E+02  0.51100000000E-03 0. -1.
    9900012    2    1    2    0    0  0.84618329098E+01 -0.12525560017E+02  0.11053644143E+02  0.72461673111E+02  0.70000133938E+02 0.  0.
         12    1    1    2    0    0 -0.84618329098E+01  0.12525560017E+02 -0.11053644143E+02  0.18726326889E+02  0.00000000000E+00 0. -1.
         11    1    3    3    0    0  0.26567983910E+01  0.16907014777E+02  0.24583437726E+02  0.29954150581E+02  0.51100000000E-03 0. -1.
        -11    1    3    3    0    0 -0.61140058899E+01 -0.11244084888E+02  0.51928642906E+01  0.13812181319E+02  0.51100000000E-03 0.  1.
         12    1    3    3    0    0  0.11919040409E+02 -0.18188489905E+02 -0.18722657874E+02  0.28695341210E+02  0.00000000000E+00 0. -1.
</event>
<event>
 7    1  0.2944263E-013  0.7246171E+02  0.7816164E-02  0.1226708E+00
        -11   -1    0    0    0    0  0.00000000000E+00  0.00000000000E+00  0.45593999997E+02  0.45594000000E+02  0.51100000000E-03 0.  1.
         11   -1    0    0    0    0 -0.00000000000E+00 -0.00000000000E+00 -0.45593999997E+02  0.45594000000E+02  0.51100000000E-03 0. -1.
    9900012    2    1    2    0    0  0.12054886813E+02  0.77352272186E+01  0.12063159538E+02  0.72461712214E+02  0.70000184877E+02 0.  0.
         12    1    1    2    0    0 -0.12054886813E+02 -0.77352272186E+01 -0.12063159538E+02  0.18726287786E+02  0.00000000000E+00 0. -1.
         11    1    3    3    0    0  0.16535462342E+02  0.14809426279E+01 -0.14426566468E+02  0.21994102078E+02  0.51100000000E-03 0. -1.
        -11    1    3    3    0    0 -0.20804124328E+02  0.35750498485E+01  0.23998557326E+01  0.21245043617E+02  0.51100000000E-03 0.  1.
        -12    1    3    3    0    0  0.16323548799E+02  0.26792347422E+01  0.24089870273E+02  0.29222566519E+02  0.00000000000E+00 0.  1.
</event>
<event>
 7    1  0.2944263E-013  0.7246181E+02  0.7816164E-02  0.1226707E+00
        -11   -1    0    0    0    0  0.00000000000E+00  0.00000000000E+00  0.45593999997E+02  0.45594000000E+02  0.51100000000E-03 0.  1.
         11   -1    0    0    0    0 -0.00000000000E+00 -0.00000000000E+00 -0.45593999997E+02  0.45594000000E+02  0.51100000000E-03 0. -1.
    9900012    2    1    2    0    0 -0.11352115422E+02 -0.69423205939E+01  0.13175883176E+02  0.72461808790E+02  0.70000310684E+02 0.  0.
         12    1    1    2    0    0  0.11352115422E+02  0.69423205939E+01 -0.13175883176E+02  0.18726191210E+02  0.00000000000E+00 0. -1.
         11    1    3    3    0    0 -0.20102306264E+00 -0.51408745134E+01  0.40590377617E+01  0.65532273611E+01  0.51100000000E-03 0. -1.
        -11    1    3    3    0    0  0.15856217774E+02  0.55211496065E+01  0.27647736711E+02  0.32346562114E+02  0.51100000000E-03 0.  1.
         12    1    3    3    0    0 -0.27007310133E+02 -0.73225956870E+01 -0.18530891297E+02  0.33562019315E+02  0.00000000000E+00 0. -1.
</event>
<event>
 7    1  0.2944263E-013  0.7246158E+02  0.7816164E-02  0.1226708E+00
        -11   -1    0    0    0    0  0.00000000000E+00  0.00000000000E+00  0.45593999997E+02  0.45594000000E+02  0.51100000000E-03 0.  1.
         11   -1    0    0    0    0 -0.00000000000E+00 -0.00000000000E+00 -0.45593999997E+02  0.45594000000E+02  0.51100000000E-03 0. -1.
    9900012    2    1    2    0    0  0.67281621636E+01  0.12635768528E+01  0.17430261771E+02  0.72461579681E+02  0.70000012227E+02 0.  0.
         12    1    1    2    0    0 -0.67281621636E+01 -0.12635768528E+01 -0.17430261771E+02  0.18726420319E+02  0.00000000000E+00 0. -1.
         11    1    3    3    0    0  0.32906025114E+02 -0.60951795987E+01  0.15571338347E+02  0.36911031974E+02  0.51100000000E-03 0. -1.
        -11    1    3    3    0    0 -0.11374768768E+02 -0.60278364144E+01  0.73853481471E+01  0.14841278378E+02  0.51100000000E-03 0.  1.
        -12    1    3    3    0    0 -0.14803094183E+02  0.13386592866E+02 -0.55264247232E+01  0.20709269330E+02  0.00000000000E+00 0.  1.
</event>
<event>
 7    1  0.2944263E-013  0.7246161E+02  0.7816164E-02  0.1226708E+00
        -11   -1    0    0    0    0  0.00000000000E+00  0.00000000000E+00  0.45593999997E+02  0.45594000000E+02  0.51100000000E-03 0. -1.
         11   -1    0    0    0    0 -0.00000000000E+00 -0.00000000000E+00 -0.45593999997E+02  0.45594000000E+02  0.51100000000E-03 0.  1.
    9900012    2    1    2    0    0  0.99883983030E+00  0.18116353629E+02  0.46343985825E+01  0.72461612200E+02  0.70000054589E+02 0.  0.
         12    1    1    2    0    0 -0.99883983030E+00 -0.18116353629E+02 -0.46343985825E+01  0.18726387800E+02  0.00000000000E+00 0. -1.
         11    1    3    3    0    0  0.70014064568E+01  0.26022345694E+02  0.11268749939E+02  0.29209020751E+02  0.51100000000E-03 0. -1.
        -11    1    3    3    0    0 -0.90060925407E+01  0.15156906056E+02  0.33435610979E+01  0.17944940934E+02  0.51100000000E-03 0.  1.
         12    1    3    3    0    0  0.30035259142E+01 -0.23062898120E+02 -0.99779124545E+01  0.25307650515E+02  0.00000000000E+00 0. -1.
</event>
<event>
 7    1  0.2944263E-013  0.7246186E+02  0.7816164E-02  0.1226707E+00
        -11   -1    0    0    0    0  0.00000000000E+00  0.00000000000E+00  0.45593999997E+02  0.45594000000E+02  0.51100000000E-03 0. -1.
         11   -1    0    0    0    0 -0.00000000000E+00 -0.00000000000E+00 -0.45593999997E+02  0.45594000000E+02  0.51100000000E-03 0.  1.
    9900012    2    1    2    0    0 -0.14370341544E+02  0.86361909048E+01 -0.83413396690E+01  0.72461856326E+02  0.70000372608E+02 0.  0.
         12    1    1    2    0    0  0.14370341544E+02 -0.86361909048E+01  0.83413396690E+01  0.18726143674E+02  0.00000000000E+00 0. -1.
         11    1    3    3    0    0 -0.10357121878E+02  0.52078771342E+00  0.21265718436E+02  0.23659500720E+02  0.51100000000E-03 0. -1.
        -11    1    3    3    0    0 -0.12491072259E+02 -0.43053607693E+01 -0.31001583165E+02  0.33699572349E+02  0.51100000000E-03 0.  1.
         12    1    3    3    0    0  0.84778525930E+01  0.12420763961E+02  0.13945250595E+01  0.15102783257E+02  0.00000000000E+00 0. -1.
</event>
<event>
 7    1  0.2944263E-013  0.7246149E+02  0.7816164E-02  0.1226708E+00
        -11   -1    0    0    0    0  0.00000000000E+00  0.00000000000E+00  0.45593999997E+02  0.45594000000E+02  0.51100000000E-03 0.  1.
         11   -1    0    0    0    0 -0.00000000000E+00 -0.00000000000E+00 -0.45593999997E+02  0.45594000000E+02  0.51100000000E-03 0. -1.
    9900012    2    1    2    0    0  0.61201986835E+00 -0.64193068374E+01  0.17581243704E+02  0.72461489412E+02  0.69999894636E+02 0.  0.
         12    1    1    2    0    0 -0.61201986835E+00  0.64193068374E+01 -0.17581243704E+02  0.18726510588E+02  0.00000000000E+00 0. -1.
         11    1    3    3    0    0  0.67512007463E+01  0.44360862625E+01 -0.13146251369E+01  0.81844860777E+01  0.51100000000E-03 0. -1.
        -11    1    3    3    0    0 -0.36181755144E+01  0.22389213972E+02  0.20948171875E+02  0.30873840084E+02  0.51100000000E-03 0.  1.
         12    1    3    3    0    0 -0.25210053636E+01 -0.33244607072E+02 -0.20523030336E+01  0.33403163251E+02  0.00000000000E+00 0. -1.
</event>
<event>
 7    1  0.2944263E-013  0.7246157E+02  0.7816164E-02  0.1226708E+00
        -11   -1    0    0    0    0  0.00000000000E+00  0.00000000000E+00  0.45593999997E+02  0.45594000000E+02  0.51100000000E-03 0.  1.
         11   -1    0    0    0    0 -0.00000000000E+00 -0.00000000000E+00 -0.45593999997E+02  0.45594000000E+02  0.51100000000E-03 0. -1.
    9900012    2    1    2    0    0  0.95238345230E+01  0.16112098947E+02 -0.61318060891E+00  0.72461570897E+02  0.70000000785E+02 0.  0.
         12    1    1    2    0    0 -0.95238345230E+01 -0.16112098947E+02  0.61318060891E+00  0.18726429103E+02  0.00000000000E+00 0. -1.
         11    1    3    3    0    0  0.31602750607E+01  0.23776437507E+01  0.36403551372E+01  0.53751943268E+01  0.51100000000E-03 0. -1.
        -11    1    3    3    0    0 -0.21721096038E+02  0.13043591366E+02  0.18139367052E+02  0.31160518708E+02  0.51100000000E-03 0.  1.
         12    1    3    3    0    0  0.28084655501E+02  0.69086383039E+00 -0.22392902798E+02  0.35925857862E+02  0.00000000000E+00 0. -1.
</event>
<event>
 7    1  0.2944263E-013  0.7246159E+02  0.7816164E-02  0.1226708E+00
        -11   -1    0    0    0    0  0.00000000000E+00  0.00000000000E+00  0.45593999997E+02  0.45594000000E+02  0.51100000000E-03 0.  1.
         11   -1    0    0    0    0 -0.00000000000E+00 -0.00000000000E+00 -0.45593999997E+02  0.45594000000E+02  0.51100000000E-03 0. -1.
    9900012    2    1    2    0    0 -0.16537718661E+02 -0.27833290929E+01  0.83327951575E+01  0.72461587250E+02  0.70000022088E+02 0.  0.
         12    1    1    2    0    0  0.16537718661E+02  0.27833290929E+01 -0.83327951575E+01  0.18726412750E+02  0.00000000000E+00 0. -1.
         11    1    3    3    0    0  0.15166408469E+02 -0.76922722032E+01  0.21806326558E+01  0.17144858021E+02  0.51100000000E-03 0. -1.
        -11    1    3    3    0    0  0.49028863774E+01 -0.48894992599E+01 -0.11568542060E+02  0.13482457621E+02  0.51100000000E-03 0.  1.
        -12    1    3    3    0    0 -0.36607013507E+02  0.97984423702E+01  0.17720704562E+02  0.41834271608E+02  0.00000000000E+00 0.  1.
</event>
<event>
 7    1  0.2944263E-013  0.7246167E+02  0.7816164E-02  0.1226708E+00
        -11   -1    0    0    0    0  0.00000000000E+00  0.00000000000E+00  0.45593999997E+02  0.45594000000E+02  0.51100000000E-03 0.  1.
         11   -1    0    0    0    0 -0.00000000000E+00 -0.00000000000E+00 -0.45593999997E+02  0.45594000000E+02  0.51100000000E-03 0. -1.
    9900012    2    1    2    0    0  0.12338543180E+02 -0.69467067386E+01  0.12254757886E+02  0.72461668988E+02  0.70000128567E+02 0.  0.
         12    1    1    2    0    0 -0.12338543180E+02  0.69467067386E+01 -0.12254757886E+02  0.18726331012E+02  0.00000000000E+00 0. -1.
         11    1    3    3    0    0  0.16879895595E+02  0.43390375879E+00  0.17933101660E+02  0.24631591162E+02  0.51100000000E-03 0. -1.
        -11    1    3    3    0    0  0.11201248100E+02  0.10158207618E+02  0.11220685427E+02  0.18829788176E+02  0.51100000000E-03 0.  1.
         12    1    3    3    0    0 -0.15742600515E+02 -0.17538818115E+02 -0.16899029202E+02  0.29000289651E+02  0.00000000000E+00 0. -1.
</event>
<event>
 7    1  0.2944263E-013  0.7246165E+02  0.7816164E-02  0.1226708E+00
        -11   -1    0    0    0    0  0.00000000000E+00  0.00000000000E+00  0.45593999997E+02  0.45594000000E+02  0.51100000000E-03 0.  1.
         11   -1    0    0    0    0 -0.00000000000E+00 -0.00000000000E+00 -0.45593999997E+02  0.45594000000E+02  0.51100000000E-03 0. -1.
    9900012    2    1    2    0    0 -0.11438394573E+02  0.12623337196E+02  0.77775708578E+01  0.72461651695E+02  0.70000106040E+02 0.  0.
         12    1    1    2    0    0  0.11438394573E+02 -0.12623337196E+02 -0.77775708578E+01  0.18726348305E+02  0.00000000000E+00 0. -1.
         11    1    3    3    0    0  0.62376707799E+01  0.18628193984E+02  0.13143198057E+02  0.23636027654E+02  0.51100000000E-03 0. -1.
        -11    1    3    3    0    0 -0.15128996102E+02  0.15879060722E+02  0.76598671448E+01  0.23231544447E+02  0.51100000000E-03 0.  1.
        -12    1    3    3    0    0 -0.25470692512E+01 -0.21883917510E+02 -0.13025494344E+02  0.25594079594E+02  0.00000000000E+00 0.  1.
</event>
<event>
 7    1  0.2944263E-013  0.7246157E+02  0.7816164E-02  0.1226708E+00
        -11   -1    0    0    0    0  0.00000000000E+00  0.00000000000E+00  0.45593999997E+02  0.45594000000E+02  0.51100000000E-03 0. -1.
         11   -1    0    0    0    0 -0.00000000000E+00 -0.00000000000E+00 -0.45593999997E+02  0.45594000000E+02  0.51100000000E-03 0.  1.
    9900012    2    1    2    0    0 -0.14412670808E+02  0.90179595411E+01  0.78505072302E+01  0.72461571140E+02  0.70000001101E+02 0.  0.
         12    1    1    2    0    0  0.14412670808E+02 -0.90179595411E+01 -0.78505072302E+01  0.18726428860E+02  0.00000000000E+00 0. -1.
         11    1    3    3    0    0 -0.38410372767E+01 -0.19199174254E+02  0.26645473186E+02  0.33065739081E+02  0.51100000000E-03 0. -1.
        -11    1    3    3    0    0  0.33890024691E+01  0.17683174453E+01  0.42355649034E+00  0.38459959288E+01  0.51100000000E-03 0.  1.
        -12    1    3    3    0    0 -0.13960636000E+02  0.26448816350E+02 -0.19218522446E+02  0.35549836130E+02  0.00000000000E+00 0.  1.
</event>
<event>
 7    1  0.2944263E-013  0.7246156E+02  0.7816164E-02  0.1226708E+00
        -11   -1    0    0    0    0  0.00000000000E+00  0.00000000000E+00  0.45593999997E+02  0.45594000000E+02  0.51100000000E-03 0. -1.
         11   -1    0    0    0    0 -0.00000000000E+00 -0.00000000000E+00 -0.45593999997E+02  0.45594000000E+02  0.51100000000E-03 0.  1.
    9900012    2    1    2    0    0 -0.74868587632E+01 -0.16889375702E+02 -0.30619718680E+01  0.72461555130E+02  0.69999980245E+02 0.  0.
         12    1    1    2    0    0  0.74868587632E+01  0.16889375702E+02  0.30619718680E+01  0.18726444870E+02  0.00000000000E+00 0. -1.
         11    1    3    3    0    0 -0.93097087861E+01  0.34547457106E+01  0.20220912466E+02  0.22527566376E+02  0.51100000000E-03 0. -1.
        -11    1    3    3    0    0 -0.13633087224E+02  0.29149937663E+01 -0.59613960104E+00  0.13953982894E+02  0.51100000000E-03 0.  1.
        -12    1    3    3    0    0  0.15455937247E+02 -0.23259115179E+02 -0.22686744733E+02  0.35980005860E+02  0.00000000000E+00 0.  1.
</event>
<event>
 7    1  0.2944263E-013  0.7246131E+02  0.7816164E-02  0.1226709E+00
        -11   -1    0    0    0    0  0.00000000000E+00  0.00000000000E+00  0.45593999997E+02  0.45594000000E+02  0.51100000000E-03 0.  1.
         11   -1    0    0    0    0 -0.00000000000E+00 -0.00000000000E+00 -0.45593999997E+02  0.45594000000E+02  0.51100000000E-03 0. -1.
    9900012    2    1    2    0    0 -0.12013534423E+02 -0.90434588141E+00  0.14336880240E+02  0.72461308198E+02  0.69999658570E+02 0.  0.
         12    1    1    2    0    0  0.12013534423E+02  0.90434588141E+00 -0.14336880240E+02  0.18726691802E+02  0.00000000000E+00 0. -1.
         11    1    3    3    0    0 -0.80024483356E+01 -0.10846581404E+01 -0.48633649194E-01  0.80757679597E+01  0.51100000000E-03 0. -1.
        -11    1    3    3    0    0 -0.14739376585E+02  0.15289906646E+01  0.36705799755E+02  0.39584122707E+02  0.51100000000E-03 0.  1.
         12    1    3    3    0    0  0.10728290497E+02 -0.13486784056E+01 -0.22320285866E+02  0.24801417531E+02  0.00000000000E+00 0. -1.
</event>
<event>
 7    1  0.2944263E-013  0.7246156E+02  0.7816164E-02  0.1226708E+00
        -11   -1    0    0    0    0  0.00000000000E+00  0.00000000000E+00  0.45593999997E+02  0.45594000000E+02  0.51100000000E-03 0. -1.
         11   -1    0    0    0    0 -0.00000000000E+00 -0.00000000000E+00 -0.45593999997E+02  0.45594000000E+02  0.51100000000E-03 0.  1.
    9900012    2    1    2    0    0  0.16377950720E+01 -0.18079619011E+02 -0.45961501010E+01  0.72461559013E+02  0.69999985304E+02 0.  0.
         12    1    1    2    0    0 -0.16377950720E+01  0.18079619011E+02  0.45961501010E+01  0.18726440987E+02  0.00000000000E+00 0. -1.
         11    1    3    3    0    0 -0.16861036411E+02  0.36294761799E+01  0.10806955468E+02  0.20353327319E+02  0.51100000000E-03 0. -1.
        -11    1    3    3    0    0  0.87604815239E+01 -0.17596569492E+02  0.11797809710E+02  0.22925392224E+02  0.51100000000E-03 0.  1.
        -12    1    3    3    0    0  0.97383499590E+01 -0.41125256988E+01 -0.27200915279E+02  0.29182839470E+02  0.00000000000E+00 0.  1.
</event>
<event>
 7    1  0.2944263E-013  0.7246159E+02  0.7816164E-02  0.1226708E+00
        -11   -1    0    0    0    0  0.00000000000E+00  0.00000000000E+00  0.45593999997E+02  0.45594000000E+02  0.51100000000E-03 0. -1.
         11   -1    0    0    0    0 -0.00000000000E+00 -0.00000000000E+00 -0.45593999997E+02  0.45594000000E+02  0.51100000000E-03 0.  1.
    9900012    2    1    2    0    0 -0.13950758959E+02  0.17834808060E+01 -0.12364219094E+02  0.72461591024E+02  0.70000027005E+02 0.  0.
         12    1    1    2    0    0  0.13950758959E+02 -0.17834808060E+01  0.12364219094E+02  0.18726408976E+02  0.00000000000E+00 0. -1.
         11    1    3    3    0    0  0.11648837534E+02 -0.81409572634E+01 -0.24084978110E+02  0.27965277969E+02  0.51100000000E-03 0. -1.
        -11    1    3    3    0    0 -0.69692464963E+01 -0.11077368131E+02  0.98122566584E+01  0.16357226612E+02  0.51100000000E-03 0.  1.
        -12    1    3    3    0    0 -0.18630349996E+02  0.21001806200E+02  0.19085023569E+01  0.28139086444E+02  0.00000000000E+00 0.  1.
</event>
<event>
 7    1  0.2944263E-013  0.7246159E+02  0.7816164E-02  0.1226708E+00
        -11   -1    0    0    0    0  0.00000000000E+00  0.00000000000E+00  0.45593999997E+02  0.45594000000E+02  0.51100000000E-03 0.  1.
         11   -1    0    0    0    0 -0.00000000000E+00 -0.00000000000E+00 -0.45593999997E+02  0.45594000000E+02  0.51100000000E-03 0. -1.
    9900012    2    1    2    0    0 -0.15278015323E+02 -0.38342916678E+01  0.10127143910E+02  0.72461585805E+02  0.70000020206E+02 0.  0.
         12    1    1    2    0    0  0.15278015323E+02  0.38342916678E+01 -0.10127143910E+02  0.18726414195E+02  0.00000000000E+00 0. -1.
         11    1    3    3    0    0  0.15913505704E+01 -0.42034538149E+01  0.16786108667E+02  0.17377424005E+02  0.51100000000E-03 0. -1.
        -11    1    3    3    0    0  0.13333153872E+02 -0.14437668079E+02  0.34677004272E+01  0.19956056681E+02  0.51100000000E-03 0.  1.
         12    1    3    3    0    0 -0.30202519766E+02  0.14806830226E+02 -0.10126665184E+02  0.35128105120E+02  0.00000000000E+00 0. -1.
</event>
<event>
 7    1  0.2944263E-013  0.7246128E+02  0.7816164E-02  0.1226709E+00
        -11   -1    0    0    0    0  0.00000000000E+00  0.00000000000E+00  0.45593999997E+02  0.45594000000E+02  0.51100000000E-03 0. -1.
         11   -1    0    0    0    0 -0.00000000000E+00 -0.00000000000E+00 -0.45593999997E+02  0.45594000000E+02  0.51100000000E-03 0.  1.
    9900012    2    1    2    0    0  0.51435043838E+01  0.16690339441E+02 -0.67577338411E+01  0.72461280195E+02  0.69999622090E+02 0.  0.
         12    1    1    2    0    0 -0.51435043838E+01 -0.16690339441E+02  0.67577338411E+01  0.18726719805E+02  0.00000000000E+00 0. -1.
         11    1    3    3    0    0  0.11074028532E+02 -0.82710142604E+01 -0.38714150856E+01  0.14353802278E+02  0.51100000000E-03 0. -1.
        -11    1    3    3    0    0  0.14968906531E+02 -0.23031484352E+01 -0.15349502151E+02  0.21563391941E+02  0.51100000000E-03 0.  1.
         12    1    3    3    0    0 -0.20899430679E+02  0.27264502137E+02  0.12463183395E+02  0.36544085976E+02  0.00000000000E+00 0. -1.
</event>
<event>
 7    1  0.2944263E-013  0.7246157E+02  0.7816164E-02  0.1226708E+00
        -11   -1    0    0    0    0  0.00000000000E+00  0.00000000000E+00  0.45593999997E+02  0.45594000000E+02  0.51100000000E-03 0. -1.
         11   -1    0    0    0    0 -0.00000000000E+00 -0.00000000000E+00 -0.45593999997E+02  0.45594000000E+02  0.51100000000E-03 0.  1.
    9900012    2    1    2    0    0 -0.16442427383E+02  0.25482293779E+01  0.85925617657E+01  0.72461574583E+02  0.70000005587E+02 0.  0.
         12    1    1    2    0    0  0.16442427383E+02 -0.25482293779E+01 -0.85925617657E+01  0.18726425417E+02  0.00000000000E+00 0. -1.
         11    1    3    3    0    0 -0.26675091287E+02 -0.36206491164E+01 -0.96906531467E+01  0.28610808340E+02  0.51100000000E-03 0. -1.
        -11    1    3    3    0    0 -0.11390888907E+02 -0.20087927736E+01 -0.35020720505E+01  0.12085202001E+02  0.51100000000E-03 0.  1.
        -12    1    3    3    0    0  0.21623552811E+02  0.81776712679E+01  0.21785286963E+02  0.31765564242E+02  0.00000000000E+00 0.  1.
</event>
<event>
 7    1  0.2944263E-013  0.7246171E+02  0.7816164E-02  0.1226708E+00
        -11   -1    0    0    0    0  0.00000000000E+00  0.00000000000E+00  0.45593999997E+02  0.45594000000E+02  0.51100000000E-03 0.  1.
         11   -1    0    0    0    0 -0.00000000000E+00 -0.00000000000E+00 -0.45593999997E+02  0.45594000000E+02  0.51100000000E-03 0. -1.
    9900012    2    1    2    0    0 -0.11337315448E+02  0.73835801643E+01  0.12946885706E+02  0.72461712939E+02  0.70000185820E+02 0.  0.
         12    1    1    2    0    0  0.11337315448E+02 -0.73835801643E+01 -0.12946885706E+02  0.18726287061E+02  0.00000000000E+00 0. -1.
         11    1    3    3    0    0  0.14158391508E+01 -0.17247474992E+02  0.27578379636E+01  0.17523859865E+02  0.51100000000E-03 0. -1.
        -11    1    3    3    0    0  0.36447992483E+01 -0.64590763307E+00 -0.15133667529E+02  0.15579783419E+02  0.51100000000E-03 0.  1.
        -12    1    3    3    0    0 -0.16397953847E+02  0.25276962789E+02  0.25322715272E+02  0.39358069655E+02  0.00000000000E+00 0.  1.
</event>
<event>
 7    1  0.2944263E-013  0.7246158E+02  0.7816164E-02  0.1226708E+00
        -11   -1    0    0    0    0  0.00000000000E+00  0.00000000000E+00  0.45593999997E+02  0.45594000000E+02  0.51100000000E-03 0.  1.
         11   -1    0    0    0    0 -0.00000000000E+00 -0.00000000000E+00 -0.45593999997E+02  0.45594000000E+02  0.51100000000E-03 0. -1.
    9900012    2    1    2    0    0  0.18225491479E+02  0.25178172872E+01  0.34886678442E+01  0.72461581580E+02  0.70000014701E+02 0.  0.
         12    1    1    2    0    0 -0.18225491479E+02 -0.25178172872E+01 -0.34886678442E+01  0.18726418420E+02  0.00000000000E+00 0. -1.
         11    1    3    3    0    0 -0.16715182229E+02 -0.27704793055E+01 -0.56372664369E+01  0.17856417492E+02  0.51100000000E-03 0. -1.
        -11    1    3    3    0    0  0.74700662924E+01 -0.15699465166E+02  0.99363784129E+01  0.20025152013E+02  0.51100000000E-03 0.  1.
        -12    1    3    3    0    0  0.27470607415E+02  0.20987761758E+02 -0.81044413171E+00  0.34580012074E+02  0.00000000000E+00 0.  1.
</event>
<event>
 7    1  0.2944263E-013  0.7246160E+02  0.7816164E-02  0.1226708E+00
        -11   -1    0    0    0    0  0.00000000000E+00  0.00000000000E+00  0.45593999997E+02  0.45594000000E+02  0.51100000000E-03 0. -1.
         11   -1    0    0    0    0 -0.00000000000E+00 -0.00000000000E+00 -0.45593999997E+02  0.45594000000E+02  0.51100000000E-03 0.  1.
    9900012    2    1    2    0    0  0.16414809042E+02  0.11507917048E+01 -0.89391250114E+01  0.72461595289E+02  0.70000032560E+02 0.  0.
         12    1    1    2    0    0 -0.16414809042E+02 -0.11507917048E+01  0.89391250114E+01  0.18726404711E+02  0.00000000000E+00 0. -1.
         11    1    3    3    0    0  0.44736370426E+01  0.68567402309E+01 -0.15541798350E+02  0.17566326059E+02  0.51100000000E-03 0. -1.
        -11    1    3    3    0    0  0.18127478713E+02 -0.87891992727E+01 -0.19412931425E+02  0.27977087324E+02  0.51100000000E-03 0.  1.
         12    1    3    3    0    0 -0.61863067143E+01  0.30832507466E+01  0.26015604764E+02  0.26918181906E+02  0.00000000000E+00 0. -1.
</event>
<event>
 7    1  0.2944263E-013  0.7246177E+02  0.7816164E-02  0.1226707E+00
        -11   -1    0    0    0    0  0.00000000000E+00  0.00000000000E+00  0.45593999997E+02  0.45594000000E+02  0.51100000000E-03 0. -1.
         11   -1    0    0    0    0 -0.00000000000E+00 -0.00000000000E+00 -0.45593999997E+02  0.45594000000E+02  0.51100000000E-03 0.  1.
    9900012    2    1    2    0    0 -0.14949465766E+02  0.40568948146E+01 -0.10522672579E+02  0.72461773460E+02  0.70000264660E+02 0.  0.
         12    1    1    2    0    0  0.14949465766E+02 -0.40568948146E+01  0.10522672579E+02  0.18726226540E+02  0.00000000000E+00 0. -1.
         11    1    3    3    0    0 -0.53171357991E+01 -0.20963081189E+02 -0.23293003395E+02  0.31785007684E+02  0.51100000000E-03 0. -1.
        -11    1    3    3    0    0 -0.39976139469E+00 -0.35171411384E+01 -0.47631304436E+01  0.59344336583E+01  0.51100000000E-03 0.  1.
        -12    1    3    3    0    0 -0.92325685727E+01  0.28537117142E+02  0.17533461260E+02  0.34742332118E+02  0.00000000000E+00 0.  1.
</event>
<event>
 7    1  0.2944263E-013  0.7246153E+02  0.7816164E-02  0.1226708E+00
        -11   -1    0    0    0    0  0.00000000000E+00  0.00000000000E+00  0.45593999997E+02  0.45594000000E+02  0.51100000000E-03 0.  1.
         11   -1    0    0    0    0 -0.00000000000E+00 -0.00000000000E+00 -0.45593999997E+02  0.45594000000E+02  0.51100000000E-03 0. -1.
    9900012    2    1    2    0    0 -0.16853066932E+02 -0.24238359409E+01 -0.77961310179E+01  0.72461534649E+02  0.69999953566E+02 0.  0.
         12    1    1    2    0    0  0.16853066932E+02  0.24238359409E+01  0.77961310179E+01  0.18726465351E+02  0.00000000000E+00 0. -1.
         11    1    3    3    0    0  0.91818296404E+01 -0.19115091290E+02 -0.66016212568E+01  0.22209775191E+02  0.51100000000E-03 0. -1.
        -11    1    3    3    0    0 -0.14527933572E+02 -0.94814302447E+01  0.94366329342E+01  0.19748630706E+02  0.51100000000E-03 0.  1.
         12    1    3    3    0    0 -0.11506963000E+02  0.26172685593E+02 -0.10631142695E+02  0.30503128752E+02  0.00000000000E+00 0. -1.
</event>
<event>
 7    1  0.2944263E-013  0.7246153E+02  0.7816164E-02  0.1226708E+00
        -11   -1    0    0    0    0  0.00000000000E+00  0.00000000000E+00  0.45593999997E+02  0.45594000000E+02  0.51100000000E-03 0. -1.
         11   -1    0    0    0    0 -0.00000000000E+00 -0.00000000000E+00 -0.45593999997E+02  0.45594000000E+02  0.51100000000E-03 0.  1.
    9900012    2    1    2    0    0  0.12356166993E+02  0.18014999257E+00 -0.14070298928E+02  0.72461531334E+02  0.69999949247E+02 0.  0.
         12    1    1    2    0    0 -0.12356166993E+02 -0.18014999257E+00  0.14070298928E+02  0.18726468666E+02  0.00000000000E+00 0. -1.
         11    1    3    3    0    0  0.15020119545E+02  0.76980727844E+01  0.89210480875E+01  0.19090558268E+02  0.51100000000E-03 0. -1.
        -11    1    3    3    0    0  0.40246673953E+01  0.16145046363E+02  0.37351623591E+01  0.17053208138E+02  0.51100000000E-03 0.  1.
        -12    1    3    3    0    0 -0.66886199472E+01 -0.23662969154E+02 -0.26726509375E+02  0.36317764928E+02  0.00000000000E+00 0.  1.
</event>
<event>
 7    1  0.2944263E-013  0.7246174E+02  0.7816164E-02  0.1226708E+00
        -11   -1    0    0    0    0  0.00000000000E+00  0.00000000000E+00  0.45593999997E+02  0.45594000000E+02  0.51100000000E-03 0.  1.
         11   -1    0    0    0    0 -0.00000000000E+00 -0.00000000000E+00 -0.45593999997E+02  0.45594000000E+02  0.51100000000E-03 0. -1.
    9900012    2    1    2    0    0  0.17017207614E+02 -0.58969611518E+01  0.51296650459E+01  0.72461735843E+02  0.70000215658E+02 0.  0.
         12    1    1    2    0    0 -0.17017207614E+02  0.58969611518E+01 -0.51296650459E+01  0.18726264157E+02  0.00000000000E+00 0. -1.
         11    1    3    3    0    0 -0.48743092919E+01  0.10975130184E+02 -0.49684122573E+00  0.12019119148E+02  0.51100000000E-03 0. -1.
        -11    1    3    3    0    0  0.92913448570E+01  0.17338044414E-01  0.28123393510E+02  0.29618484982E+02  0.51100000000E-03 0.  1.
        -12    1    3    3    0    0  0.12600172049E+02 -0.16889429381E+02 -0.22496887238E+02  0.30824131713E+02  0.00000000000E+00 0.  1.
</event>
<event>
 7    1  0.2944263E-013  0.7246155E+02  0.7816164E-02  0.1226708E+00
        -11   -1    0    0    0    0  0.00000000000E+00  0.00000000000E+00  0.45593999997E+02  0.45594000000E+02  0.51100000000E-03 0.  1.
         11   -1    0    0    0    0 -0.00000000000E+00 -0.00000000000E+00 -0.45593999997E+02  0.45594000000E+02  0.51100000000E-03 0. -1.
    9900012    2    1    2    0    0 -0.84508403994E+01  0.87576378491E+00  0.16688205823E+02  0.72461551345E+02  0.69999975315E+02 0.  0.
         12    1    1    2    0    0  0.84508403994E+01 -0.87576378491E+00 -0.16688205823E+02  0.18726448655E+02  0.00000000000E+00 0. -1.
         11    1    3    3    0    0 -0.39826759214E+01 -0.14004071605E+02  0.14622665910E+01  0.14632633149E+02  0.51100000000E-03 0. -1.
        -11    1    3    3    0    0 -0.17009612013E+02 -0.13540608079E+02  0.15605433975E+02  0.26761998016E+02  0.51100000000E-03 0.  1.
         12    1    3    3    0    0  0.12541447535E+02  0.28420443469E+02 -0.37949474394E+00  0.31066920180E+02  0.00000000000E+00 0. -1.
</event>
<event>
 7    1  0.2944263E-013  0.7246164E+02  0.7816164E-02  0.1226708E+00
        -11   -1    0    0    0    0  0.00000000000E+00  0.00000000000E+00  0.45593999997E+02  0.45594000000E+02  0.51100000000E-03 0.  1.
         11   -1    0    0    0    0 -0.00000000000E+00 -0.00000000000E+00 -0.45593999997E+02  0.45594000000E+02  0.51100000000E-03 0. -1.
    9900012    2    1    2    0    0 -0.15752617940E+02  0.97093934713E+01  0.28738787504E+01  0.72461642302E+02  0.70000093803E+02 0.  0.
         12    1    1    2    0    0  0.15752617940E+02 -0.97093934713E+01 -0.28738787504E+01  0.18726357698E+02  0.00000000000E+00 0. -1.
         11    1    3    3    0    0  0.28620966452E+01 -0.44400776981E+01 -0.16815252889E+02  0.17625510408E+02  0.51100000000E-03 0. -1.
        -11    1    3    3    0    0  0.39025134008E+01 -0.13893406877E+02  0.10103352815E+02  0.17616302219E+02  0.51100000000E-03 0.  1.
        -12    1    3    3    0    0 -0.22517227986E+02  0.28042878047E+02  0.95857788247E+01  0.37219829675E+02  0.00000000000E+00 0.  1.
</event>
<event>
 7    1  0.2944263E-013  0.7246157E+02  0.7816164E-02  0.1226708E+00
        -11   -1    0    0    0    0  0.00000000000E+00  0.00000000000E+00  0.45593999997E+02  0.45594000000E+02  0.51100000000E-03 0.  1.
         11   -1    0    0    0    0 -0.00000000000E+00 -0.00000000000E+00 -0.45593999997E+02  0.45594000000E+02  0.51100000000E-03 0. -1.
    9900012    2    1    2    0    0 -0.17892640171E+02  0.11890917592E+01  0.53961620703E+01  0.72461572776E+02  0.70000003233E+02 0.  0.
         12    1    1    2    0    0  0.17892640171E+02 -0.11890917592E+01 -0.53961620703E+01  0.18726427224E+02  0.00000000000E+00 0. -1.
         11    1    3    3    0    0 -0.18964892267E+02 -0.21436795730E+01 -0.14224060764E+02  0.23803075551E+02  0.51100000000E-03 0. -1.
        -11    1    3    3    0    0 -0.19988363093E+02  0.81129371018E+01  0.38398284315E+01  0.21911154470E+02  0.51100000000E-03 0.  1.
        -12    1    3    3    0    0  0.21060615190E+02 -0.47801657697E+01  0.15780394402E+02  0.26747342755E+02  0.00000000000E+00 0.  1.
</event>
<event>
 7    1  0.2944263E-013  0.7246153E+02  0.7816164E-02  0.1226708E+00
        -11   -1    0    0    0    0  0.00000000000E+00  0.00000000000E+00  0.45593999997E+02  0.45594000000E+02  0.51100000000E-03 0. -1.
         11   -1    0    0    0    0 -0.00000000000E+00 -0.00000000000E+00 -0.45593999997E+02  0.45594000000E+02  0.51100000000E-03 0.  1.
    9900012    2    1    2    0    0 -0.12055531224E+02 -0.14260472937E+02 -0.14084360120E+01  0.72461531740E+02  0.69999949776E+02 0.  0.
         12    1    1    2    0    0  0.12055531224E+02  0.14260472937E+02  0.14084360120E+01  0.18726468260E+02  0.00000000000E+00 0. -1.
         11    1    3    3    0    0  0.45341113744E+01  0.99606438362E+01  0.67621397008E+01  0.12864646329E+02  0.51100000000E-03 0. -1.
        -11    1    3    3    0    0 -0.22275635807E+02 -0.54152061573E+00 -0.22231830296E+02  0.31476204882E+02  0.51100000000E-03 0.  1.
         12    1    3    3    0    0  0.56859932083E+01 -0.23679596158E+02  0.14061254583E+02  0.28120680529E+02  0.00000000000E+00 0. -1.
</event>
<event>
 7    1  0.2944263E-013  0.7246142E+02  0.7816164E-02  0.1226708E+00
        -11   -1    0    0    0    0  0.00000000000E+00  0.00000000000E+00  0.45593999997E+02  0.45594000000E+02  0.51100000000E-03 0. -1.
         11   -1    0    0    0    0 -0.00000000000E+00 -0.00000000000E+00 -0.45593999997E+02  0.45594000000E+02  0.51100000000E-03 0.  1.
    9900012    2    1    2    0    0  0.59251408113E+01 -0.14018161353E+02  0.10911853530E+02  0.72461422929E+02  0.69999808028E+02 0.  0.
         12    1    1    2    0    0 -0.59251408113E+01  0.14018161353E+02 -0.10911853530E+02  0.18726577071E+02  0.00000000000E+00 0. -1.
         11    1    3    3    0    0  0.20711928178E+02  0.21360724143E+02  0.12244279814E+01  0.29778578356E+02  0.51100000000E-03 0. -1.
        -11    1    3    3    0    0 -0.80748958689E+00 -0.36376344782E+01 -0.39359170719E+01  0.54199508750E+01  0.51100000000E-03 0.  1.
        -12    1    3    3    0    0 -0.13979297780E+02 -0.31741251017E+02  0.13623342621E+02  0.37262893698E+02  0.00000000000E+00 0.  1.
</event>
<event>
 7    1  0.2944263E-013  0.7246157E+02  0.7816164E-02  0.1226708E+00
        -11   -1    0    0    0    0  0.00000000000E+00  0.00000000000E+00  0.45593999997E+02  0.45594000000E+02  0.51100000000E-03 0. -1.
         11   -1    0    0    0    0 -0.00000000000E+00 -0.00000000000E+00 -0.45593999997E+02  0.45594000000E+02  0.51100000000E-03 0.  1.
    9900012    2    1    2    0    0 -0.12954551026E+02 -0.36137612102E+01 -0.13030711409E+02  0.72461572092E+02  0.70000002341E+02 0.  0.
         12    1    1    2    0    0  0.12954551026E+02  0.36137612102E+01  0.13030711409E+02  0.18726427908E+02  0.00000000000E+00 0. -1.
         11    1    3    3    0    0  0.16208545133E+02 -0.44252858126E+01  0.44376936832E+01  0.17377951989E+02  0.51100000000E-03 0. -1.
        -11    1    3    3    0    0  0.56560503471E+01 -0.12830540410E+02 -0.53473987313E+00  0.14032092493E+02  0.51100000000E-03 0.  1.
        -12    1    3    3    0    0 -0.34819146507E+02  0.13642065013E+02 -0.16933665219E+02  0.41051527609E+02  0.00000000000E+00 0.  1.
</event>
<event>
 7    1  0.2944263E-013  0.7246160E+02  0.7816164E-02  0.1226708E+00
        -11   -1    0    0    0    0  0.00000000000E+00  0.00000000000E+00  0.45593999997E+02  0.45594000000E+02  0.51100000000E-03 0.  1.
         11   -1    0    0    0    0 -0.00000000000E+00 -0.00000000000E+00 -0.45593999997E+02  0.45594000000E+02  0.51100000000E-03 0. -1.
    9900012    2    1    2    0    0 -0.14243475504E+02 -0.12470617762E+01  0.12093233101E+02  0.72461600337E+02  0.70000039136E+02 0.  0.
         12    1    1    2    0    0  0.14243475504E+02  0.12470617762E+01 -0.12093233101E+02  0.18726399663E+02  0.00000000000E+00 0. -1.
         11    1    3    3    0    0  0.17502224234E+02 -0.11942404258E+02 -0.53351708554E+01  0.21849780798E+02  0.51100000000E-03 0. -1.
        -11    1    3    3    0    0 -0.25895388430E+01 -0.10894197296E+02  0.32439945360E+01  0.11658162246E+02  0.51100000000E-03 0.  1.
         12    1    3    3    0    0 -0.29156160895E+02  0.21589539778E+02  0.14184409420E+02  0.38953657293E+02  0.00000000000E+00 0. -1.
</event>
<event>
 7    1  0.2944263E-013  0.7246170E+02  0.7816164E-02  0.1226708E+00
        -11   -1    0    0    0    0  0.00000000000E+00  0.00000000000E+00  0.45593999997E+02  0.45594000000E+02  0.51100000000E-03 0. -1.
         11   -1    0    0    0    0 -0.00000000000E+00 -0.00000000000E+00 -0.45593999997E+02  0.45594000000E+02  0.51100000000E-03 0.  1.
    9900012    2    1    2    0    0 -0.18711983167E+02 -0.67634877875E+00  0.27998332907E+00  0.72461704254E+02  0.70000174506E+02 0.  0.
         12    1    1    2    0    0  0.18711983167E+02  0.67634877875E+00 -0.27998332907E+00  0.18726295746E+02  0.00000000000E+00 0. -1.
         11    1    3    3    0    0 -0.10299904462E+02 -0.27377429079E+02  0.59262584247E+00  0.29256842970E+02  0.51100000000E-03 0. -1.
        -11    1    3    3    0    0 -0.12937320444E+02  0.48544505535E+01 -0.11745664481E+02  0.18135616472E+02  0.51100000000E-03 0.  1.
         12    1    3    3    0    0  0.45252417391E+01  0.21846629747E+02  0.11433021968E+02  0.25069244812E+02  0.00000000000E+00 0. -1.
</event>
<event>
 7    1  0.2944263E-013  0.7246155E+02  0.7816164E-02  0.1226708E+00
        -11   -1    0    0    0    0  0.00000000000E+00  0.00000000000E+00  0.45593999997E+02  0.45594000000E+02  0.51100000000E-03 0.  1.
         11   -1    0    0    0    0 -0.00000000000E+00 -0.00000000000E+00 -0.45593999997E+02  0.45594000000E+02  0.51100000000E-03 0. -1.
    9900012    2    1    2    0    0 -0.40036127129E+01  0.20062658599E+01  0.18183122752E+02  0.72461548909E+02  0.69999972142E+02 0.  0.
         12    1    1    2    0    0  0.40036127129E+01 -0.20062658599E+01 -0.18183122752E+02  0.18726451091E+02  0.00000000000E+00 0. -1.
         11    1    3    3    0    0  0.72147228372E+01  0.28819590569E+02  0.10384220755E+02  0.31471464331E+02  0.51100000000E-03 0. -1.
        -11    1    3    3    0    0  0.84167458752E+00  0.10161788647E+01  0.10460377171E+02  0.10543269247E+02  0.51100000000E-03 0.  1.
        -12    1    3    3    0    0 -0.12060010138E+02 -0.27829503574E+02 -0.26614751739E+01  0.30446815331E+02  0.00000000000E+00 0.  1.
</event>
<event>
 7    1  0.2944263E-013  0.7246155E+02  0.7816164E-02  0.1226708E+00
        -11   -1    0    0    0    0  0.00000000000E+00  0.00000000000E+00  0.45593999997E+02  0.45594000000E+02  0.51100000000E-03 0. -1.
         11   -1    0    0    0    0 -0.00000000000E+00 -0.00000000000E+00 -0.45593999997E+02  0.45594000000E+02  0.51100000000E-03 0.  1.
    9900012    2    1    2    0    0 -0.92129088376E+01 -0.91042493623E+01 -0.13524604341E+02  0.72461548967E+02  0.69999972217E+02 0.  0.
         12    1    1    2    0    0  0.92129088376E+01  0.91042493623E+01  0.13524604341E+02  0.18726451033E+02  0.00000000000E+00 0. -1.
         11    1    3    3    0    0 -0.10799077701E+02 -0.18643703360E+02  0.62151127580E+01  0.22423991193E+02  0.51100000000E-03 0. -1.
        -11    1    3    3    0    0  0.15906495285E+02  0.84251761120E+01  0.72965330910E+01  0.19422656363E+02  0.51100000000E-03 0.  1.
        -12    1    3    3    0    0 -0.14320326422E+02  0.11142778859E+01 -0.27036250190E+02  0.30614901411E+02  0.00000000000E+00 0.  1.
</event>
<event>
 7    1  0.2944263E-013  0.7246157E+02  0.7816164E-02  0.1226708E+00
        -11   -1    0    0    0    0  0.00000000000E+00  0.00000000000E+00  0.45593999997E+02  0.45594000000E+02  0.51100000000E-03 0.  1.
         11   -1    0    0    0    0 -0.00000000000E+00 -0.00000000000E+00 -0.45593999997E+02  0.45594000000E+02  0.51100000000E-03 0. -1.
    9900012    2    1    2    0    0  0.14276660034E+02  0.52655593371E+01  0.10914673332E+02  0.72461568659E+02  0.69999997869E+02 0.  0.
         12    1    1    2    0    0 -0.14276660034E+02 -0.52655593371E+01 -0.10914673332E+02  0.18726431341E+02  0.00000000000E+00 0. -1.
         11    1    3    3    0    0 -0.76604114841E+01 -0.78666604171E+01 -0.19099239898E+02  0.22030597250E+02  0.51100000000E-03 0. -1.
        -11    1    3    3    0    0  0.10801810587E+01 -0.95876884191E+01  0.62459448576E+01  0.11493580285E+02  0.51100000000E-03 0.  1.
        -12    1    3    3    0    0  0.20856890459E+02  0.22719908173E+02  0.23767968372E+02  0.38937391124E+02  0.00000000000E+00 0.  1.
</event>
<event>
 7    1  0.2944263E-013  0.7246149E+02  0.7816164E-02  0.1226708E+00
        -11   -1    0    0    0    0  0.00000000000E+00  0.00000000000E+00  0.45593999997E+02  0.45594000000E+02  0.51100000000E-03 0.  1.
         11   -1    0    0    0    0 -0.00000000000E+00 -0.00000000000E+00 -0.45593999997E+02  0.45594000000E+02  0.51100000000E-03 0. -1.
    9900012    2    1    2    0    0 -0.13176675668E+02  0.71358312295E+01  0.11231089446E+02  0.72461488334E+02  0.69999893232E+02 0.  0.
         12    1    1    2    0    0  0.13176675668E+02 -0.71358312295E+01 -0.11231089446E+02  0.18726511666E+02  0.00000000000E+00 0. -1.
         11    1    3    3    0    0 -0.10728869305E+02 -0.26981746933E+02 -0.10547477481E+02  0.30892921286E+02  0.51100000000E-03 0. -1.
        -11    1    3    3    0    0 -0.32087004198E+01  0.55180876259E+01  0.66003322378E+01  0.91820169539E+01  0.51100000000E-03 0.  1.
        -12    1    3    3    0    0  0.76089405640E+00  0.28599490536E+02  0.15178234690E+02  0.32386550094E+02  0.00000000000E+00 0.  1.
</event>
<event>
 7    1  0.2944263E-013  0.7246162E+02  0.7816164E-02  0.1226708E+00
        -11   -1    0    0    0    0  0.00000000000E+00  0.00000000000E+00  0.45593999997E+02  0.45594000000E+02  0.51100000000E-03 0. -1.
         11   -1    0    0    0    0 -0.00000000000E+00 -0.00000000000E+00 -0.45593999997E+02  0.45594000000E+02  0.51100000000E-03 0.  1.
    9900012    2    1    2    0    0  0.39047344437E-01 -0.32744170809E+01 -0.18437839107E+02  0.72461621737E+02  0.70000067014E+02 0.  0.
         12    1    1    2    0    0 -0.39047344437E-01  0.32744170809E+01  0.18437839107E+02  0.18726378263E+02  0.00000000000E+00 0. -1.
         11    1    3    3    0    0 -0.34717027062E-01  0.24693777902E+01  0.32347397704E+01  0.40697141897E+01  0.51100000000E-03 0. -1.
        -11    1    3    3    0    0  0.13012853798E+02  0.22156394932E+02 -0.26895680207E+02  0.37197013515E+02  0.51100000000E-03 0.  1.
         12    1    3    3    0    0 -0.12939089427E+02 -0.27900189803E+02  0.52231013301E+01  0.31194894033E+02  0.00000000000E+00 0. -1.
</event>
<event>
 7    1  0.2944263E-013  0.7246157E+02  0.7816164E-02  0.1226708E+00
        -11   -1    0    0    0    0  0.00000000000E+00  0.00000000000E+00  0.45593999997E+02  0.45594000000E+02  0.51100000000E-03 0.  1.
         11   -1    0    0    0    0 -0.00000000000E+00 -0.00000000000E+00 -0.45593999997E+02  0.45594000000E+02  0.51100000000E-03 0. -1.
    9900012    2    1    2    0    0 -0.12728667065E+02  0.91886382708E+01  0.10209259691E+02  0.72461574234E+02  0.70000005132E+02 0.  0.
         12    1    1    2    0    0  0.12728667065E+02 -0.91886382708E+01 -0.10209259691E+02  0.18726425766E+02  0.00000000000E+00 0. -1.
         11    1    3    3    0    0 -0.13608812808E+02  0.47512414427E+01 -0.97239209405E+01  0.17387602480E+02  0.51100000000E-03 0. -1.
        -11    1    3    3    0    0  0.94242234102E+01  0.10217080549E+02 -0.13927514732E+02  0.19676899875E+02  0.51100000000E-03 0.  1.
        -12    1    3    3    0    0 -0.85440776674E+01 -0.57796837209E+01  0.33860695364E+02  0.35397071879E+02  0.00000000000E+00 0.  1.
</event>
<event>
 7    1  0.2944263E-013  0.7246171E+02  0.7816164E-02  0.1226708E+00
        -11   -1    0    0    0    0  0.00000000000E+00  0.00000000000E+00  0.45593999997E+02  0.45594000000E+02  0.51100000000E-03 0. -1.
         11   -1    0    0    0    0 -0.00000000000E+00 -0.00000000000E+00 -0.45593999997E+02  0.45594000000E+02  0.51100000000E-03 0.  1.
    9900012    2    1    2    0    0 -0.18019242448E+01 -0.16737585413E+02  0.82024616531E+01  0.72461706357E+02  0.70000177246E+02 0.  0.
         12    1    1    2    0    0  0.18019242448E+01  0.16737585413E+02 -0.82024616531E+01  0.18726293643E+02  0.00000000000E+00 0. -1.
         11    1    3    3    0    0  0.11976384312E+02  0.16937953499E+02  0.80334130547E+01  0.22245533832E+02  0.51100000000E-03 0. -1.
        -11    1    3    3    0    0 -0.14818281845E+01 -0.69295381276E+01 -0.15373242389E+02  0.16927814249E+02  0.51100000000E-03 0.  1.
        -12    1    3    3    0    0 -0.12296480372E+02 -0.26746000784E+02  0.15542290988E+02  0.33288358275E+02  0.00000000000E+00 0.  1.
</event>
<event>
 7    1  0.2944263E-013  0.7246158E+02  0.7816164E-02  0.1226708E+00
        -11   -1    0    0    0    0  0.00000000000E+00  0.00000000000E+00  0.45593999997E+02  0.45594000000E+02  0.51100000000E-03 0. -1.
         11   -1    0    0    0    0 -0.00000000000E+00 -0.00000000000E+00 -0.45593999997E+02  0.45594000000E+02  0.51100000000E-03 0.  1.
    9900012    2    1    2    0    0  0.14717649401E+02  0.68940666434E+01 -0.93027750040E+01  0.72461575313E+02  0.70000006538E+02 0.  0.
         12    1    1    2    0    0 -0.14717649401E+02 -0.68940666434E+01  0.93027750040E+01  0.18726424687E+02  0.00000000000E+00 0. -1.
         11    1    3    3    0    0  0.11164523775E+02 -0.11832056349E+01 -0.53531032399E+01  0.12437937179E+02  0.51100000000E-03 0. -1.
        -11    1    3    3    0    0  0.21068206249E+01  0.15504960786E+02 -0.29490924186E+02  0.33384983326E+02  0.51100000000E-03 0.  1.
         12    1    3    3    0    0  0.14463050006E+01 -0.74276885075E+01  0.25541252422E+02  0.26638654808E+02  0.00000000000E+00 0. -1.
</event>
<event>
 7    1  0.2944263E-013  0.7246153E+02  0.7816164E-02  0.1226708E+00
        -11   -1    0    0    0    0  0.00000000000E+00  0.00000000000E+00  0.45593999997E+02  0.45594000000E+02  0.51100000000E-03 0.  1.
         11   -1    0    0    0    0 -0.00000000000E+00 -0.00000000000E+00 -0.45593999997E+02  0.45594000000E+02  0.51100000000E-03 0. -1.
    9900012    2    1    2    0    0 -0.21697434452E+01 -0.24787763801E+01  0.18434444404E+02  0.72461525174E+02  0.69999941222E+02 0.  0.
         12    1    1    2    0    0  0.21697434452E+01  0.24787763801E+01 -0.18434444404E+02  0.18726474826E+02  0.00000000000E+00 0. -1.
         11    1    3    3    0    0 -0.48166470130E+01 -0.14244578709E+01  0.14824265701E+02  0.15652093231E+02  0.51100000000E-03 0. -1.
        -11    1    3    3    0    0  0.24741999637E+02 -0.17679419935E+01  0.17808653942E+02  0.30535885781E+02  0.51100000000E-03 0.  1.
         12    1    3    3    0    0 -0.22095096070E+02  0.71362348435E+00 -0.14198475239E+02  0.26273546162E+02  0.00000000000E+00 0. -1.
</event>
<event>
 7    1  0.2944263E-013  0.7246159E+02  0.7816164E-02  0.1226708E+00
        -11   -1    0    0    0    0  0.00000000000E+00  0.00000000000E+00  0.45593999997E+02  0.45594000000E+02  0.51100000000E-03 0.  1.
         11   -1    0    0    0    0 -0.00000000000E+00 -0.00000000000E+00 -0.45593999997E+02  0.45594000000E+02  0.51100000000E-03 0. -1.
    9900012    2    1    2    0    0 -0.10655419824E+02 -0.51272767594E+01  0.14520729250E+02  0.72461587729E+02  0.70000022712E+02 0.  0.
         12    1    1    2    0    0  0.10655419824E+02  0.51272767594E+01 -0.14520729250E+02  0.18726412271E+02  0.00000000000E+00 0. -1.
         11    1    3    3    0    0 -0.16470353909E+01 -0.80131101005E+00 -0.22727962946E+02  0.22801647415E+02  0.51100000000E-03 0. -1.
        -11    1    3    3    0    0  0.45344197743E+01  0.46405701954E+01 -0.23176082530E+01  0.68896416963E+01  0.51100000000E-03 0.  1.
        -12    1    3    3    0    0 -0.13542804207E+02 -0.89665359448E+01  0.39566300449E+02  0.42770298618E+02  0.00000000000E+00 0.  1.
</event>
<event>
 7    1  0.2944263E-013  0.7246159E+02  0.7816164E-02  0.1226708E+00
        -11   -1    0    0    0    0  0.00000000000E+00  0.00000000000E+00  0.45593999997E+02  0.45594000000E+02  0.51100000000E-03 0.  1.
         11   -1    0    0    0    0 -0.00000000000E+00 -0.00000000000E+00 -0.45593999997E+02  0.45594000000E+02  0.51100000000E-03 0. -1.
    9900012    2    1    2    0    0  0.15591796050E+02 -0.78010630744E+01  0.68350386830E+01  0.72461589694E+02  0.70000025272E+02 0.  0.
         12    1    1    2    0    0 -0.15591796050E+02  0.78010630744E+01 -0.68350386830E+01  0.18726410306E+02  0.00000000000E+00 0. -1.
         11    1    3    3    0    0  0.12054008738E+02 -0.10680117940E+02  0.38267198655E-01  0.16104828795E+02  0.51100000000E-03 0. -1.
        -11    1    3    3    0    0  0.16483819778E+02 -0.92939603563E+01  0.24710617855E+02  0.31124084703E+02  0.51100000000E-03 0.  1.
         12    1    3    3    0    0 -0.12946032466E+02  0.12173015222E+02 -0.17913846371E+02  0.25232676196E+02  0.00000000000E+00 0. -1.
</event>
<event>
 7    1  0.2944263E-013  0.7246236E+02  0.7816164E-02  0.1226706E+00
        -11   -1    0    0    0    0  0.00000000000E+00  0.00000000000E+00  0.45593999997E+02  0.45594000000E+02  0.51100000000E-03 0.  1.
         11   -1    0    0    0    0 -0.00000000000E+00 -0.00000000000E+00 -0.45593999997E+02  0.45594000000E+02  0.51100000000E-03 0. -1.
    9900012    2    1    2    0    0 -0.16358938444E+02 -0.91110631488E+01  0.15289984839E+00  0.72462356698E+02  0.70001024429E+02 0.  0.
         12    1    1    2    0    0  0.16358938444E+02  0.91110631488E+01 -0.15289984839E+00  0.18725643302E+02  0.00000000000E+00 0. -1.
         11    1    3    3    0    0  0.16504176377E+01 -0.20381127581E+01 -0.18656781397E+02  0.18840203671E+02  0.51100000000E-03 0. -1.
        -11    1    3    3    0    0  0.10822800704E+02  0.11590506825E+02  0.54121616313E+01  0.16756024508E+02  0.51100000000E-03 0.  1.
         12    1    3    3    0    0 -0.28832156786E+02 -0.18663457215E+02  0.13397519614E+02  0.36866128519E+02  0.00000000000E+00 0. -1.
</event>
<event>
 7    1  0.2944263E-013  0.7246153E+02  0.7816164E-02  0.1226708E+00
        -11   -1    0    0    0    0  0.00000000000E+00  0.00000000000E+00  0.45593999997E+02  0.45594000000E+02  0.51100000000E-03 0.  1.
         11   -1    0    0    0    0 -0.00000000000E+00 -0.00000000000E+00 -0.45593999997E+02  0.45594000000E+02  0.51100000000E-03 0. -1.
    9900012    2    1    2    0    0 -0.11811199105E+02  0.81970405379E+01  0.11999361929E+02  0.72461532512E+02  0.69999950782E+02 0.  0.
         12    1    1    2    0    0  0.11811199105E+02 -0.81970405379E+01 -0.11999361929E+02  0.18726467488E+02  0.00000000000E+00 0. -1.
         11    1    3    3    0    0 -0.92896795344E+01  0.30796560666E+02  0.67460618657E+01  0.32866938489E+02  0.51100000000E-03 0.  1.
        -11    1    3    3    0    0 -0.97235229611E+01  0.22309481170E+01 -0.57298232936E+01  0.11504560118E+02  0.51100000000E-03 0. -1.
        -12    1    3    3    0    0  0.72020033903E+01 -0.24830468245E+02  0.10983123356E+02  0.28090033905E+02  0.00000000000E+00 0.  1.
</event>
<event>
 7    1  0.2944263E-013  0.7246154E+02  0.7816164E-02  0.1226708E+00
        -11   -1    0    0    0    0  0.00000000000E+00  0.00000000000E+00  0.45593999997E+02  0.45594000000E+02  0.51100000000E-03 0. -1.
         11   -1    0    0    0    0 -0.00000000000E+00 -0.00000000000E+00 -0.45593999997E+02  0.45594000000E+02  0.51100000000E-03 0.  1.
    9900012    2    1    2    0    0 -0.10276553967E+02  0.40183175564E+01 -0.15130294937E+02  0.72461541117E+02  0.69999961991E+02 0.  0.
         12    1    1    2    0    0  0.10276553967E+02 -0.40183175564E+01  0.15130294937E+02  0.18726458883E+02  0.00000000000E+00 0. -1.
         11    1    3    3    0    0 -0.12897966642E+02  0.15608451333E+01 -0.22469328555E+02  0.25955047813E+02  0.51100000000E-03 0. -1.
        -11    1    3    3    0    0 -0.17309529816E+01  0.96992665669E+01 -0.17602762950E+02  0.20172487052E+02  0.51100000000E-03 0.  1.
        -12    1    3    3    0    0  0.43523656565E+01 -0.72417941438E+01  0.24941796567E+02  0.26334006251E+02  0.00000000000E+00 0.  1.
</event>
<event>
 7    1  0.2944263E-013  0.7246157E+02  0.7816164E-02  0.1226708E+00
        -11   -1    0    0    0    0  0.00000000000E+00  0.00000000000E+00  0.45593999997E+02  0.45594000000E+02  0.51100000000E-03 0. -1.
         11   -1    0    0    0    0 -0.00000000000E+00 -0.00000000000E+00 -0.45593999997E+02  0.45594000000E+02  0.51100000000E-03 0.  1.
    9900012    2    1    2    0    0 -0.21407020356E+01  0.12841109249E+02 -0.13461153785E+02  0.72461565391E+02  0.69999993613E+02 0.  0.
         12    1    1    2    0    0  0.21407020356E+01 -0.12841109249E+02  0.13461153785E+02  0.18726434609E+02  0.00000000000E+00 0. -1.
         11    1    3    3    0    0 -0.17225037892E+02  0.69456932598E+01 -0.22922244705E+02  0.29502099719E+02  0.51100000000E-03 0. -1.
        -11    1    3    3    0    0  0.13940267328E+02  0.40482997247E+01 -0.13543132490E+02  0.19852864321E+02  0.51100000000E-03 0.  1.
         12    1    3    3    0    0  0.11440685278E+01  0.18471162640E+01  0.23004223410E+02  0.23106601351E+02  0.00000000000E+00 0. -1.
</event>
<event>
 7    1  0.2944263E-013  0.7246165E+02  0.7816164E-02  0.1226708E+00
        -11   -1    0    0    0    0  0.00000000000E+00  0.00000000000E+00  0.45593999997E+02  0.45594000000E+02  0.51100000000E-03 0.  1.
         11   -1    0    0    0    0 -0.00000000000E+00 -0.00000000000E+00 -0.45593999997E+02  0.45594000000E+02  0.51100000000E-03 0. -1.
    9900012    2    1    2    0    0  0.15397192180E+02 -0.76087984045E+01 -0.74638351917E+01  0.72461650223E+02  0.70000104122E+02 0.  0.
         12    1    1    2    0    0 -0.15397192180E+02  0.76087984045E+01  0.74638351917E+01  0.18726349777E+02  0.00000000000E+00 0. -1.
         11    1    3    3    0    0  0.25042991236E+02 -0.21367521992E+00 -0.10735637666E+01  0.25066902612E+02  0.51100000000E-03 0.  1.
        -11    1    3    3    0    0  0.59651555980E+01 -0.17850041334E+02  0.10995066722E+02  0.21796755479E+02  0.51100000000E-03 0. -1.
         12    1    3    3    0    0 -0.15610954654E+02  0.10454918150E+02 -0.17385338147E+02  0.25597992132E+02  0.00000000000E+00 0. -1.
</event>
<event>
 7    1  0.2944263E-013  0.7246152E+02  0.7816164E-02  0.1226708E+00
        -11   -1    0    0    0    0  0.00000000000E+00  0.00000000000E+00  0.45593999997E+02  0.45594000000E+02  0.51100000000E-03 0.  1.
         11   -1    0    0    0    0 -0.00000000000E+00 -0.00000000000E+00 -0.45593999997E+02  0.45594000000E+02  0.51100000000E-03 0. -1.
    9900012    2    1    2    0    0 -0.79637754170E+01  0.15662172268E+02 -0.64773286088E+01  0.72461517550E+02  0.69999931291E+02 0.  0.
         12    1    1    2    0    0  0.79637754170E+01 -0.15662172268E+02  0.64773286088E+01  0.18726482450E+02  0.00000000000E+00 0. -1.
         11    1    3    3    0    0 -0.12535830152E+02  0.19472505846E+02  0.64677035070E+01  0.24044889487E+02  0.51100000000E-03 0. -1.
        -11    1    3    3    0    0 -0.34252409704E+01 -0.89885173411E+01  0.15598018544E+02  0.18325498696E+02  0.51100000000E-03 0.  1.
        -12    1    3    3    0    0  0.79972957052E+01  0.51781837623E+01 -0.28543050659E+02  0.30091129368E+02  0.00000000000E+00 0.  1.
</event>
<event>
 7    1  0.2944263E-013  0.7246157E+02  0.7816164E-02  0.1226708E+00
        -11   -1    0    0    0    0  0.00000000000E+00  0.00000000000E+00  0.45593999997E+02  0.45594000000E+02  0.51100000000E-03 0.  1.
         11   -1    0    0    0    0 -0.00000000000E+00 -0.00000000000E+00 -0.45593999997E+02  0.45594000000E+02  0.51100000000E-03 0. -1.
    9900012    2    1    2    0    0 -0.65869943172E+01  0.13883360315E+02  0.10702473791E+02  0.72461571269E+02  0.70000001270E+02 0.  0.
         12    1    1    2    0    0  0.65869943172E+01 -0.13883360315E+02 -0.10702473791E+02  0.18726428731E+02  0.00000000000E+00 0. -1.
         11    1    3    3    0    0 -0.21204231709E+02 -0.41761626325E+01  0.17731423809E+02  0.27954662711E+02  0.51100000000E-03 0. -1.
        -11    1    3    3    0    0 -0.11575159760E+02  0.37502813663E+01  0.38153112261E+01  0.12751687489E+02  0.51100000000E-03 0.  1.
         12    1    3    3    0    0  0.26192397153E+02  0.14309241581E+02 -0.10844261244E+02  0.31755221069E+02  0.00000000000E+00 0. -1.
</event>
<event>
 7    1  0.2944263E-013  0.7246157E+02  0.7816164E-02  0.1226708E+00
        -11   -1    0    0    0    0  0.00000000000E+00  0.00000000000E+00  0.45593999997E+02  0.45594000000E+02  0.51100000000E-03 0.  1.
         11   -1    0    0    0    0 -0.00000000000E+00 -0.00000000000E+00 -0.45593999997E+02  0.45594000000E+02  0.51100000000E-03 0. -1.
    9900012    2    1    2    0    0 -0.61270569805E+01 -0.14092753120E+02  0.10701989654E+02  0.72461572143E+02  0.70000002408E+02 0.  0.
         12    1    1    2    0    0  0.61270569805E+01  0.14092753120E+02 -0.10701989654E+02  0.18726427857E+02  0.00000000000E+00 0. -1.
         11    1    3    3    0    0 -0.18089847708E+02  0.59614062112E+01  0.59178753537E+01  0.19944979395E+02  0.51100000000E-03 0. -1.
        -11    1    3    3    0    0 -0.27185854429E+01 -0.25507090050E+02  0.18557421051E+02  0.31660388910E+02  0.51100000000E-03 0.  1.
         12    1    3    3    0    0  0.14681376170E+02  0.54529307185E+01 -0.13773306750E+02  0.20856203838E+02  0.00000000000E+00 0. -1.
</event>
<event>
 7    1  0.2944263E-013  0.7246148E+02  0.7816164E-02  0.1226708E+00
        -11   -1    0    0    0    0  0.00000000000E+00  0.00000000000E+00  0.45593999997E+02  0.45594000000E+02  0.51100000000E-03 0.  1.
         11   -1    0    0    0    0 -0.00000000000E+00 -0.00000000000E+00 -0.45593999997E+02  0.45594000000E+02  0.51100000000E-03 0. -1.
    9900012    2    1    2    0    0 -0.66033205470E+01  0.85957609039E+01  0.15270618270E+02  0.72461475226E+02  0.69999876156E+02 0.  0.
         12    1    1    2    0    0  0.66033205470E+01 -0.85957609039E+01 -0.15270618270E+02  0.18726524774E+02  0.00000000000E+00 0. -1.
         11    1    3    3    0    0 -0.63098465577E+00  0.38067833787E+01  0.84063374299E+01  0.92496621870E+01  0.51100000000E-03 0. -1.
        -11    1    3    3    0    0  0.18458039895E+02 -0.74025991173E+01  0.23851970481E+02  0.31055019023E+02  0.51100000000E-03 0.  1.
         12    1    3    3    0    0 -0.24430375786E+02  0.12191576643E+02 -0.16987689641E+02  0.32156794016E+02  0.00000000000E+00 0. -1.
</event>
<event>
 7    1  0.2944263E-013  0.7246158E+02  0.7816164E-02  0.1226708E+00
        -11   -1    0    0    0    0  0.00000000000E+00  0.00000000000E+00  0.45593999997E+02  0.45594000000E+02  0.51100000000E-03 0. -1.
         11   -1    0    0    0    0 -0.00000000000E+00 -0.00000000000E+00 -0.45593999997E+02  0.45594000000E+02  0.51100000000E-03 0.  1.
    9900012    2    1    2    0    0  0.36048110217E+01 -0.51185693634E+01 -0.17648921854E+02  0.72461578627E+02  0.70000010854E+02 0.  0.
         12    1    1    2    0    0 -0.36048110217E+01  0.51185693634E+01  0.17648921854E+02  0.18726421373E+02  0.00000000000E+00 0. -1.
         11    1    3    3    0    0  0.21926044553E+02  0.20324728689E+02 -0.13605276242E+02  0.32847367747E+02  0.51100000000E-03 0.  1.
        -11    1    3    3    0    0  0.49684325583E+01 -0.63726818242E+01  0.31369686307E+01  0.86681582917E+01  0.51100000000E-03 0. -1.
         12    1    3    3    0    0 -0.23289666089E+02 -0.19070616228E+02 -0.71806142426E+01  0.30946052588E+02  0.00000000000E+00 0. -1.
</event>
<event>
 7    1  0.2944263E-013  0.7246156E+02  0.7816164E-02  0.1226708E+00
        -11   -1    0    0    0    0  0.00000000000E+00  0.00000000000E+00  0.45593999997E+02  0.45594000000E+02  0.51100000000E-03 0. -1.
         11   -1    0    0    0    0 -0.00000000000E+00 -0.00000000000E+00 -0.45593999997E+02  0.45594000000E+02  0.51100000000E-03 0.  1.
    9900012    2    1    2    0    0 -0.14179563528E+02 -0.63931080589E+01 -0.10428220633E+02  0.72461557784E+02  0.69999983702E+02 0.  0.
         12    1    1    2    0    0  0.14179563528E+02  0.63931080589E+01  0.10428220633E+02  0.18726442216E+02  0.00000000000E+00 0. -1.
         11    1    3    3    0    0  0.13680609346E+02 -0.11405719423E+02 -0.83567325703E+01  0.19674462818E+02  0.51100000000E-03 0. -1.
        -11    1    3    3    0    0 -0.23261695088E+02  0.56296396829E+01 -0.21889164287E+02  0.32433544592E+02  0.51100000000E-03 0.  1.
        -12    1    3    3    0    0 -0.45984777872E+01 -0.61702831841E+00  0.19817676224E+02  0.20353550374E+02  0.00000000000E+00 0.  1.
</event>
<event>
 7    1  0.2944263E-013  0.7246162E+02  0.7816164E-02  0.1226708E+00
        -11   -1    0    0    0    0  0.00000000000E+00  0.00000000000E+00  0.45593999997E+02  0.45594000000E+02  0.51100000000E-03 0.  1.
         11   -1    0    0    0    0 -0.00000000000E+00 -0.00000000000E+00 -0.45593999997E+02  0.45594000000E+02  0.51100000000E-03 0. -1.
    9900012    2    1    2    0    0 -0.10257329939E+02 -0.88877799680E+01  0.12902397542E+02  0.72461619875E+02  0.70000064588E+02 0.  0.
         12    1    1    2    0    0  0.10257329939E+02  0.88877799680E+01 -0.12902397542E+02  0.18726380125E+02  0.00000000000E+00 0. -1.
         11    1    3    3    0    0 -0.11084554524E+01  0.27988102354E+02  0.93127534308E+01  0.29517620561E+02  0.51100000000E-03 0. -1.
        -11    1    3    3    0    0 -0.22890961464E+01 -0.10670956231E+01 -0.48965341504E+01  0.55095100675E+01  0.51100000000E-03 0.  1.
        -12    1    3    3    0    0 -0.68597783399E+01 -0.35808786699E+02  0.84861782620E+01  0.37434489247E+02  0.00000000000E+00 0.  1.
</event>
<event>
 7    1  0.2944263E-013  0.7246166E+02  0.7816164E-02  0.1226708E+00
        -11   -1    0    0    0    0  0.00000000000E+00  0.00000000000E+00  0.45593999997E+02  0.45594000000E+02  0.51100000000E-03 0. -1.
         11   -1    0    0    0    0 -0.00000000000E+00 -0.00000000000E+00 -0.45593999997E+02  0.45594000000E+02  0.51100000000E-03 0.  1.
    9900012    2    1    2    0    0 -0.17352280296E+02 -0.52227945120E+01 -0.47219098866E+01  0.72461664348E+02  0.70000122522E+02 0.  0.
         12    1    1    2    0    0  0.17352280296E+02  0.52227945120E+01  0.47219098866E+01  0.18726335652E+02  0.00000000000E+00 0. -1.
         11    1    3    3    0    0 -0.36379179867E+01 -0.24714180146E+02  0.76960938620E+01  0.26139147051E+02  0.51100000000E-03 0. -1.
        -11    1    3    3    0    0  0.71675693826E+01 -0.75608112786E+01 -0.21351044705E+01  0.10634782057E+02  0.51100000000E-03 0.  1.
        -12    1    3    3    0    0 -0.20881931691E+02  0.27052196913E+02 -0.10282899278E+02  0.35687735240E+02  0.00000000000E+00 0.  1.
</event>
<event>
 7    1  0.2944263E-013  0.7246160E+02  0.7816164E-02  0.1226708E+00
        -11   -1    0    0    0    0  0.00000000000E+00  0.00000000000E+00  0.45593999997E+02  0.45594000000E+02  0.51100000000E-03 0.  1.
         11   -1    0    0    0    0 -0.00000000000E+00 -0.00000000000E+00 -0.45593999997E+02  0.45594000000E+02  0.51100000000E-03 0. -1.
    9900012    2    1    2    0    0  0.15458772079E+01  0.18325180112E+02 -0.35321372355E+01  0.72461602698E+02  0.70000042211E+02 0.  0.
         12    1    1    2    0    0 -0.15458772079E+01 -0.18325180112E+02  0.35321372355E+01  0.18726397302E+02  0.00000000000E+00 0. -1.
         11    1    3    3    0    0  0.17975364014E+02 -0.79923989960E+01 -0.20767103611E+02  0.28605327227E+02  0.51100000000E-03 0. -1.
        -11    1    3    3    0    0  0.50441712986E+01  0.66608057631E+01  0.11451195678E+02  0.14175326459E+02  0.51100000000E-03 0.  1.
        -12    1    3    3    0    0 -0.21473658104E+02  0.19656773345E+02  0.57837706973E+01  0.29680949011E+02  0.00000000000E+00 0.  1.
</event>
<event>
 7    1  0.2944263E-013  0.7246164E+02  0.7816164E-02  0.1226708E+00
        -11   -1    0    0    0    0  0.00000000000E+00  0.00000000000E+00  0.45593999997E+02  0.45594000000E+02  0.51100000000E-03 0. -1.
         11   -1    0    0    0    0 -0.00000000000E+00 -0.00000000000E+00 -0.45593999997E+02  0.45594000000E+02  0.51100000000E-03 0.  1.
    9900012    2    1    2    0    0  0.46740858840E+01 -0.75356107968E+01 -0.16493763457E+02  0.72461635112E+02  0.70000084437E+02 0.  0.
         12    1    1    2    0    0 -0.46740858840E+01  0.75356107968E+01  0.16493763457E+02  0.18726364888E+02  0.00000000000E+00 0. -1.
         11    1    3    3    0    0  0.26534805681E+01 -0.14148375352E+02  0.49158485341E+01  0.15211280397E+02  0.51100000000E-03 0. -1.
        -11    1    3    3    0    0  0.41302182427E+00 -0.11119034445E+02 -0.33783234355E+02  0.35568390992E+02  0.51100000000E-03 0.  1.
        -12    1    3    3    0    0  0.16075834917E+01  0.17731799000E+02  0.12373622364E+02  0.21681963723E+02  0.00000000000E+00 0.  1.
</event>
<event>
 7    1  0.2944263E-013  0.7246157E+02  0.7816164E-02  0.1226708E+00
        -11   -1    0    0    0    0  0.00000000000E+00  0.00000000000E+00  0.45593999997E+02  0.45594000000E+02  0.51100000000E-03 0. -1.
         11   -1    0    0    0    0 -0.00000000000E+00 -0.00000000000E+00 -0.45593999997E+02  0.45594000000E+02  0.51100000000E-03 0.  1.
    9900012    2    1    2    0    0  0.16517535158E+02 -0.86308017291E+01  0.18328448982E+01  0.72461574111E+02  0.70000004971E+02 0.  0.
         12    1    1    2    0    0 -0.16517535158E+02  0.86308017291E+01 -0.18328448982E+01  0.18726425889E+02  0.00000000000E+00 0. -1.
         11    1    3    3    0    0 -0.21678690341E+01  0.66074335640E+01  0.16476942300E+02  0.17884279752E+02  0.51100000000E-03 0. -1.
        -11    1    3    3    0    0  0.14812749980E+01  0.54099820607E+01 -0.25114740573E+02  0.25733485497E+02  0.51100000000E-03 0.  1.
         12    1    3    3    0    0  0.17204129194E+02 -0.20648217354E+02  0.10470643172E+02  0.28843808861E+02  0.00000000000E+00 0. -1.
</event>
<event>
 7    1  0.2944263E-013  0.7246160E+02  0.7816164E-02  0.1226708E+00
        -11   -1    0    0    0    0  0.00000000000E+00  0.00000000000E+00  0.45593999997E+02  0.45594000000E+02  0.51100000000E-03 0. -1.
         11   -1    0    0    0    0 -0.00000000000E+00 -0.00000000000E+00 -0.45593999997E+02  0.45594000000E+02  0.51100000000E-03 0.  1.
    9900012    2    1    2    0    0 -0.53023737276E+01  0.16933141750E+02 -0.59859602522E+01  0.72461596799E+02  0.70000034528E+02 0.  0.
         12    1    1    2    0    0  0.53023737276E+01 -0.16933141750E+02  0.59859602522E+01  0.18726403201E+02  0.00000000000E+00 0. -1.
         11    1    3    3    0    0 -0.14641235295E+02 -0.30494829817E+01 -0.13500317139E+02  0.20147547755E+02  0.51100000000E-03 0. -1.
        -11    1    3    3    0    0 -0.16762604958E+02  0.15192358978E+02 -0.46915176726E+01  0.23104177861E+02  0.51100000000E-03 0.  1.
         12    1    3    3    0    0  0.26101466526E+02  0.47902657545E+01  0.12205874559E+02  0.29209871184E+02  0.00000000000E+00 0. -1.
</event>
<event>
 7    1  0.2944263E-013  0.7246158E+02  0.7816164E-02  0.1226708E+00
        -11   -1    0    0    0    0  0.00000000000E+00  0.00000000000E+00  0.45593999997E+02  0.45594000000E+02  0.51100000000E-03 0.  1.
         11   -1    0    0    0    0 -0.00000000000E+00 -0.00000000000E+00 -0.45593999997E+02  0.45594000000E+02  0.51100000000E-03 0. -1.
    9900012    2    1    2    0    0 -0.92974365392E+01 -0.60281451016E+01  0.15096287467E+02  0.72461581366E+02  0.70000014423E+02 0.  0.
         12    1    1    2    0    0  0.92974365392E+01  0.60281451016E+01 -0.15096287467E+02  0.18726418634E+02  0.00000000000E+00 0. -1.
         11    1    3    3    0    0 -0.93712265748E+00  0.73749249480E+01 -0.15740393626E+02  0.17407691076E+02  0.51100000000E-03 0. -1.
        -11    1    3    3    0    0 -0.78785568779E+01 -0.72340583703E+01 -0.94634617429E+01  0.14281469371E+02  0.51100000000E-03 0.  1.
        -12    1    3    3    0    0 -0.48175700384E+00 -0.61690116793E+01  0.40300142836E+02  0.40772420918E+02  0.00000000000E+00 0.  1.
</event>
<event>
 7    1  0.2944263E-013  0.7246151E+02  0.7816164E-02  0.1226708E+00
        -11   -1    0    0    0    0  0.00000000000E+00  0.00000000000E+00  0.45593999997E+02  0.45594000000E+02  0.51100000000E-03 0.  1.
         11   -1    0    0    0    0 -0.00000000000E+00 -0.00000000000E+00 -0.45593999997E+02  0.45594000000E+02  0.51100000000E-03 0. -1.
    9900012    2    1    2    0    0  0.17283150213E+02 -0.55585069484E+01 -0.45909764326E+01  0.72461512198E+02  0.69999924319E+02 0.  0.
         12    1    1    2    0    0 -0.17283150213E+02  0.55585069484E+01  0.45909764326E+01  0.18726487802E+02  0.00000000000E+00 0. -1.
         11    1    3    3    0    0 -0.17192314717E+02 -0.11147214763E+02  0.75575398343E+01  0.21839241995E+02  0.51100000000E-03 0. -1.
        -11    1    3    3    0    0 -0.36459612058E+00 -0.50727731895E+01  0.76266027752E+01  0.91668439670E+01  0.51100000000E-03 0.  1.
         12    1    3    3    0    0  0.34840061051E+02  0.10661481004E+02 -0.19775119042E+02  0.41455426236E+02  0.00000000000E+00 0. -1.
</event>
<event>
 7    1  0.2944263E-013  0.7246158E+02  0.7816164E-02  0.1226708E+00
        -11   -1    0    0    0    0  0.00000000000E+00  0.00000000000E+00  0.45593999997E+02  0.45594000000E+02  0.51100000000E-03 0. -1.
         11   -1    0    0    0    0 -0.00000000000E+00 -0.00000000000E+00 -0.45593999997E+02  0.45594000000E+02  0.51100000000E-03 0.  1.
    9900012    2    1    2    0    0  0.69736538253E+00 -0.18419457282E+02  0.33039379687E+01  0.72461581999E+02  0.70000015248E+02 0.  0.
         12    1    1    2    0    0 -0.69736538253E+00  0.18419457282E+02 -0.33039379687E+01  0.18726418001E+02  0.00000000000E+00 0. -1.
         11    1    3    3    0    0  0.11448212267E+02  0.48150252700E+01  0.21232623360E+02  0.24598177320E+02  0.51100000000E-03 0. -1.
        -11    1    3    3    0    0  0.21276506502E+01 -0.98125503964E+01  0.10088574650E+02  0.14233495048E+02  0.51100000000E-03 0.  1.
        -12    1    3    3    0    0 -0.12878497535E+02 -0.13421932156E+02 -0.28017260041E+02  0.33629909630E+02  0.00000000000E+00 0.  1.
</event>
<event>
 7    1  0.2944263E-013  0.7246189E+02  0.7816164E-02  0.1226707E+00
        -11   -1    0    0    0    0  0.00000000000E+00  0.00000000000E+00  0.45593999997E+02  0.45594000000E+02  0.51100000000E-03 0.  1.
         11   -1    0    0    0    0 -0.00000000000E+00 -0.00000000000E+00 -0.45593999997E+02  0.45594000000E+02  0.51100000000E-03 0. -1.
    9900012    2    1    2    0    0  0.14764557739E+02 -0.70924310232E+01  0.90759292273E+01  0.72461888968E+02  0.70000415131E+02 0.  0.
         12    1    1    2    0    0 -0.14764557739E+02  0.70924310232E+01 -0.90759292273E+01  0.18726111032E+02  0.00000000000E+00 0. -1.
         11    1    3    3    0    0 -0.11459447374E+01  0.24638834015E+01 -0.43143170552E+01  0.50987491281E+01  0.51100000000E-03 0. -1.
        -11    1    3    3    0    0  0.16441583928E+02  0.17520891468E+02 -0.14841713553E+02  0.28241525832E+02  0.51100000000E-03 0.  1.
        -12    1    3    3    0    0 -0.53108145208E+00 -0.27077205892E+02  0.28231959835E+02  0.39121614008E+02  0.00000000000E+00 0.  1.
</event>
<event>
 7    1  0.2944263E-013  0.7246151E+02  0.7816164E-02  0.1226708E+00
        -11   -1    0    0    0    0  0.00000000000E+00  0.00000000000E+00  0.45593999997E+02  0.45594000000E+02  0.51100000000E-03 0. -1.
         11   -1    0    0    0    0 -0.00000000000E+00 -0.00000000000E+00 -0.45593999997E+02  0.45594000000E+02  0.51100000000E-03 0.  1.
    9900012    2    1    2    0    0  0.73011056975E+01 -0.62988699565E+01 -0.16053020750E+02  0.72461511212E+02  0.69999923034E+02 0.  0.
         12    1    1    2    0    0 -0.73011056975E+01  0.62988699565E+01  0.16053020750E+02  0.18726488788E+02  0.00000000000E+00 0. -1.
         11    1    3    3    0    0 -0.12238273850E+02 -0.16861526275E+02  0.31958259133E+01  0.21078418315E+02  0.51100000000E-03 0.  1.
        -11    1    3    3    0    0 -0.35875934927E+01  0.19451962588E+02  0.36403409161E+00  0.19783381831E+02  0.51100000000E-03 0. -1.
        -12    1    3    3    0    0  0.23126973040E+02 -0.88893062696E+01 -0.19612880755E+02  0.31599711066E+02  0.00000000000E+00 0.  1.
</event>
<event>
 7    1  0.2944263E-013  0.7246160E+02  0.7816164E-02  0.1226708E+00
        -11   -1    0    0    0    0  0.00000000000E+00  0.00000000000E+00  0.45593999997E+02  0.45594000000E+02  0.51100000000E-03 0.  1.
         11   -1    0    0    0    0 -0.00000000000E+00 -0.00000000000E+00 -0.45593999997E+02  0.45594000000E+02  0.51100000000E-03 0. -1.
    9900012    2    1    2    0    0  0.30468757156E+01 -0.64168098171E+01  0.17326835239E+02  0.72461598337E+02  0.70000036531E+02 0.  0.
         12    1    1    2    0    0 -0.30468757156E+01  0.64168098171E+01 -0.17326835239E+02  0.18726401663E+02  0.00000000000E+00 0. -1.
         11    1    3    3    0    0 -0.46406961974E+01  0.36808822538E+01 -0.98307512241E+00  0.60042811660E+01  0.51100000000E-03 0. -1.
        -11    1    3    3    0    0 -0.88529548242E+01  0.17556956457E+02  0.26700333733E+02  0.33159151842E+02  0.51100000000E-03 0.  1.
         12    1    3    3    0    0  0.16540526737E+02 -0.27654648528E+02 -0.83904233718E+01  0.33298165330E+02  0.00000000000E+00 0. -1.
</event>
<event>
 7    1  0.2944263E-013  0.7246165E+02  0.7816164E-02  0.1226708E+00
        -11   -1    0    0    0    0  0.00000000000E+00  0.00000000000E+00  0.45593999997E+02  0.45594000000E+02  0.51100000000E-03 0. -1.
         11   -1    0    0    0    0 -0.00000000000E+00 -0.00000000000E+00 -0.45593999997E+02  0.45594000000E+02  0.51100000000E-03 0.  1.
    9900012    2    1    2    0    0 -0.84605552831E+01 -0.88946006017E+01  0.14141474582E+02  0.72461649076E+02  0.70000102628E+02 0.  0.
         12    1    1    2    0    0  0.84605552831E+01  0.88946006017E+01 -0.14141474582E+02  0.18726350924E+02  0.00000000000E+00 0. -1.
         11    1    3    3    0    0 -0.85587110739E+01  0.57416629054E-02 -0.33204567447E+01  0.91802506212E+01  0.51100000000E-03 0. -1.
        -11    1    3    3    0    0  0.27180359226E+02  0.78513457019E+01  0.12965799429E+02  0.31121174658E+02  0.51100000000E-03 0.  1.
         12    1    3    3    0    0 -0.27082203435E+02 -0.16751687966E+02  0.44961318982E+01  0.32160223797E+02  0.00000000000E+00 0. -1.
</event>
<event>
 7    1  0.2944263E-013  0.7246164E+02  0.7816164E-02  0.1226708E+00
        -11   -1    0    0    0    0  0.00000000000E+00  0.00000000000E+00  0.45593999997E+02  0.45594000000E+02  0.51100000000E-03 0. -1.
         11   -1    0    0    0    0 -0.00000000000E+00 -0.00000000000E+00 -0.45593999997E+02  0.45594000000E+02  0.51100000000E-03 0.  1.
    9900012    2    1    2    0    0  0.82477541318E+01  0.70115193844E+01 -0.15280370355E+02  0.72461639690E+02  0.70000090400E+02 0.  0.
         12    1    1    2    0    0 -0.82477541318E+01 -0.70115193844E+01  0.15280370355E+02  0.18726360310E+02  0.00000000000E+00 0. -1.
         11    1    3    3    0    0  0.12177834166E+02 -0.23200015059E+01 -0.24269522743E+02  0.27252372124E+02  0.51100000000E-03 0. -1.
        -11    1    3    3    0    0 -0.16687844762E+02  0.20281086006E+02  0.25904396170E+00  0.26265447196E+02  0.51100000000E-03 0.  1.
         12    1    3    3    0    0  0.12757764727E+02 -0.10949565115E+02  0.87301084268E+01  0.18943820370E+02  0.00000000000E+00 0. -1.
</event>
<event>
 7    1  0.2944263E-013  0.7246153E+02  0.7816164E-02  0.1226708E+00
        -11   -1    0    0    0    0  0.00000000000E+00  0.00000000000E+00  0.45593999997E+02  0.45594000000E+02  0.51100000000E-03 0.  1.
         11   -1    0    0    0    0 -0.00000000000E+00 -0.00000000000E+00 -0.45593999997E+02  0.45594000000E+02  0.51100000000E-03 0. -1.
    9900012    2    1    2    0    0  0.93191943128E+01 -0.15363725813E+02  0.52715532352E+01  0.72461528709E+02  0.69999945827E+02 0.  0.
         12    1    1    2    0    0 -0.93191943128E+01  0.15363725813E+02 -0.52715532352E+01  0.18726471291E+02  0.00000000000E+00 0. -1.
         11    1    3    3    0    0 -0.73109881928E+01  0.51271646221E+01 -0.12592755500E+02  0.15437482203E+02  0.51100000000E-03 0. -1.
        -11    1    3    3    0    0 -0.14207961639E+02 -0.11839805150E+02  0.16787493225E+02  0.24977331502E+02  0.51100000000E-03 0.  1.
         12    1    3    3    0    0  0.30838144144E+02 -0.86510852850E+01  0.10768155103E+01  0.32046715004E+02  0.00000000000E+00 0. -1.
</event>
<event>
 7    1  0.2944263E-013  0.7246148E+02  0.7816164E-02  0.1226708E+00
        -11   -1    0    0    0    0  0.00000000000E+00  0.00000000000E+00  0.45593999997E+02  0.45594000000E+02  0.51100000000E-03 0. -1.
         11   -1    0    0    0    0 -0.00000000000E+00 -0.00000000000E+00 -0.45593999997E+02  0.45594000000E+02  0.51100000000E-03 0.  1.
    9900012    2    1    2    0    0 -0.65694667279E+01 -0.16383810797E+02  0.62526232993E+01  0.72461482773E+02  0.69999885988E+02 0.  0.
         12    1    1    2    0    0  0.65694667279E+01  0.16383810797E+02 -0.62526232993E+01  0.18726517227E+02  0.00000000000E+00 0. -1.
         11    1    3    3    0    0 -0.19757531480E+01 -0.26848135877E+02  0.15815687565E+02  0.31222779729E+02  0.51100000000E-03 0. -1.
        -11    1    3    3    0    0 -0.13251865517E+02 -0.42878375517E+01 -0.17512903597E+02  0.22376310760E+02  0.51100000000E-03 0.  1.
        -12    1    3    3    0    0  0.86581519374E+01  0.14752162632E+02  0.79498393316E+01  0.18862392284E+02  0.00000000000E+00 0.  1.
</event>
<event>
 7    1  0.2944263E-013  0.7246156E+02  0.7816164E-02  0.1226708E+00
        -11   -1    0    0    0    0  0.00000000000E+00  0.00000000000E+00  0.45593999997E+02  0.45594000000E+02  0.51100000000E-03 0.  1.
         11   -1    0    0    0    0 -0.00000000000E+00 -0.00000000000E+00 -0.45593999997E+02  0.45594000000E+02  0.51100000000E-03 0. -1.
    9900012    2    1    2    0    0 -0.13977441395E+02 -0.10915688100E+02  0.60131915566E+01  0.72461559139E+02  0.69999985468E+02 0.  0.
         12    1    1    2    0    0  0.13977441395E+02  0.10915688100E+02 -0.60131915566E+01  0.18726440861E+02  0.00000000000E+00 0. -1.
         11    1    3    3    0    0 -0.42297609339E+00 -0.44011478968E+01 -0.55012367341E+01  0.70578054274E+01  0.51100000000E-03 0. -1.
        -11    1    3    3    0    0  0.91410404691E+01  0.21346724854E+02  0.17363889105E+02  0.28995619117E+02  0.51100000000E-03 0.  1.
         12    1    3    3    0    0 -0.22695505771E+02 -0.27861265057E+02 -0.58494608146E+01  0.36408134594E+02  0.00000000000E+00 0. -1.
</event>
<event>
 7    1  0.2944263E-013  0.7246154E+02  0.7816164E-02  0.1226708E+00
        -11   -1    0    0    0    0  0.00000000000E+00  0.00000000000E+00  0.45593999997E+02  0.45594000000E+02  0.51100000000E-03 0. -1.
         11   -1    0    0    0    0 -0.00000000000E+00 -0.00000000000E+00 -0.45593999997E+02  0.45594000000E+02  0.51100000000E-03 0.  1.
    9900012    2    1    2    0    0 -0.38898697654E+01 -0.14053089532E+02 -0.11749884396E+02  0.72461542900E+02  0.69999964314E+02 0.  0.
         12    1    1    2    0    0  0.38898697654E+01  0.14053089532E+02  0.11749884396E+02  0.18726457100E+02  0.00000000000E+00 0. -1.
         11    1    3    3    0    0 -0.95618619155E+01 -0.49898730815E+01 -0.78959011126E+01  0.13366872907E+02  0.51100000000E-03 0. -1.
        -11    1    3    3    0    0  0.89758865555E+01  0.52715576380E+01 -0.28528242847E+02  0.30368017709E+02  0.51100000000E-03 0.  1.
         12    1    3    3    0    0 -0.33038944054E+01 -0.14334774089E+02  0.24674259564E+02  0.28726652284E+02  0.00000000000E+00 0. -1.
</event>
<event>
 7    1  0.2944263E-013  0.7246138E+02  0.7816164E-02  0.1226709E+00
        -11   -1    0    0    0    0  0.00000000000E+00  0.00000000000E+00  0.45593999997E+02  0.45594000000E+02  0.51100000000E-03 0. -1.
         11   -1    0    0    0    0 -0.00000000000E+00 -0.00000000000E+00 -0.45593999997E+02  0.45594000000E+02  0.51100000000E-03 0.  1.
    9900012    2    1    2    0    0 -0.14211884416E+02  0.37526155129E+01 -0.11602858654E+02  0.72461384962E+02  0.69999758569E+02 0.  0.
         12    1    1    2    0    0  0.14211884416E+02 -0.37526155129E+01  0.11602858654E+02  0.18726615038E+02  0.00000000000E+00 0. -1.
         11    1    3    3    0    0  0.12175462674E+02  0.64008637280E+01 -0.10916764889E+01  0.13798721158E+02  0.51100000000E-03 0. -1.
        -11    1    3    3    0    0  0.52970279653E+01  0.20823681089E+01 -0.23436619631E+02  0.24117833696E+02  0.51100000000E-03 0.  1.
         12    1    3    3    0    0 -0.31684375055E+02 -0.47306163240E+01  0.12925437466E+02  0.34544830107E+02  0.00000000000E+00 0. -1.
</event>
<event>
 7    1  0.2944263E-013  0.7246163E+02  0.7816164E-02  0.1226708E+00
        -11   -1    0    0    0    0  0.00000000000E+00  0.00000000000E+00  0.45593999997E+02  0.45594000000E+02  0.51100000000E-03 0. -1.
         11   -1    0    0    0    0 -0.00000000000E+00 -0.00000000000E+00 -0.45593999997E+02  0.45594000000E+02  0.51100000000E-03 0.  1.
    9900012    2    1    2    0    0  0.45422758836E+01 -0.18004462926E+02 -0.24257219323E+01  0.72461626023E+02  0.70000072596E+02 0.  0.
         12    1    1    2    0    0 -0.45422758836E+01  0.18004462926E+02  0.24257219323E+01  0.18726373977E+02  0.00000000000E+00 0. -1.
         11    1    3    3    0    0 -0.20620773522E+02 -0.68489138828E+01 -0.14641596579E+02  0.26201150216E+02  0.51100000000E-03 0. -1.
        -11    1    3    3    0    0 -0.20732345970E+01 -0.13046883874E+01 -0.96591133767E+01  0.99648876043E+01  0.51100000000E-03 0.  1.
        -12    1    3    3    0    0  0.27236284002E+02 -0.98508606555E+01  0.21874988024E+02  0.36295588202E+02  0.00000000000E+00 0.  1.
</event>
<event>
 7    1  0.2944263E-013  0.7246171E+02  0.7816164E-02  0.1226708E+00
        -11   -1    0    0    0    0  0.00000000000E+00  0.00000000000E+00  0.45593999997E+02  0.45594000000E+02  0.51100000000E-03 0.  1.
         11   -1    0    0    0    0 -0.00000000000E+00 -0.00000000000E+00 -0.45593999997E+02  0.45594000000E+02  0.51100000000E-03 0. -1.
    9900012    2    1    2    0    0 -0.17526386770E+02 -0.65928208832E+01  0.18586033085E+00  0.72461706601E+02  0.70000177565E+02 0.  0.
         12    1    1    2    0    0  0.17526386770E+02  0.65928208832E+01 -0.18586033085E+00  0.18726293399E+02  0.00000000000E+00 0. -1.
         11    1    3    3    0    0 -0.86588055847E+01  0.53402553289E+01  0.11859904842E+02  0.15625318693E+02  0.51100000000E-03 0. -1.
        -11    1    3    3    0    0 -0.16309292208E+02  0.18274922975E+02 -0.58848365446E+01  0.25191211235E+02  0.51100000000E-03 0.  1.
        -12    1    3    3    0    0  0.74417110229E+01 -0.30207999187E+02 -0.57892079669E+01  0.31645176673E+02  0.00000000000E+00 0.  1.
</event>
<event>
 7    1  0.2944263E-013  0.7246140E+02  0.7816164E-02  0.1226708E+00
        -11   -1    0    0    0    0  0.00000000000E+00  0.00000000000E+00  0.45593999997E+02  0.45594000000E+02  0.51100000000E-03 0. -1.
         11   -1    0    0    0    0 -0.00000000000E+00 -0.00000000000E+00 -0.45593999997E+02  0.45594000000E+02  0.51100000000E-03 0.  1.
    9900012    2    1    2    0    0 -0.60394281771E+01 -0.12467503146E+02 -0.12600481886E+02  0.72461402040E+02  0.69999780817E+02 0.  0.
         12    1    1    2    0    0  0.60394281771E+01  0.12467503146E+02  0.12600481886E+02  0.18726597960E+02  0.00000000000E+00 0. -1.
         11    1    3    3    0    0 -0.13406970144E+01 -0.10220606163E+01 -0.99693098297E+01  0.10110846410E+02  0.51100000000E-03 0. -1.
        -11    1    3    3    0    0 -0.17987509168E+02 -0.30217334314E+02 -0.12502430573E+02  0.37322225946E+02  0.51100000000E-03 0.  1.
         12    1    3    3    0    0  0.13288778005E+02  0.18771891784E+02  0.98712585172E+01  0.25028329683E+02  0.00000000000E+00 0. -1.
</event>
<event>
 7    1  0.2944263E-013  0.7246157E+02  0.7816164E-02  0.1226708E+00
        -11   -1    0    0    0    0  0.00000000000E+00  0.00000000000E+00  0.45593999997E+02  0.45594000000E+02  0.51100000000E-03 0. -1.
         11   -1    0    0    0    0 -0.00000000000E+00 -0.00000000000E+00 -0.45593999997E+02  0.45594000000E+02  0.51100000000E-03 0.  1.
    9900012    2    1    2    0    0 -0.34727415448E+01 -0.54031098519E+01 -0.17590497113E+02  0.72461571655E+02  0.70000001772E+02 0.  0.
         12    1    1    2    0    0  0.34727415448E+01  0.54031098519E+01  0.17590497113E+02  0.18726428345E+02  0.00000000000E+00 0. -1.
         11    1    3    3    0    0 -0.12259102825E+02 -0.64897458933E+01 -0.21304489987E+00  0.13872555361E+02  0.51100000000E-03 0. -1.
        -11    1    3    3    0    0 -0.57658227248E+01  0.25466773847E+02 -0.14960349529E+02  0.30093410245E+02  0.51100000000E-03 0.  1.
         12    1    3    3    0    0  0.14552184005E+02 -0.24380137805E+02 -0.24171026834E+01  0.28495606049E+02  0.00000000000E+00 0. -1.
</event>
<event>
 7    1  0.2944263E-013  0.7246155E+02  0.7816164E-02  0.1226708E+00
        -11   -1    0    0    0    0  0.00000000000E+00  0.00000000000E+00  0.45593999997E+02  0.45594000000E+02  0.51100000000E-03 0. -1.
         11   -1    0    0    0    0 -0.00000000000E+00 -0.00000000000E+00 -0.45593999997E+02  0.45594000000E+02  0.51100000000E-03 0.  1.
    9900012    2    1    2    0    0  0.18446681488E+02  0.29402814741E+01 -0.13246282140E+01  0.72461549376E+02  0.69999972750E+02 0.  0.
         12    1    1    2    0    0 -0.18446681488E+02 -0.29402814741E+01  0.13246282140E+01  0.18726450624E+02  0.00000000000E+00 0. -1.
         11    1    3    3    0    0  0.91659730632E+01  0.23148805305E+01  0.58415936387E+01  0.11112963177E+02  0.51100000000E-03 0. -1.
        -11    1    3    3    0    0  0.33723541801E+02  0.91537754637E+01 -0.58246179390E+01  0.35425909322E+02  0.51100000000E-03 0.  1.
         12    1    3    3    0    0 -0.24442833377E+02 -0.85283745200E+01 -0.13416039138E+01  0.25922676878E+02  0.00000000000E+00 0. -1.
</event>
<event>
 7    1  0.2944263E-013  0.7246157E+02  0.7816164E-02  0.1226708E+00
        -11   -1    0    0    0    0  0.00000000000E+00  0.00000000000E+00  0.45593999997E+02  0.45594000000E+02  0.51100000000E-03 0. -1.
         11   -1    0    0    0    0 -0.00000000000E+00 -0.00000000000E+00 -0.45593999997E+02  0.45594000000E+02  0.51100000000E-03 0.  1.
    9900012    2    1    2    0    0  0.86786816169E+01 -0.16571608994E+02  0.86104536352E+00  0.72461571126E+02  0.70000001083E+02 0.  0.
         12    1    1    2    0    0 -0.86786816169E+01  0.16571608994E+02 -0.86104536352E+00  0.18726428874E+02  0.00000000000E+00 0. -1.
         11    1    3    3    0    0 -0.67827534242E+01 -0.22856518992E+02 -0.17007637569E+02  0.29286275631E+02  0.51100000000E-03 0. -1.
        -11    1    3    3    0    0  0.10083981061E+02  0.18388965676E+02  0.48982300145E-01  0.20972437440E+02  0.51100000000E-03 0.  1.
        -12    1    3    3    0    0  0.53774539796E+01 -0.12104055678E+02  0.17819700632E+02  0.22202858054E+02  0.00000000000E+00 0.  1.
</event>
<event>
 7    1  0.2944263E-013  0.7246160E+02  0.7816164E-02  0.1226708E+00
        -11   -1    0    0    0    0  0.00000000000E+00  0.00000000000E+00  0.45593999997E+02  0.45594000000E+02  0.51100000000E-03 0. -1.
         11   -1    0    0    0    0 -0.00000000000E+00 -0.00000000000E+00 -0.45593999997E+02  0.45594000000E+02  0.51100000000E-03 0.  1.
    9900012    2    1    2    0    0 -0.12472496907E+02 -0.12015182932E+02 -0.71239331985E+01  0.72461595535E+02  0.70000032880E+02 0.  0.
         12    1    1    2    0    0  0.12472496907E+02  0.12015182932E+02  0.71239331985E+01  0.18726404465E+02  0.00000000000E+00 0. -1.
         11    1    3    3    0    0  0.72880112510E+01 -0.11646678542E+02  0.17019901792E+02  0.21873209329E+02  0.51100000000E-03 0. -1.
        -11    1    3    3    0    0 -0.13930588286E+02  0.18387255418E+02 -0.19964022484E+02  0.30507616193E+02  0.51100000000E-03 0.  1.
         12    1    3    3    0    0 -0.58299198711E+01 -0.18755759809E+02 -0.41798125073E+01  0.20080770013E+02  0.00000000000E+00 0. -1.
</event>
<event>
 7    1  0.2944263E-013  0.7246119E+02  0.7816164E-02  0.1226709E+00
        -11   -1    0    0    0    0  0.00000000000E+00  0.00000000000E+00  0.45593999997E+02  0.45594000000E+02  0.51100000000E-03 0.  1.
         11   -1    0    0    0    0 -0.00000000000E+00 -0.00000000000E+00 -0.45593999997E+02  0.45594000000E+02  0.51100000000E-03 0. -1.
    9900012    2    1    2    0    0 -0.88001620740E+01  0.13466377722E+02  0.95868182338E+01  0.72461193937E+02  0.69999509723E+02 0.  0.
         12    1    1    2    0    0  0.88001620740E+01 -0.13466377722E+02 -0.95868182338E+01  0.18726806063E+02  0.00000000000E+00 0. -1.
         11    1    3    3    0    0  0.49213993083E+01  0.94244731939E+01  0.14476601118E+02  0.17961426623E+02  0.51100000000E-03 0. -1.
        -11    1    3    3    0    0 -0.23023366496E+01 -0.89733453451E+01  0.21229461716E+02  0.23162722762E+02  0.51100000000E-03 0.  1.
         12    1    3    3    0    0 -0.11419224733E+02  0.13015249873E+02 -0.26119244600E+02  0.31337044552E+02  0.00000000000E+00 0. -1.
</event>
<event>
 7    1  0.2944263E-013  0.7246160E+02  0.7816164E-02  0.1226708E+00
        -11   -1    0    0    0    0  0.00000000000E+00  0.00000000000E+00  0.45593999997E+02  0.45594000000E+02  0.51100000000E-03 0. -1.
         11   -1    0    0    0    0 -0.00000000000E+00 -0.00000000000E+00 -0.45593999997E+02  0.45594000000E+02  0.51100000000E-03 0.  1.
    9900012    2    1    2    0    0  0.14821541104E+02  0.54388233440E+01 -0.10070710049E+02  0.72461599360E+02  0.70000037863E+02 0.  0.
         12    1    1    2    0    0 -0.14821541104E+02 -0.54388233440E+01  0.10070710049E+02  0.18726400640E+02  0.00000000000E+00 0. -1.
         11    1    3    3    0    0  0.24255053813E+02  0.89037359152E+01 -0.49039405505E+01  0.26298912181E+02  0.51100000000E-03 0. -1.
        -11    1    3    3    0    0  0.17929600083E+01  0.19713203472E+02  0.46611436220E+00  0.19800059585E+02  0.51100000000E-03 0.  1.
        -12    1    3    3    0    0 -0.11226472718E+02 -0.23178116043E+02 -0.56328838604E+01  0.26362627593E+02  0.00000000000E+00 0.  1.
</event>
<event>
 7    1  0.2944263E-013  0.7246157E+02  0.7816164E-02  0.1226708E+00
        -11   -1    0    0    0    0  0.00000000000E+00  0.00000000000E+00  0.45593999997E+02  0.45594000000E+02  0.51100000000E-03 0.  1.
         11   -1    0    0    0    0 -0.00000000000E+00 -0.00000000000E+00 -0.45593999997E+02  0.45594000000E+02  0.51100000000E-03 0. -1.
    9900012    2    1    2    0    0  0.92903340415E+01  0.76404254697E+01  0.14352442903E+02  0.72461574146E+02  0.70000005018E+02 0.  0.
         12    1    1    2    0    0 -0.92903340415E+01 -0.76404254697E+01 -0.14352442903E+02  0.18726425854E+02  0.00000000000E+00 0. -1.
         11    1    3    3    0    0 -0.99923754458E+01  0.58116935943E+01  0.12069845361E+01  0.11622399125E+02  0.51100000000E-03 0. -1.
        -11    1    3    3    0    0  0.10564951467E+02  0.28914042475E+02  0.45687954292E+01  0.31120956664E+02  0.51100000000E-03 0.  1.
         12    1    3    3    0    0  0.87177580199E+01 -0.27085310600E+02  0.85766629383E+01  0.29718218357E+02  0.00000000000E+00 0. -1.
</event>
<event>
 7    1  0.2944263E-013  0.7246154E+02  0.7816164E-02  0.1226708E+00
        -11   -1    0    0    0    0  0.00000000000E+00  0.00000000000E+00  0.45593999997E+02  0.45594000000E+02  0.51100000000E-03 0. -1.
         11   -1    0    0    0    0 -0.00000000000E+00 -0.00000000000E+00 -0.45593999997E+02  0.45594000000E+02  0.51100000000E-03 0.  1.
    9900012    2    1    2    0    0 -0.41402323592E+01 -0.17208046648E+02  0.61173390981E+01  0.72461541951E+02  0.69999963077E+02 0.  0.
         12    1    1    2    0    0  0.41402323592E+01  0.17208046648E+02 -0.61173390981E+01  0.18726458049E+02  0.00000000000E+00 0. -1.
         11    1    3    3    0    0 -0.35319791149E+01  0.13211907985E+00  0.23285224753E+02  0.23551943104E+02  0.51100000000E-03 0. -1.
        -11    1    3    3    0    0 -0.10099394977E+02  0.41463806805E+01 -0.22333292216E+02  0.24858925823E+02  0.51100000000E-03 0.  1.
         12    1    3    3    0    0  0.94911417323E+01 -0.21486546408E+02  0.51654065607E+01  0.24050673023E+02  0.00000000000E+00 0. -1.
</event>
<event>
 7    1  0.2944263E-013  0.7246157E+02  0.7816164E-02  0.1226708E+00
        -11   -1    0    0    0    0  0.00000000000E+00  0.00000000000E+00  0.45593999997E+02  0.45594000000E+02  0.51100000000E-03 0.  1.
         11   -1    0    0    0    0 -0.00000000000E+00 -0.00000000000E+00 -0.45593999997E+02  0.45594000000E+02  0.51100000000E-03 0. -1.
    9900012    2    1    2    0    0  0.12320390478E+02  0.65557626942E+01  0.12486364088E+02  0.72461565898E+02  0.69999994273E+02 0.  0.
         12    1    1    2    0    0 -0.12320390478E+02 -0.65557626942E+01 -0.12486364088E+02  0.18726434102E+02  0.00000000000E+00 0. -1.
         11    1    3    3    0    0  0.31536478477E+01  0.27354839380E+01 -0.17136224674E+01  0.45127452115E+01  0.51100000000E-03 0. -1.
        -11    1    3    3    0    0 -0.27732130194E+02 -0.43179762037E+01  0.15774720017E+01  0.28110574199E+02  0.51100000000E-03 0.  1.
         12    1    3    3    0    0  0.36898872825E+02  0.81382549598E+01  0.12622514554E+02  0.39838246487E+02  0.00000000000E+00 0. -1.
</event>
<event>
 7    1  0.2944263E-013  0.7246172E+02  0.7816164E-02  0.1226708E+00
        -11   -1    0    0    0    0  0.00000000000E+00  0.00000000000E+00  0.45593999997E+02  0.45594000000E+02  0.51100000000E-03 0. -1.
         11   -1    0    0    0    0 -0.00000000000E+00 -0.00000000000E+00 -0.45593999997E+02  0.45594000000E+02  0.51100000000E-03 0.  1.
    9900012    2    1    2    0    0 -0.26390074696E+01  0.17728588971E+02  0.54227457048E+01  0.72461724387E+02  0.70000200735E+02 0.  0.
         12    1    1    2    0    0  0.26390074696E+01 -0.17728588971E+02 -0.54227457048E+01  0.18726275613E+02  0.00000000000E+00 0. -1.
         11    1    3    3    0    0  0.25908822748E+00  0.14057826156E+02  0.10212816018E+02  0.17377894413E+02  0.51100000000E-03 0. -1.
        -11    1    3    3    0    0 -0.58171886071E+01  0.19905427738E+02 -0.22692305064E+02  0.30740957144E+02  0.51100000000E-03 0.  1.
        -12    1    3    3    0    0  0.29190929101E+01 -0.16234664923E+02  0.17902234751E+02  0.24342872831E+02  0.00000000000E+00 0.  1.
</event>
<event>
 7    1  0.2944263E-013  0.7246159E+02  0.7816164E-02  0.1226708E+00
        -11   -1    0    0    0    0  0.00000000000E+00  0.00000000000E+00  0.45593999997E+02  0.45594000000E+02  0.51100000000E-03 0. -1.
         11   -1    0    0    0    0 -0.00000000000E+00 -0.00000000000E+00 -0.45593999997E+02  0.45594000000E+02  0.51100000000E-03 0.  1.
    9900012    2    1    2    0    0  0.22672231099E+01  0.13503884613E+02 -0.12774321477E+02  0.72461588452E+02  0.70000023654E+02 0.  0.
         12    1    1    2    0    0 -0.22672231099E+01 -0.13503884613E+02  0.12774321477E+02  0.18726411548E+02  0.00000000000E+00 0. -1.
         11    1    3    3    0    0 -0.40811376285E+01  0.36554023429E+01  0.70035265298E+01  0.88919646167E+01  0.51100000000E-03 0. -1.
        -11    1    3    3    0    0 -0.12906938695E+02  0.29743693373E+02 -0.74854577822E+01  0.33276244385E+02  0.51100000000E-03 0.  1.
         12    1    3    3    0    0  0.19255299433E+02 -0.19895211102E+02 -0.12292390224E+02  0.30293379450E+02  0.00000000000E+00 0. -1.
</event>
<event>
 7    1  0.2944263E-013  0.7246160E+02  0.7816164E-02  0.1226708E+00
        -11   -1    0    0    0    0  0.00000000000E+00  0.00000000000E+00  0.45593999997E+02  0.45594000000E+02  0.51100000000E-03 0.  1.
         11   -1    0    0    0    0 -0.00000000000E+00 -0.00000000000E+00 -0.45593999997E+02  0.45594000000E+02  0.51100000000E-03 0. -1.
    9900012    2    1    2    0    0  0.37431929461E+01  0.46288145066E+01  0.17755020448E+02  0.72461597028E+02  0.70000034826E+02 0.  0.
         12    1    1    2    0    0 -0.37431929461E+01 -0.46288145066E+01 -0.17755020448E+02  0.18726402972E+02  0.00000000000E+00 0. -1.
         11    1    3    3    0    0 -0.49606682406E+01  0.10482139136E+01  0.25665976406E+02  0.26161982474E+02  0.51100000000E-03 0. -1.
        -11    1    3    3    0    0  0.16495906558E+02  0.38450752341E+01  0.14671758693E+02  0.22408927688E+02  0.51100000000E-03 0.  1.
         12    1    3    3    0    0 -0.77920453715E+01 -0.26447464112E+00 -0.22582714652E+02  0.23890686866E+02  0.00000000000E+00 0. -1.
</event>
<event>
 7    1  0.2944263E-013  0.7246162E+02  0.7816164E-02  0.1226708E+00
        -11   -1    0    0    0    0  0.00000000000E+00  0.00000000000E+00  0.45593999997E+02  0.45594000000E+02  0.51100000000E-03 0. -1.
         11   -1    0    0    0    0 -0.00000000000E+00 -0.00000000000E+00 -0.45593999997E+02  0.45594000000E+02  0.51100000000E-03 0.  1.
    9900012    2    1    2    0    0 -0.58784835520E+01  0.12687110910E+02 -0.12456243036E+02  0.72461619071E+02  0.70000063541E+02 0.  0.
         12    1    1    2    0    0  0.58784835520E+01 -0.12687110910E+02  0.12456243036E+02  0.18726380929E+02  0.00000000000E+00 0. -1.
         11    1    3    3    0    0  0.25268792911E+01 -0.36411276865E+00  0.13080985084E+02  0.13327785566E+02  0.51100000000E-03 0. -1.
        -11    1    3    3    0    0  0.13686690198E+02 -0.51285220984E+01  0.66597286103E+01  0.16061731318E+02  0.51100000000E-03 0.  1.
        -12    1    3    3    0    0 -0.22092053041E+02  0.18179745777E+02 -0.32196956731E+02  0.43072102187E+02  0.00000000000E+00 0.  1.
</event>
<event>
 7    1  0.2944263E-013  0.7246174E+02  0.7816164E-02  0.1226708E+00
        -11   -1    0    0    0    0  0.00000000000E+00  0.00000000000E+00  0.45593999997E+02  0.45594000000E+02  0.51100000000E-03 0.  1.
         11   -1    0    0    0    0 -0.00000000000E+00 -0.00000000000E+00 -0.45593999997E+02  0.45594000000E+02  0.51100000000E-03 0. -1.
    9900012    2    1    2    0    0  0.42667885235E+01  0.16688080797E+01  0.18157156540E+02  0.72461742010E+02  0.70000223691E+02 0.  0.
         12    1    1    2    0    0 -0.42667885235E+01 -0.16688080797E+01 -0.18157156540E+02  0.18726257990E+02  0.00000000000E+00 0. -1.
         11    1    3    3    0    0  0.24427824828E+02  0.15210101057E+02  0.15912028929E+02  0.32882494809E+02  0.51100000000E-03 0. -1.
        -11    1    3    3    0    0  0.77460558607E+01 -0.43368417293E+01  0.47830675674E+01  0.10084012753E+02  0.51100000000E-03 0.  1.
        -12    1    3    3    0    0 -0.27907092165E+02 -0.92044512484E+01 -0.25379399568E+01  0.29495234448E+02  0.00000000000E+00 0.  1.
</event>
<event>
 7    1  0.2944263E-013  0.7246160E+02  0.7816164E-02  0.1226708E+00
        -11   -1    0    0    0    0  0.00000000000E+00  0.00000000000E+00  0.45593999997E+02  0.45594000000E+02  0.51100000000E-03 0.  1.
         11   -1    0    0    0    0 -0.00000000000E+00 -0.00000000000E+00 -0.45593999997E+02  0.45594000000E+02  0.51100000000E-03 0. -1.
    9900012    2    1    2    0    0 -0.24920819757E+01  0.82872566456E+01  0.16606890927E+02  0.72461603615E+02  0.70000043407E+02 0.  0.
         12    1    1    2    0    0  0.24920819757E+01 -0.82872566456E+01 -0.16606890927E+02  0.18726396385E+02  0.00000000000E+00 0. -1.
         11    1    3    3    0    0 -0.27495434753E+01 -0.23051751183E+02 -0.91242004309E+01  0.24943821995E+02  0.51100000000E-03 0. -1.
        -11    1    3    3    0    0  0.19242419408E+01  0.11167011364E+02 -0.35920211431E+01  0.11887281691E+02  0.51100000000E-03 0.  1.
        -12    1    3    3    0    0 -0.16667804412E+01  0.20171996465E+02  0.29323112502E+02  0.35630499929E+02  0.00000000000E+00 0.  1.
</event>
<event>
 7    1  0.2944263E-013  0.7246157E+02  0.7816164E-02  0.1226708E+00
        -11   -1    0    0    0    0  0.00000000000E+00  0.00000000000E+00  0.45593999997E+02  0.45594000000E+02  0.51100000000E-03 0. -1.
         11   -1    0    0    0    0 -0.00000000000E+00 -0.00000000000E+00 -0.45593999997E+02  0.45594000000E+02  0.51100000000E-03 0.  1.
    9900012    2    1    2    0    0 -0.54736409732E+01  0.39639825261E+01 -0.17464397584E+02  0.72461572526E+02  0.70000002907E+02 0.  0.
         12    1    1    2    0    0  0.54736409732E+01 -0.39639825261E+01  0.17464397584E+02  0.18726427474E+02  0.00000000000E+00 0. -1.
         11    1    3    3    0    0  0.74870988628E+01  0.14384458344E+02 -0.23796553504E+02  0.28796618728E+02  0.51100000000E-03 0. -1.
        -11    1    3    3    0    0  0.38648372468E+00  0.86429057203E+00 -0.15595167439E+02  0.15623879658E+02  0.51100000000E-03 0.  1.
         12    1    3    3    0    0 -0.13347223561E+02 -0.11284766390E+02  0.21927323359E+02  0.28041074140E+02  0.00000000000E+00 0. -1.
</event>
<event>
 7    1  0.2944263E-013  0.7246176E+02  0.7816164E-02  0.1226708E+00
        -11   -1    0    0    0    0  0.00000000000E+00  0.00000000000E+00  0.45593999997E+02  0.45594000000E+02  0.51100000000E-03 0.  1.
         11   -1    0    0    0    0 -0.00000000000E+00 -0.00000000000E+00 -0.45593999997E+02  0.45594000000E+02  0.51100000000E-03 0. -1.
    9900012    2    1    2    0    0 -0.45445393988E+01  0.18163869923E+02 -0.30535682095E+00  0.72461755002E+02  0.70000240616E+02 0.  0.
         12    1    1    2    0    0  0.45445393988E+01 -0.18163869923E+02  0.30535682095E+00  0.18726244998E+02  0.00000000000E+00 0. -1.
         11    1    3    3    0    0 -0.33653641920E+01 -0.27669053037E+01  0.29699904726E+01  0.52727871921E+01  0.51100000000E-03 0. -1.
        -11    1    3    3    0    0 -0.18084113671E+02  0.35094544169E+02  0.10918627296E+02  0.40961916703E+02  0.51100000000E-03 0.  1.
         12    1    3    3    0    0  0.16904938464E+02 -0.14163768942E+02 -0.14193974589E+02  0.26227051107E+02  0.00000000000E+00 0. -1.
</event>
<event>
 7    1  0.2944263E-013  0.7246158E+02  0.7816164E-02  0.1226708E+00
        -11   -1    0    0    0    0  0.00000000000E+00  0.00000000000E+00  0.45593999997E+02  0.45594000000E+02  0.51100000000E-03 0.  1.
         11   -1    0    0    0    0 -0.00000000000E+00 -0.00000000000E+00 -0.45593999997E+02  0.45594000000E+02  0.51100000000E-03 0. -1.
    9900012    2    1    2    0    0  0.53820815123E+00  0.11449807992E+02  0.14808482363E+02  0.72461576931E+02  0.70000008646E+02 0.  0.
         12    1    1    2    0    0 -0.53820815123E+00 -0.11449807992E+02 -0.14808482363E+02  0.18726423069E+02  0.00000000000E+00 0. -1.
         11    1    3    3    0    0  0.16924315022E+02  0.21013246114E+02  0.10412028521E+02  0.28920568621E+02  0.51100000000E-03 0. -1.
        -11    1    3    3    0    0 -0.21326312009E+02  0.94190796014E+01  0.52879768865E+01  0.23905926969E+02  0.51100000000E-03 0.  1.
         12    1    3    3    0    0  0.49402051383E+01 -0.18982517723E+02 -0.89152304509E+00  0.19635081341E+02  0.00000000000E+00 0. -1.
</event>
<event>
 7    1  0.2944263E-013  0.7246167E+02  0.7816164E-02  0.1226708E+00
        -11   -1    0    0    0    0  0.00000000000E+00  0.00000000000E+00  0.45593999997E+02  0.45594000000E+02  0.51100000000E-03 0. -1.
         11   -1    0    0    0    0 -0.00000000000E+00 -0.00000000000E+00 -0.45593999997E+02  0.45594000000E+02  0.51100000000E-03 0.  1.
    9900012    2    1    2    0    0 -0.53898650586E+01  0.17685884310E+02 -0.29722554642E+01  0.72461669560E+02  0.70000129312E+02 0.  0.
         12    1    1    2    0    0  0.53898650586E+01 -0.17685884310E+02  0.29722554642E+01  0.18726330440E+02  0.00000000000E+00 0. -1.
         11    1    3    3    0    0  0.59306452407E+01 -0.11853883624E+02  0.14624591987E+02  0.19737421336E+02  0.51100000000E-03 0. -1.
        -11    1    3    3    0    0 -0.11695674961E+02 -0.66146719339E+01 -0.32397741288E+01  0.13821679864E+02  0.51100000000E-03 0.  1.
        -12    1    3    3    0    0  0.37516466201E+00  0.36154439868E+02 -0.14357073322E+02  0.38902568361E+02  0.00000000000E+00 0.  1.
</event>
<event>
 7    1  0.2944263E-013  0.7246159E+02  0.7816164E-02  0.1226708E+00
        -11   -1    0    0    0    0  0.00000000000E+00  0.00000000000E+00  0.45593999997E+02  0.45594000000E+02  0.51100000000E-03 0. -1.
         11   -1    0    0    0    0 -0.00000000000E+00 -0.00000000000E+00 -0.45593999997E+02  0.45594000000E+02  0.51100000000E-03 0.  1.
    9900012    2    1    2    0    0  0.57428225665E+00  0.17230744454E+02 -0.73109666380E+01  0.72461585828E+02  0.70000020236E+02 0.  0.
         12    1    1    2    0    0 -0.57428225665E+00 -0.17230744454E+02  0.73109666380E+01  0.18726414172E+02  0.00000000000E+00 0. -1.
         11    1    3    3    0    0  0.15422284051E+02 -0.20514717538E+02 -0.12488230060E+02  0.28542185818E+02  0.51100000000E-03 0. -1.
        -11    1    3    3    0    0 -0.14631910014E+01  0.40753039126E+01  0.63285411279E+01  0.76680807869E+01  0.51100000000E-03 0.  1.
        -12    1    3    3    0    0 -0.13384810793E+02  0.33670158079E+02 -0.11512777063E+01  0.36251319223E+02  0.00000000000E+00 0.  1.
</event>
<event>
 7    1  0.2944263E-013  0.7246155E+02  0.7816164E-02  0.1226708E+00
        -11   -1    0    0    0    0  0.00000000000E+00  0.00000000000E+00  0.45593999997E+02  0.45594000000E+02  0.51100000000E-03 0.  1.
         11   -1    0    0    0    0 -0.00000000000E+00 -0.00000000000E+00 -0.45593999997E+02  0.45594000000E+02  0.51100000000E-03 0. -1.
    9900012    2    1    2    0    0  0.80741475181E+01 -0.10620933699E+02  0.13140920039E+02  0.72461551584E+02  0.69999975627E+02 0.  0.
         12    1    1    2    0    0 -0.80741475181E+01  0.10620933699E+02 -0.13140920039E+02  0.18726448416E+02  0.00000000000E+00 0. -1.
         11    1    3    3    0    0  0.15906336211E+02  0.20631307589E+02  0.10498999875E+01  0.26072297074E+02  0.51100000000E-03 0. -1.
        -11    1    3    3    0    0 -0.12479773625E+01  0.51156688019E+01 -0.34504021534E+01  0.62954578919E+01  0.51100000000E-03 0.  1.
        -12    1    3    3    0    0 -0.65842113303E+01 -0.36367910089E+02  0.15541422205E+02  0.40093796618E+02  0.00000000000E+00 0.  1.
</event>
<event>
 7    1  0.2944263E-013  0.7246160E+02  0.7816164E-02  0.1226708E+00
        -11   -1    0    0    0    0  0.00000000000E+00  0.00000000000E+00  0.45593999997E+02  0.45594000000E+02  0.51100000000E-03 0. -1.
         11   -1    0    0    0    0 -0.00000000000E+00 -0.00000000000E+00 -0.45593999997E+02  0.45594000000E+02  0.51100000000E-03 0.  1.
    9900012    2    1    2    0    0  0.11422202551E+01  0.18195318030E+02 -0.42782945004E+01  0.72461599674E+02  0.70000038273E+02 0.  0.
         12    1    1    2    0    0 -0.11422202551E+01 -0.18195318030E+02  0.42782945004E+01  0.18726400326E+02  0.00000000000E+00 0. -1.
         11    1    3    3    0    0  0.35049045629E+00  0.63043201486E+01  0.11966674059E+02  0.13530283973E+02  0.51100000000E-03 0. -1.
        -11    1    3    3    0    0  0.23385111893E+02 -0.15599129692E+01  0.63286479667E+01  0.24276502468E+02  0.51100000000E-03 0.  1.
        -12    1    3    3    0    0 -0.22593382095E+02  0.13450910851E+02 -0.22573616526E+02  0.34654813233E+02  0.00000000000E+00 0.  1.
</event>
<event>
 7    1  0.2944263E-013  0.7246158E+02  0.7816164E-02  0.1226708E+00
        -11   -1    0    0    0    0  0.00000000000E+00  0.00000000000E+00  0.45593999997E+02  0.45594000000E+02  0.51100000000E-03 0.  1.
         11   -1    0    0    0    0 -0.00000000000E+00 -0.00000000000E+00 -0.45593999997E+02  0.45594000000E+02  0.51100000000E-03 0. -1.
    9900012    2    1    2    0    0  0.16920710307E+02  0.44737470874E+00  0.80105062332E+01  0.72461580386E+02  0.70000013147E+02 0.  0.
         12    1    1    2    0    0 -0.16920710307E+02 -0.44737470874E+00 -0.80105062332E+01  0.18726419614E+02  0.00000000000E+00 0. -1.
         11    1    3    3    0    0 -0.71517521577E+01 -0.25789970646E+02 -0.30052359302E+01  0.26931423804E+02  0.51100000000E-03 0. -1.
        -11    1    3    3    0    0  0.11692383059E+02  0.20723992616E+01  0.13835384175E+02  0.18232512603E+02  0.51100000000E-03 0.  1.
        -12    1    3    3    0    0  0.12380079406E+02  0.24164946093E+02 -0.28196420117E+01  0.27297643980E+02  0.00000000000E+00 0.  1.
</event>
<event>
 7    1  0.2944263E-013  0.7246161E+02  0.7816164E-02  0.1226708E+00
        -11   -1    0    0    0    0  0.00000000000E+00  0.00000000000E+00  0.45593999997E+02  0.45594000000E+02  0.51100000000E-03 0.  1.
         11   -1    0    0    0    0 -0.00000000000E+00 -0.00000000000E+00 -0.45593999997E+02  0.45594000000E+02  0.51100000000E-03 0. -1.
    9900012    2    1    2    0    0  0.17502503229E+02 -0.56904993662E+00 -0.66344639371E+01  0.72461613567E+02  0.70000056371E+02 0.  0.
         12    1    1    2    0    0 -0.17502503229E+02  0.56904993662E+00  0.66344639371E+01  0.18726386433E+02  0.00000000000E+00 0. -1.
         11    1    3    3    0    0 -0.39816219699E+01  0.32470897687E+01  0.69472999255E+01  0.86407107343E+01  0.51100000000E-03 0. -1.
        -11    1    3    3    0    0  0.32276342426E+02  0.11461190478E+02  0.80900847764E+01  0.35193332317E+02  0.51100000000E-03 0.  1.
         12    1    3    3    0    0 -0.10792217228E+02 -0.15277330184E+02 -0.21671848639E+02  0.28627570516E+02  0.00000000000E+00 0. -1.
</event>
<event>
 7    1  0.2944263E-013  0.7246159E+02  0.7816164E-02  0.1226708E+00
        -11   -1    0    0    0    0  0.00000000000E+00  0.00000000000E+00  0.45593999997E+02  0.45594000000E+02  0.51100000000E-03 0. -1.
         11   -1    0    0    0    0 -0.00000000000E+00 -0.00000000000E+00 -0.45593999997E+02  0.45594000000E+02  0.51100000000E-03 0.  1.
    9900012    2    1    2    0    0  0.22720453700E+01 -0.12026129848E+01 -0.18549122319E+02  0.72461590655E+02  0.70000026523E+02 0.  0.
         12    1    1    2    0    0 -0.22720453700E+01  0.12026129848E+01  0.18549122319E+02  0.18726409345E+02  0.00000000000E+00 0. -1.
         11    1    3    3    0    0 -0.19572727902E+01  0.13657798179E+02  0.79503781669E+01  0.15924034700E+02  0.51100000000E-03 0. -1.
        -11    1    3    3    0    0 -0.13158436511E+02  0.10053390090E+02 -0.52746382059E+00  0.16567839994E+02  0.51100000000E-03 0.  1.
        -12    1    3    3    0    0  0.17387754671E+02 -0.24913801254E+02 -0.25972036665E+02  0.39969715961E+02  0.00000000000E+00 0.  1.
</event>
<event>
 7    1  0.2944263E-013  0.7246159E+02  0.7816164E-02  0.1226708E+00
        -11   -1    0    0    0    0  0.00000000000E+00  0.00000000000E+00  0.45593999997E+02  0.45594000000E+02  0.51100000000E-03 0.  1.
         11   -1    0    0    0    0 -0.00000000000E+00 -0.00000000000E+00 -0.45593999997E+02  0.45594000000E+02  0.51100000000E-03 0. -1.
    9900012    2    1    2    0    0 -0.12938682967E+02  0.11340353398E+02  0.73935991382E+01  0.72461589764E+02  0.70000025363E+02 0.  0.
         12    1    1    2    0    0  0.12938682967E+02 -0.11340353398E+02 -0.73935991382E+01  0.18726410236E+02  0.00000000000E+00 0. -1.
         11    1    3    3    0    0 -0.35637191684E+02  0.59299528838E+01 -0.91831405015E+00  0.36138858218E+02  0.51100000000E-03 0. -1.
        -11    1    3    3    0    0 -0.40206135064E+01  0.46227507597E+01 -0.35472467732E+01  0.70794150525E+01  0.51100000000E-03 0.  1.
        -12    1    3    3    0    0  0.26719122224E+02  0.78764975461E+00  0.11859159962E+02  0.29243316494E+02  0.00000000000E+00 0.  1.
</event>
<event>
 7    1  0.2944263E-013  0.7246156E+02  0.7816164E-02  0.1226708E+00
        -11   -1    0    0    0    0  0.00000000000E+00  0.00000000000E+00  0.45593999997E+02  0.45594000000E+02  0.51100000000E-03 0. -1.
         11   -1    0    0    0    0 -0.00000000000E+00 -0.00000000000E+00 -0.45593999997E+02  0.45594000000E+02  0.51100000000E-03 0.  1.
    9900012    2    1    2    0    0 -0.65942249776E+01 -0.10536507969E+01 -0.17495306012E+02  0.72461555716E+02  0.69999981010E+02 0.  0.
         12    1    1    2    0    0  0.65942249776E+01  0.10536507969E+01  0.17495306012E+02  0.18726444284E+02  0.00000000000E+00 0. -1.
         11    1    3    3    0    0  0.13727778704E+00 -0.19639922788E+01 -0.10422553870E+02  0.10606872314E+02  0.51100000000E-03 0. -1.
        -11    1    3    3    0    0  0.17645985642E+02  0.21558406036E+01 -0.25630351280E+02  0.31192040090E+02  0.51100000000E-03 0.  1.
         12    1    3    3    0    0 -0.24377488407E+02 -0.12454991217E+01  0.18557599138E+02  0.30662643312E+02  0.00000000000E+00 0. -1.
</event>
<event>
 7    1  0.2944263E-013  0.7246162E+02  0.7816164E-02  0.1226708E+00
        -11   -1    0    0    0    0  0.00000000000E+00  0.00000000000E+00  0.45593999997E+02  0.45594000000E+02  0.51100000000E-03 0.  1.
         11   -1    0    0    0    0 -0.00000000000E+00 -0.00000000000E+00 -0.45593999997E+02  0.45594000000E+02  0.51100000000E-03 0. -1.
    9900012    2    1    2    0    0 -0.17840505629E+02 -0.33648917587E+01  0.45903368260E+01  0.72461619415E+02  0.70000063988E+02 0.  0.
         12    1    1    2    0    0  0.17840505629E+02  0.33648917587E+01 -0.45903368260E+01  0.18726380585E+02  0.00000000000E+00 0. -1.
         11    1    3    3    0    0 -0.70952423657E+01 -0.31293898027E+01 -0.46485639239E+01  0.90412770990E+01  0.51100000000E-03 0. -1.
        -11    1    3    3    0    0 -0.30171939608E+02 -0.10945536265E+02  0.20957150347E+02  0.38332138667E+02  0.51100000000E-03 0.  1.
         12    1    3    3    0    0  0.19426676345E+02  0.10710034308E+02 -0.11718249597E+02  0.25088203649E+02  0.00000000000E+00 0. -1.
</event>
<event>
 7    1  0.2944263E-013  0.7246156E+02  0.7816164E-02  0.1226708E+00
        -11   -1    0    0    0    0  0.00000000000E+00  0.00000000000E+00  0.45593999997E+02  0.45594000000E+02  0.51100000000E-03 0.  1.
         11   -1    0    0    0    0 -0.00000000000E+00 -0.00000000000E+00 -0.45593999997E+02  0.45594000000E+02  0.51100000000E-03 0. -1.
    9900012    2    1    2    0    0  0.41153094132E+01  0.18151231065E+02  0.20679644208E+01  0.72461563137E+02  0.69999990676E+02 0.  0.
         12    1    1    2    0    0 -0.41153094132E+01 -0.18151231065E+02 -0.20679644208E+01  0.18726436863E+02  0.00000000000E+00 0. -1.
         11    1    3    3    0    0 -0.23817178664E+02 -0.11664953716E+02 -0.10979764003E+01  0.26543072488E+02  0.51100000000E-03 0. -1.
        -11    1    3    3    0    0 -0.25457771641E+01  0.51281516235E+01  0.34696342462E+01  0.66945711219E+01  0.51100000000E-03 0.  1.
        -12    1    3    3    0    0  0.30478265241E+02  0.24688033158E+02 -0.30369342516E+00  0.39223919526E+02  0.00000000000E+00 0.  1.
</event>
<event>
 7    1  0.2944263E-013  0.7246159E+02  0.7816164E-02  0.1226708E+00
        -11   -1    0    0    0    0  0.00000000000E+00  0.00000000000E+00  0.45593999997E+02  0.45594000000E+02  0.51100000000E-03 0.  1.
         11   -1    0    0    0    0 -0.00000000000E+00 -0.00000000000E+00 -0.45593999997E+02  0.45594000000E+02  0.51100000000E-03 0. -1.
    9900012    2    1    2    0    0 -0.16833340024E+02  0.74881083379E+00  0.81704485795E+01  0.72461593937E+02  0.70000030799E+02 0.  0.
         12    1    1    2    0    0  0.16833340024E+02 -0.74881083379E+00 -0.81704485795E+01  0.18726406063E+02  0.00000000000E+00 0. -1.
         11    1    3    3    0    0 -0.12621749704E+01  0.12261112885E+02  0.12401834882E+02  0.17485236159E+02  0.51100000000E-03 0. -1.
        -11    1    3    3    0    0 -0.77275503433E+01  0.20289697531E+02  0.13319687719E+01  0.21752264279E+02  0.51100000000E-03 0.  1.
         12    1    3    3    0    0 -0.78436147107E+01 -0.31801999582E+02 -0.55633550746E+01  0.33224093499E+02  0.00000000000E+00 0. -1.
</event>
<event>
 7    1  0.2944263E-013  0.7246156E+02  0.7816164E-02  0.1226708E+00
        -11   -1    0    0    0    0  0.00000000000E+00  0.00000000000E+00  0.45593999997E+02  0.45594000000E+02  0.51100000000E-03 0.  1.
         11   -1    0    0    0    0 -0.00000000000E+00 -0.00000000000E+00 -0.45593999997E+02  0.45594000000E+02  0.51100000000E-03 0. -1.
    9900012    2    1    2    0    0 -0.17026768802E+02  0.74951960882E+01 -0.21426095866E+01  0.72461558905E+02  0.69999985163E+02 0.  0.
         12    1    1    2    0    0  0.17026768802E+02 -0.74951960882E+01  0.21426095866E+01  0.18726441095E+02  0.00000000000E+00 0. -1.
         11    1    3    3    0    0  0.78206014261E+01 -0.10254413776E+02 -0.17118439797E+02  0.21432587102E+02  0.51100000000E-03 0. -1.
        -11    1    3    3    0    0  0.65203093253E+01  0.14280281250E+02 -0.85558033466E+00  0.15721732864E+02  0.51100000000E-03 0.  1.
        -12    1    3    3    0    0 -0.31367679554E+02  0.34693286139E+01  0.15831410545E+02  0.35307238939E+02  0.00000000000E+00 0.  1.
</event>
<event>
 7    1  0.2944263E-013  0.7246141E+02  0.7816164E-02  0.1226708E+00
        -11   -1    0    0    0    0  0.00000000000E+00  0.00000000000E+00  0.45593999997E+02  0.45594000000E+02  0.51100000000E-03 0.  1.
         11   -1    0    0    0    0 -0.00000000000E+00 -0.00000000000E+00 -0.45593999997E+02  0.45594000000E+02  0.51100000000E-03 0. -1.
    9900012    2    1    2    0    0 -0.13592026459E+02  0.12873696132E+02  0.45826449246E+00  0.72461408167E+02  0.69999788798E+02 0.  0.
         12    1    1    2    0    0  0.13592026459E+02 -0.12873696132E+02 -0.45826449246E+00  0.18726591833E+02  0.00000000000E+00 0. -1.
         11    1    3    3    0    0 -0.71437433890E+01 -0.48230106404E+01 -0.13644448938E+02  0.16138943222E+02  0.51100000000E-03 0. -1.
        -11    1    3    3    0    0 -0.15074699192E+02 -0.13013437177E+02  0.14139393375E+02  0.24423729203E+02  0.51100000000E-03 0.  1.
         12    1    3    3    0    0  0.86264161221E+01  0.30710143949E+02 -0.36679944014E-01  0.31898735742E+02  0.00000000000E+00 0. -1.
</event>
<event>
 7    1  0.2944263E-013  0.7246152E+02  0.7816164E-02  0.1226708E+00
        -11   -1    0    0    0    0  0.00000000000E+00  0.00000000000E+00  0.45593999997E+02  0.45594000000E+02  0.51100000000E-03 0. -1.
         11   -1    0    0    0    0 -0.00000000000E+00 -0.00000000000E+00 -0.45593999997E+02  0.45594000000E+02  0.51100000000E-03 0.  1.
    9900012    2    1    2    0    0 -0.75540780547E+01  0.33599229712E+01 -0.16802610355E+02  0.72461524294E+02  0.69999940076E+02 0.  0.
         12    1    1    2    0    0  0.75540780547E+01 -0.33599229712E+01  0.16802610355E+02  0.18726475706E+02  0.00000000000E+00 0. -1.
         11    1    3    3    0    0 -0.28697916823E+02 -0.55470963218E+01  0.14019786786E+02  0.32417512695E+02  0.51100000000E-03 0. -1.
        -11    1    3    3    0    0 -0.33049743159E-01  0.27384929706E+01 -0.73050013433E+01  0.78015050421E+01  0.51100000000E-03 0.  1.
        -12    1    3    3    0    0  0.21176888511E+02  0.61685263224E+01 -0.23517395797E+02  0.32242506557E+02  0.00000000000E+00 0.  1.
</event>
<event>
 7    1  0.2944263E-013  0.7246156E+02  0.7816164E-02  0.1226708E+00
        -11   -1    0    0    0    0  0.00000000000E+00  0.00000000000E+00  0.45593999997E+02  0.45594000000E+02  0.51100000000E-03 0.  1.
         11   -1    0    0    0    0 -0.00000000000E+00 -0.00000000000E+00 -0.45593999997E+02  0.45594000000E+02  0.51100000000E-03 0. -1.
    9900012    2    1    2    0    0 -0.18700768879E+02  0.97855661382E+00 -0.56418072381E-01  0.72461561131E+02  0.69999988063E+02 0.  0.
         12    1    1    2    0    0  0.18700768879E+02 -0.97855661382E+00  0.56418072381E-01  0.18726438869E+02  0.00000000000E+00 0. -1.
         11    1    3    3    0    0 -0.45607071677E+01 -0.21545946430E+02  0.13512439387E+01  0.22064761904E+02  0.51100000000E-03 0. -1.
        -11    1    3    3    0    0  0.13977873710E+02  0.15393482987E+02  0.31591590319E+01  0.21031418354E+02  0.51100000000E-03 0.  1.
         12    1    3    3    0    0 -0.28117935421E+02  0.71310200567E+01 -0.45668210431E+01  0.29365380873E+02  0.00000000000E+00 0. -1.
</event>
<event>
 7    1  0.2944263E-013  0.7246144E+02  0.7816164E-02  0.1226708E+00
        -11   -1    0    0    0    0  0.00000000000E+00  0.00000000000E+00  0.45593999997E+02  0.45594000000E+02  0.51100000000E-03 0. -1.
         11   -1    0    0    0    0 -0.00000000000E+00 -0.00000000000E+00 -0.45593999997E+02  0.45594000000E+02  0.51100000000E-03 0.  1.
    9900012    2    1    2    0    0  0.15159761951E+02 -0.10596083560E+02  0.29306426124E+01  0.72461440376E+02  0.69999830757E+02 0.  0.
         12    1    1    2    0    0 -0.15159761951E+02  0.10596083560E+02 -0.29306426124E+01  0.18726559624E+02  0.00000000000E+00 0. -1.
         11    1    3    3    0    0  0.14647203890E+01  0.15804998565E+02 -0.10952828729E+01  0.15910469204E+02  0.51100000000E-03 0. -1.
        -11    1    3    3    0    0 -0.26703733700E+01 -0.25144714441E+01  0.22110258092E+02  0.22412429001E+02  0.51100000000E-03 0.  1.
        -12    1    3    3    0    0  0.16365414932E+02 -0.23886610681E+02 -0.18084332607E+02  0.34138542171E+02  0.00000000000E+00 0.  1.
</event>
<event>
 7    1  0.2944263E-013  0.7246157E+02  0.7816164E-02  0.1226708E+00
        -11   -1    0    0    0    0  0.00000000000E+00  0.00000000000E+00  0.45593999997E+02  0.45594000000E+02  0.51100000000E-03 0. -1.
         11   -1    0    0    0    0 -0.00000000000E+00 -0.00000000000E+00 -0.45593999997E+02  0.45594000000E+02  0.51100000000E-03 0.  1.
    9900012    2    1    2    0    0 -0.16645080201E+02 -0.76265501727E+01 -0.39314369260E+01  0.72461570582E+02  0.70000000375E+02 0.  0.
         12    1    1    2    0    0  0.16645080201E+02  0.76265501727E+01  0.39314369260E+01  0.18726429418E+02  0.00000000000E+00 0. -1.
         11    1    3    3    0    0 -0.21518925277E+02  0.11613870987E+02  0.16545854426E+02  0.29524759835E+02  0.51100000000E-03 0. -1.
        -11    1    3    3    0    0 -0.56829897377E+01  0.13894632713E+01  0.55664647280E+01  0.80754263274E+01  0.51100000000E-03 0.  1.
        -12    1    3    3    0    0  0.10556834814E+02 -0.20629884431E+02 -0.26043756080E+02  0.34861384420E+02  0.00000000000E+00 0.  1.
</event>
<event>
 7    1  0.2944263E-013  0.7246153E+02  0.7816164E-02  0.1226708E+00
        -11   -1    0    0    0    0  0.00000000000E+00  0.00000000000E+00  0.45593999997E+02  0.45594000000E+02  0.51100000000E-03 0.  1.
         11   -1    0    0    0    0 -0.00000000000E+00 -0.00000000000E+00 -0.45593999997E+02  0.45594000000E+02  0.51100000000E-03 0. -1.
    9900012    2    1    2    0    0 -0.61839587993E+01 -0.14429356959E+02  0.10209450744E+02  0.72461532817E+02  0.69999951178E+02 0.  0.
         12    1    1    2    0    0  0.61839587993E+01  0.14429356959E+02 -0.10209450744E+02  0.18726467183E+02  0.00000000000E+00 0. -1.
         11    1    3    3    0    0  0.66625703627E+00  0.67598113565E+01 -0.87371441592E+01  0.11066916297E+02  0.51100000000E-03 0. -1.
        -11    1    3    3    0    0 -0.28476001926E+02 -0.17848678664E+02  0.20652496553E+02  0.39445958347E+02  0.51100000000E-03 0.  1.
         12    1    3    3    0    0  0.21625786090E+02 -0.33404896510E+01 -0.17059016496E+01  0.21948658173E+02  0.00000000000E+00 0. -1.
</event>
<event>
 7    1  0.2944263E-013  0.7246157E+02  0.7816164E-02  0.1226708E+00
        -11   -1    0    0    0    0  0.00000000000E+00  0.00000000000E+00  0.45593999997E+02  0.45594000000E+02  0.51100000000E-03 0. -1.
         11   -1    0    0    0    0 -0.00000000000E+00 -0.00000000000E+00 -0.45593999997E+02  0.45594000000E+02  0.51100000000E-03 0.  1.
    9900012    2    1    2    0    0  0.47563062963E+01 -0.15124094758E+02 -0.99658694721E+01  0.72461568247E+02  0.69999997334E+02 0.  0.
         12    1    1    2    0    0 -0.47563062963E+01  0.15124094758E+02  0.99658694721E+01  0.18726431753E+02  0.00000000000E+00 0. -1.
         11    1    3    3    0    0  0.16267794665E+01  0.66678471067E+00 -0.13086005893E+01  0.21916772222E+01  0.51100000000E-03 0. -1.
        -11    1    3    3    0    0  0.22428969220E+02 -0.31223055518E+02  0.95061460514E+01  0.39601826589E+02  0.51100000000E-03 0.  1.
        -12    1    3    3    0    0 -0.19299442390E+02  0.15432176049E+02 -0.18163414934E+02  0.30668064436E+02  0.00000000000E+00 0.  1.
</event>
<event>
 7    1  0.2944263E-013  0.7246158E+02  0.7816164E-02  0.1226708E+00
        -11   -1    0    0    0    0  0.00000000000E+00  0.00000000000E+00  0.45593999997E+02  0.45594000000E+02  0.51100000000E-03 0. -1.
         11   -1    0    0    0    0 -0.00000000000E+00 -0.00000000000E+00 -0.45593999997E+02  0.45594000000E+02  0.51100000000E-03 0.  1.
    9900012    2    1    2    0    0  0.26830083318E+01 -0.18265330279E+02 -0.31397627880E+01  0.72461576575E+02  0.70000008182E+02 0.  0.
         12    1    1    2    0    0 -0.26830083318E+01  0.18265330279E+02  0.31397627880E+01  0.18726423425E+02  0.00000000000E+00 0. -1.
         11    1    3    3    0    0  0.11033237555E+02  0.88322709557E+01  0.22679772429E+02  0.26722900644E+02  0.51100000000E-03 0. -1.
        -11    1    3    3    0    0 -0.52865702203E+01 -0.34331253451E+01  0.40617850797E+01  0.74988180819E+01  0.51100000000E-03 0.  1.
        -12    1    3    3    0    0 -0.30636590024E+01 -0.23664475890E+02 -0.29881320296E+02  0.38239857849E+02  0.00000000000E+00 0.  1.
</event>
<event>
 7    1  0.2944263E-013  0.7246161E+02  0.7816164E-02  0.1226708E+00
        -11   -1    0    0    0    0  0.00000000000E+00  0.00000000000E+00  0.45593999997E+02  0.45594000000E+02  0.51100000000E-03 0.  1.
         11   -1    0    0    0    0 -0.00000000000E+00 -0.00000000000E+00 -0.45593999997E+02  0.45594000000E+02  0.51100000000E-03 0. -1.
    9900012    2    1    2    0    0 -0.13110366987E+02 -0.68694211643E+01  0.11472006268E+02  0.72461612268E+02  0.70000054679E+02 0.  0.
         12    1    1    2    0    0  0.13110366987E+02  0.68694211643E+01 -0.11472006268E+02  0.18726387732E+02  0.00000000000E+00 0. -1.
         11    1    3    3    0    0  0.92102330513E+01  0.14874409930E+02  0.12312536851E+02  0.21393340730E+02  0.51100000000E-03 0.  1.
        -11    1    3    3    0    0  0.73035412153E+01  0.67290621372E+01 -0.98064140045E+00  0.99791607536E+01  0.51100000000E-03 0. -1.
         12    1    3    3    0    0 -0.29624141254E+02 -0.28472893232E+02  0.14011081722E+00  0.41089110784E+02  0.00000000000E+00 0. -1.
</event>
<event>
 7    1  0.2944263E-013  0.7246175E+02  0.7816164E-02  0.1226708E+00
        -11   -1    0    0    0    0  0.00000000000E+00  0.00000000000E+00  0.45593999997E+02  0.45594000000E+02  0.51100000000E-03 0.  1.
         11   -1    0    0    0    0 -0.00000000000E+00 -0.00000000000E+00 -0.45593999997E+02  0.45594000000E+02  0.51100000000E-03 0. -1.
    9900012    2    1    2    0    0 -0.16641838597E+02  0.78252400057E+01  0.35337577329E+01  0.72461745256E+02  0.70000227919E+02 0.  0.
         12    1    1    2    0    0  0.16641838597E+02 -0.78252400057E+01 -0.35337577329E+01  0.18726254744E+02  0.00000000000E+00 0. -1.
         11    1    3    3    0    0  0.15454763889E+02  0.95702614863E+01  0.10433514814E+02  0.20959433757E+02  0.51100000000E-03 0. -1.
        -11    1    3    3    0    0 -0.23337345971E+02  0.23086141681E+01  0.14815193457E+02  0.27738986531E+02  0.51100000000E-03 0.  1.
         12    1    3    3    0    0 -0.87592565144E+01 -0.40536356487E+01 -0.21714950538E+02  0.23763324968E+02  0.00000000000E+00 0. -1.
</event>
<event>
 7    1  0.2944263E-013  0.7246167E+02  0.7816164E-02  0.1226708E+00
        -11   -1    0    0    0    0  0.00000000000E+00  0.00000000000E+00  0.45593999997E+02  0.45594000000E+02  0.51100000000E-03 0. -1.
         11   -1    0    0    0    0 -0.00000000000E+00 -0.00000000000E+00 -0.45593999997E+02  0.45594000000E+02  0.51100000000E-03 0.  1.
    9900012    2    1    2    0    0 -0.13225123278E+02 -0.32879626495E+01 -0.12843709787E+02  0.72461669201E+02  0.70000128844E+02 0.  0.
         12    1    1    2    0    0  0.13225123278E+02  0.32879626495E+01  0.12843709787E+02  0.18726330799E+02  0.00000000000E+00 0. -1.
         11    1    3    3    0    0  0.91858728838E+01 -0.13706266523E+02  0.20862410831E+02  0.26598537339E+02  0.51100000000E-03 0. -1.
        -11    1    3    3    0    0 -0.72904645635E+01  0.41093108074E+00  0.31807811951E+00  0.73089610654E+01  0.51100000000E-03 0.  1.
        -12    1    3    3    0    0 -0.15120531599E+02  0.10007372793E+02 -0.34024198738E+02  0.38554170796E+02  0.00000000000E+00 0.  1.
</event>
<event>
 7    1  0.2944263E-013  0.7246158E+02  0.7816164E-02  0.1226708E+00
        -11   -1    0    0    0    0  0.00000000000E+00  0.00000000000E+00  0.45593999997E+02  0.45594000000E+02  0.51100000000E-03 0. -1.
         11   -1    0    0    0    0 -0.00000000000E+00 -0.00000000000E+00 -0.45593999997E+02  0.45594000000E+02  0.51100000000E-03 0.  1.
    9900012    2    1    2    0    0 -0.55923801302E+01 -0.16807439320E+02  0.60757008880E+01  0.72461578204E+02  0.70000010303E+02 0.  0.
         12    1    1    2    0    0  0.55923801302E+01  0.16807439320E+02 -0.60757008880E+01  0.18726421796E+02  0.00000000000E+00 0. -1.
         11    1    3    3    0    0  0.14784310498E+02  0.22257120867E+02  0.37005340894E+01  0.26974973939E+02  0.51100000000E-03 0. -1.
        -11    1    3    3    0    0 -0.13610074186E+02 -0.27212270063E+02  0.67288045492E+01  0.31161170906E+02  0.51100000000E-03 0.  1.
        -12    1    3    3    0    0 -0.67666164420E+01 -0.11852290124E+02 -0.43536377506E+01  0.14325433359E+02  0.00000000000E+00 0.  1.
</event>
<event>
 7    1  0.2944263E-013  0.7246166E+02  0.7816164E-02  0.1226708E+00
        -11   -1    0    0    0    0  0.00000000000E+00  0.00000000000E+00  0.45593999997E+02  0.45594000000E+02  0.51100000000E-03 0.  1.
         11   -1    0    0    0    0 -0.00000000000E+00 -0.00000000000E+00 -0.45593999997E+02  0.45594000000E+02  0.51100000000E-03 0. -1.
    9900012    2    1    2    0    0 -0.16450894138E+02 -0.27532471393E+00  0.89424941025E+01  0.72461656993E+02  0.70000112941E+02 0.  0.
         12    1    1    2    0    0  0.16450894138E+02  0.27532471393E+00 -0.89424941025E+01  0.18726343007E+02  0.00000000000E+00 0. -1.
         11    1    3    3    0    0 -0.20097837896E+02  0.40539857964E+01 -0.10085584841E+02  0.22849002402E+02  0.51100000000E-03 0. -1.
        -11    1    3    3    0    0 -0.38245778835E+00 -0.24468268967E+02  0.56917312841E+01  0.25124455526E+02  0.51100000000E-03 0.  1.
        -12    1    3    3    0    0  0.40294015458E+01  0.20138958457E+02  0.13336347659E+02  0.24488199065E+02  0.00000000000E+00 0.  1.
</event>
<event>
 7    1  0.2944263E-013  0.7246157E+02  0.7816164E-02  0.1226708E+00
        -11   -1    0    0    0    0  0.00000000000E+00  0.00000000000E+00  0.45593999997E+02  0.45594000000E+02  0.51100000000E-03 0. -1.
         11   -1    0    0    0    0 -0.00000000000E+00 -0.00000000000E+00 -0.45593999997E+02  0.45594000000E+02  0.51100000000E-03 0.  1.
    9900012    2    1    2    0    0  0.29117183242E+01  0.16446057179E+02 -0.84692568190E+01  0.72461569176E+02  0.69999998544E+02 0.  0.
         12    1    1    2    0    0 -0.29117183242E+01 -0.16446057179E+02  0.84692568190E+01  0.18726430824E+02  0.00000000000E+00 0. -1.
         11    1    3    3    0    0  0.12561946540E+02  0.10502861208E+02  0.18295803327E+02  0.24552983812E+02  0.51100000000E-03 0. -1.
        -11    1    3    3    0    0 -0.20272442562E+01  0.31100852147E+01  0.97845430435E+01  0.10465162786E+02  0.51100000000E-03 0.  1.
        -12    1    3    3    0    0 -0.76229839594E+01  0.28331107561E+01 -0.36549603190E+02  0.37443422578E+02  0.00000000000E+00 0.  1.
</event>
<event>
 7    1  0.2944263E-013  0.7246164E+02  0.7816164E-02  0.1226708E+00
        -11   -1    0    0    0    0  0.00000000000E+00  0.00000000000E+00  0.45593999997E+02  0.45594000000E+02  0.51100000000E-03 0.  1.
         11   -1    0    0    0    0 -0.00000000000E+00 -0.00000000000E+00 -0.45593999997E+02  0.45594000000E+02  0.51100000000E-03 0. -1.
    9900012    2    1    2    0    0  0.17408477276E+02 -0.35001336825E+00  0.68919553087E+01  0.72461637876E+02  0.70000088037E+02 0.  0.
         12    1    1    2    0    0 -0.17408477276E+02  0.35001336825E+00 -0.68919553087E+01  0.18726362124E+02  0.00000000000E+00 0. -1.
         11    1    3    3    0    0  0.36171094877E+01 -0.20515829028E+01  0.11880565856E+02  0.12587307844E+02  0.51100000000E-03 0. -1.
        -11    1    3    3    0    0 -0.13048390291E+02  0.67990474353E+01  0.18644710598E+02  0.23751058266E+02  0.51100000000E-03 0.  1.
         12    1    3    3    0    0  0.26839758079E+02 -0.50974779008E+01 -0.23633321145E+02  0.36123271765E+02  0.00000000000E+00 0. -1.
</event>
<event>
 7    1  0.2944263E-013  0.7246158E+02  0.7816164E-02  0.1226708E+00
        -11   -1    0    0    0    0  0.00000000000E+00  0.00000000000E+00  0.45593999997E+02  0.45594000000E+02  0.51100000000E-03 0.  1.
         11   -1    0    0    0    0 -0.00000000000E+00 -0.00000000000E+00 -0.45593999997E+02  0.45594000000E+02  0.51100000000E-03 0. -1.
    9900012    2    1    2    0    0  0.15422956713E+02 -0.91842359650E+01  0.53348844828E+01  0.72461580789E+02  0.70000013671E+02 0.  0.
         12    1    1    2    0    0 -0.15422956713E+02  0.91842359650E+01 -0.53348844828E+01  0.18726419211E+02  0.00000000000E+00 0. -1.
         11    1    3    3    0    0  0.16532264663E+01 -0.66862805544E+01  0.91410599027E+01  0.11445456820E+02  0.51100000000E-03 0.  1.
        -11    1    3    3    0    0  0.22448088193E+01  0.69484797232E+00 -0.31114968004E+02  0.31203576950E+02  0.51100000000E-03 0. -1.
         12    1    3    3    0    0  0.11524921428E+02 -0.31928033829E+01  0.27308792584E+02  0.29812547019E+02  0.00000000000E+00 0. -1.
</event>
<event>
 7    1  0.2944263E-013  0.7246159E+02  0.7816164E-02  0.1226708E+00
        -11   -1    0    0    0    0  0.00000000000E+00  0.00000000000E+00  0.45593999997E+02  0.45594000000E+02  0.51100000000E-03 0. -1.
         11   -1    0    0    0    0 -0.00000000000E+00 -0.00000000000E+00 -0.45593999997E+02  0.45594000000E+02  0.51100000000E-03 0.  1.
    9900012    2    1    2    0    0  0.37337489149E+01 -0.96155127670E+01 -0.15629444897E+02  0.72461587783E+02  0.70000022782E+02 0.  0.
         12    1    1    2    0    0 -0.37337489149E+01  0.96155127670E+01  0.15629444897E+02  0.18726412217E+02  0.00000000000E+00 0. -1.
         11    1    3    3    0    0  0.24373579286E+02 -0.74507522065E+01  0.20414429848E+01  0.25568585518E+02  0.51100000000E-03 0. -1.
        -11    1    3    3    0    0 -0.34283840589E+01 -0.15915613441E+02  0.31479390824E+01  0.16582222082E+02  0.51100000000E-03 0.  1.
        -12    1    3    3    0    0 -0.17211446313E+02  0.13750852880E+02 -0.20818826964E+02  0.30310780183E+02  0.00000000000E+00 0.  1.
</event>
<event>
 7    1  0.2944263E-013  0.7246154E+02  0.7816164E-02  0.1226708E+00
        -11   -1    0    0    0    0  0.00000000000E+00  0.00000000000E+00  0.45593999997E+02  0.45594000000E+02  0.51100000000E-03 0.  1.
         11   -1    0    0    0    0 -0.00000000000E+00 -0.00000000000E+00 -0.45593999997E+02  0.45594000000E+02  0.51100000000E-03 0. -1.
    9900012    2    1    2    0    0  0.65640072145E+01  0.11149512806E+02  0.13538187347E+02  0.72461538958E+02  0.69999959178E+02 0.  0.
         12    1    1    2    0    0 -0.65640072145E+01 -0.11149512806E+02 -0.13538187347E+02  0.18726461042E+02  0.00000000000E+00 0. -1.
         11    1    3    3    0    0  0.58637680060E+01  0.47084343862E+01 -0.32855462528E+01  0.82065793140E+01  0.51100000000E-03 0. -1.
        -11    1    3    3    0    0  0.20404951462E+02 -0.19025013013E+02  0.15751360910E+02  0.32037767323E+02  0.51100000000E-03 0.  1.
         12    1    3    3    0    0 -0.19704712253E+02  0.25466091432E+02  0.10723726899E+01  0.32217192320E+02  0.00000000000E+00 0. -1.
</event>
<event>
 7    1  0.2944263E-013  0.7246160E+02  0.7816164E-02  0.1226708E+00
        -11   -1    0    0    0    0  0.00000000000E+00  0.00000000000E+00  0.45593999997E+02  0.45594000000E+02  0.51100000000E-03 0.  1.
         11   -1    0    0    0    0 -0.00000000000E+00 -0.00000000000E+00 -0.45593999997E+02  0.45594000000E+02  0.51100000000E-03 0. -1.
    9900012    2    1    2    0    0 -0.36969513502E+01  0.12968004921E+02  0.12993901997E+02  0.72461599117E+02  0.70000037547E+02 0.  0.
         12    1    1    2    0    0  0.36969513502E+01 -0.12968004921E+02 -0.12993901997E+02  0.18726400883E+02  0.00000000000E+00 0. -1.
         11    1    3    3    0    0 -0.11005745880E+02 -0.57735918075E+00 -0.32155615592E+01  0.11480401666E+02  0.51100000000E-03 0. -1.
        -11    1    3    3    0    0 -0.16307003395E+02  0.25253982850E+02  0.46545931725E-01  0.30061340227E+02  0.51100000000E-03 0.  1.
         12    1    3    3    0    0  0.23615797925E+02 -0.11708618748E+02  0.16162917625E+02  0.30919857224E+02  0.00000000000E+00 0. -1.
</event>
<event>
 7    1  0.2944263E-013  0.7246164E+02  0.7816164E-02  0.1226708E+00
        -11   -1    0    0    0    0  0.00000000000E+00  0.00000000000E+00  0.45593999997E+02  0.45594000000E+02  0.51100000000E-03 0.  1.
         11   -1    0    0    0    0 -0.00000000000E+00 -0.00000000000E+00 -0.45593999997E+02  0.45594000000E+02  0.51100000000E-03 0. -1.
    9900012    2    1    2    0    0 -0.18697355288E+02 -0.57009333642E+00 -0.87204630458E+00  0.72461639811E+02  0.70000090558E+02 0.  0.
         12    1    1    2    0    0  0.18697355288E+02  0.57009333642E+00  0.87204630458E+00  0.18726360189E+02  0.00000000000E+00 0. -1.
         11    1    3    3    0    0 -0.50591385239E+00  0.48832240193E+01 -0.58528992207E+01  0.76392575030E+01  0.51100000000E-03 0. -1.
        -11    1    3    3    0    0  0.20758742364E+02 -0.13211991221E+02  0.49877752328E+01  0.25106971116E+02  0.51100000000E-03 0.  1.
         12    1    3    3    0    0 -0.38950183800E+02  0.77586738649E+01 -0.69223167254E-02  0.39715411192E+02  0.00000000000E+00 0. -1.
</event>
<event>
 7    1  0.2944263E-013  0.7246165E+02  0.7816164E-02  0.1226708E+00
        -11   -1    0    0    0    0  0.00000000000E+00  0.00000000000E+00  0.45593999997E+02  0.45594000000E+02  0.51100000000E-03 0. -1.
         11   -1    0    0    0    0 -0.00000000000E+00 -0.00000000000E+00 -0.45593999997E+02  0.45594000000E+02  0.51100000000E-03 0.  1.
    9900012    2    1    2    0    0  0.13147200846E+02 -0.12885557441E+02  0.34335885582E+01  0.72461654627E+02  0.70000109858E+02 0.  0.
         12    1    1    2    0    0 -0.13147200846E+02  0.12885557441E+02 -0.34335885582E+01  0.18726345373E+02  0.00000000000E+00 0. -1.
         11    1    3    3    0    0  0.41368045463E+01  0.74249125533E+01  0.13717078102E+02  0.16136936208E+02  0.51100000000E-03 0. -1.
        -11    1    3    3    0    0  0.15797068089E+02 -0.33430524437E+02  0.21209490111E+01  0.37035736112E+02  0.51100000000E-03 0.  1.
         12    1    3    3    0    0 -0.67866717892E+01  0.13120054443E+02 -0.12404438555E+02  0.19288982307E+02  0.00000000000E+00 0. -1.
</event>
<event>
 7    1  0.2944263E-013  0.7246160E+02  0.7816164E-02  0.1226708E+00
        -11   -1    0    0    0    0  0.00000000000E+00  0.00000000000E+00  0.45593999997E+02  0.45594000000E+02  0.51100000000E-03 0.  1.
         11   -1    0    0    0    0 -0.00000000000E+00 -0.00000000000E+00 -0.45593999997E+02  0.45594000000E+02  0.51100000000E-03 0. -1.
    9900012    2    1    2    0    0 -0.67412029864E+01  0.11783502841E+02  0.12898971106E+02  0.72461595847E+02  0.70000033287E+02 0.  0.
         12    1    1    2    0    0  0.67412029864E+01 -0.11783502841E+02 -0.12898971106E+02  0.18726404153E+02  0.00000000000E+00 0. -1.
         11    1    3    3    0    0  0.22426047646E+01  0.11272774092E+02  0.13945843096E+02  0.18071835871E+02  0.51100000000E-03 0. -1.
        -11    1    3    3    0    0  0.12187173710E+02  0.19202509813E+02  0.89355182224E+01  0.24435774436E+02  0.51100000000E-03 0.  1.
         12    1    3    3    0    0 -0.21170981461E+02 -0.18691781063E+02 -0.99823902118E+01  0.29953985539E+02  0.00000000000E+00 0. -1.
</event>
<event>
 7    1  0.2944263E-013  0.7246155E+02  0.7816164E-02  0.1226708E+00
        -11   -1    0    0    0    0  0.00000000000E+00  0.00000000000E+00  0.45593999997E+02  0.45594000000E+02  0.51100000000E-03 0.  1.
         11   -1    0    0    0    0 -0.00000000000E+00 -0.00000000000E+00 -0.45593999997E+02  0.45594000000E+02  0.51100000000E-03 0. -1.
    9900012    2    1    2    0    0  0.47873922048E+01  0.62992229378E+01  0.16972933497E+02  0.72461553321E+02  0.69999977889E+02 0.  0.
         12    1    1    2    0    0 -0.47873922048E+01 -0.62992229378E+01 -0.16972933497E+02  0.18726446679E+02  0.00000000000E+00 0. -1.
         11    1    3    3    0    0  0.17083560618E+02  0.14336808902E+02 -0.19343921669E+02  0.29522524260E+02  0.51100000000E-03 0. -1.
        -11    1    3    3    0    0 -0.58665602757E+01  0.38862419267E+01  0.44857355563E+01  0.83451320854E+01  0.51100000000E-03 0.  1.
        -12    1    3    3    0    0 -0.64296081378E+01 -0.11923827891E+02  0.31831119609E+02  0.34593896975E+02  0.00000000000E+00 0.  1.
</event>
<event>
 7    1  0.2944263E-013  0.7246152E+02  0.7816164E-02  0.1226708E+00
        -11   -1    0    0    0    0  0.00000000000E+00  0.00000000000E+00  0.45593999997E+02  0.45594000000E+02  0.51100000000E-03 0. -1.
         11   -1    0    0    0    0 -0.00000000000E+00 -0.00000000000E+00 -0.45593999997E+02  0.45594000000E+02  0.51100000000E-03 0.  1.
    9900012    2    1    2    0    0  0.17763110504E+02 -0.43592817352E+01 -0.40186449453E+01  0.72461523043E+02  0.69999938446E+02 0.  0.
         12    1    1    2    0    0 -0.17763110504E+02  0.43592817352E+01  0.40186449453E+01  0.18726476957E+02  0.00000000000E+00 0. -1.
         11    1    3    3    0    0  0.31090536819E+02 -0.18855878732E+02  0.14755905039E+02  0.39241589879E+02  0.51100000000E-03 0. -1.
        -11    1    3    3    0    0 -0.36704633136E+01  0.45648388372E+01  0.36210089600E+01  0.68863459611E+01  0.51100000000E-03 0.  1.
        -12    1    3    3    0    0 -0.96569630014E+01  0.99317581593E+01 -0.22395558944E+02  0.26333587203E+02  0.00000000000E+00 0.  1.
</event>
<event>
 7    1  0.2944263E-013  0.7246154E+02  0.7816164E-02  0.1226708E+00
        -11   -1    0    0    0    0  0.00000000000E+00  0.00000000000E+00  0.45593999997E+02  0.45594000000E+02  0.51100000000E-03 0.  1.
         11   -1    0    0    0    0 -0.00000000000E+00 -0.00000000000E+00 -0.45593999997E+02  0.45594000000E+02  0.51100000000E-03 0. -1.
    9900012    2    1    2    0    0 -0.59314324966E+00 -0.18708854733E+02 -0.55423920736E+00  0.72461541567E+02  0.69999962577E+02 0.  0.
         12    1    1    2    0    0  0.59314324966E+00  0.18708854733E+02  0.55423920736E+00  0.18726458433E+02  0.00000000000E+00 0. -1.
         11    1    3    3    0    0  0.77495015377E+01  0.57010862235E+01  0.13610305007E+02  0.16667260149E+02  0.51100000000E-03 0.  1.
        -11    1    3    3    0    0  0.74346262270E+01 -0.19484528995E+02  0.12579554715E+02  0.24354994034E+02  0.51100000000E-03 0. -1.
         12    1    3    3    0    0 -0.15777271014E+02 -0.49254119620E+01 -0.26744098930E+02  0.31439287384E+02  0.00000000000E+00 0. -1.
</event>
<event>
 7    1  0.2944263E-013  0.7246086E+02  0.7816164E-02  0.1226710E+00
        -11   -1    0    0    0    0  0.00000000000E+00  0.00000000000E+00  0.45593999997E+02  0.45594000000E+02  0.51100000000E-03 0. -1.
         11   -1    0    0    0    0 -0.00000000000E+00 -0.00000000000E+00 -0.45593999997E+02  0.45594000000E+02  0.51100000000E-03 0.  1.
    9900012    2    1    2    0    0 -0.16692716240E+02 -0.43176306975E+01 -0.73087038553E+01  0.72460857603E+02  0.69999071581E+02 0.  0.
         12    1    1    2    0    0  0.16692716240E+02  0.43176306975E+01  0.73087038553E+01  0.18727142397E+02  0.00000000000E+00 0. -1.
         11    1    3    3    0    0  0.20459181124E+02  0.56160176343E+00  0.18988820638E+01  0.20554786356E+02  0.51100000000E-03 0. -1.
        -11    1    3    3    0    0  0.29436647151E+01 -0.97175349699E+01  0.11336450148E+01  0.10216692181E+02  0.51100000000E-03 0.  1.
        -12    1    3    3    0    0 -0.40095562079E+02  0.48383025090E+01 -0.10341230934E+02  0.41689379065E+02  0.00000000000E+00 0.  1.
</event>
<event>
 7    1  0.2944263E-013  0.7246154E+02  0.7816164E-02  0.1226708E+00
        -11   -1    0    0    0    0  0.00000000000E+00  0.00000000000E+00  0.45593999997E+02  0.45594000000E+02  0.51100000000E-03 0. -1.
         11   -1    0    0    0    0 -0.00000000000E+00 -0.00000000000E+00 -0.45593999997E+02  0.45594000000E+02  0.51100000000E-03 0.  1.
    9900012    2    1    2    0    0 -0.57816501543E+01 -0.92219390306E+00 -0.17787698639E+02  0.72461544303E+02  0.69999966142E+02 0.  0.
         12    1    1    2    0    0  0.57816501543E+01  0.92219390306E+00  0.17787698639E+02  0.18726455697E+02  0.00000000000E+00 0. -1.
         11    1    3    3    0    0 -0.10742434158E+02  0.19315059442E+01 -0.32934327192E+01  0.11400759018E+02  0.51100000000E-03 0. -1.
        -11    1    3    3    0    0 -0.19467407916E+02 -0.13223253964E+01 -0.27206606297E+02  0.33480261975E+02  0.51100000000E-03 0.  1.
         12    1    3    3    0    0  0.24428191920E+02 -0.15313744509E+01  0.12712340378E+02  0.27580523310E+02  0.00000000000E+00 0. -1.
</event>
<event>
 7    1  0.2944263E-013  0.7246086E+02  0.7816164E-02  0.1226710E+00
        -11   -1    0    0    0    0  0.00000000000E+00  0.00000000000E+00  0.45593999997E+02  0.45594000000E+02  0.51100000000E-03 0.  1.
         11   -1    0    0    0    0 -0.00000000000E+00 -0.00000000000E+00 -0.45593999997E+02  0.45594000000E+02  0.51100000000E-03 0. -1.
    9900012    2    1    2    0    0 -0.12864413016E+02  0.72875626118E+01 -0.11493656457E+02  0.72460858472E+02  0.69999072713E+02 0.  0.
         12    1    1    2    0    0  0.12864413016E+02 -0.72875626118E+01  0.11493656457E+02  0.18727141528E+02  0.00000000000E+00 0. -1.
         11    1    3    3    0    0  0.38772610282E+01 -0.11197870985E+01  0.10511543548E+00  0.40370937247E+01  0.51100000000E-03 0. -1.
        -11    1    3    3    0    0  0.13631514545E+02  0.27309540478E+02  0.87977149523E+00  0.30535277763E+02  0.51100000000E-03 0.  1.
         12    1    3    3    0    0 -0.30373188589E+02 -0.18902190767E+02 -0.12478543388E+02  0.37888486984E+02  0.00000000000E+00 0. -1.
</event>
<event>
 7    1  0.2944263E-013  0.7246157E+02  0.7816164E-02  0.1226708E+00
        -11   -1    0    0    0    0  0.00000000000E+00  0.00000000000E+00  0.45593999997E+02  0.45594000000E+02  0.51100000000E-03 0.  1.
         11   -1    0    0    0    0 -0.00000000000E+00 -0.00000000000E+00 -0.45593999997E+02  0.45594000000E+02  0.51100000000E-03 0. -1.
    9900012    2    1    2    0    0 -0.11975854256E+02 -0.12951288713E+02 -0.62866720684E+01  0.72461569209E+02  0.69999998586E+02 0.  0.
         12    1    1    2    0    0  0.11975854256E+02  0.12951288713E+02  0.62866720684E+01  0.18726430791E+02  0.00000000000E+00 0. -1.
         11    1    3    3    0    0  0.69364525200E+01 -0.16830680761E+02 -0.19307747468E+02  0.26536301570E+02  0.51100000000E-03 0. -1.
        -11    1    3    3    0    0  0.36005103704E+01  0.21267799728E+01 -0.11711088674E+02  0.12435291157E+02  0.51100000000E-03 0.  1.
        -12    1    3    3    0    0 -0.22512817146E+02  0.17526120752E+01  0.24732164074E+02  0.33489976481E+02  0.00000000000E+00 0.  1.
</event>
<event>
 7    1  0.2944263E-013  0.7246146E+02  0.7816164E-02  0.1226708E+00
        -11   -1    0    0    0    0  0.00000000000E+00  0.00000000000E+00  0.45593999997E+02  0.45594000000E+02  0.51100000000E-03 0. -1.
         11   -1    0    0    0    0 -0.00000000000E+00 -0.00000000000E+00 -0.45593999997E+02  0.45594000000E+02  0.51100000000E-03 0.  1.
    9900012    2    1    2    0    0 -0.30968035280E+01 -0.10846496718E+02 -0.14948134207E+02  0.72461457356E+02  0.69999852876E+02 0.  0.
         12    1    1    2    0    0  0.30968035280E+01  0.10846496718E+02  0.14948134207E+02  0.18726542644E+02  0.00000000000E+00 0. -1.
         11    1    3    3    0    0  0.17142333287E+01 -0.45618426528E+01 -0.61479744286E+01  0.78451637414E+01  0.51100000000E-03 0. -1.
        -11    1    3    3    0    0  0.13112092427E+02  0.21262447456E+02 -0.17643291406E+02  0.30582746304E+02  0.51100000000E-03 0.  1.
         12    1    3    3    0    0 -0.17923129283E+02 -0.27547101521E+02  0.88431316274E+01  0.34033547310E+02  0.00000000000E+00 0. -1.
</event>
<event>
 7    1  0.2944263E-013  0.7246143E+02  0.7816164E-02  0.1226708E+00
        -11   -1    0    0    0    0  0.00000000000E+00  0.00000000000E+00  0.45593999997E+02  0.45594000000E+02  0.51100000000E-03 0.  1.
         11   -1    0    0    0    0 -0.00000000000E+00 -0.00000000000E+00 -0.45593999997E+02  0.45594000000E+02  0.51100000000E-03 0. -1.
    9900012    2    1    2    0    0 -0.18103895199E+02 -0.27628300500E+01  0.39115263584E+01  0.72461433584E+02  0.69999821909E+02 0.  0.
         12    1    1    2    0    0  0.18103895199E+02  0.27628300500E+01 -0.39115263584E+01  0.18726566416E+02  0.00000000000E+00 0. -1.
         11    1    3    3    0    0 -0.72827947538E+01 -0.20868557818E+02  0.13843200774E+02  0.26080069263E+02  0.51100000000E-03 0. -1.
        -11    1    3    3    0    0  0.58863552674E+01  0.44332498527E+01  0.12964321738E+02  0.14912294290E+02  0.51100000000E-03 0.  1.
         12    1    3    3    0    0 -0.16707455713E+02  0.13672477916E+02 -0.22895996154E+02  0.31469070031E+02  0.00000000000E+00 0. -1.
</event>
<event>
 7    1  0.2944263E-013  0.7246157E+02  0.7816164E-02  0.1226708E+00
        -11   -1    0    0    0    0  0.00000000000E+00  0.00000000000E+00  0.45593999997E+02  0.45594000000E+02  0.51100000000E-03 0. -1.
         11   -1    0    0    0    0 -0.00000000000E+00 -0.00000000000E+00 -0.45593999997E+02  0.45594000000E+02  0.51100000000E-03 0.  1.
    9900012    2    1    2    0    0 -0.15623777132E+02  0.58386748265E+01 -0.85139165852E+01  0.72461566511E+02  0.69999995071E+02 0.  0.
         12    1    1    2    0    0  0.15623777132E+02 -0.58386748265E+01  0.85139165852E+01  0.18726433489E+02  0.00000000000E+00 0. -1.
         11    1    3    3    0    0 -0.35918938822E+02  0.18292417756E+02 -0.13853995941E+02  0.42622950593E+02  0.51100000000E-03 0. -1.
        -11    1    3    3    0    0  0.36395640378E+01 -0.12016219449E+02  0.85622839712E+00  0.12584477882E+02  0.51100000000E-03 0.  1.
        -12    1    3    3    0    0  0.16655597652E+02 -0.43752348037E+00  0.44838509584E+01  0.17254138036E+02  0.00000000000E+00 0.  1.
</event>
<event>
 7    1  0.2944263E-013  0.7246159E+02  0.7816164E-02  0.1226708E+00
        -11   -1    0    0    0    0  0.00000000000E+00  0.00000000000E+00  0.45593999997E+02  0.45594000000E+02  0.51100000000E-03 0.  1.
         11   -1    0    0    0    0 -0.00000000000E+00 -0.00000000000E+00 -0.45593999997E+02  0.45594000000E+02  0.51100000000E-03 0. -1.
    9900012    2    1    2    0    0 -0.17738594002E+02  0.30697630245E+01  0.51572532884E+01  0.72461590209E+02  0.70000025942E+02 0.  0.
         12    1    1    2    0    0  0.17738594002E+02 -0.30697630245E+01 -0.51572532884E+01  0.18726409791E+02  0.00000000000E+00 0. -1.
         11    1    3    3    0    0 -0.75793574255E+01 -0.69027905444E+01  0.15468837680E+02  0.18557481395E+02  0.51100000000E-03 0. -1.
        -11    1    3    3    0    0 -0.24334887999E+02  0.98158844533E+01  0.10881388308E+02  0.28406741688E+02  0.51100000000E-03 0.  1.
         12    1    3    3    0    0  0.14175651423E+02  0.15666911561E+00 -0.21192972700E+02  0.25497367126E+02  0.00000000000E+00 0. -1.
</event>
<event>
 7    1  0.2944263E-013  0.7246154E+02  0.7816164E-02  0.1226708E+00
        -11   -1    0    0    0    0  0.00000000000E+00  0.00000000000E+00  0.45593999997E+02  0.45594000000E+02  0.51100000000E-03 0.  1.
         11   -1    0    0    0    0 -0.00000000000E+00 -0.00000000000E+00 -0.45593999997E+02  0.45594000000E+02  0.51100000000E-03 0. -1.
    9900012    2    1    2    0    0 -0.86327923268E+01 -0.84028316502E+00  0.16596665077E+02  0.72461535549E+02  0.69999954738E+02 0.  0.
         12    1    1    2    0    0  0.86327923268E+01  0.84028316502E+00 -0.16596665077E+02  0.18726464451E+02  0.00000000000E+00 0. -1.
         11    1    3    3    0    0 -0.12472269709E+02  0.36868648287E+01  0.92828898782E+01  0.15978814997E+02  0.51100000000E-03 0. -1.
        -11    1    3    3    0    0 -0.12884526281E+02 -0.25546806439E+02  0.76589227555E+01  0.29619409763E+02  0.51100000000E-03 0.  1.
        -12    1    3    3    0    0  0.16724003664E+02  0.21019658445E+02 -0.34514755697E+00  0.26863310788E+02  0.00000000000E+00 0.  1.
</event>
<event>
 7    1  0.2944263E-013  0.7246159E+02  0.7816164E-02  0.1226708E+00
        -11   -1    0    0    0    0  0.00000000000E+00  0.00000000000E+00  0.45593999997E+02  0.45594000000E+02  0.51100000000E-03 0.  1.
         11   -1    0    0    0    0 -0.00000000000E+00 -0.00000000000E+00 -0.45593999997E+02  0.45594000000E+02  0.51100000000E-03 0. -1.
    9900012    2    1    2    0    0 -0.87929619404E+01  0.16298871143E+02  0.27765008882E+01  0.72461592512E+02  0.70000028942E+02 0.  0.
         12    1    1    2    0    0  0.87929619404E+01 -0.16298871143E+02 -0.27765008882E+01  0.18726407488E+02  0.00000000000E+00 0. -1.
         11    1    3    3    0    0  0.16359070149E+02  0.92654534635E+01 -0.15322294997E+02  0.24253670409E+02  0.51100000000E-03 0. -1.
        -11    1    3    3    0    0 -0.37586709708E+01 -0.65592444210E+01  0.21354674566E+02  0.22653331343E+02  0.51100000000E-03 0.  1.
         12    1    3    3    0    0 -0.21393361119E+02  0.13592662101E+02 -0.32558786806E+01  0.25554590760E+02  0.00000000000E+00 0. -1.
</event>
<event>
 7    1  0.2944263E-013  0.7246157E+02  0.7816164E-02  0.1226708E+00
        -11   -1    0    0    0    0  0.00000000000E+00  0.00000000000E+00  0.45593999997E+02  0.45594000000E+02  0.51100000000E-03 0.  1.
         11   -1    0    0    0    0 -0.00000000000E+00 -0.00000000000E+00 -0.45593999997E+02  0.45594000000E+02  0.51100000000E-03 0. -1.
    9900012    2    1    2    0    0  0.68130934200E+01  0.88359971600E+01  0.15039482814E+02  0.72461571321E+02  0.70000001338E+02 0.  0.
         12    1    1    2    0    0 -0.68130934200E+01 -0.88359971600E+01 -0.15039482814E+02  0.18726428679E+02  0.00000000000E+00 0. -1.
         11    1    3    3    0    0  0.12532303387E+02 -0.22566642843E+01 -0.15761012307E+02  0.20262296787E+02  0.51100000000E-03 0. -1.
        -11    1    3    3    0    0 -0.24780708442E+01  0.20639342946E+02  0.10803147055E+01  0.20815628563E+02  0.51100000000E-03 0.  1.
        -12    1    3    3    0    0 -0.32411391233E+01 -0.95466815019E+01  0.29720180415E+02  0.31383645971E+02  0.00000000000E+00 0.  1.
</event>
<event>
 7    1  0.2944263E-013  0.7246155E+02  0.7816164E-02  0.1226708E+00
        -11   -1    0    0    0    0  0.00000000000E+00  0.00000000000E+00  0.45593999997E+02  0.45594000000E+02  0.51100000000E-03 0.  1.
         11   -1    0    0    0    0 -0.00000000000E+00 -0.00000000000E+00 -0.45593999997E+02  0.45594000000E+02  0.51100000000E-03 0. -1.
    9900012    2    1    2    0    0 -0.51989412898E+01  0.15406079369E+02  0.92899823366E+01  0.72461546949E+02  0.69999969589E+02 0.  0.
         12    1    1    2    0    0  0.51989412898E+01 -0.15406079369E+02 -0.92899823366E+01  0.18726453051E+02  0.00000000000E+00 0. -1.
         11    1    3    3    0    0 -0.28833783426E+02 -0.94216598795E+01 -0.53622504719E+01  0.30804358002E+02  0.51100000000E-03 0. -1.
        -11    1    3    3    0    0  0.11019268340E+02  0.13867536804E+01  0.93415361006E+01  0.14512465590E+02  0.51100000000E-03 0.  1.
        -12    1    3    3    0    0  0.12615573796E+02  0.23440985568E+02  0.53106967079E+01  0.27144723357E+02  0.00000000000E+00 0.  1.
</event>
<event>
 7    1  0.2944263E-013  0.7246159E+02  0.7816164E-02  0.1226708E+00
        -11   -1    0    0    0    0  0.00000000000E+00  0.00000000000E+00  0.45593999997E+02  0.45594000000E+02  0.51100000000E-03 0.  1.
         11   -1    0    0    0    0 -0.00000000000E+00 -0.00000000000E+00 -0.45593999997E+02  0.45594000000E+02  0.51100000000E-03 0. -1.
    9900012    2    1    2    0    0  0.18589834165E+02  0.24220511987E+00  0.22444957070E+01  0.72461591947E+02  0.70000028206E+02 0.  0.
         12    1    1    2    0    0 -0.18589834165E+02 -0.24220511987E+00 -0.22444957070E+01  0.18726408053E+02  0.00000000000E+00 0. -1.
         11    1    3    3    0    0  0.49863897140E+01 -0.12217898344E+01 -0.18409483121E+02  0.19111931400E+02  0.51100000000E-03 0. -1.
        -11    1    3    3    0    0 -0.11381174923E+02  0.13917806361E+02 -0.10192596320E+01  0.18007647459E+02  0.51100000000E-03 0.  1.
         12    1    3    3    0    0  0.24984619374E+02 -0.12453811407E+02  0.21673238460E+02  0.35342013089E+02  0.00000000000E+00 0. -1.
</event>
<event>
 7    1  0.2944263E-013  0.7246155E+02  0.7816164E-02  0.1226708E+00
        -11   -1    0    0    0    0  0.00000000000E+00  0.00000000000E+00  0.45593999997E+02  0.45594000000E+02  0.51100000000E-03 0.  1.
         11   -1    0    0    0    0 -0.00000000000E+00 -0.00000000000E+00 -0.45593999997E+02  0.45594000000E+02  0.51100000000E-03 0. -1.
    9900012    2    1    2    0    0  0.15325668139E+02  0.10066268869E+02  0.38044789174E+01  0.72461549918E+02  0.69999973456E+02 0.  0.
         12    1    1    2    0    0 -0.15325668139E+02 -0.10066268869E+02 -0.38044789174E+01  0.18726450082E+02  0.00000000000E+00 0. -1.
         11    1    3    3    0    0  0.17114907540E+02  0.20010002927E+02 -0.11828549722E+00  0.26331241310E+02  0.51100000000E-03 0. -1.
        -11    1    3    3    0    0  0.17300719171E+02 -0.48738763057E+01  0.15064994618E+02  0.23452582314E+02  0.51100000000E-03 0.  1.
         12    1    3    3    0    0 -0.19089958573E+02 -0.50698577517E+01 -0.11142230203E+02  0.22677726293E+02  0.00000000000E+00 0. -1.
</event>
<event>
 7    1  0.2944263E-013  0.7246158E+02  0.7816164E-02  0.1226708E+00
        -11   -1    0    0    0    0  0.00000000000E+00  0.00000000000E+00  0.45593999997E+02  0.45594000000E+02  0.51100000000E-03 0.  1.
         11   -1    0    0    0    0 -0.00000000000E+00 -0.00000000000E+00 -0.45593999997E+02  0.45594000000E+02  0.51100000000E-03 0. -1.
    9900012    2    1    2    0    0  0.10936595649E+02 -0.10785152451E+02  0.10712152830E+02  0.72461578665E+02  0.70000010905E+02 0.  0.
         12    1    1    2    0    0 -0.10936595649E+02  0.10785152451E+02 -0.10712152830E+02  0.18726421335E+02  0.00000000000E+00 0. -1.
         11    1    3    3    0    0  0.11054695410E+01 -0.20461886633E+00 -0.15857977084E+02  0.15897778752E+02  0.51100000000E-03 0. -1.
        -11    1    3    3    0    0  0.98057170391E+01 -0.24322224689E+02 -0.47391868043E+00  0.26228749487E+02  0.51100000000E-03 0.  1.
        -12    1    3    3    0    0  0.25409068574E-01  0.13741691104E+02  0.27044048594E+02  0.30335050427E+02  0.00000000000E+00 0.  1.
</event>
<event>
 7    1  0.2944263E-013  0.7246150E+02  0.7816164E-02  0.1226708E+00
        -11   -1    0    0    0    0  0.00000000000E+00  0.00000000000E+00  0.45593999997E+02  0.45594000000E+02  0.51100000000E-03 0.  1.
         11   -1    0    0    0    0 -0.00000000000E+00 -0.00000000000E+00 -0.45593999997E+02  0.45594000000E+02  0.51100000000E-03 0. -1.
    9900012    2    1    2    0    0 -0.45333618164E+01  0.17878781063E+02 -0.32372208814E+01  0.72461500576E+02  0.69999909178E+02 0.  0.
         12    1    1    2    0    0  0.45333618164E+01 -0.17878781063E+02  0.32372208814E+01  0.18726499424E+02  0.00000000000E+00 0. -1.
         11    1    3    3    0    0 -0.64823575898E+01 -0.43977273959E+01 -0.15126804926E+02  0.17034705566E+02  0.51100000000E-03 0. -1.
        -11    1    3    3    0    0 -0.23333228675E+02  0.14313980549E+02  0.33468904552E+01  0.27577731515E+02  0.51100000000E-03 0.  1.
         12    1    3    3    0    0  0.25282224448E+02  0.79625279099E+01  0.85426935899E+01  0.27849063495E+02  0.00000000000E+00 0. -1.
</event>
<event>
 7    1  0.2944263E-013  0.7246157E+02  0.7816164E-02  0.1226708E+00
        -11   -1    0    0    0    0  0.00000000000E+00  0.00000000000E+00  0.45593999997E+02  0.45594000000E+02  0.51100000000E-03 0.  1.
         11   -1    0    0    0    0 -0.00000000000E+00 -0.00000000000E+00 -0.45593999997E+02  0.45594000000E+02  0.51100000000E-03 0. -1.
    9900012    2    1    2    0    0 -0.11238896026E+01  0.18069145569E+02  0.47876826873E+01  0.72461573353E+02  0.70000003985E+02 0.  0.
         12    1    1    2    0    0  0.11238896026E+01 -0.18069145569E+02 -0.47876826873E+01  0.18726426647E+02  0.00000000000E+00 0. -1.
         11    1    3    3    0    0  0.23548314321E+01 -0.20499043670E+01 -0.89232864398E+01  0.94536966386E+01  0.51100000000E-03 0. -1.
        -11    1    3    3    0    0 -0.15709349497E+02 -0.81901362422E+01 -0.13188568661E+02  0.22086202410E+02  0.51100000000E-03 0.  1.
        -12    1    3    3    0    0  0.12230628463E+02  0.28309186179E+02  0.26899537788E+02  0.40921674305E+02  0.00000000000E+00 0.  1.
</event>
<event>
 7    1  0.2944263E-013  0.7246147E+02  0.7816164E-02  0.1226708E+00
        -11   -1    0    0    0    0  0.00000000000E+00  0.00000000000E+00  0.45593999997E+02  0.45594000000E+02  0.51100000000E-03 0.  1.
         11   -1    0    0    0    0 -0.00000000000E+00 -0.00000000000E+00 -0.45593999997E+02  0.45594000000E+02  0.51100000000E-03 0. -1.
    9900012    2    1    2    0    0 -0.17559578429E+02 -0.52824166505E+01 -0.38000309679E+01  0.72461469205E+02  0.69999868312E+02 0.  0.
         12    1    1    2    0    0  0.17559578429E+02  0.52824166505E+01  0.38000309679E+01  0.18726530795E+02  0.00000000000E+00 0. -1.
         11    1    3    3    0    0 -0.33174310271E+01 -0.14576825832E+02  0.64444827606E+01  0.16279452026E+02  0.51100000000E-03 0. -1.
        -11    1    3    3    0    0 -0.24096991755E+02 -0.91783682713E+01 -0.20430608368E+02  0.32898589853E+02  0.51100000000E-03 0.  1.
        -12    1    3    3    0    0  0.98548443531E+01  0.18472777452E+02  0.10186094640E+02  0.23283427326E+02  0.00000000000E+00 0.  1.
</event>
<event>
 7    1  0.2944263E-013  0.7246169E+02  0.7816164E-02  0.1226708E+00
        -11   -1    0    0    0    0  0.00000000000E+00  0.00000000000E+00  0.45593999997E+02  0.45594000000E+02  0.51100000000E-03 0.  1.
         11   -1    0    0    0    0 -0.00000000000E+00 -0.00000000000E+00 -0.45593999997E+02  0.45594000000E+02  0.51100000000E-03 0. -1.
    9900012    2    1    2    0    0  0.18512348552E+02 -0.16485932948E+01 -0.22912288561E+01  0.72461691276E+02  0.70000157601E+02 0.  0.
         12    1    1    2    0    0 -0.18512348552E+02  0.16485932948E+01  0.22912288561E+01  0.18726308724E+02  0.00000000000E+00 0. -1.
         11    1    3    3    0    0 -0.89214130618E+01 -0.10007819496E+02 -0.20258533531E+01  0.13559208832E+02  0.51100000000E-03 0. -1.
        -11    1    3    3    0    0 -0.13371125401E+02 -0.72538166815E+01 -0.78362744936E-01  0.15212198786E+02  0.51100000000E-03 0.  1.
        -12    1    3    3    0    0  0.40804887015E+02  0.15613042882E+02 -0.18701275808E+00  0.43690283658E+02  0.00000000000E+00 0.  1.
</event>
<event>
 7    1  0.2944263E-013  0.7246154E+02  0.7816164E-02  0.1226708E+00
        -11   -1    0    0    0    0  0.00000000000E+00  0.00000000000E+00  0.45593999997E+02  0.45594000000E+02  0.51100000000E-03 0.  1.
         11   -1    0    0    0    0 -0.00000000000E+00 -0.00000000000E+00 -0.45593999997E+02  0.45594000000E+02  0.51100000000E-03 0. -1.
    9900012    2    1    2    0    0  0.18624614354E+02 -0.45546719707E+00  0.18965091765E+01  0.72461535912E+02  0.69999955210E+02 0.  0.
         12    1    1    2    0    0 -0.18624614354E+02  0.45546719707E+00 -0.18965091765E+01  0.18726464088E+02  0.00000000000E+00 0. -1.
         11    1    3    3    0    0 -0.53044563085E+01 -0.79118236501E+01  0.21331563536E+01  0.97613813822E+01  0.51100000000E-03 0. -1.
        -11    1    3    3    0    0  0.27445612096E+01 -0.23356342355E+02  0.71603243107E+01  0.24582953218E+02  0.51100000000E-03 0.  1.
        -12    1    3    3    0    0  0.21184509453E+02  0.30812698808E+02 -0.73969714878E+01  0.38117201311E+02  0.00000000000E+00 0.  1.
</event>
<event>
 7    1  0.2944263E-013  0.7246154E+02  0.7816164E-02  0.1226708E+00
        -11   -1    0    0    0    0  0.00000000000E+00  0.00000000000E+00  0.45593999997E+02  0.45594000000E+02  0.51100000000E-03 0. -1.
         11   -1    0    0    0    0 -0.00000000000E+00 -0.00000000000E+00 -0.45593999997E+02  0.45594000000E+02  0.51100000000E-03 0.  1.
    9900012    2    1    2    0    0 -0.39264414614E+01  0.12189823182E+02 -0.13662777385E+02  0.72461542310E+02  0.69999963545E+02 0.  0.
         12    1    1    2    0    0  0.39264414614E+01 -0.12189823182E+02  0.13662777385E+02  0.18726457690E+02  0.00000000000E+00 0. -1.
         11    1    3    3    0    0  0.14437063657E+02 -0.51440337032E+01  0.12443651115E+01  0.15376551452E+02  0.51100000000E-03 0. -1.
        -11    1    3    3    0    0 -0.44765187685E+01  0.67395023589E+01 -0.31783506943E+02  0.32797125273E+02  0.51100000000E-03 0.  1.
        -12    1    3    3    0    0 -0.13886986350E+02  0.10594354526E+02  0.16876364447E+02  0.24287865584E+02  0.00000000000E+00 0.  1.
</event>
<event>
 7    1  0.2944263E-013  0.7246157E+02  0.7816164E-02  0.1226708E+00
        -11   -1    0    0    0    0  0.00000000000E+00  0.00000000000E+00  0.45593999997E+02  0.45594000000E+02  0.51100000000E-03 0.  1.
         11   -1    0    0    0    0 -0.00000000000E+00 -0.00000000000E+00 -0.45593999997E+02  0.45594000000E+02  0.51100000000E-03 0. -1.
    9900012    2    1    2    0    0 -0.13221972764E+02  0.10371483661E+02  0.82638281701E+01  0.72461572334E+02  0.70000002657E+02 0.  0.
         12    1    1    2    0    0  0.13221972764E+02 -0.10371483661E+02 -0.82638281701E+01  0.18726427666E+02  0.00000000000E+00 0. -1.
         11    1    3    3    0    0  0.16128131019E+01 -0.95541186511E+01 -0.49835272622E+01  0.10895774114E+02  0.51100000000E-03 0. -1.
        -11    1    3    3    0    0  0.12174940811E+02  0.28755619235E+02  0.30515137694E+01  0.31375572630E+02  0.51100000000E-03 0.  1.
         12    1    3    3    0    0 -0.27009726676E+02 -0.88300169228E+01  0.10195841663E+02  0.30190225590E+02  0.00000000000E+00 0. -1.
</event>
<event>
 7    1  0.2944263E-013  0.7246152E+02  0.7816164E-02  0.1226708E+00
        -11   -1    0    0    0    0  0.00000000000E+00  0.00000000000E+00  0.45593999997E+02  0.45594000000E+02  0.51100000000E-03 0.  1.
         11   -1    0    0    0    0 -0.00000000000E+00 -0.00000000000E+00 -0.45593999997E+02  0.45594000000E+02  0.51100000000E-03 0. -1.
    9900012    2    1    2    0    0  0.14755518302E+01 -0.16911643196E+02  0.79057017147E+01  0.72461520128E+02  0.69999934649E+02 0.  0.
         12    1    1    2    0    0 -0.14755518302E+01  0.16911643196E+02 -0.79057017147E+01  0.18726479872E+02  0.00000000000E+00 0. -1.
         11    1    3    3    0    0 -0.26643116030E+02 -0.92980800405E+01 -0.45047168224E+01  0.28576255845E+02  0.51100000000E-03 0. -1.
        -11    1    3    3    0    0  0.14571721261E+02  0.82433678686E+01 -0.41566989167E+01  0.17250110738E+02  0.51100000000E-03 0.  1.
        -12    1    3    3    0    0  0.13546946599E+02 -0.15856931024E+02  0.16567117454E+02  0.26635153545E+02  0.00000000000E+00 0.  1.
</event>
<event>
 7    1  0.2944263E-013  0.7246162E+02  0.7816164E-02  0.1226708E+00
        -11   -1    0    0    0    0  0.00000000000E+00  0.00000000000E+00  0.45593999997E+02  0.45594000000E+02  0.51100000000E-03 0.  1.
         11   -1    0    0    0    0 -0.00000000000E+00 -0.00000000000E+00 -0.45593999997E+02  0.45594000000E+02  0.51100000000E-03 0. -1.
    9900012    2    1    2    0    0  0.26377481334E+01  0.80226766767E+00  0.18522312295E+02  0.72461617505E+02  0.70000061500E+02 0.  0.
         12    1    1    2    0    0 -0.26377481334E+01 -0.80226766767E+00 -0.18522312295E+02  0.18726382495E+02  0.00000000000E+00 0. -1.
         11    1    3    3    0    0  0.63429529275E+01 -0.58372584593E+01 -0.13550813482E+02  0.16060236127E+02  0.51100000000E-03 0. -1.
        -11    1    3    3    0    0 -0.14712265384E+02 -0.26233539233E+01 -0.56899723668E+01  0.15990888792E+02  0.51100000000E-03 0.  1.
        -12    1    3    3    0    0  0.11007060590E+02  0.92628800502E+01  0.37763098144E+02  0.40410492586E+02  0.00000000000E+00 0.  1.
</event>
<event>
 7    1  0.2944263E-013  0.7246158E+02  0.7816164E-02  0.1226708E+00
        -11   -1    0    0    0    0  0.00000000000E+00  0.00000000000E+00  0.45593999997E+02  0.45594000000E+02  0.51100000000E-03 0.  1.
         11   -1    0    0    0    0 -0.00000000000E+00 -0.00000000000E+00 -0.45593999997E+02  0.45594000000E+02  0.51100000000E-03 0. -1.
    9900012    2    1    2    0    0  0.99833635444E+01  0.20375667669E+01  0.15711762048E+02  0.72461583027E+02  0.70000016587E+02 0.  0.
         12    1    1    2    0    0 -0.99833635444E+01 -0.20375667669E+01 -0.15711762048E+02  0.18726416973E+02  0.00000000000E+00 0. -1.
         11    1    3    3    0    0 -0.93647157202E+01 -0.13972800333E+02 -0.15160232399E+02  0.22644418657E+02  0.51100000000E-03 0. -1.
        -11    1    3    3    0    0 -0.64960346279E+01 -0.43218586241E+00  0.26594597243E+00  0.65158251993E+01  0.51100000000E-03 0.  1.
        -12    1    3    3    0    0  0.25844113892E+02  0.16442552962E+02  0.30606048474E+02  0.43301339171E+02  0.00000000000E+00 0.  1.
</event>
<event>
 7    1  0.2944263E-013  0.7246156E+02  0.7816164E-02  0.1226708E+00
        -11   -1    0    0    0    0  0.00000000000E+00  0.00000000000E+00  0.45593999997E+02  0.45594000000E+02  0.51100000000E-03 0. -1.
         11   -1    0    0    0    0 -0.00000000000E+00 -0.00000000000E+00 -0.45593999997E+02  0.45594000000E+02  0.51100000000E-03 0.  1.
    9900012    2    1    2    0    0 -0.32239921172E+01  0.12451234426E+02 -0.13610732668E+02  0.72461563936E+02  0.69999991717E+02 0.  0.
         12    1    1    2    0    0  0.32239921172E+01 -0.12451234426E+02  0.13610732668E+02  0.18726436064E+02  0.00000000000E+00 0. -1.
         11    1    3    3    0    0 -0.16965172433E+02  0.48043180344E+01 -0.23594123032E+02  0.29454731188E+02  0.51100000000E-03 0. -1.
        -11    1    3    3    0    0 -0.70140435590E+01  0.13176133120E+02  0.14771954377E+02  0.21000426839E+02  0.51100000000E-03 0.  1.
         12    1    3    3    0    0  0.20755223875E+02 -0.55292167283E+01 -0.47885640124E+01  0.22006405909E+02  0.00000000000E+00 0. -1.
</event>
<event>
 7    1  0.2944263E-013  0.7246159E+02  0.7816164E-02  0.1226708E+00
        -11   -1    0    0    0    0  0.00000000000E+00  0.00000000000E+00  0.45593999997E+02  0.45594000000E+02  0.51100000000E-03 0.  1.
         11   -1    0    0    0    0 -0.00000000000E+00 -0.00000000000E+00 -0.45593999997E+02  0.45594000000E+02  0.51100000000E-03 0. -1.
    9900012    2    1    2    0    0  0.38356932949E+01  0.36838770799E+01  0.17955356042E+02  0.72461593404E+02  0.70000030104E+02 0.  0.
         12    1    1    2    0    0 -0.38356932949E+01 -0.36838770799E+01 -0.17955356042E+02  0.18726406596E+02  0.00000000000E+00 0. -1.
         11    1    3    3    0    0 -0.89645102656E+01  0.16111836564E+02 -0.31717086953E+00  0.18440561797E+02  0.51100000000E-03 0. -1.
        -11    1    3    3    0    0  0.70882924328E+01  0.31917080664E+01  0.31704144634E+02  0.32643279205E+02  0.51100000000E-03 0.  1.
         12    1    3    3    0    0  0.57119111276E+01 -0.15619667551E+02 -0.13431617722E+02  0.21377752402E+02  0.00000000000E+00 0. -1.
</event>
<event>
 7    1  0.2944263E-013  0.7246159E+02  0.7816164E-02  0.1226708E+00
        -11   -1    0    0    0    0  0.00000000000E+00  0.00000000000E+00  0.45593999997E+02  0.45594000000E+02  0.51100000000E-03 0. -1.
         11   -1    0    0    0    0 -0.00000000000E+00 -0.00000000000E+00 -0.45593999997E+02  0.45594000000E+02  0.51100000000E-03 0.  1.
    9900012    2    1    2    0    0 -0.13063851941E+02  0.95171921050E+01 -0.94571174918E+01  0.72461594997E+02  0.70000032179E+02 0.  0.
         12    1    1    2    0    0  0.13063851941E+02 -0.95171921050E+01  0.94571174918E+01  0.18726405003E+02  0.00000000000E+00 0. -1.
         11    1    3    3    0    0 -0.15506392515E+02  0.26145089800E+02 -0.12877061619E+02  0.33012613433E+02  0.51100000000E-03 0. -1.
        -11    1    3    3    0    0  0.83020041895E+01  0.92228245843E+01 -0.14681410982E+01  0.12495567431E+02  0.51100000000E-03 0.  1.
         12    1    3    3    0    0 -0.58594636159E+01 -0.25850722280E+02  0.48880852252E+01  0.26953414133E+02  0.00000000000E+00 0. -1.
</event>
<event>
 7    1  0.2944263E-013  0.7246156E+02  0.7816164E-02  0.1226708E+00
        -11   -1    0    0    0    0  0.00000000000E+00  0.00000000000E+00  0.45593999997E+02  0.45594000000E+02  0.51100000000E-03 0.  1.
         11   -1    0    0    0    0 -0.00000000000E+00 -0.00000000000E+00 -0.45593999997E+02  0.45594000000E+02  0.51100000000E-03 0. -1.
    9900012    2    1    2    0    0 -0.15769306101E+02 -0.96647955042E+01  0.29326154408E+01  0.72461560926E+02  0.69999987796E+02 0.  0.
         12    1    1    2    0    0  0.15769306101E+02  0.96647955042E+01 -0.29326154408E+01  0.18726439074E+02  0.00000000000E+00 0. -1.
         11    1    3    3    0    0 -0.93699332732E+01  0.57494661501E+01 -0.98328882991E+01  0.14749159404E+02  0.51100000000E-03 0. -1.
        -11    1    3    3    0    0  0.12046707829E+02  0.96542198805E+01  0.20480055737E+02  0.25646828542E+02  0.51100000000E-03 0.  1.
        -12    1    3    3    0    0 -0.18446080657E+02 -0.25068481535E+02 -0.77145519970E+01  0.32065572981E+02  0.00000000000E+00 0.  1.
</event>
<event>
 7    1  0.2944263E-013  0.7246153E+02  0.7816164E-02  0.1226708E+00
        -11   -1    0    0    0    0  0.00000000000E+00  0.00000000000E+00  0.45593999997E+02  0.45594000000E+02  0.51100000000E-03 0.  1.
         11   -1    0    0    0    0 -0.00000000000E+00 -0.00000000000E+00 -0.45593999997E+02  0.45594000000E+02  0.51100000000E-03 0. -1.
    9900012    2    1    2    0    0 -0.12474704981E+02  0.86059049253E+01 -0.11000045259E+02  0.72461525167E+02  0.69999941214E+02 0.  0.
         12    1    1    2    0    0  0.12474704981E+02 -0.86059049253E+01  0.11000045259E+02  0.18726474833E+02  0.00000000000E+00 0. -1.
         11    1    3    3    0    0 -0.60137298322E+01  0.35232978061E+02 -0.66450272300E+01  0.36354973205E+02  0.51100000000E-03 0. -1.
        -11    1    3    3    0    0  0.36648279534E+01  0.18196035272E+01  0.29452521349E+01  0.50414711468E+01  0.51100000000E-03 0.  1.
        -12    1    3    3    0    0 -0.10125803102E+02 -0.28446676663E+02 -0.73002701643E+01  0.31065080816E+02  0.00000000000E+00 0.  1.
</event>
<event>
 7    1  0.2944263E-013  0.7246155E+02  0.7816164E-02  0.1226708E+00
        -11   -1    0    0    0    0  0.00000000000E+00  0.00000000000E+00  0.45593999997E+02  0.45594000000E+02  0.51100000000E-03 0.  1.
         11   -1    0    0    0    0 -0.00000000000E+00 -0.00000000000E+00 -0.45593999997E+02  0.45594000000E+02  0.51100000000E-03 0. -1.
    9900012    2    1    2    0    0 -0.11437146455E+02 -0.45044807965E+01  0.14127318331E+02  0.72461553740E+02  0.69999978435E+02 0.  0.
         12    1    1    2    0    0  0.11437146455E+02  0.45044807965E+01 -0.14127318331E+02  0.18726446260E+02  0.00000000000E+00 0. -1.
         11    1    3    3    0    0  0.87636821982E+01  0.71200298013E-01  0.15558536395E+02  0.17857078434E+02  0.51100000000E-03 0. -1.
        -11    1    3    3    0    0 -0.62164855999E+01 -0.24727696020E+02  0.10194950563E+02  0.27459800817E+02  0.51100000000E-03 0.  1.
         12    1    3    3    0    0 -0.13984343054E+02  0.20152014926E+02 -0.11626168627E+02  0.27144674490E+02  0.00000000000E+00 0. -1.
</event>
<event>
 7    1  0.2944263E-013  0.7246158E+02  0.7816164E-02  0.1226708E+00
        -11   -1    0    0    0    0  0.00000000000E+00  0.00000000000E+00  0.45593999997E+02  0.45594000000E+02  0.51100000000E-03 0.  1.
         11   -1    0    0    0    0 -0.00000000000E+00 -0.00000000000E+00 -0.45593999997E+02  0.45594000000E+02  0.51100000000E-03 0. -1.
    9900012    2    1    2    0    0 -0.11583955480E+02  0.14702401603E+02  0.57471509483E+00  0.72461576559E+02  0.70000008160E+02 0.  0.
         12    1    1    2    0    0  0.11583955480E+02 -0.14702401603E+02 -0.57471509483E+00  0.18726423441E+02  0.00000000000E+00 0. -1.
         11    1    3    3    0    0  0.72525111367E+01 -0.81652718255E+01 -0.22456003485E+02  0.24970836481E+02  0.51100000000E-03 0. -1.
        -11    1    3    3    0    0 -0.93989660347E+01 -0.24153675758E-01 -0.45360582838E+01  0.10436329380E+02  0.51100000000E-03 0.  1.
        -12    1    3    3    0    0 -0.94375005817E+01  0.22891827105E+02  0.27566776864E+02  0.37054410697E+02  0.00000000000E+00 0.  1.
</event>
<event>
 7    1  0.2944263E-013  0.7246159E+02  0.7816164E-02  0.1226708E+00
        -11   -1    0    0    0    0  0.00000000000E+00  0.00000000000E+00  0.45593999997E+02  0.45594000000E+02  0.51100000000E-03 0.  1.
         11   -1    0    0    0    0 -0.00000000000E+00 -0.00000000000E+00 -0.45593999997E+02  0.45594000000E+02  0.51100000000E-03 0. -1.
    9900012    2    1    2    0    0 -0.10289243324E+01  0.17721258804E+02  0.59646091695E+01  0.72461594541E+02  0.70000031586E+02 0.  0.
         12    1    1    2    0    0  0.10289243324E+01 -0.17721258804E+02 -0.59646091695E+01  0.18726405459E+02  0.00000000000E+00 0. -1.
         11    1    3    3    0    0 -0.25865139552E+02 -0.21642618501E+01 -0.68620794217E+01  0.26847301683E+02  0.51100000000E-03 0. -1.
        -11    1    3    3    0    0 -0.41706058592E+01  0.10680271243E+02 -0.21988808070E+01  0.11674640214E+02  0.51100000000E-03 0.  1.
         12    1    3    3    0    0  0.29006821079E+02  0.92052494109E+01  0.15025569398E+02  0.33939652644E+02  0.00000000000E+00 0. -1.
</event>
<event>
 7    1  0.2944263E-013  0.7246160E+02  0.7816164E-02  0.1226708E+00
        -11   -1    0    0    0    0  0.00000000000E+00  0.00000000000E+00  0.45593999997E+02  0.45594000000E+02  0.51100000000E-03 0.  1.
         11   -1    0    0    0    0 -0.00000000000E+00 -0.00000000000E+00 -0.45593999997E+02  0.45594000000E+02  0.51100000000E-03 0. -1.
    9900012    2    1    2    0    0  0.14759395800E+02 -0.22301085867E+01  0.11307743018E+02  0.72461596158E+02  0.70000033692E+02 0.  0.
         12    1    1    2    0    0 -0.14759395800E+02  0.22301085867E+01 -0.11307743018E+02  0.18726403842E+02  0.00000000000E+00 0. -1.
         11    1    3    3    0    0  0.32417560497E+02 -0.85449526016E+01 -0.72476848656E+01  0.34299320397E+02  0.51100000000E-03 0. -1.
        -11    1    3    3    0    0  0.63680891262E+01  0.67947336008E+01  0.54497824288E+01  0.10789860639E+02  0.51100000000E-03 0.  1.
        -12    1    3    3    0    0 -0.24026253823E+02 -0.47988958584E+00  0.13105645455E+02  0.27372415121E+02  0.00000000000E+00 0.  1.
</event>
<event>
 7    1  0.2944263E-013  0.7246156E+02  0.7816164E-02  0.1226708E+00
        -11   -1    0    0    0    0  0.00000000000E+00  0.00000000000E+00  0.45593999997E+02  0.45594000000E+02  0.51100000000E-03 0.  1.
         11   -1    0    0    0    0 -0.00000000000E+00 -0.00000000000E+00 -0.45593999997E+02  0.45594000000E+02  0.51100000000E-03 0. -1.
    9900012    2    1    2    0    0  0.10014494235E+02 -0.15767638792E+02 -0.13308121395E+01  0.72461559099E+02  0.69999985416E+02 0.  0.
         12    1    1    2    0    0 -0.10014494235E+02  0.15767638792E+02  0.13308121395E+01  0.18726440901E+02  0.00000000000E+00 0. -1.
         11    1    3    3    0    0 -0.18622066106E+02 -0.16453770937E+02 -0.47505739945E+01  0.25299720901E+02  0.51100000000E-03 0. -1.
        -11    1    3    3    0    0 -0.54762391750E+01 -0.89995572858E+01  0.50092068587E+01  0.11665049527E+02  0.51100000000E-03 0.  1.
         12    1    3    3    0    0  0.34112799516E+02  0.96856894306E+01 -0.15894450038E+01  0.35496788672E+02  0.00000000000E+00 0. -1.
</event>
<event>
 7    1  0.2944263E-013  0.7246157E+02  0.7816164E-02  0.1226708E+00
        -11   -1    0    0    0    0  0.00000000000E+00  0.00000000000E+00  0.45593999997E+02  0.45594000000E+02  0.51100000000E-03 0.  1.
         11   -1    0    0    0    0 -0.00000000000E+00 -0.00000000000E+00 -0.45593999997E+02  0.45594000000E+02  0.51100000000E-03 0. -1.
    9900012    2    1    2    0    0  0.95554091279E+01  0.99797603308E+01  0.12640326806E+02  0.72461566233E+02  0.69999994709E+02 0.  0.
         12    1    1    2    0    0 -0.95554091279E+01 -0.99797603308E+01 -0.12640326806E+02  0.18726433767E+02  0.00000000000E+00 0. -1.
         11    1    3    3    0    0  0.72961901173E+01  0.10648030646E+02 -0.61047605122E+00  0.12922369293E+02  0.51100000000E-03 0. -1.
        -11    1    3    3    0    0 -0.87200792391E+01  0.26022898253E+02 -0.76311061379E+00  0.27455661593E+02  0.51100000000E-03 0.  1.
        -12    1    3    3    0    0  0.10979298250E+02 -0.26691168568E+02  0.14013913471E+02  0.32083535347E+02  0.00000000000E+00 0.  1.
</event>
<event>
 7    1  0.2944263E-013  0.7246159E+02  0.7816164E-02  0.1226708E+00
        -11   -1    0    0    0    0  0.00000000000E+00  0.00000000000E+00  0.45593999997E+02  0.45594000000E+02  0.51100000000E-03 0. -1.
         11   -1    0    0    0    0 -0.00000000000E+00 -0.00000000000E+00 -0.45593999997E+02  0.45594000000E+02  0.51100000000E-03 0.  1.
    9900012    2    1    2    0    0  0.56268806117E+01  0.97298551440E+01 -0.14978209228E+02  0.72461585014E+02  0.70000019175E+02 0.  0.
         12    1    1    2    0    0 -0.56268806117E+01 -0.97298551440E+01  0.14978209228E+02  0.18726414986E+02  0.00000000000E+00 0. -1.
         11    1    3    3    0    0  0.19274075075E+02  0.11588379348E+02  0.17989559615E+02  0.28799388210E+02  0.51100000000E-03 0. -1.
        -11    1    3    3    0    0  0.42735189939E+01  0.71364875532E+01 -0.12453136135E+02  0.14975747696E+02  0.51100000000E-03 0.  1.
        -12    1    3    3    0    0 -0.17920713457E+02 -0.89950117570E+01 -0.20514632708E+02  0.28686449108E+02  0.00000000000E+00 0.  1.
</event>
<event>
 7    1  0.2944263E-013  0.7246185E+02  0.7816164E-02  0.1226707E+00
        -11   -1    0    0    0    0  0.00000000000E+00  0.00000000000E+00  0.45593999997E+02  0.45594000000E+02  0.51100000000E-03 0.  1.
         11   -1    0    0    0    0 -0.00000000000E+00 -0.00000000000E+00 -0.45593999997E+02  0.45594000000E+02  0.51100000000E-03 0. -1.
    9900012    2    1    2    0    0 -0.73494375830E+01 -0.16030178231E+02 -0.62998262036E+01  0.72461850980E+02  0.70000365645E+02 0.  0.
         12    1    1    2    0    0  0.73494375830E+01  0.16030178231E+02  0.62998262036E+01  0.18726149020E+02  0.00000000000E+00 0. -1.
         11    1    3    3    0    0 -0.24828303058E+02 -0.13809871198E+02 -0.16954134577E+02  0.33084737490E+02  0.51100000000E-03 0. -1.
        -11    1    3    3    0    0 -0.29115261070E+00 -0.46198525026E+01 -0.10601539293E+02  0.11568078605E+02  0.51100000000E-03 0.  1.
        -12    1    3    3    0    0  0.17770018086E+02  0.23995454697E+01  0.21255847666E+02  0.27809034885E+02  0.00000000000E+00 0.  1.
</event>
<event>
 7    1  0.2944263E-013  0.7246156E+02  0.7816164E-02  0.1226708E+00
        -11   -1    0    0    0    0  0.00000000000E+00  0.00000000000E+00  0.45593999997E+02  0.45594000000E+02  0.51100000000E-03 0.  1.
         11   -1    0    0    0    0 -0.00000000000E+00 -0.00000000000E+00 -0.45593999997E+02  0.45594000000E+02  0.51100000000E-03 0. -1.
    9900012    2    1    2    0    0  0.42480304707E+01  0.17503614005E+02  0.51242025277E+01  0.72461555659E+02  0.69999980935E+02 0.  0.
         12    1    1    2    0    0 -0.42480304707E+01 -0.17503614005E+02 -0.51242025277E+01  0.18726444341E+02  0.00000000000E+00 0. -1.
         11    1    3    3    0    0  0.19881855211E+02  0.77327701736E+01  0.13799140077E+02  0.25406695344E+02  0.51100000000E-03 0. -1.
        -11    1    3    3    0    0  0.70904352220E+01 -0.10382368559E+01  0.12340029870E+02  0.14269847401E+02  0.51100000000E-03 0.  1.
         12    1    3    3    0    0 -0.22724259963E+02  0.10809080687E+02 -0.21014967419E+02  0.32785012914E+02  0.00000000000E+00 0. -1.
</event>
<event>
 7    1  0.2944263E-013  0.7246156E+02  0.7816164E-02  0.1226708E+00
        -11   -1    0    0    0    0  0.00000000000E+00  0.00000000000E+00  0.45593999997E+02  0.45594000000E+02  0.51100000000E-03 0.  1.
         11   -1    0    0    0    0 -0.00000000000E+00 -0.00000000000E+00 -0.45593999997E+02  0.45594000000E+02  0.51100000000E-03 0. -1.
    9900012    2    1    2    0    0 -0.92158731022E+01 -0.15050726826E+02  0.62628067408E+01  0.72461562984E+02  0.69999990477E+02 0.  0.
         12    1    1    2    0    0  0.92158731022E+01  0.15050726826E+02 -0.62628067408E+01  0.18726437016E+02  0.00000000000E+00 0. -1.
         11    1    3    3    0    0 -0.19068638329E+02 -0.43315557237E+01  0.87099222481E+01  0.21406496410E+02  0.51100000000E-03 0. -1.
        -11    1    3    3    0    0 -0.13250867964E+02  0.10977112936E+02 -0.78342151500E+01  0.18906544832E+02  0.51100000000E-03 0.  1.
         12    1    3    3    0    0  0.23103633191E+02 -0.21696284038E+02  0.53870996426E+01  0.32148521743E+02  0.00000000000E+00 0. -1.
</event>
<event>
 7    1  0.2944263E-013  0.7246154E+02  0.7816164E-02  0.1226708E+00
        -11   -1    0    0    0    0  0.00000000000E+00  0.00000000000E+00  0.45593999997E+02  0.45594000000E+02  0.51100000000E-03 0.  1.
         11   -1    0    0    0    0 -0.00000000000E+00 -0.00000000000E+00 -0.45593999997E+02  0.45594000000E+02  0.51100000000E-03 0. -1.
    9900012    2    1    2    0    0 -0.85175450348E+01 -0.12082009552E+02  0.11495951574E+02  0.72461536617E+02  0.69999956129E+02 0.  0.
         12    1    1    2    0    0  0.85175450348E+01  0.12082009552E+02 -0.11495951574E+02  0.18726463383E+02  0.00000000000E+00 0. -1.
         11    1    3    3    0    0  0.69223837906E+01  0.22756058264E+02  0.20240628642E+01  0.23871623652E+02  0.51100000000E-03 0. -1.
        -11    1    3    3    0    0 -0.18895322771E+01 -0.16354447234E+02  0.17761832320E+02  0.24218194899E+02  0.51100000000E-03 0.  1.
         12    1    3    3    0    0 -0.13550396548E+02 -0.18483620582E+02 -0.82899436098E+01  0.24371718066E+02  0.00000000000E+00 0. -1.
</event>
<event>
 7    1  0.2944263E-013  0.7246159E+02  0.7816164E-02  0.1226708E+00
        -11   -1    0    0    0    0  0.00000000000E+00  0.00000000000E+00  0.45593999997E+02  0.45594000000E+02  0.51100000000E-03 0. -1.
         11   -1    0    0    0    0 -0.00000000000E+00 -0.00000000000E+00 -0.45593999997E+02  0.45594000000E+02  0.51100000000E-03 0.  1.
    9900012    2    1    2    0    0  0.46051358710E+01 -0.12789333656E+02 -0.12880381736E+02  0.72461586424E+02  0.70000021012E+02 0.  0.
         12    1    1    2    0    0 -0.46051358710E+01  0.12789333656E+02  0.12880381736E+02  0.18726413576E+02  0.00000000000E+00 0. -1.
         11    1    3    3    0    0  0.16839367160E+01 -0.24061847402E+00  0.61381456705E+01  0.63694876283E+01  0.51100000000E-03 0. -1.
        -11    1    3    3    0    0  0.12894653128E+01 -0.31204787681E+02  0.88995716435E+01  0.32474665060E+02  0.51100000000E-03 0.  1.
         12    1    3    3    0    0  0.16317338422E+01  0.18656072500E+02 -0.27918099050E+02  0.33617433736E+02  0.00000000000E+00 0. -1.
</event>
<event>
 7    1  0.2944263E-013  0.7246158E+02  0.7816164E-02  0.1226708E+00
        -11   -1    0    0    0    0  0.00000000000E+00  0.00000000000E+00  0.45593999997E+02  0.45594000000E+02  0.51100000000E-03 0. -1.
         11   -1    0    0    0    0 -0.00000000000E+00 -0.00000000000E+00 -0.45593999997E+02  0.45594000000E+02  0.51100000000E-03 0.  1.
    9900012    2    1    2    0    0 -0.18893685769E+01  0.77906115561E+01 -0.16923811926E+02  0.72461581439E+02  0.70000014518E+02 0.  0.
         12    1    1    2    0    0  0.18893685769E+01 -0.77906115561E+01  0.16923811926E+02  0.18726418561E+02  0.00000000000E+00 0. -1.
         11    1    3    3    0    0 -0.27268941117E+01  0.10757283749E+02 -0.44073428904E+01  0.11940677400E+02  0.51100000000E-03 0. -1.
        -11    1    3    3    0    0 -0.11450410802E+02 -0.10482950489E+02 -0.32423859173E+02  0.35948724629E+02  0.51100000000E-03 0.  1.
         12    1    3    3    0    0  0.12287936337E+02  0.75162782958E+01  0.19907390138E+02  0.24572179410E+02  0.00000000000E+00 0. -1.
</event>
<event>
 7    1  0.2944263E-013  0.7246155E+02  0.7816164E-02  0.1226708E+00
        -11   -1    0    0    0    0  0.00000000000E+00  0.00000000000E+00  0.45593999997E+02  0.45594000000E+02  0.51100000000E-03 0.  1.
         11   -1    0    0    0    0 -0.00000000000E+00 -0.00000000000E+00 -0.45593999997E+02  0.45594000000E+02  0.51100000000E-03 0. -1.
    9900012    2    1    2    0    0 -0.65255629912E+01  0.16819327752E+02  0.50206754765E+01  0.72461549706E+02  0.69999973180E+02 0.  0.
         12    1    1    2    0    0  0.65255629912E+01 -0.16819327752E+02 -0.50206754765E+01  0.18726450294E+02  0.00000000000E+00 0. -1.
         11    1    3    3    0    0  0.99071954319E+00  0.10987713389E+02 -0.69185486403E+00  0.11053960111E+02  0.51100000000E-03 0. -1.
        -11    1    3    3    0    0 -0.13733556384E+02  0.27615854978E+02  0.17923512404E+02  0.35672094335E+02  0.51100000000E-03 0.  1.
         12    1    3    3    0    0  0.62172738493E+01 -0.21784240615E+02 -0.12210982064E+02  0.25735495260E+02  0.00000000000E+00 0. -1.
</event>
<event>
 7    1  0.2944263E-013  0.7246123E+02  0.7816164E-02  0.1226709E+00
        -11   -1    0    0    0    0  0.00000000000E+00  0.00000000000E+00  0.45593999997E+02  0.45594000000E+02  0.51100000000E-03 0. -1.
         11   -1    0    0    0    0 -0.00000000000E+00 -0.00000000000E+00 -0.45593999997E+02  0.45594000000E+02  0.51100000000E-03 0.  1.
    9900012    2    1    2    0    0  0.17180205888E+02  0.92904175397E+00 -0.73938812253E+01  0.72461225784E+02  0.69999551210E+02 0.  0.
         12    1    1    2    0    0 -0.17180205888E+02 -0.92904175397E+00  0.73938812253E+01  0.18726774216E+02  0.00000000000E+00 0. -1.
         11    1    3    3    0    0  0.22348646408E+02  0.15281288168E+02 -0.21108249307E+02  0.34329840568E+02  0.51100000000E-03 0. -1.
        -11    1    3    3    0    0 -0.34123149439E+01 -0.14163383634E+02 -0.78131683420E+01  0.16531513211E+02  0.51100000000E-03 0.  1.
        -12    1    3    3    0    0 -0.17561255758E+01 -0.18886278033E+00  0.21527536424E+02  0.21599872006E+02  0.00000000000E+00 0.  1.
</event>
<event>
 7    1  0.2944263E-013  0.7246155E+02  0.7816164E-02  0.1226708E+00
        -11   -1    0    0    0    0  0.00000000000E+00  0.00000000000E+00  0.45593999997E+02  0.45594000000E+02  0.51100000000E-03 0. -1.
         11   -1    0    0    0    0 -0.00000000000E+00 -0.00000000000E+00 -0.45593999997E+02  0.45594000000E+02  0.51100000000E-03 0.  1.
    9900012    2    1    2    0    0  0.11000534812E+02  0.60638773006E+01 -0.13888752504E+02  0.72461552921E+02  0.69999977369E+02 0.  0.
         12    1    1    2    0    0 -0.11000534812E+02 -0.60638773006E+01  0.13888752504E+02  0.18726447079E+02  0.00000000000E+00 0. -1.
         11    1    3    3    0    0  0.23787850616E+02 -0.46049948678E+01 -0.17027253696E+01  0.24289238124E+02  0.51100000000E-03 0. -1.
        -11    1    3    3    0    0  0.10907129711E+02  0.17021327327E+02 -0.12255852078E+02  0.23641001944E+02  0.51100000000E-03 0.  1.
        -12    1    3    3    0    0 -0.23694445515E+02 -0.63524551582E+01  0.69824943884E-01  0.24531312854E+02  0.00000000000E+00 0.  1.
</event>
<event>
 7    1  0.2944263E-013  0.7246158E+02  0.7816164E-02  0.1226708E+00
        -11   -1    0    0    0    0  0.00000000000E+00  0.00000000000E+00  0.45593999997E+02  0.45594000000E+02  0.51100000000E-03 0. -1.
         11   -1    0    0    0    0 -0.00000000000E+00 -0.00000000000E+00 -0.45593999997E+02  0.45594000000E+02  0.51100000000E-03 0.  1.
    9900012    2    1    2    0    0  0.54429092982E+01  0.12885238200E+02  0.12450875088E+02  0.72461577075E+02  0.70000008833E+02 0.  0.
         12    1    1    2    0    0 -0.54429092982E+01 -0.12885238200E+02 -0.12450875088E+02  0.18726422925E+02  0.00000000000E+00 0. -1.
         11    1    3    3    0    0  0.74060953702E+01  0.65130268905E+00 -0.10277717206E+02  0.12684869532E+02  0.51100000000E-03 0. -1.
        -11    1    3    3    0    0 -0.86519001650E+01  0.23145832978E+02 -0.84167546381E+01  0.26104151387E+02  0.51100000000E-03 0.  1.
         12    1    3    3    0    0  0.66887140930E+01 -0.10911897467E+02  0.31145346932E+02  0.33672556156E+02  0.00000000000E+00 0. -1.
</event>
<event>
 7    1  0.2944263E-013  0.7246156E+02  0.7816164E-02  0.1226708E+00
        -11   -1    0    0    0    0  0.00000000000E+00  0.00000000000E+00  0.45593999997E+02  0.45594000000E+02  0.51100000000E-03 0. -1.
         11   -1    0    0    0    0 -0.00000000000E+00 -0.00000000000E+00 -0.45593999997E+02  0.45594000000E+02  0.51100000000E-03 0.  1.
    9900012    2    1    2    0    0 -0.35321971003E+01  0.10406114857E+02 -0.15162983644E+02  0.72461555710E+02  0.69999981001E+02 0.  0.
         12    1    1    2    0    0  0.35321971003E+01 -0.10406114857E+02  0.15162983644E+02  0.18726444290E+02  0.00000000000E+00 0. -1.
         11    1    3    3    0    0 -0.11666678008E+02 -0.28053119405E+01  0.83166079086E+01  0.14599558836E+02  0.51100000000E-03 0. -1.
        -11    1    3    3    0    0 -0.19581102046E+02 -0.82407843939E+00 -0.17395508880E+02  0.26205007003E+02  0.51100000000E-03 0.  1.
         12    1    3    3    0    0  0.27715582954E+02  0.14035505237E+02 -0.60840826728E+01  0.31656989871E+02  0.00000000000E+00 0. -1.
</event>
<event>
 7    1  0.2944263E-013  0.7246162E+02  0.7816164E-02  0.1226708E+00
        -11   -1    0    0    0    0  0.00000000000E+00  0.00000000000E+00  0.45593999997E+02  0.45594000000E+02  0.51100000000E-03 0. -1.
         11   -1    0    0    0    0 -0.00000000000E+00 -0.00000000000E+00 -0.45593999997E+02  0.45594000000E+02  0.51100000000E-03 0.  1.
    9900012    2    1    2    0    0  0.13299177724E+02  0.91067985550E+01 -0.95328680085E+01  0.72461615391E+02  0.70000058747E+02 0.  0.
         12    1    1    2    0    0 -0.13299177724E+02 -0.91067985550E+01  0.95328680085E+01  0.18726384609E+02  0.00000000000E+00 0. -1.
         11    1    3    3    0    0  0.21516360442E+02  0.11497669158E+01 -0.75715776245E+01  0.22838662803E+02  0.51100000000E-03 0. -1.
        -11    1    3    3    0    0 -0.25261766221E+02 -0.31091453485E+01 -0.10560915256E+02  0.27556424818E+02  0.51100000000E-03 0.  1.
         12    1    3    3    0    0  0.17044583503E+02  0.11066176988E+02  0.85996248724E+01  0.22066527771E+02  0.00000000000E+00 0. -1.
</event>
<event>
 7    1  0.2944263E-013  0.7246193E+02  0.7816164E-02  0.1226707E+00
        -11   -1    0    0    0    0  0.00000000000E+00  0.00000000000E+00  0.45593999997E+02  0.45594000000E+02  0.51100000000E-03 0.  1.
         11   -1    0    0    0    0 -0.00000000000E+00 -0.00000000000E+00 -0.45593999997E+02  0.45594000000E+02  0.51100000000E-03 0. -1.
    9900012    2    1    2    0    0 -0.92665033946E+01  0.83325598126E+01  0.13977343961E+02  0.72461927737E+02  0.70000465634E+02 0.  0.
         12    1    1    2    0    0  0.92665033946E+01 -0.83325598126E+01 -0.13977343961E+02  0.18726072263E+02  0.00000000000E+00 0. -1.
         11    1    3    3    0    0 -0.56303986229E+00 -0.84355022304E+01 -0.59853857668E+01  0.10358549841E+02  0.51100000000E-03 0. -1.
        -11    1    3    3    0    0  0.21044809615E+02  0.10956175314E+02 -0.32200201127E+01  0.23943481765E+02  0.51100000000E-03 0.  1.
        -12    1    3    3    0    0 -0.29748273147E+02  0.58118867293E+01  0.23182749840E+02  0.38159896131E+02  0.00000000000E+00 0.  1.
</event>
<event>
 7    1  0.2944263E-013  0.7246152E+02  0.7816164E-02  0.1226708E+00
        -11   -1    0    0    0    0  0.00000000000E+00  0.00000000000E+00  0.45593999997E+02  0.45594000000E+02  0.51100000000E-03 0. -1.
         11   -1    0    0    0    0 -0.00000000000E+00 -0.00000000000E+00 -0.45593999997E+02  0.45594000000E+02  0.51100000000E-03 0.  1.
    9900012    2    1    2    0    0  0.90173623518E-01 -0.90792814095E+00 -0.18704239132E+02  0.72461520719E+02  0.69999935418E+02 0.  0.
         12    1    1    2    0    0 -0.90173623518E-01  0.90792814095E+00  0.18704239132E+02  0.18726479281E+02  0.00000000000E+00 0. -1.
         11    1    3    3    0    0 -0.74380815426E+01 -0.82628187566E+01 -0.55584300101E+01  0.12429616860E+02  0.51100000000E-03 0. -1.
        -11    1    3    3    0    0  0.23830598107E+02 -0.13372847926E+02 -0.18661745427E+02  0.33090651406E+02  0.51100000000E-03 0.  1.
         12    1    3    3    0    0 -0.16302342941E+02  0.20727738542E+02  0.55159363056E+01  0.26941252453E+02  0.00000000000E+00 0. -1.
</event>
<event>
 7    1  0.2944263E-013  0.7246149E+02  0.7816164E-02  0.1226708E+00
        -11   -1    0    0    0    0  0.00000000000E+00  0.00000000000E+00  0.45593999997E+02  0.45594000000E+02  0.51100000000E-03 0. -1.
         11   -1    0    0    0    0 -0.00000000000E+00 -0.00000000000E+00 -0.45593999997E+02  0.45594000000E+02  0.51100000000E-03 0.  1.
    9900012    2    1    2    0    0  0.78704452281E+01  0.74339896161E+01 -0.15279855997E+02  0.72461491810E+02  0.69999897760E+02 0.  0.
         12    1    1    2    0    0 -0.78704452281E+01 -0.74339896161E+01  0.15279855997E+02  0.18726508190E+02  0.00000000000E+00 0. -1.
         11    1    3    3    0    0  0.13907982072E+02  0.59143756489E+01 -0.37995854557E+02  0.40891279858E+02  0.51100000000E-03 0.  1.
        -11    1    3    3    0    0  0.25537016602E+01  0.75754270697E+01  0.18488634700E+01  0.82052899918E+01  0.51100000000E-03 0. -1.
        -12    1    3    3    0    0 -0.85912385042E+01 -0.60558131025E+01  0.20867135090E+02  0.23364921961E+02  0.00000000000E+00 0.  1.
</event>
<event>
 7    1  0.2944263E-013  0.7246155E+02  0.7816164E-02  0.1226708E+00
        -11   -1    0    0    0    0  0.00000000000E+00  0.00000000000E+00  0.45593999997E+02  0.45594000000E+02  0.51100000000E-03 0. -1.
         11   -1    0    0    0    0 -0.00000000000E+00 -0.00000000000E+00 -0.45593999997E+02  0.45594000000E+02  0.51100000000E-03 0.  1.
    9900012    2    1    2    0    0 -0.91645517845E+01  0.80428219740E+01 -0.14212809556E+02  0.72461549451E+02  0.69999972847E+02 0.  0.
         12    1    1    2    0    0  0.91645517845E+01 -0.80428219740E+01  0.14212809556E+02  0.18726450549E+02  0.00000000000E+00 0. -1.
         11    1    3    3    0    0  0.15873081547E+02 -0.22524772170E+02 -0.24621791744E+01  0.27665545461E+02  0.51100000000E-03 0. -1.
        -11    1    3    3    0    0 -0.63989254761E+01  0.18639544023E+01 -0.79304655665E+01  0.10359191939E+02  0.51100000000E-03 0.  1.
        -12    1    3    3    0    0 -0.18638707856E+02  0.28703639742E+02 -0.38201648147E+01  0.34436812050E+02  0.00000000000E+00 0.  1.
</event>
<event>
 7    1  0.2944263E-013  0.7246157E+02  0.7816164E-02  0.1226708E+00
        -11   -1    0    0    0    0  0.00000000000E+00  0.00000000000E+00  0.45593999997E+02  0.45594000000E+02  0.51100000000E-03 0. -1.
         11   -1    0    0    0    0 -0.00000000000E+00 -0.00000000000E+00 -0.45593999997E+02  0.45594000000E+02  0.51100000000E-03 0.  1.
    9900012    2    1    2    0    0  0.13594954323E+02 -0.12391462836E+02  0.35082636646E+01  0.72461573534E+02  0.70000004220E+02 0.  0.
         12    1    1    2    0    0 -0.13594954323E+02  0.12391462836E+02 -0.35082636646E+01  0.18726426466E+02  0.00000000000E+00 0. -1.
         11    1    3    3    0    0  0.12742966440E+00 -0.10506017792E+02 -0.85114207003E+00  0.10541209193E+02  0.51100000000E-03 0. -1.
        -11    1    3    3    0    0  0.32493019241E+02 -0.30258690216E+01  0.19112045018E+02  0.37818281925E+02  0.51100000000E-03 0.  1.
         12    1    3    3    0    0 -0.19025494582E+02  0.11404239777E+01 -0.14752639283E+02  0.24102082416E+02  0.00000000000E+00 0. -1.
</event>
<event>
 7    1  0.2944263E-013  0.7246158E+02  0.7816164E-02  0.1226708E+00
        -11   -1    0    0    0    0  0.00000000000E+00  0.00000000000E+00  0.45593999997E+02  0.45594000000E+02  0.51100000000E-03 0. -1.
         11   -1    0    0    0    0 -0.00000000000E+00 -0.00000000000E+00 -0.45593999997E+02  0.45594000000E+02  0.51100000000E-03 0.  1.
    9900012    2    1    2    0    0 -0.59581319614E+01 -0.16560578962E+02 -0.63974007434E+01  0.72461578871E+02  0.70000011173E+02 0.  0.
         12    1    1    2    0    0  0.59581319614E+01  0.16560578962E+02  0.63974007434E+01  0.18726421129E+02  0.00000000000E+00 0. -1.
         11    1    3    3    0    0 -0.13134195911E+02 -0.35280243306E+01 -0.80045275759E+01  0.15780574130E+02  0.51100000000E-03 0. -1.
        -11    1    3    3    0    0 -0.22425367912E+02  0.28930196384E+01  0.40811428414E+01  0.22976562314E+02  0.51100000000E-03 0.  1.
         12    1    3    3    0    0  0.29601431862E+02 -0.15925574270E+02 -0.24740160089E+01  0.33704442427E+02  0.00000000000E+00 0. -1.
</event>
<event>
 7    1  0.2944263E-013  0.7246158E+02  0.7816164E-02  0.1226708E+00
        -11   -1    0    0    0    0  0.00000000000E+00  0.00000000000E+00  0.45593999997E+02  0.45594000000E+02  0.51100000000E-03 0.  1.
         11   -1    0    0    0    0 -0.00000000000E+00 -0.00000000000E+00 -0.45593999997E+02  0.45594000000E+02  0.51100000000E-03 0. -1.
    9900012    2    1    2    0    0  0.72062429760E+01 -0.44085255296E+01  0.16712687624E+02  0.72461575814E+02  0.70000007190E+02 0.  0.
         12    1    1    2    0    0 -0.72062429760E+01  0.44085255296E+01 -0.16712687624E+02  0.18726424186E+02  0.00000000000E+00 0. -1.
         11    1    3    3    0    0  0.14034765299E+02 -0.24624343963E+02 -0.11215202615E+02  0.30481366810E+02  0.51100000000E-03 0. -1.
        -11    1    3    3    0    0 -0.29438976041E+01 -0.42823308122E+01  0.86196780063E+00  0.52676255599E+01  0.51100000000E-03 0.  1.
        -12    1    3    3    0    0 -0.38846247192E+01  0.24498149246E+02  0.27065922439E+02  0.36712583444E+02  0.00000000000E+00 0.  1.
</event>
<event>
 7    1  0.2944263E-013  0.7246164E+02  0.7816164E-02  0.1226708E+00
        -11   -1    0    0    0    0  0.00000000000E+00  0.00000000000E+00  0.45593999997E+02  0.45594000000E+02  0.51100000000E-03 0.  1.
         11   -1    0    0    0    0 -0.00000000000E+00 -0.00000000000E+00 -0.45593999997E+02  0.45594000000E+02  0.51100000000E-03 0. -1.
    9900012    2    1    2    0    0  0.15596034748E+02 -0.50640987433E+00  0.10352968425E+02  0.72461636070E+02  0.70000085685E+02 0.  0.
         12    1    1    2    0    0 -0.15596034748E+02  0.50640987433E+00 -0.10352968425E+02  0.18726363930E+02  0.00000000000E+00 0. -1.
         11    1    3    3    0    0 -0.78477385553E+01 -0.95424126113E+00  0.97990943601E+00  0.79660403954E+01  0.51100000000E-03 0. -1.
        -11    1    3    3    0    0 -0.13283714135E+02 -0.14979136773E+02  0.13944307003E+02  0.24398264236E+02  0.51100000000E-03 0.  1.
         12    1    3    3    0    0  0.36727487438E+02  0.15426968159E+02 -0.45712480137E+01  0.40097331439E+02  0.00000000000E+00 0. -1.
</event>
<event>
 7    1  0.2944263E-013  0.7246160E+02  0.7816164E-02  0.1226708E+00
        -11   -1    0    0    0    0  0.00000000000E+00  0.00000000000E+00  0.45593999997E+02  0.45594000000E+02  0.51100000000E-03 0. -1.
         11   -1    0    0    0    0 -0.00000000000E+00 -0.00000000000E+00 -0.45593999997E+02  0.45594000000E+02  0.51100000000E-03 0.  1.
    9900012    2    1    2    0    0  0.10488450429E+02 -0.10551001772E+02 -0.11373080316E+02  0.72461596537E+02  0.70000034186E+02 0.  0.
         12    1    1    2    0    0 -0.10488450429E+02  0.10551001772E+02  0.11373080316E+02  0.18726403463E+02  0.00000000000E+00 0. -1.
         11    1    3    3    0    0 -0.13355274702E+02 -0.69108551605E+01 -0.75938226351E+01  0.16846050692E+02  0.51100000000E-03 0. -1.
        -11    1    3    3    0    0 -0.13115573795E+02  0.86369736292E+01 -0.54818551179E+01  0.16633289670E+02  0.51100000000E-03 0.  1.
         12    1    3    3    0    0  0.36959298926E+02 -0.12277120241E+02  0.17025974371E+01  0.38982256176E+02  0.00000000000E+00 0. -1.
</event>
<event>
 7    1  0.2944263E-013  0.7246157E+02  0.7816164E-02  0.1226708E+00
        -11   -1    0    0    0    0  0.00000000000E+00  0.00000000000E+00  0.45593999997E+02  0.45594000000E+02  0.51100000000E-03 0.  1.
         11   -1    0    0    0    0 -0.00000000000E+00 -0.00000000000E+00 -0.45593999997E+02  0.45594000000E+02  0.51100000000E-03 0. -1.
    9900012    2    1    2    0    0 -0.30039019372E+01 -0.29477011893E+00  0.18481577646E+02  0.72461574058E+02  0.70000004903E+02 0.  0.
         12    1    1    2    0    0  0.30039019372E+01  0.29477011893E+00 -0.18481577646E+02  0.18726425942E+02  0.00000000000E+00 0. -1.
         11    1    3    3    0    0 -0.27545944136E+02 -0.10656377706E+02  0.23414185593E+02  0.37690337109E+02  0.51100000000E-03 0.  1.
        -11    1    3    3    0    0  0.85258928481E+01  0.72508054277E+01  0.81608882570E+01  0.13851538745E+02  0.51100000000E-03 0. -1.
        -12    1    3    3    0    0  0.16016149350E+02  0.31108021590E+01 -0.13093496205E+02  0.20919698204E+02  0.00000000000E+00 0.  1.
</event>
<event>
 7    1  0.2944263E-013  0.7246152E+02  0.7816164E-02  0.1226708E+00
        -11   -1    0    0    0    0  0.00000000000E+00  0.00000000000E+00  0.45593999997E+02  0.45594000000E+02  0.51100000000E-03 0. -1.
         11   -1    0    0    0    0 -0.00000000000E+00 -0.00000000000E+00 -0.45593999997E+02  0.45594000000E+02  0.51100000000E-03 0.  1.
    9900012    2    1    2    0    0  0.32942325361E+01  0.40694456071E+01 -0.17979677280E+02  0.72461517398E+02  0.69999931093E+02 0.  0.
         12    1    1    2    0    0 -0.32942325361E+01 -0.40694456071E+01  0.17979677280E+02  0.18726482602E+02  0.00000000000E+00 0. -1.
         11    1    3    3    0    0 -0.16506948256E+00 -0.44875280492E+01  0.75182937532E+01  0.87572768111E+01  0.51100000000E-03 0. -1.
        -11    1    3    3    0    0 -0.26861535062E+02  0.76527104064E+01 -0.14213803761E+02  0.31339085183E+02  0.51100000000E-03 0.  1.
         12    1    3    3    0    0  0.30320837081E+02  0.90426324993E+00 -0.11284167272E+02  0.32365155404E+02  0.00000000000E+00 0. -1.
</event>
<event>
 7    1  0.2944263E-013  0.7246158E+02  0.7816164E-02  0.1226708E+00
        -11   -1    0    0    0    0  0.00000000000E+00  0.00000000000E+00  0.45593999997E+02  0.45594000000E+02  0.51100000000E-03 0.  1.
         11   -1    0    0    0    0 -0.00000000000E+00 -0.00000000000E+00 -0.45593999997E+02  0.45594000000E+02  0.51100000000E-03 0. -1.
    9900012    2    1    2    0    0 -0.50238675245E+01  0.13966830705E+01  0.17985800022E+02  0.72461575597E+02  0.70000006908E+02 0.  0.
         12    1    1    2    0    0  0.50238675245E+01 -0.13966830705E+01 -0.17985800022E+02  0.18726424403E+02  0.00000000000E+00 0. -1.
         11    1    3    3    0    0  0.57628714745E+01 -0.16708818416E+02 -0.19166551154E+02  0.26072053695E+02  0.51100000000E-03 0. -1.
        -11    1    3    3    0    0 -0.85313588919E+01 -0.83372842984E+00  0.94792611564E+01  0.12780280903E+02  0.51100000000E-03 0.  1.
        -12    1    3    3    0    0 -0.22553801071E+01  0.18939229916E+02  0.27673090020E+02  0.33609240998E+02  0.00000000000E+00 0.  1.
</event>
<event>
 7    1  0.2944263E-013  0.7246158E+02  0.7816164E-02  0.1226708E+00
        -11   -1    0    0    0    0  0.00000000000E+00  0.00000000000E+00  0.45593999997E+02  0.45594000000E+02  0.51100000000E-03 0.  1.
         11   -1    0    0    0    0 -0.00000000000E+00 -0.00000000000E+00 -0.45593999997E+02  0.45594000000E+02  0.51100000000E-03 0. -1.
    9900012    2    1    2    0    0  0.48438143642E+01  0.14104987122E+02  0.11325436499E+02  0.72461582531E+02  0.70000015941E+02 0.  0.
         12    1    1    2    0    0 -0.48438143642E+01 -0.14104987122E+02 -0.11325436499E+02  0.18726417469E+02  0.00000000000E+00 0. -1.
         11    1    3    3    0    0 -0.10041246720E+02  0.15832067183E+02 -0.14898839818E+02  0.23946950018E+02  0.51100000000E-03 0. -1.
        -11    1    3    3    0    0 -0.89702360086E+01  0.21261931821E+01 -0.38023730198E+01  0.99721548494E+01  0.51100000000E-03 0.  1.
        -12    1    3    3    0    0  0.23855297093E+02 -0.38532732432E+01  0.30026649337E+02  0.38542477664E+02  0.00000000000E+00 0.  1.
</event>
<event>
 7    1  0.2944263E-013  0.7246158E+02  0.7816164E-02  0.1226708E+00
        -11   -1    0    0    0    0  0.00000000000E+00  0.00000000000E+00  0.45593999997E+02  0.45594000000E+02  0.51100000000E-03 0. -1.
         11   -1    0    0    0    0 -0.00000000000E+00 -0.00000000000E+00 -0.45593999997E+02  0.45594000000E+02  0.51100000000E-03 0.  1.
    9900012    2    1    2    0    0 -0.72948715848E+01 -0.91399651390E+01 -0.14626169517E+02  0.72461576184E+02  0.70000007673E+02 0.  0.
         12    1    1    2    0    0  0.72948715848E+01  0.91399651390E+01  0.14626169517E+02  0.18726423816E+02  0.00000000000E+00 0. -1.
         11    1    3    3    0    0  0.76239291251E+01  0.11170276743E+01  0.10051629305E+02  0.12665200278E+02  0.51100000000E-03 0. -1.
        -11    1    3    3    0    0  0.11512012049E+01  0.11012083377E+02  0.10768311164E+02  0.15444991748E+02  0.51100000000E-03 0.  1.
        -12    1    3    3    0    0 -0.16070001915E+02 -0.21269076190E+02 -0.35446109987E+02  0.44351384158E+02  0.00000000000E+00 0.  1.
</event>
<event>
 7    1  0.2944263E-013  0.7246172E+02  0.7816164E-02  0.1226708E+00
        -11   -1    0    0    0    0  0.00000000000E+00  0.00000000000E+00  0.45593999997E+02  0.45594000000E+02  0.51100000000E-03 0.  1.
         11   -1    0    0    0    0 -0.00000000000E+00 -0.00000000000E+00 -0.45593999997E+02  0.45594000000E+02  0.51100000000E-03 0. -1.
    9900012    2    1    2    0    0  0.32970849481E+01 -0.53720439232E+01  0.17633599272E+02  0.72461723051E+02  0.70000198994E+02 0.  0.
         12    1    1    2    0    0 -0.32970849481E+01  0.53720439232E+01 -0.17633599272E+02  0.18726276949E+02  0.00000000000E+00 0. -1.
         11    1    3    3    0    0 -0.16771897556E+00 -0.47947090304E+00  0.72399324040E+01  0.72577299121E+01  0.51100000000E-03 0. -1.
        -11    1    3    3    0    0 -0.11915832499E+02 -0.21938015698E+02  0.27072408566E+02  0.36826334365E+02  0.51100000000E-03 0.  1.
         12    1    3    3    0    0  0.15380636423E+02  0.17045442678E+02 -0.16678741698E+02  0.28377658774E+02  0.00000000000E+00 0. -1.
</event>
<event>
 7    1  0.2944263E-013  0.7246159E+02  0.7816164E-02  0.1226708E+00
        -11   -1    0    0    0    0  0.00000000000E+00  0.00000000000E+00  0.45593999997E+02  0.45594000000E+02  0.51100000000E-03 0.  1.
         11   -1    0    0    0    0 -0.00000000000E+00 -0.00000000000E+00 -0.45593999997E+02  0.45594000000E+02  0.51100000000E-03 0. -1.
    9900012    2    1    2    0    0 -0.17892033269E+02  0.54457277649E+01 -0.94739922641E+00  0.72461591624E+02  0.70000027785E+02 0.  0.
         12    1    1    2    0    0  0.17892033269E+02 -0.54457277649E+01  0.94739922641E+00  0.18726408376E+02  0.00000000000E+00 0. -1.
         11    1    3    3    0    0 -0.20717472573E+01 -0.76773458509E+01 -0.31495956789E+01  0.85529953358E+01  0.51100000000E-03 0. -1.
        -11    1    3    3    0    0 -0.13954809350E+02  0.96103072236E+01  0.30737051514E+02  0.35097878069E+02  0.51100000000E-03 0.  1.
         12    1    3    3    0    0 -0.18654766620E+01  0.35127663922E+01 -0.28534855061E+02  0.28810718219E+02  0.00000000000E+00 0. -1.
</event>
<event>
 7    1  0.2944263E-013  0.7246151E+02  0.7816164E-02  0.1226708E+00
        -11   -1    0    0    0    0  0.00000000000E+00  0.00000000000E+00  0.45593999997E+02  0.45594000000E+02  0.51100000000E-03 0.  1.
         11   -1    0    0    0    0 -0.00000000000E+00 -0.00000000000E+00 -0.45593999997E+02  0.45594000000E+02  0.51100000000E-03 0. -1.
    9900012    2    1    2    0    0  0.12166771929E+02  0.69776087954E+01  0.12408228628E+02  0.72461508034E+02  0.69999918894E+02 0.  0.
         12    1    1    2    0    0 -0.12166771929E+02 -0.69776087954E+01 -0.12408228628E+02  0.18726491966E+02  0.00000000000E+00 0. -1.
         11    1    3    3    0    0 -0.76101102593E+01  0.14512947903E+02  0.86645724067E+01  0.18536834958E+02  0.51100000000E-03 0. -1.
        -11    1    3    3    0    0  0.16613300676E+02 -0.20888876578E+02  0.19481796535E+02  0.33043718322E+02  0.51100000000E-03 0.  1.
         12    1    3    3    0    0  0.31635815118E+01  0.13353537470E+02 -0.15738140313E+02  0.20880954755E+02  0.00000000000E+00 0. -1.
</event>
<event>
 7    1  0.2944263E-013  0.7246151E+02  0.7816164E-02  0.1226708E+00
        -11   -1    0    0    0    0  0.00000000000E+00  0.00000000000E+00  0.45593999997E+02  0.45594000000E+02  0.51100000000E-03 0.  1.
         11   -1    0    0    0    0 -0.00000000000E+00 -0.00000000000E+00 -0.45593999997E+02  0.45594000000E+02  0.51100000000E-03 0. -1.
    9900012    2    1    2    0    0  0.14133909928E+01 -0.14204455850E+02  0.12120940368E+02  0.72461509793E+02  0.69999921185E+02 0.  0.
         12    1    1    2    0    0 -0.14133909928E+01  0.14204455850E+02 -0.12120940368E+02  0.18726490207E+02  0.00000000000E+00 0. -1.
         11    1    3    3    0    0 -0.29304157842E+01 -0.22132403757E+02 -0.86711740479E+01  0.23950363095E+02  0.51100000000E-03 0. -1.
        -11    1    3    3    0    0  0.22484331378E+02 -0.29190723758E+01  0.10023351558E+02  0.24789790596E+02  0.51100000000E-03 0.  1.
        -12    1    3    3    0    0 -0.18140524601E+02  0.10847020283E+02  0.10768762857E+02  0.23721356102E+02  0.00000000000E+00 0.  1.
</event>
<event>
 7    1  0.2944263E-013  0.7246169E+02  0.7816164E-02  0.1226708E+00
        -11   -1    0    0    0    0  0.00000000000E+00  0.00000000000E+00  0.45593999997E+02  0.45594000000E+02  0.51100000000E-03 0.  1.
         11   -1    0    0    0    0 -0.00000000000E+00 -0.00000000000E+00 -0.45593999997E+02  0.45594000000E+02  0.51100000000E-03 0. -1.
    9900012    2    1    2    0    0 -0.13661813127E+02 -0.56355479886E+01 -0.11500872416E+02  0.72461692159E+02  0.70000158751E+02 0.  0.
         12    1    1    2    0    0  0.13661813127E+02  0.56355479886E+01  0.11500872416E+02  0.18726307841E+02  0.00000000000E+00 0. -1.
         11    1    3    3    0    0 -0.10824321243E+02 -0.10596279205E+02 -0.20340858188E+02  0.25361340174E+02  0.51100000000E-03 0. -1.
        -11    1    3    3    0    0  0.40809297776E+00 -0.12545289819E+02 -0.13565802314E+02  0.18481932508E+02  0.51100000000E-03 0.  1.
        -12    1    3    3    0    0 -0.32455848622E+01  0.17506021036E+02  0.22405788086E+02  0.28618419477E+02  0.00000000000E+00 0.  1.
</event>
<event>
 7    1  0.2944263E-013  0.7246158E+02  0.7816164E-02  0.1226708E+00
        -11   -1    0    0    0    0  0.00000000000E+00  0.00000000000E+00  0.45593999997E+02  0.45594000000E+02  0.51100000000E-03 0.  1.
         11   -1    0    0    0    0 -0.00000000000E+00 -0.00000000000E+00 -0.45593999997E+02  0.45594000000E+02  0.51100000000E-03 0. -1.
    9900012    2    1    2    0    0 -0.59090960761E+01 -0.13147168885E+02  0.11954630321E+02  0.72461584106E+02  0.70000017992E+02 0.  0.
         12    1    1    2    0    0  0.59090960761E+01  0.13147168885E+02 -0.11954630321E+02  0.18726415894E+02  0.00000000000E+00 0. -1.
         11    1    3    3    0    0  0.14795964293E+02  0.97720053750E+01 -0.86763648848E+01  0.19740616917E+02  0.51100000000E-03 0. -1.
        -11    1    3    3    0    0 -0.13360420887E+01 -0.87632937959E+01  0.26567028943E+02  0.28006916177E+02  0.51100000000E-03 0.  1.
         12    1    3    3    0    0 -0.19369018280E+02 -0.14155880464E+02 -0.59360337372E+01  0.24714051011E+02  0.00000000000E+00 0. -1.
</event>
<event>
 7    1  0.2944263E-013  0.7246167E+02  0.7816164E-02  0.1226708E+00
        -11   -1    0    0    0    0  0.00000000000E+00  0.00000000000E+00  0.45593999997E+02  0.45594000000E+02  0.51100000000E-03 0. -1.
         11   -1    0    0    0    0 -0.00000000000E+00 -0.00000000000E+00 -0.45593999997E+02  0.45594000000E+02  0.51100000000E-03 0.  1.
    9900012    2    1    2    0    0  0.80954679710E+01 -0.37878915356E+01 -0.16455715948E+02  0.72461673309E+02  0.70000134196E+02 0.  0.
         12    1    1    2    0    0 -0.80954679710E+01  0.37878915356E+01  0.16455715948E+02  0.18726326691E+02  0.00000000000E+00 0. -1.
         11    1    3    3    0    0 -0.86929864182E+01  0.14255453408E+02  0.44223683330E+01  0.17272617250E+02  0.51100000000E-03 0. -1.
        -11    1    3    3    0    0  0.13211665923E+02  0.10700218011E+01  0.11415493734E+02  0.17493043205E+02  0.51100000000E-03 0.  1.
        -12    1    3    3    0    0  0.35767884658E+01 -0.19113366745E+02 -0.32293578015E+02  0.37696012854E+02  0.00000000000E+00 0.  1.
</event>
<event>
 7    1  0.2944263E-013  0.7246161E+02  0.7816164E-02  0.1226708E+00
        -11   -1    0    0    0    0  0.00000000000E+00  0.00000000000E+00  0.45593999997E+02  0.45594000000E+02  0.51100000000E-03 0. -1.
         11   -1    0    0    0    0 -0.00000000000E+00 -0.00000000000E+00 -0.45593999997E+02  0.45594000000E+02  0.51100000000E-03 0.  1.
    9900012    2    1    2    0    0  0.59033572215E+01 -0.14369853031E+02 -0.10456354479E+02  0.72461610823E+02  0.70000052796E+02 0.  0.
         12    1    1    2    0    0 -0.59033572215E+01  0.14369853031E+02  0.10456354479E+02  0.18726389177E+02  0.00000000000E+00 0. -1.
         11    1    3    3    0    0  0.12195558012E+02 -0.85739991994E+01 -0.79937231783E+00  0.14929303194E+02  0.51100000000E-03 0. -1.
        -11    1    3    3    0    0  0.86277804667E+01  0.15889469597E+02 -0.21986027376E+02  0.28465755565E+02  0.51100000000E-03 0.  1.
         12    1    3    3    0    0 -0.14919981258E+02 -0.21685323429E+02  0.12329045215E+02  0.29066552063E+02  0.00000000000E+00 0. -1.
</event>
<event>
 7    1  0.2944263E-013  0.7246160E+02  0.7816164E-02  0.1226708E+00
        -11   -1    0    0    0    0  0.00000000000E+00  0.00000000000E+00  0.45593999997E+02  0.45594000000E+02  0.51100000000E-03 0.  1.
         11   -1    0    0    0    0 -0.00000000000E+00 -0.00000000000E+00 -0.45593999997E+02  0.45594000000E+02  0.51100000000E-03 0. -1.
    9900012    2    1    2    0    0 -0.75385581870E+01 -0.42874062016E+01  0.16597183965E+02  0.72461595459E+02  0.70000032782E+02 0.  0.
         12    1    1    2    0    0  0.75385581870E+01  0.42874062016E+01 -0.16597183965E+02  0.18726404541E+02  0.00000000000E+00 0. -1.
         11    1    3    3    0    0  0.15950631174E+01 -0.71253514444E+01 -0.87232051522E+00  0.73536251534E+01  0.51100000000E-03 0. -1.
        -11    1    3    3    0    0 -0.32547927143E+02 -0.11110827154E+02  0.15671620562E+02  0.37794414040E+02  0.51100000000E-03 0.  1.
         12    1    3    3    0    0  0.23414305839E+02  0.13948772397E+02  0.17978839175E+01  0.27313556265E+02  0.00000000000E+00 0. -1.
</event>
<event>
 7    1  0.2944263E-013  0.7246156E+02  0.7816164E-02  0.1226708E+00
        -11   -1    0    0    0    0  0.00000000000E+00  0.00000000000E+00  0.45593999997E+02  0.45594000000E+02  0.51100000000E-03 0.  1.
         11   -1    0    0    0    0 -0.00000000000E+00 -0.00000000000E+00 -0.45593999997E+02  0.45594000000E+02  0.51100000000E-03 0. -1.
    9900012    2    1    2    0    0 -0.75290773105E+01  0.69477638631E+01  0.15675491904E+02  0.72461562157E+02  0.69999989400E+02 0.  0.
         12    1    1    2    0    0  0.75290773105E+01 -0.69477638631E+01 -0.15675491904E+02  0.18726437843E+02  0.00000000000E+00 0. -1.
         11    1    3    3    0    0  0.12068859493E+00  0.81133995526E+01 -0.40193392054E+01  0.90552142960E+01  0.51100000000E-03 0. -1.
        -11    1    3    3    0    0  0.44383485391E+01  0.28182513256E+02  0.92830474716E+01  0.30002132620E+02  0.51100000000E-03 0.  1.
         12    1    3    3    0    0 -0.12088114445E+02 -0.29348148945E+02  0.10411783638E+02  0.33404215241E+02  0.00000000000E+00 0. -1.
</event>
<event>
 7    1  0.2944263E-013  0.7246156E+02  0.7816164E-02  0.1226708E+00
        -11   -1    0    0    0    0  0.00000000000E+00  0.00000000000E+00  0.45593999997E+02  0.45594000000E+02  0.51100000000E-03 0. -1.
         11   -1    0    0    0    0 -0.00000000000E+00 -0.00000000000E+00 -0.45593999997E+02  0.45594000000E+02  0.51100000000E-03 0.  1.
    9900012    2    1    2    0    0  0.18002889859E+01  0.17209236227E+02 -0.71610535283E+01  0.72461560413E+02  0.69999987128E+02 0.  0.
         12    1    1    2    0    0 -0.18002889859E+01 -0.17209236227E+02  0.71610535283E+01  0.18726439587E+02  0.00000000000E+00 0. -1.
         11    1    3    3    0    0 -0.67352829652E+01  0.13074040285E+02  0.19260254999E+02  0.24233282668E+02  0.51100000000E-03 0. -1.
        -11    1    3    3    0    0 -0.73913585375E+01  0.16013660572E+02 -0.21406676522E+02  0.27736533776E+02  0.51100000000E-03 0.  1.
        -12    1    3    3    0    0  0.15926930489E+02 -0.11878464630E+02 -0.50146320055E+01  0.20491743969E+02  0.00000000000E+00 0.  1.
</event>
<event>
 7    1  0.2944263E-013  0.7246122E+02  0.7816164E-02  0.1226709E+00
        -11   -1    0    0    0    0  0.00000000000E+00  0.00000000000E+00  0.45593999997E+02  0.45594000000E+02  0.51100000000E-03 0. -1.
         11   -1    0    0    0    0 -0.00000000000E+00 -0.00000000000E+00 -0.45593999997E+02  0.45594000000E+02  0.51100000000E-03 0.  1.
    9900012    2    1    2    0    0  0.13108596556E+01  0.17293748888E+02  0.70640161660E+01  0.72461216292E+02  0.69999538845E+02 0.  0.
         12    1    1    2    0    0 -0.13108596556E+01 -0.17293748888E+02 -0.70640161660E+01  0.18726783708E+02  0.00000000000E+00 0. -1.
         11    1    3    3    0    0  0.15114679664E+02  0.13641153065E+02  0.10081592314E+02  0.22719443262E+02  0.51100000000E-03 0. -1.
        -11    1    3    3    0    0  0.85013371200E+01 -0.67483631698E+01 -0.17934330812E+02  0.20963142900E+02  0.51100000000E-03 0.  1.
        -12    1    3    3    0    0 -0.22305157128E+02  0.10400958993E+02  0.14916754664E+02  0.28778630130E+02  0.00000000000E+00 0.  1.
</event>
<event>
 7    1  0.2944263E-013  0.7246153E+02  0.7816164E-02  0.1226708E+00
        -11   -1    0    0    0    0  0.00000000000E+00  0.00000000000E+00  0.45593999997E+02  0.45594000000E+02  0.51100000000E-03 0. -1.
         11   -1    0    0    0    0 -0.00000000000E+00 -0.00000000000E+00 -0.45593999997E+02  0.45594000000E+02  0.51100000000E-03 0.  1.
    9900012    2    1    2    0    0 -0.10372516580E+01 -0.98914167818E+01 -0.15867092231E+02  0.72461531224E+02  0.69999949103E+02 0.  0.
         12    1    1    2    0    0  0.10372516580E+01  0.98914167818E+01  0.15867092231E+02  0.18726468776E+02  0.00000000000E+00 0. -1.
         11    1    3    3    0    0  0.18634809475E+01 -0.54299973180E+01  0.19534746711E+01  0.60641154068E+01  0.51100000000E-03 0. -1.
        -11    1    3    3    0    0 -0.15376526211E+01  0.19196949718E+01 -0.41633801158E+02  0.41706390439E+02  0.51100000000E-03 0.  1.
         12    1    3    3    0    0 -0.13630799844E+01 -0.63811144356E+01  0.23813234256E+02  0.24691025378E+02  0.00000000000E+00 0. -1.
</event>
<event>
 7    1  0.2944263E-013  0.7246157E+02  0.7816164E-02  0.1226708E+00
        -11   -1    0    0    0    0  0.00000000000E+00  0.00000000000E+00  0.45593999997E+02  0.45594000000E+02  0.51100000000E-03 0.  1.
         11   -1    0    0    0    0 -0.00000000000E+00 -0.00000000000E+00 -0.45593999997E+02  0.45594000000E+02  0.51100000000E-03 0. -1.
    9900012    2    1    2    0    0 -0.12328290518E+02 -0.46036141218E+01  0.13322882066E+02  0.72461569571E+02  0.69999999058E+02 0.  0.
         12    1    1    2    0    0  0.12328290518E+02  0.46036141218E+01 -0.13322882066E+02  0.18726430429E+02  0.00000000000E+00 0. -1.
         11    1    3    3    0    0 -0.95412825236E+01  0.18968893743E+02 -0.83114276184E+01  0.22802079540E+02  0.51100000000E-03 0. -1.
        -11    1    3    3    0    0  0.62042946876E+01  0.89005932498E+01  0.35334767061E+01  0.11410490378E+02  0.51100000000E-03 0.  1.
        -12    1    3    3    0    0 -0.89913026822E+01 -0.32473101115E+02  0.18100832978E+02  0.38248999653E+02  0.00000000000E+00 0.  1.
</event>
<event>
 7    1  0.2944263E-013  0.7246158E+02  0.7816164E-02  0.1226708E+00
        -11   -1    0    0    0    0  0.00000000000E+00  0.00000000000E+00  0.45593999997E+02  0.45594000000E+02  0.51100000000E-03 0.  1.
         11   -1    0    0    0    0 -0.00000000000E+00 -0.00000000000E+00 -0.45593999997E+02  0.45594000000E+02  0.51100000000E-03 0. -1.
    9900012    2    1    2    0    0 -0.71647583652E+01  0.16477945981E+02  0.52746743273E+01  0.72461584020E+02  0.70000017881E+02 0.  0.
         12    1    1    2    0    0  0.71647583652E+01 -0.16477945981E+02 -0.52746743273E+01  0.18726415980E+02  0.00000000000E+00 0. -1.
         11    1    3    3    0    0 -0.71296883374E+01 -0.80503109686E-01 -0.21486166643E+02  0.22638336817E+02  0.51100000000E-03 0. -1.
        -11    1    3    3    0    0 -0.11952135981E+02 -0.11589158580E+01 -0.37526245050E+01  0.12580891518E+02  0.51100000000E-03 0.  1.
        -12    1    3    3    0    0  0.11917065953E+02  0.17717364949E+02  0.30513465476E+02  0.37242355685E+02  0.00000000000E+00 0.  1.
</event>
<event>
 7    1  0.2944263E-013  0.7246160E+02  0.7816164E-02  0.1226708E+00
        -11   -1    0    0    0    0  0.00000000000E+00  0.00000000000E+00  0.45593999997E+02  0.45594000000E+02  0.51100000000E-03 0.  1.
         11   -1    0    0    0    0 -0.00000000000E+00 -0.00000000000E+00 -0.45593999997E+02  0.45594000000E+02  0.51100000000E-03 0. -1.
    9900012    2    1    2    0    0 -0.12573270235E+02  0.39752960631E+01  0.13296162163E+02  0.72461600681E+02  0.70000039585E+02 0.  0.
         12    1    1    2    0    0  0.12573270235E+02 -0.39752960631E+01 -0.13296162163E+02  0.18726399319E+02  0.00000000000E+00 0. -1.
         11    1    3    3    0    0 -0.17721044068E+02  0.84422748004E+01 -0.14481323330E+02  0.24392952513E+02  0.51100000000E-03 0. -1.
        -11    1    3    3    0    0 -0.46247648038E+01 -0.19843563657E+01 -0.87942739024E+01  0.10132392285E+02  0.51100000000E-03 0.  1.
        -12    1    3    3    0    0  0.97725386369E+01 -0.24826223715E+01  0.36571759395E+02  0.37936255884E+02  0.00000000000E+00 0.  1.
</event>
<event>
 7    1  0.2944263E-013  0.7246171E+02  0.7816164E-02  0.1226708E+00
        -11   -1    0    0    0    0  0.00000000000E+00  0.00000000000E+00  0.45593999997E+02  0.45594000000E+02  0.51100000000E-03 0.  1.
         11   -1    0    0    0    0 -0.00000000000E+00 -0.00000000000E+00 -0.45593999997E+02  0.45594000000E+02  0.51100000000E-03 0. -1.
    9900012    2    1    2    0    0  0.12917156497E+02 -0.48868975333E+01  0.12646714194E+02  0.72461706202E+02  0.70000177045E+02 0.  0.
         12    1    1    2    0    0 -0.12917156497E+02  0.48868975333E+01 -0.12646714194E+02  0.18726293798E+02  0.00000000000E+00 0. -1.
         11    1    3    3    0    0  0.14247455457E+02 -0.99806735867E+01  0.15081762708E+02  0.23023105761E+02  0.51100000000E-03 0. -1.
        -11    1    3    3    0    0  0.12514493260E+02  0.12955858116E+01  0.19509923142E+02  0.23214826844E+02  0.51100000000E-03 0.  1.
         12    1    3    3    0    0 -0.13844792220E+02  0.37981902418E+01 -0.21944971655E+02  0.26223773597E+02  0.00000000000E+00 0. -1.
</event>
<event>
 7    1  0.2944263E-013  0.7246160E+02  0.7816164E-02  0.1226708E+00
        -11   -1    0    0    0    0  0.00000000000E+00  0.00000000000E+00  0.45593999997E+02  0.45594000000E+02  0.51100000000E-03 0. -1.
         11   -1    0    0    0    0 -0.00000000000E+00 -0.00000000000E+00 -0.45593999997E+02  0.45594000000E+02  0.51100000000E-03 0.  1.
    9900012    2    1    2    0    0  0.47865741721E+01 -0.13781428163E+02 -0.11740492141E+02  0.72461595908E+02  0.70000033366E+02 0.  0.
         12    1    1    2    0    0 -0.47865741721E+01  0.13781428163E+02  0.11740492141E+02  0.18726404092E+02  0.00000000000E+00 0. -1.
         11    1    3    3    0    0  0.71396054289E+01 -0.45996489500E+00  0.11622689290E+01  0.72481999634E+01  0.51100000000E-03 0. -1.
        -11    1    3    3    0    0 -0.17890044953E+02  0.89103264972E+01 -0.27823139065E+02  0.34257476474E+02  0.51100000000E-03 0.  1.
         12    1    3    3    0    0  0.15537013696E+02 -0.22231789765E+02  0.14920377995E+02  0.30955919470E+02  0.00000000000E+00 0. -1.
</event>
<event>
 7    1  0.2944263E-013  0.7246155E+02  0.7816164E-02  0.1226708E+00
        -11   -1    0    0    0    0  0.00000000000E+00  0.00000000000E+00  0.45593999997E+02  0.45594000000E+02  0.51100000000E-03 0. -1.
         11   -1    0    0    0    0 -0.00000000000E+00 -0.00000000000E+00 -0.45593999997E+02  0.45594000000E+02  0.51100000000E-03 0.  1.
    9900012    2    1    2    0    0 -0.12428454896E+02  0.12321664526E+02 -0.66625811801E+01  0.72461550904E+02  0.69999974740E+02 0.  0.
         12    1    1    2    0    0  0.12428454896E+02 -0.12321664526E+02  0.66625811801E+01  0.18726449096E+02  0.00000000000E+00 0. -1.
         11    1    3    3    0    0 -0.68786997125E+01  0.14143305382E+02 -0.95265406583E+01  0.18387620129E+02  0.51100000000E-03 0. -1.
        -11    1    3    3    0    0 -0.22367398071E+01 -0.25601224652E+02 -0.90827708345E+01  0.27256603511E+02  0.51100000000E-03 0.  1.
         12    1    3    3    0    0 -0.33130153761E+01  0.23779583796E+02  0.11946730313E+02  0.26817327264E+02  0.00000000000E+00 0. -1.
</event>
<event>
 7    1  0.2944263E-013  0.7246158E+02  0.7816164E-02  0.1226708E+00
        -11   -1    0    0    0    0  0.00000000000E+00  0.00000000000E+00  0.45593999997E+02  0.45594000000E+02  0.51100000000E-03 0.  1.
         11   -1    0    0    0    0 -0.00000000000E+00 -0.00000000000E+00 -0.45593999997E+02  0.45594000000E+02  0.51100000000E-03 0. -1.
    9900012    2    1    2    0    0  0.23512614003E+01 -0.24239517200E+01  0.18419415199E+02  0.72461579402E+02  0.70000011865E+02 0.  0.
         12    1    1    2    0    0 -0.23512614003E+01  0.24239517200E+01 -0.18419415199E+02  0.18726420598E+02  0.00000000000E+00 0. -1.
         11    1    3    3    0    0 -0.72091476930E+01 -0.14716918674E+02 -0.75699155868E+01  0.18051679367E+02  0.51100000000E-03 0. -1.
        -11    1    3    3    0    0 -0.74440138895E+01 -0.10793692415E+02  0.21790353215E+02  0.25431017129E+02  0.51100000000E-03 0.  1.
         12    1    3    3    0    0  0.17004422983E+02  0.23086659370E+02  0.41989775713E+01  0.28978882906E+02  0.00000000000E+00 0. -1.
</event>
<event>
 7    1  0.2944263E-013  0.7246156E+02  0.7816164E-02  0.1226708E+00
        -11   -1    0    0    0    0  0.00000000000E+00  0.00000000000E+00  0.45593999997E+02  0.45594000000E+02  0.51100000000E-03 0. -1.
         11   -1    0    0    0    0 -0.00000000000E+00 -0.00000000000E+00 -0.45593999997E+02  0.45594000000E+02  0.51100000000E-03 0.  1.
    9900012    2    1    2    0    0 -0.41849053487E+01 -0.20606219507E+01 -0.18136146095E+02  0.72461564386E+02  0.69999992304E+02 0.  0.
         12    1    1    2    0    0  0.41849053487E+01  0.20606219507E+01  0.18136146095E+02  0.18726435614E+02  0.00000000000E+00 0. -1.
         11    1    3    3    0    0  0.87624677736E+01  0.55292082977E+01 -0.41493061420E+01  0.11161080933E+02  0.51100000000E-03 0.  1.
        -11    1    3    3    0    0  0.15367342854E+02 -0.39671499624E+01  0.14117763493E+02  0.21241580720E+02  0.51100000000E-03 0. -1.
         12    1    3    3    0    0 -0.28314715976E+02 -0.36226802860E+01 -0.28104603446E+02  0.40058902732E+02  0.00000000000E+00 0. -1.
</event>
<event>
 7    1  0.2944263E-013  0.7246159E+02  0.7816164E-02  0.1226708E+00
        -11   -1    0    0    0    0  0.00000000000E+00  0.00000000000E+00  0.45593999997E+02  0.45594000000E+02  0.51100000000E-03 0. -1.
         11   -1    0    0    0    0 -0.00000000000E+00 -0.00000000000E+00 -0.45593999997E+02  0.45594000000E+02  0.51100000000E-03 0.  1.
    9900012    2    1    2    0    0 -0.13380300137E+02 -0.26313504189E+01 -0.12834404106E+02  0.72461591760E+02  0.70000027963E+02 0.  0.
         12    1    1    2    0    0  0.13380300137E+02  0.26313504189E+01  0.12834404106E+02  0.18726408240E+02  0.00000000000E+00 0. -1.
         11    1    3    3    0    0 -0.19874675698E+01  0.15267535975E+01 -0.95033979885E+01  0.98283049137E+01  0.51100000000E-03 0. -1.
        -11    1    3    3    0    0 -0.23819772310E+02 -0.25712141449E+02 -0.10766350409E+02  0.36666197951E+02  0.51100000000E-03 0.  1.
         12    1    3    3    0    0  0.12426939742E+02  0.21554037433E+02  0.74353442908E+01  0.25967088896E+02  0.00000000000E+00 0. -1.
</event>
<event>
 7    1  0.2944263E-013  0.7246164E+02  0.7816164E-02  0.1226708E+00
        -11   -1    0    0    0    0  0.00000000000E+00  0.00000000000E+00  0.45593999997E+02  0.45594000000E+02  0.51100000000E-03 0.  1.
         11   -1    0    0    0    0 -0.00000000000E+00 -0.00000000000E+00 -0.45593999997E+02  0.45594000000E+02  0.51100000000E-03 0. -1.
    9900012    2    1    2    0    0 -0.13373261907E+02  0.55932926252E+00  0.13096545735E+02  0.72461641746E+02  0.70000093079E+02 0.  0.
         12    1    1    2    0    0  0.13373261907E+02 -0.55932926252E+00 -0.13096545735E+02  0.18726358254E+02  0.00000000000E+00 0. -1.
         11    1    3    3    0    0 -0.11285784540E+02 -0.13130912862E+02 -0.81721800058E+01  0.19146130982E+02  0.51100000000E-03 0. -1.
        -11    1    3    3    0    0 -0.13426890917E+02  0.10175383798E+02  0.32731745122E+02  0.36812864248E+02  0.51100000000E-03 0.  1.
         12    1    3    3    0    0  0.11339413550E+02  0.35148583269E+01 -0.11463019381E+02  0.16502646516E+02  0.00000000000E+00 0. -1.
</event>
<event>
 7    1  0.2944263E-013  0.7246160E+02  0.7816164E-02  0.1226708E+00
        -11   -1    0    0    0    0  0.00000000000E+00  0.00000000000E+00  0.45593999997E+02  0.45594000000E+02  0.51100000000E-03 0.  1.
         11   -1    0    0    0    0 -0.00000000000E+00 -0.00000000000E+00 -0.45593999997E+02  0.45594000000E+02  0.51100000000E-03 0. -1.
    9900012    2    1    2    0    0 -0.25361831071E+01  0.16214206356E+02  0.90191667495E+01  0.72461599348E+02  0.70000037848E+02 0.  0.
         12    1    1    2    0    0  0.25361831071E+01 -0.16214206356E+02 -0.90191667495E+01  0.18726400652E+02  0.00000000000E+00 0. -1.
         11    1    3    3    0    0  0.13331365825E+02 -0.70119141576E+01 -0.84393301251E+01  0.17265993980E+02  0.51100000000E-03 0. -1.
        -11    1    3    3    0    0  0.13137616342E+02  0.18380910803E+02  0.43915342467E+01  0.23016090424E+02  0.51100000000E-03 0.  1.
         12    1    3    3    0    0 -0.29005165274E+02  0.48452097108E+01  0.13066962628E+02  0.32179514944E+02  0.00000000000E+00 0. -1.
</event>
<event>
 7    1  0.2944263E-013  0.7246084E+02  0.7816164E-02  0.1226710E+00
        -11   -1    0    0    0    0  0.00000000000E+00  0.00000000000E+00  0.45593999997E+02  0.45594000000E+02  0.51100000000E-03 0. -1.
         11   -1    0    0    0    0 -0.00000000000E+00 -0.00000000000E+00 -0.45593999997E+02  0.45594000000E+02  0.51100000000E-03 0.  1.
    9900012    2    1    2    0    0  0.11383775180E+02  0.13179671830E+02 -0.68856673709E+01  0.72460840524E+02  0.69999049332E+02 0.  0.
         12    1    1    2    0    0 -0.11383775180E+02 -0.13179671830E+02  0.68856673709E+01  0.18727159476E+02  0.00000000000E+00 0. -1.
         11    1    3    3    0    0  0.85576293980E+01 -0.51703110635E+01  0.14382195605E+01  0.10101168901E+02  0.51100000000E-03 0. -1.
        -11    1    3    3    0    0  0.99322199519E+01  0.38780385970E+02 -0.73907974731E+01  0.40708613544E+02  0.51100000000E-03 0.  1.
         12    1    3    3    0    0 -0.71060741696E+01 -0.20430403077E+02 -0.93308945835E+00  0.21651058079E+02  0.00000000000E+00 0. -1.
</event>
<event>
 7    1  0.2944263E-013  0.7246149E+02  0.7816164E-02  0.1226708E+00
        -11   -1    0    0    0    0  0.00000000000E+00  0.00000000000E+00  0.45593999997E+02  0.45594000000E+02  0.51100000000E-03 0.  1.
         11   -1    0    0    0    0 -0.00000000000E+00 -0.00000000000E+00 -0.45593999997E+02  0.45594000000E+02  0.51100000000E-03 0. -1.
    9900012    2    1    2    0    0  0.14442689926E+02  0.89579665984E+01  0.78642149455E+01  0.72461485786E+02  0.69999889913E+02 0.  0.
         12    1    1    2    0    0 -0.14442689926E+02 -0.89579665984E+01 -0.78642149455E+01  0.18726514214E+02  0.00000000000E+00 0. -1.
         11    1    3    3    0    0  0.13507662174E+02 -0.14713958295E+02 -0.48624396009E+01  0.20557257240E+02  0.51100000000E-03 0. -1.
        -11    1    3    3    0    0  0.39103727151E+01 -0.10904846112E+02  0.12713071098E+02  0.17199676174E+02  0.51100000000E-03 0.  1.
        -12    1    3    3    0    0 -0.29753449626E+01  0.34576771005E+02  0.13583448160E-01  0.34704552372E+02  0.00000000000E+00 0.  1.
</event>
<event>
 7    1  0.2944263E-013  0.7246153E+02  0.7816164E-02  0.1226708E+00
        -11   -1    0    0    0    0  0.00000000000E+00  0.00000000000E+00  0.45593999997E+02  0.45594000000E+02  0.51100000000E-03 0. -1.
         11   -1    0    0    0    0 -0.00000000000E+00 -0.00000000000E+00 -0.45593999997E+02  0.45594000000E+02  0.51100000000E-03 0.  1.
    9900012    2    1    2    0    0  0.49901078284E+01 -0.14914471004E+02 -0.10165541659E+02  0.72461525193E+02  0.69999941248E+02 0.  0.
         12    1    1    2    0    0 -0.49901078284E+01  0.14914471004E+02  0.10165541659E+02  0.18726474807E+02  0.00000000000E+00 0. -1.
         11    1    3    3    0    0 -0.35038571407E+01 -0.12208884370E+02  0.44833468489E+01  0.13469753957E+02  0.51100000000E-03 0. -1.
        -11    1    3    3    0    0 -0.11732982269E+02 -0.23196173052E+02  0.13932770626E+01  0.26032029088E+02  0.51100000000E-03 0.  1.
         12    1    3    3    0    0  0.20226947238E+02  0.20490586418E+02 -0.16042165570E+02  0.32959742149E+02  0.00000000000E+00 0. -1.
</event>
<event>
 7    1  0.2944263E-013  0.7246147E+02  0.7816164E-02  0.1226708E+00
        -11   -1    0    0    0    0  0.00000000000E+00  0.00000000000E+00  0.45593999997E+02  0.45594000000E+02  0.51100000000E-03 0.  1.
         11   -1    0    0    0    0 -0.00000000000E+00 -0.00000000000E+00 -0.45593999997E+02  0.45594000000E+02  0.51100000000E-03 0. -1.
    9900012    2    1    2    0    0 -0.39765250078E+01  0.16257206680E+02 -0.84007933103E+01  0.72461472067E+02  0.69999872041E+02 0.  0.
         12    1    1    2    0    0  0.39765250078E+01 -0.16257206680E+02  0.84007933103E+01  0.18726527933E+02  0.00000000000E+00 0. -1.
         11    1    3    3    0    0 -0.42676573779E+01  0.76214177303E+01  0.74410985342E+01  0.11474705023E+02  0.51100000000E-03 0. -1.
        -11    1    3    3    0    0 -0.22183655781E+02  0.18942923739E+02  0.37886530233E+01  0.29416030249E+02  0.51100000000E-03 0.  1.
         12    1    3    3    0    0  0.22474788151E+02 -0.10307134790E+02 -0.19630544868E+02  0.31570736795E+02  0.00000000000E+00 0. -1.
</event>
<event>
 7    1  0.2944263E-013  0.7246157E+02  0.7816164E-02  0.1226708E+00
        -11   -1    0    0    0    0  0.00000000000E+00  0.00000000000E+00  0.45593999997E+02  0.45594000000E+02  0.51100000000E-03 0. -1.
         11   -1    0    0    0    0 -0.00000000000E+00 -0.00000000000E+00 -0.45593999997E+02  0.45594000000E+02  0.51100000000E-03 0.  1.
    9900012    2    1    2    0    0 -0.63900067214E+01 -0.15432985817E+02  0.84658079659E+01  0.72461571038E+02  0.70000000969E+02 0.  0.
         12    1    1    2    0    0  0.63900067214E+01  0.15432985817E+02 -0.84658079659E+01  0.18726428962E+02  0.00000000000E+00 0. -1.
         11    1    3    3    0    0  0.13316250579E+02  0.14200668050E+02  0.14307558795E+02  0.24159630409E+02  0.51100000000E-03 0. -1.
        -11    1    3    3    0    0 -0.46881844395E+01  0.34118446929E+01  0.76312372187E+01  0.95841295534E+01  0.51100000000E-03 0.  1.
        -12    1    3    3    0    0 -0.15018072861E+02 -0.33045498560E+02 -0.13472988048E+02  0.38717811076E+02  0.00000000000E+00 0.  1.
</event>
<event>
 7    1  0.2944263E-013  0.7246155E+02  0.7816164E-02  0.1226708E+00
        -11   -1    0    0    0    0  0.00000000000E+00  0.00000000000E+00  0.45593999997E+02  0.45594000000E+02  0.51100000000E-03 0.  1.
         11   -1    0    0    0    0 -0.00000000000E+00 -0.00000000000E+00 -0.45593999997E+02  0.45594000000E+02  0.51100000000E-03 0. -1.
    9900012    2    1    2    0    0 -0.10984172786E+02  0.11425228732E+02 -0.99745673554E+01  0.72461550862E+02  0.69999974686E+02 0.  0.
         12    1    1    2    0    0  0.10984172786E+02 -0.11425228732E+02  0.99745673554E+01  0.18726449138E+02  0.00000000000E+00 0. -1.
         11    1    3    3    0    0 -0.37456313725E+01 -0.24083542161E+02 -0.48712113425E+01  0.24855089169E+02  0.51100000000E-03 0. -1.
        -11    1    3    3    0    0  0.46873925865E+01  0.33504924796E+01 -0.11364116075E+02  0.12741294422E+02  0.51100000000E-03 0.  1.
        -12    1    3    3    0    0 -0.11925934000E+02  0.32158278414E+02  0.62607600618E+01  0.34865167272E+02  0.00000000000E+00 0.  1.
</event>
<event>
 7    1  0.2944263E-013  0.7246157E+02  0.7816164E-02  0.1226708E+00
        -11   -1    0    0    0    0  0.00000000000E+00  0.00000000000E+00  0.45593999997E+02  0.45594000000E+02  0.51100000000E-03 0.  1.
         11   -1    0    0    0    0 -0.00000000000E+00 -0.00000000000E+00 -0.45593999997E+02  0.45594000000E+02  0.51100000000E-03 0. -1.
    9900012    2    1    2    0    0  0.17417763416E+02 -0.22179834376E+01  0.65100975546E+01  0.72461566727E+02  0.69999995353E+02 0.  0.
         12    1    1    2    0    0 -0.17417763416E+02  0.22179834376E+01 -0.65100975546E+01  0.18726433273E+02  0.00000000000E+00 0. -1.
         11    1    3    3    0    0 -0.51473506594E+01  0.25459503193E+01 -0.11402839525E+00  0.57436995548E+01  0.51100000000E-03 0. -1.
        -11    1    3    3    0    0  0.41591347581E-01 -0.29829383046E+02  0.12797281381E+02  0.32458654220E+02  0.51100000000E-03 0.  1.
         12    1    3    3    0    0  0.22523522728E+02  0.25065449289E+02 -0.61731554313E+01  0.34259212953E+02  0.00000000000E+00 0. -1.
</event>
<event>
 7    1  0.2944263E-013  0.7246158E+02  0.7816164E-02  0.1226708E+00
        -11   -1    0    0    0    0  0.00000000000E+00  0.00000000000E+00  0.45593999997E+02  0.45594000000E+02  0.51100000000E-03 0.  1.
         11   -1    0    0    0    0 -0.00000000000E+00 -0.00000000000E+00 -0.45593999997E+02  0.45594000000E+02  0.51100000000E-03 0. -1.
    9900012    2    1    2    0    0  0.15595507928E+02  0.78231153030E+01  0.68013027262E+01  0.72461582314E+02  0.70000015658E+02 0.  0.
         12    1    1    2    0    0 -0.15595507928E+02 -0.78231153030E+01 -0.68013027262E+01  0.18726417686E+02  0.00000000000E+00 0. -1.
         11    1    3    3    0    0 -0.13220648335E+01 -0.18460325466E+02 -0.41831960919E+01  0.18974472366E+02  0.51100000000E-03 0. -1.
        -11    1    3    3    0    0  0.17942479475E+01 -0.96865965272E+01  0.10592043382E+02  0.14465160256E+02  0.51100000000E-03 0.  1.
        -12    1    3    3    0    0  0.15123324814E+02  0.35970037297E+02  0.39245543610E+00  0.39021949692E+02  0.00000000000E+00 0.  1.
</event>
<event>
 7    1  0.2944263E-013  0.7246159E+02  0.7816164E-02  0.1226708E+00
        -11   -1    0    0    0    0  0.00000000000E+00  0.00000000000E+00  0.45593999997E+02  0.45594000000E+02  0.51100000000E-03 0. -1.
         11   -1    0    0    0    0 -0.00000000000E+00 -0.00000000000E+00 -0.45593999997E+02  0.45594000000E+02  0.51100000000E-03 0.  1.
    9900012    2    1    2    0    0  0.16122424663E+01  0.11078415413E+02 -0.15011583315E+02  0.72461594913E+02  0.70000032071E+02 0.  0.
         12    1    1    2    0    0 -0.16122424663E+01 -0.11078415413E+02  0.15011583315E+02  0.18726405087E+02  0.00000000000E+00 0. -1.
         11    1    3    3    0    0  0.79286698830E+01  0.98753362480E+01  0.46208548690E+01  0.13481037501E+02  0.51100000000E-03 0. -1.
        -11    1    3    3    0    0  0.83426195662E+01 -0.15338727524E+02  0.11421203897E+02  0.20864317914E+02  0.51100000000E-03 0.  1.
         12    1    3    3    0    0 -0.14659046983E+02  0.16541806689E+02 -0.31053642082E+02  0.38116239499E+02  0.00000000000E+00 0. -1.
</event>
<event>
 7    1  0.2944263E-013  0.7246136E+02  0.7816164E-02  0.1226709E+00
        -11   -1    0    0    0    0  0.00000000000E+00  0.00000000000E+00  0.45593999997E+02  0.45594000000E+02  0.51100000000E-03 0. -1.
         11   -1    0    0    0    0 -0.00000000000E+00 -0.00000000000E+00 -0.45593999997E+02  0.45594000000E+02  0.51100000000E-03 0.  1.
    9900012    2    1    2    0    0  0.80317826207E+01  0.14335366239E+02 -0.89819142973E+01  0.72461360106E+02  0.69999726190E+02 0.  0.
         12    1    1    2    0    0 -0.80317826207E+01 -0.14335366239E+02  0.89819142973E+01  0.18726639894E+02  0.00000000000E+00 0. -1.
         11    1    3    3    0    0  0.19992696581E+02  0.13695229664E+02  0.80657001631E+01  0.25540609850E+02  0.51100000000E-03 0. -1.
        -11    1    3    3    0    0  0.28671758140E+01  0.34495977184E+01 -0.27946930624E+02  0.28304617170E+02  0.51100000000E-03 0.  1.
         12    1    3    3    0    0 -0.14828089774E+02 -0.28094611430E+01  0.10899316163E+02  0.18616133086E+02  0.00000000000E+00 0. -1.
</event>
<event>
 7    1  0.2944263E-013  0.7246157E+02  0.7816164E-02  0.1226708E+00
        -11   -1    0    0    0    0  0.00000000000E+00  0.00000000000E+00  0.45593999997E+02  0.45594000000E+02  0.51100000000E-03 0. -1.
         11   -1    0    0    0    0 -0.00000000000E+00 -0.00000000000E+00 -0.45593999997E+02  0.45594000000E+02  0.51100000000E-03 0.  1.
    9900012    2    1    2    0    0 -0.12258941680E+02 -0.73025931465E+01 -0.12127227341E+02  0.72461570529E+02  0.70000000305E+02 0.  0.
         12    1    1    2    0    0  0.12258941680E+02  0.73025931465E+01  0.12127227341E+02  0.18726429471E+02  0.00000000000E+00 0. -1.
         11    1    3    3    0    0 -0.79155695966E+01 -0.12723582811E+02 -0.23294519625E+02  0.27698022428E+02  0.51100000000E-03 0. -1.
        -11    1    3    3    0    0  0.11615282396E+02  0.46696648225E+01 -0.11521866431E+02  0.17013934319E+02  0.51100000000E-03 0.  1.
        -12    1    3    3    0    0 -0.15958654480E+02  0.75132484214E+00  0.22689158715E+02  0.27749613782E+02  0.00000000000E+00 0.  1.
</event>
<event>
 7    1  0.2944263E-013  0.7246166E+02  0.7816164E-02  0.1226708E+00
        -11   -1    0    0    0    0  0.00000000000E+00  0.00000000000E+00  0.45593999997E+02  0.45594000000E+02  0.51100000000E-03 0.  1.
         11   -1    0    0    0    0 -0.00000000000E+00 -0.00000000000E+00 -0.45593999997E+02  0.45594000000E+02  0.51100000000E-03 0. -1.
    9900012    2    1    2    0    0 -0.23487396315E+01  0.13528904596E+02  0.12732946299E+02  0.72461661360E+02  0.70000118629E+02 0.  0.
         12    1    1    2    0    0  0.23487396315E+01 -0.13528904596E+02 -0.12732946299E+02  0.18726338640E+02  0.00000000000E+00 0. -1.
         11    1    3    3    0    0 -0.98652664437E+00  0.12955775726E+01 -0.53761554133E+01  0.56173662295E+01  0.51100000000E-03 0. -1.
        -11    1    3    3    0    0 -0.22912893598E+00 -0.24322195627E+02 -0.31736642505E+01  0.24529448531E+02  0.51100000000E-03 0.  1.
        -12    1    3    3    0    0 -0.11330840512E+01  0.36555522650E+02  0.21282765963E+02  0.42314846599E+02  0.00000000000E+00 0.  1.
</event>
<event>
 7    1  0.2944263E-013  0.7246155E+02  0.7816164E-02  0.1226708E+00
        -11   -1    0    0    0    0  0.00000000000E+00  0.00000000000E+00  0.45593999997E+02  0.45594000000E+02  0.51100000000E-03 0.  1.
         11   -1    0    0    0    0 -0.00000000000E+00 -0.00000000000E+00 -0.45593999997E+02  0.45594000000E+02  0.51100000000E-03 0. -1.
    9900012    2    1    2    0    0 -0.16538667226E+02  0.82583265517E+01 -0.29920510013E+01  0.72461552386E+02  0.69999976671E+02 0.  0.
         12    1    1    2    0    0  0.16538667226E+02 -0.82583265517E+01  0.29920510013E+01  0.18726447614E+02  0.00000000000E+00 0. -1.
         11    1    3    3    0    0 -0.45775874346E+01 -0.41232096939E+01  0.98493888542E+01  0.11617470721E+02  0.51100000000E-03 0. -1.
        -11    1    3    3    0    0 -0.20536024372E+02  0.29923740460E+02 -0.18194139005E+02  0.40597847658E+02  0.51100000000E-03 0.  1.
         12    1    3    3    0    0  0.85749445798E+01 -0.17542204214E+02  0.53526991496E+01  0.20246234006E+02  0.00000000000E+00 0. -1.
</event>
<event>
 7    1  0.2944263E-013  0.7246157E+02  0.7816164E-02  0.1226708E+00
        -11   -1    0    0    0    0  0.00000000000E+00  0.00000000000E+00  0.45593999997E+02  0.45594000000E+02  0.51100000000E-03 0.  1.
         11   -1    0    0    0    0 -0.00000000000E+00 -0.00000000000E+00 -0.45593999997E+02  0.45594000000E+02  0.51100000000E-03 0. -1.
    9900012    2    1    2    0    0 -0.23278070105E+01  0.88706122303E+01  0.16327056985E+02  0.72461568503E+02  0.69999997666E+02 0.  0.
         12    1    1    2    0    0  0.23278070105E+01 -0.88706122303E+01 -0.16327056985E+02  0.18726431497E+02  0.00000000000E+00 0. -1.
         11    1    3    3    0    0 -0.21432396579E+02  0.29330293487E+01 -0.12471815515E+02  0.24969911229E+02  0.51100000000E-03 0. -1.
        -11    1    3    3    0    0  0.12026755490E+02  0.60707992711E+01 -0.39079861619E+01  0.14027466183E+02  0.51100000000E-03 0.  1.
         12    1    3    3    0    0  0.70778340783E+01 -0.13321638959E+00  0.32706858662E+02  0.33464191091E+02  0.00000000000E+00 0. -1.
</event>
<event>
 7    1  0.2944263E-013  0.7246164E+02  0.7816164E-02  0.1226708E+00
        -11   -1    0    0    0    0  0.00000000000E+00  0.00000000000E+00  0.45593999997E+02  0.45594000000E+02  0.51100000000E-03 0. -1.
         11   -1    0    0    0    0 -0.00000000000E+00 -0.00000000000E+00 -0.45593999997E+02  0.45594000000E+02  0.51100000000E-03 0.  1.
    9900012    2    1    2    0    0  0.17130514132E+01 -0.18380964502E+02  0.31435914010E+01  0.72461639753E+02  0.70000090483E+02 0.  0.
         12    1    1    2    0    0 -0.17130514132E+01  0.18380964502E+02 -0.31435914010E+01  0.18726360247E+02  0.00000000000E+00 0. -1.
         11    1    3    3    0    0  0.31682821936E+01  0.87501350298E+01  0.49010755069E+01  0.10517766706E+02  0.51100000000E-03 0. -1.
        -11    1    3    3    0    0  0.12356606841E+02  0.10431250534E+02 -0.12576908617E+02  0.20485979375E+02  0.51100000000E-03 0.  1.
        -12    1    3    3    0    0 -0.13811837622E+02 -0.37562350067E+02  0.10819424511E+02  0.41457893672E+02  0.00000000000E+00 0.  1.
</event>
<event>
 7    1  0.2944263E-013  0.7246159E+02  0.7816164E-02  0.1226708E+00
        -11   -1    0    0    0    0  0.00000000000E+00  0.00000000000E+00  0.45593999997E+02  0.45594000000E+02  0.51100000000E-03 0. -1.
         11   -1    0    0    0    0 -0.00000000000E+00 -0.00000000000E+00 -0.45593999997E+02  0.45594000000E+02  0.51100000000E-03 0.  1.
    9900012    2    1    2    0    0 -0.23822992195E+01 -0.60635478134E+00 -0.18564363343E+02  0.72461585447E+02  0.70000019739E+02 0.  0.
         12    1    1    2    0    0  0.23822992195E+01  0.60635478134E+00  0.18564363343E+02  0.18726414553E+02  0.00000000000E+00 0. -1.
         11    1    3    3    0    0 -0.22642767133E+01  0.67964035178E+01  0.47627087573E+01  0.86024092427E+01  0.51100000000E-03 0. -1.
        -11    1    3    3    0    0 -0.28198457041E+02 -0.10680463252E+02 -0.17917816194E+02  0.35075253558E+02  0.51100000000E-03 0.  1.
         12    1    3    3    0    0  0.28080434535E+02  0.32777049524E+01 -0.54092559061E+01  0.28783922646E+02  0.00000000000E+00 0. -1.
</event>
<event>
 7    1  0.2944263E-013  0.7246154E+02  0.7816164E-02  0.1226708E+00
        -11   -1    0    0    0    0  0.00000000000E+00  0.00000000000E+00  0.45593999997E+02  0.45594000000E+02  0.51100000000E-03 0.  1.
         11   -1    0    0    0    0 -0.00000000000E+00 -0.00000000000E+00 -0.45593999997E+02  0.45594000000E+02  0.51100000000E-03 0. -1.
    9900012    2    1    2    0    0  0.11931931362E+02 -0.63916802320E+00  0.14418760002E+02  0.72461543801E+02  0.69999965487E+02 0.  0.
         12    1    1    2    0    0 -0.11931931362E+02  0.63916802320E+00 -0.14418760002E+02  0.18726456199E+02  0.00000000000E+00 0. -1.
         11    1    3    3    0    0  0.14721819054E+02  0.13973846121E+02 -0.16558726443E+02  0.26195262040E+02  0.51100000000E-03 0. -1.
        -11    1    3    3    0    0  0.32795832808E+01  0.72269828407E+01  0.68908543181E-01  0.79366048235E+01  0.51100000000E-03 0.  1.
        -12    1    3    3    0    0 -0.60694709728E+01 -0.21839996985E+02  0.30908577901E+02  0.38329676937E+02  0.00000000000E+00 0.  1.
</event>
<event>
 7    1  0.2944263E-013  0.7246162E+02  0.7816164E-02  0.1226708E+00
        -11   -1    0    0    0    0  0.00000000000E+00  0.00000000000E+00  0.45593999997E+02  0.45594000000E+02  0.51100000000E-03 0.  1.
         11   -1    0    0    0    0 -0.00000000000E+00 -0.00000000000E+00 -0.45593999997E+02  0.45594000000E+02  0.51100000000E-03 0. -1.
    9900012    2    1    2    0    0  0.71343532087E+01 -0.17283521597E+02  0.10286472530E+01  0.72461622088E+02  0.70000067471E+02 0.  0.
         12    1    1    2    0    0 -0.71343532087E+01  0.17283521597E+02 -0.10286472530E+01  0.18726377912E+02  0.00000000000E+00 0. -1.
         11    1    3    3    0    0  0.78612464637E+01  0.39746395906E+01  0.13056202418E+02  0.15749964370E+02  0.51100000000E-03 0. -1.
        -11    1    3    3    0    0  0.88748363625E+01 -0.35512436340E+02 -0.16642827076E+01  0.36642402929E+02  0.51100000000E-03 0.  1.
         12    1    3    3    0    0 -0.96017296174E+01  0.14254275152E+02 -0.10363272457E+02  0.20069254788E+02  0.00000000000E+00 0. -1.
</event>
<event>
 7    1  0.2944263E-013  0.7246177E+02  0.7816164E-02  0.1226707E+00
        -11   -1    0    0    0    0  0.00000000000E+00  0.00000000000E+00  0.45593999997E+02  0.45594000000E+02  0.51100000000E-03 0.  1.
         11   -1    0    0    0    0 -0.00000000000E+00 -0.00000000000E+00 -0.45593999997E+02  0.45594000000E+02  0.51100000000E-03 0. -1.
    9900012    2    1    2    0    0 -0.16256845546E+02  0.67120394003E+01  0.64292413969E+01  0.72461771203E+02  0.70000261720E+02 0.  0.
         12    1    1    2    0    0  0.16256845546E+02 -0.67120394003E+01 -0.64292413969E+01  0.18726228797E+02  0.00000000000E+00 0. -1.
         11    1    3    3    0    0  0.12489597356E+02  0.72954179981E+01 -0.52384822199E+01  0.15383590677E+02  0.51100000000E-03 0. -1.
        -11    1    3    3    0    0 -0.31221408795E+02  0.56601459158E+00  0.27136766470E+02  0.41370289271E+02  0.51100000000E-03 0.  1.
         12    1    3    3    0    0  0.24749658929E+01 -0.11493931893E+01 -0.15469042853E+02  0.15707891255E+02  0.00000000000E+00 0. -1.
</event>
<event>
 7    1  0.2944263E-013  0.7246161E+02  0.7816164E-02  0.1226708E+00
        -11   -1    0    0    0    0  0.00000000000E+00  0.00000000000E+00  0.45593999997E+02  0.45594000000E+02  0.51100000000E-03 0. -1.
         11   -1    0    0    0    0 -0.00000000000E+00 -0.00000000000E+00 -0.45593999997E+02  0.45594000000E+02  0.51100000000E-03 0.  1.
    9900012    2    1    2    0    0 -0.18321075560E+02  0.38711205536E+01 -0.17422803154E+00  0.72461608479E+02  0.70000049742E+02 0.  0.
         12    1    1    2    0    0  0.18321075560E+02 -0.38711205536E+01  0.17422803154E+00  0.18726391521E+02  0.00000000000E+00 0. -1.
         11    1    3    3    0    0 -0.20631817548E+02 -0.23471597204E+02  0.60684967845E+01  0.31834170700E+02  0.51100000000E-03 0. -1.
        -11    1    3    3    0    0 -0.17471023084E+00  0.34496467546E+01 -0.14745786437E+02  0.15144926685E+02  0.51100000000E-03 0.  1.
        -12    1    3    3    0    0  0.24854522193E+01  0.23893071003E+02  0.85030616209E+01  0.25482511094E+02  0.00000000000E+00 0.  1.
</event>
<event>
 7    1  0.2944263E-013  0.7246159E+02  0.7816164E-02  0.1226708E+00
        -11   -1    0    0    0    0  0.00000000000E+00  0.00000000000E+00  0.45593999997E+02  0.45594000000E+02  0.51100000000E-03 0.  1.
         11   -1    0    0    0    0 -0.00000000000E+00 -0.00000000000E+00 -0.45593999997E+02  0.45594000000E+02  0.51100000000E-03 0. -1.
    9900012    2    1    2    0    0  0.57123031620E+01  0.17827581844E+02 -0.47488793203E+00  0.72461585491E+02  0.70000019796E+02 0.  0.
         12    1    1    2    0    0 -0.57123031620E+01 -0.17827581844E+02  0.47488793203E+00  0.18726414509E+02  0.00000000000E+00 0. -1.
         11    1    3    3    0    0  0.81175661592E+01 -0.10874520175E+02  0.61185231747E+01  0.14885778297E+02  0.51100000000E-03 0. -1.
        -11    1    3    3    0    0 -0.12283562213E+01 -0.13957862984E+02  0.16569104118E+01  0.14109434803E+02  0.51100000000E-03 0.  1.
         12    1    3    3    0    0 -0.11769067758E+01  0.42659965004E+02 -0.82503215186E+01  0.43466372391E+02  0.00000000000E+00 0. -1.
</event>
<event>
 7    1  0.2944263E-013  0.7246161E+02  0.7816164E-02  0.1226708E+00
        -11   -1    0    0    0    0  0.00000000000E+00  0.00000000000E+00  0.45593999997E+02  0.45594000000E+02  0.51100000000E-03 0. -1.
         11   -1    0    0    0    0 -0.00000000000E+00 -0.00000000000E+00 -0.45593999997E+02  0.45594000000E+02  0.51100000000E-03 0.  1.
    9900012    2    1    2    0    0 -0.30725948578E+01 -0.17376437460E+02 -0.62686699369E+01  0.72461611113E+02  0.70000053174E+02 0.  0.
         12    1    1    2    0    0  0.30725948578E+01  0.17376437460E+02  0.62686699369E+01  0.18726388887E+02  0.00000000000E+00 0. -1.
         11    1    3    3    0    0  0.99316700262E+01 -0.13148296200E+02  0.12265054660E+01  0.16523319230E+02  0.51100000000E-03 0.  1.
        -11    1    3    3    0    0  0.59299388302E+01 -0.21222878324E+02 -0.17959870952E+02  0.28427657374E+02  0.51100000000E-03 0. -1.
         12    1    3    3    0    0 -0.18934203714E+02  0.16994737064E+02  0.10464695549E+02  0.27510634509E+02  0.00000000000E+00 0. -1.
</event>
<event>
 7    1  0.2944263E-013  0.7246211E+02  0.7816164E-02  0.1226707E+00
        -11   -1    0    0    0    0  0.00000000000E+00  0.00000000000E+00  0.45593999997E+02  0.45594000000E+02  0.51100000000E-03 0. -1.
         11   -1    0    0    0    0 -0.00000000000E+00 -0.00000000000E+00 -0.45593999997E+02  0.45594000000E+02  0.51100000000E-03 0.  1.
    9900012    2    1    2    0    0  0.64572279589E+01  0.16274535976E+02 -0.66409914565E+01  0.72462106653E+02  0.70000698703E+02 0.  0.
         12    1    1    2    0    0 -0.64572279589E+01 -0.16274535976E+02  0.66409914565E+01  0.18725893347E+02  0.00000000000E+00 0. -1.
         11    1    3    3    0    0 -0.86024430785E+01  0.22491863072E+02 -0.20593372548E+02  0.31685531786E+02  0.51100000000E-03 0.  1.
        -11    1    3    3    0    0  0.21158106307E+02  0.44804438901E+01 -0.69789971164E+00  0.21638551342E+02  0.51100000000E-03 0. -1.
         12    1    3    3    0    0 -0.60984352691E+01 -0.10697770986E+02  0.14650280803E+02  0.19138023525E+02  0.00000000000E+00 0. -1.
</event>
<event>
 7    1  0.2944263E-013  0.7246154E+02  0.7816164E-02  0.1226708E+00
        -11   -1    0    0    0    0  0.00000000000E+00  0.00000000000E+00  0.45593999997E+02  0.45594000000E+02  0.51100000000E-03 0.  1.
         11   -1    0    0    0    0 -0.00000000000E+00 -0.00000000000E+00 -0.45593999997E+02  0.45594000000E+02  0.51100000000E-03 0. -1.
    9900012    2    1    2    0    0 -0.15458160837E+02 -0.98535306265E+01 -0.38253896669E+01  0.72461537217E+02  0.69999956910E+02 0.  0.
         12    1    1    2    0    0  0.15458160837E+02  0.98535306265E+01  0.38253896669E+01  0.18726462783E+02  0.00000000000E+00 0. -1.
         11    1    3    3    0    0  0.14228235085E+02  0.70893256713E+01 -0.16266633016E+02  0.22744330327E+02  0.51100000000E-03 0. -1.
        -11    1    3    3    0    0 -0.72096532320E+01  0.53953647663E+01 -0.79683945877E+01  0.12024324233E+02  0.51100000000E-03 0.  1.
        -12    1    3    3    0    0 -0.22476742690E+02 -0.22338221064E+02  0.20409637937E+02  0.37692882657E+02  0.00000000000E+00 0.  1.
</event>
<event>
 7    1  0.2944263E-013  0.7246155E+02  0.7816164E-02  0.1226708E+00
        -11   -1    0    0    0    0  0.00000000000E+00  0.00000000000E+00  0.45593999997E+02  0.45594000000E+02  0.51100000000E-03 0.  1.
         11   -1    0    0    0    0 -0.00000000000E+00 -0.00000000000E+00 -0.45593999997E+02  0.45594000000E+02  0.51100000000E-03 0. -1.
    9900012    2    1    2    0    0  0.32661626342E+01  0.75056012616E+01  0.16842742898E+02  0.72461551939E+02  0.69999976089E+02 0.  0.
         12    1    1    2    0    0 -0.32661626342E+01 -0.75056012616E+01 -0.16842742898E+02  0.18726448061E+02  0.00000000000E+00 0. -1.
         11    1    3    3    0    0  0.35508244000E+01 -0.11017814752E+02  0.54325244912E+01  0.12787216993E+02  0.51100000000E-03 0.  1.
        -11    1    3    3    0    0 -0.59190465418E+01 -0.79561782106E+01 -0.17470615119E+02  0.20088759956E+02  0.51100000000E-03 0. -1.
        -12    1    3    3    0    0  0.56343847760E+01  0.26479594224E+02  0.28880833526E+02  0.39585574989E+02  0.00000000000E+00 0.  1.
</event>
<event>
 7    1  0.2944263E-013  0.7246149E+02  0.7816164E-02  0.1226708E+00
        -11   -1    0    0    0    0  0.00000000000E+00  0.00000000000E+00  0.45593999997E+02  0.45594000000E+02  0.51100000000E-03 0.  1.
         11   -1    0    0    0    0 -0.00000000000E+00 -0.00000000000E+00 -0.45593999997E+02  0.45594000000E+02  0.51100000000E-03 0. -1.
    9900012    2    1    2    0    0  0.12526855827E+02 -0.88816564044E+01  0.10718028939E+02  0.72461492538E+02  0.69999898708E+02 0.  0.
         12    1    1    2    0    0 -0.12526855827E+02  0.88816564044E+01 -0.10718028939E+02  0.18726507462E+02  0.00000000000E+00 0. -1.
         11    1    3    3    0    0 -0.10131182680E+02  0.73942244463E+01  0.26660946373E+01  0.12822771874E+02  0.51100000000E-03 0. -1.
        -11    1    3    3    0    0 -0.10634043465E+02  0.80910190578E+01  0.12303265186E+02  0.18163639621E+02  0.51100000000E-03 0.  1.
         12    1    3    3    0    0  0.33292081972E+02 -0.24366899909E+02 -0.42513308842E+01  0.41475081042E+02  0.00000000000E+00 0. -1.
</event>
<event>
 7    1  0.2944263E-013  0.7246155E+02  0.7816164E-02  0.1226708E+00
        -11   -1    0    0    0    0  0.00000000000E+00  0.00000000000E+00  0.45593999997E+02  0.45594000000E+02  0.51100000000E-03 0.  1.
         11   -1    0    0    0    0 -0.00000000000E+00 -0.00000000000E+00 -0.45593999997E+02  0.45594000000E+02  0.51100000000E-03 0. -1.
    9900012    2    1    2    0    0 -0.26462163839E+01  0.18411354642E+02  0.21678644777E+01  0.72461546056E+02  0.69999968425E+02 0.  0.
         12    1    1    2    0    0  0.26462163839E+01 -0.18411354642E+02 -0.21678644777E+01  0.18726453944E+02  0.00000000000E+00 0. -1.
         11    1    3    3    0    0 -0.58088670456E+01  0.24203458699E+02  0.17224023758E+02  0.30269082312E+02  0.51100000000E-03 0. -1.
        -11    1    3    3    0    0 -0.82275287389E+01  0.96243580245E+00  0.10520921630E+02  0.13390605065E+02  0.51100000000E-03 0.  1.
         12    1    3    3    0    0  0.11390179401E+02 -0.67545398589E+01 -0.25577080910E+02  0.28801858679E+02  0.00000000000E+00 0. -1.
</event>
<event>
 7    1  0.2944263E-013  0.7246157E+02  0.7816164E-02  0.1226708E+00
        -11   -1    0    0    0    0  0.00000000000E+00  0.00000000000E+00  0.45593999997E+02  0.45594000000E+02  0.51100000000E-03 0.  1.
         11   -1    0    0    0    0 -0.00000000000E+00 -0.00000000000E+00 -0.45593999997E+02  0.45594000000E+02  0.51100000000E-03 0. -1.
    9900012    2    1    2    0    0 -0.46304147213E+01 -0.64865276076E+01  0.16945901697E+02  0.72461565069E+02  0.69999993193E+02 0.  0.
         12    1    1    2    0    0  0.46304147213E+01  0.64865276076E+01 -0.16945901697E+02  0.18726434931E+02  0.00000000000E+00 0. -1.
         11    1    3    3    0    0 -0.20493208113E+00  0.36676242865E+01 -0.33388360995E+01  0.49639995795E+01  0.51100000000E-03 0. -1.
        -11    1    3    3    0    0 -0.21987635663E+02  0.69547964417E+01 -0.12755485693E+02  0.26353894041E+02  0.51100000000E-03 0.  1.
         12    1    3    3    0    0  0.17562153023E+02 -0.17108948336E+02  0.33040223490E+02  0.41143671448E+02  0.00000000000E+00 0. -1.
</event>
<event>
 7    1  0.2944263E-013  0.7246158E+02  0.7816164E-02  0.1226708E+00
        -11   -1    0    0    0    0  0.00000000000E+00  0.00000000000E+00  0.45593999997E+02  0.45594000000E+02  0.51100000000E-03 0. -1.
         11   -1    0    0    0    0 -0.00000000000E+00 -0.00000000000E+00 -0.45593999997E+02  0.45594000000E+02  0.51100000000E-03 0.  1.
    9900012    2    1    2    0    0  0.10853939633E+01 -0.16210679757E+02 -0.93120670134E+01  0.72461579885E+02  0.70000012494E+02 0.  0.
         12    1    1    2    0    0 -0.10853939633E+01  0.16210679757E+02  0.93120670134E+01  0.18726420115E+02  0.00000000000E+00 0. -1.
         11    1    3    3    0    0 -0.18777295195E+02 -0.17281587183E+01 -0.78540813242E+01  0.20426941551E+02  0.51100000000E-03 0. -1.
        -11    1    3    3    0    0 -0.11443939050E+02 -0.85608333970E+01  0.10782112015E+02  0.17902668773E+02  0.51100000000E-03 0.  1.
        -12    1    3    3    0    0  0.31306628209E+02 -0.59216876421E+01 -0.12240097704E+02  0.34131969561E+02  0.00000000000E+00 0.  1.
</event>
<event>
 7    1  0.2944263E-013  0.7246155E+02  0.7816164E-02  0.1226708E+00
        -11   -1    0    0    0    0  0.00000000000E+00  0.00000000000E+00  0.45593999997E+02  0.45594000000E+02  0.51100000000E-03 0.  1.
         11   -1    0    0    0    0 -0.00000000000E+00 -0.00000000000E+00 -0.45593999997E+02  0.45594000000E+02  0.51100000000E-03 0. -1.
    9900012    2    1    2    0    0 -0.57944216821E+01  0.17412771404E+02 -0.37282749234E+01  0.72461549068E+02  0.69999972349E+02 0.  0.
         12    1    1    2    0    0  0.57944216821E+01 -0.17412771404E+02  0.37282749234E+01  0.18726450932E+02  0.00000000000E+00 0. -1.
         11    1    3    3    0    0 -0.12203722469E+01 -0.71547755540E+01  0.12126117125E+02  0.14132333086E+02  0.51100000000E-03 0. -1.
        -11    1    3    3    0    0 -0.23770389061E+02 -0.66306687627E+00 -0.24383590899E+01  0.23904322812E+02  0.51100000000E-03 0.  1.
         12    1    3    3    0    0  0.19196339626E+02  0.25230613834E+02 -0.13416032959E+02  0.34424893171E+02  0.00000000000E+00 0. -1.
</event>
<event>
 7    1  0.2944263E-013  0.7246159E+02  0.7816164E-02  0.1226708E+00
        -11   -1    0    0    0    0  0.00000000000E+00  0.00000000000E+00  0.45593999997E+02  0.45594000000E+02  0.51100000000E-03 0. -1.
         11   -1    0    0    0    0 -0.00000000000E+00 -0.00000000000E+00 -0.45593999997E+02  0.45594000000E+02  0.51100000000E-03 0.  1.
    9900012    2    1    2    0    0  0.11739559637E+02 -0.13374808194E+02 -0.58288787570E+01  0.72461585974E+02  0.70000020426E+02 0.  0.
         12    1    1    2    0    0 -0.11739559637E+02  0.13374808194E+02  0.58288787570E+01  0.18726414026E+02  0.00000000000E+00 0. -1.
         11    1    3    3    0    0 -0.10459713664E+02 -0.57259060276E+01 -0.27992309660E+02  0.30426321009E+02  0.51100000000E-03 0. -1.
        -11    1    3    3    0    0  0.17439930942E+02 -0.45548751471E+01 -0.11297974870E+01  0.18060302364E+02  0.51100000000E-03 0.  1.
        -12    1    3    3    0    0  0.47593423591E+01 -0.30940270193E+01  0.23293228390E+02  0.23974962601E+02  0.00000000000E+00 0.  1.
</event>
<event>
 7    1  0.2944263E-013  0.7246150E+02  0.7816164E-02  0.1226708E+00
        -11   -1    0    0    0    0  0.00000000000E+00  0.00000000000E+00  0.45593999997E+02  0.45594000000E+02  0.51100000000E-03 0.  1.
         11   -1    0    0    0    0 -0.00000000000E+00 -0.00000000000E+00 -0.45593999997E+02  0.45594000000E+02  0.51100000000E-03 0. -1.
    9900012    2    1    2    0    0  0.38177487818E+01  0.18095676432E+02 -0.29416079187E+01  0.72461500903E+02  0.69999909605E+02 0.  0.
         12    1    1    2    0    0 -0.38177487818E+01 -0.18095676432E+02  0.29416079187E+01  0.18726499097E+02  0.00000000000E+00 0. -1.
         11    1    3    3    0    0 -0.12608224418E+02  0.49061382563E+01 -0.10378000410E+01  0.13568881485E+02  0.51100000000E-03 0. -1.
        -11    1    3    3    0    0 -0.13321509034E+02  0.37343260107E+01 -0.18844493665E+02  0.23377825721E+02  0.51100000000E-03 0.  1.
        -12    1    3    3    0    0  0.29747482234E+02  0.94552121648E+01  0.16940685787E+02  0.35514793696E+02  0.00000000000E+00 0.  1.
</event>
<event>
 7    1  0.2944263E-013  0.7246147E+02  0.7816164E-02  0.1226708E+00
        -11   -1    0    0    0    0  0.00000000000E+00  0.00000000000E+00  0.45593999997E+02  0.45594000000E+02  0.51100000000E-03 0.  1.
         11   -1    0    0    0    0 -0.00000000000E+00 -0.00000000000E+00 -0.45593999997E+02  0.45594000000E+02  0.51100000000E-03 0. -1.
    9900012    2    1    2    0    0 -0.10806942075E+01  0.15264883770E+02 -0.10793434627E+02  0.72461473159E+02  0.69999873463E+02 0.  0.
         12    1    1    2    0    0  0.10806942075E+01 -0.15264883770E+02  0.10793434627E+02  0.18726526841E+02  0.00000000000E+00 0. -1.
         11    1    3    3    0    0  0.10013203516E+01 -0.10145385940E+02 -0.14819615622E+02  0.17987565309E+02  0.51100000000E-03 0. -1.
        -11    1    3    3    0    0 -0.13594603429E+02 -0.41651255599E+01  0.15212939802E+02  0.20822945301E+02  0.51100000000E-03 0.  1.
        -12    1    3    3    0    0  0.11512588870E+02  0.29575395270E+02 -0.11186758807E+02  0.33650962549E+02  0.00000000000E+00 0.  1.
</event>
<event>
 7    1  0.2944263E-013  0.7246155E+02  0.7816164E-02  0.1226708E+00
        -11   -1    0    0    0    0  0.00000000000E+00  0.00000000000E+00  0.45593999997E+02  0.45594000000E+02  0.51100000000E-03 0.  1.
         11   -1    0    0    0    0 -0.00000000000E+00 -0.00000000000E+00 -0.45593999997E+02  0.45594000000E+02  0.51100000000E-03 0. -1.
    9900012    2    1    2    0    0  0.16697680537E+02  0.35113026415E+01 -0.77160919223E+01  0.72461551962E+02  0.69999976119E+02 0.  0.
         12    1    1    2    0    0 -0.16697680537E+02 -0.35113026415E+01  0.77160919223E+01  0.18726448038E+02  0.00000000000E+00 0. -1.
         11    1    3    3    0    0  0.74508075201E+01 -0.67679845505E+00 -0.24658081075E+02  0.25768072326E+02  0.51100000000E-03 0. -1.
        -11    1    3    3    0    0 -0.12902547628E+02  0.13572711173E+02  0.32268274827E+01  0.19002806102E+02  0.51100000000E-03 0.  1.
        -12    1    3    3    0    0  0.22149420645E+02 -0.93846100763E+01  0.13715161670E+02  0.27690673535E+02  0.00000000000E+00 0.  1.
</event>
<event>
 7    1  0.2944263E-013  0.7246158E+02  0.7816164E-02  0.1226708E+00
        -11   -1    0    0    0    0  0.00000000000E+00  0.00000000000E+00  0.45593999997E+02  0.45594000000E+02  0.51100000000E-03 0.  1.
         11   -1    0    0    0    0 -0.00000000000E+00 -0.00000000000E+00 -0.45593999997E+02  0.45594000000E+02  0.51100000000E-03 0. -1.
    9900012    2    1    2    0    0 -0.95250290293E+01 -0.84020857527E+01  0.13760719539E+02  0.72461584827E+02  0.70000018932E+02 0.  0.
         12    1    1    2    0    0  0.95250290293E+01  0.84020857527E+01 -0.13760719539E+02  0.18726415173E+02  0.00000000000E+00 0. -1.
         11    1    3    3    0    0  0.10802044101E+02  0.11259912149E+02  0.36845252150E+01  0.16032638731E+02  0.51100000000E-03 0.  1.
        -11    1    3    3    0    0 -0.36512392976E+01 -0.10498478927E+02 -0.18804268677E+02  0.21843766363E+02  0.51100000000E-03 0. -1.
        -12    1    3    3    0    0 -0.16675833832E+02 -0.91635189748E+01  0.28880463001E+02  0.34585179733E+02  0.00000000000E+00 0.  1.
</event>
<event>
 7    1  0.2944263E-013  0.7246156E+02  0.7816164E-02  0.1226708E+00
        -11   -1    0    0    0    0  0.00000000000E+00  0.00000000000E+00  0.45593999997E+02  0.45594000000E+02  0.51100000000E-03 0. -1.
         11   -1    0    0    0    0 -0.00000000000E+00 -0.00000000000E+00 -0.45593999997E+02  0.45594000000E+02  0.51100000000E-03 0.  1.
    9900012    2    1    2    0    0 -0.15400895654E+02 -0.89001085512E+01  0.58549044228E+01  0.72461563474E+02  0.69999991115E+02 0.  0.
         12    1    1    2    0    0  0.15400895654E+02  0.89001085512E+01 -0.58549044228E+01  0.18726436526E+02  0.00000000000E+00 0. -1.
         11    1    3    3    0    0  0.86820168333E+01  0.56901529892E+01  0.15182561754E+02  0.18391993883E+02  0.51100000000E-03 0. -1.
        -11    1    3    3    0    0 -0.32966157517E+01  0.11132419586E+02 -0.16552169073E+02  0.20218129056E+02  0.51100000000E-03 0.  1.
        -12    1    3    3    0    0 -0.20786296736E+02 -0.25722681127E+02  0.72245117416E+01  0.33851440534E+02  0.00000000000E+00 0.  1.
</event>
<event>
 7    1  0.2944263E-013  0.7246163E+02  0.7816164E-02  0.1226708E+00
        -11   -1    0    0    0    0  0.00000000000E+00  0.00000000000E+00  0.45593999997E+02  0.45594000000E+02  0.51100000000E-03 0. -1.
         11   -1    0    0    0    0 -0.00000000000E+00 -0.00000000000E+00 -0.45593999997E+02  0.45594000000E+02  0.51100000000E-03 0.  1.
    9900012    2    1    2    0    0 -0.11484836872E+02 -0.37890997711E+00  0.14786203221E+02  0.72461632054E+02  0.70000080454E+02 0.  0.
         12    1    1    2    0    0  0.11484836872E+02  0.37890997711E+00 -0.14786203221E+02  0.18726367946E+02  0.00000000000E+00 0. -1.
         11    1    3    3    0    0  0.46222773097E-01  0.12952961817E+02  0.21216179700E+02  0.24857748042E+02  0.51100000000E-03 0. -1.
        -11    1    3    3    0    0 -0.23857005608E+01 -0.98741129568E+01  0.18344855701E+02  0.20969582848E+02  0.51100000000E-03 0.  1.
        -12    1    3    3    0    0 -0.91453590846E+01 -0.34577588371E+01 -0.24774832181E+02  0.26634301165E+02  0.00000000000E+00 0.  1.
</event>
<event>
 7    1  0.2944263E-013  0.7246158E+02  0.7816164E-02  0.1226708E+00
        -11   -1    0    0    0    0  0.00000000000E+00  0.00000000000E+00  0.45593999997E+02  0.45594000000E+02  0.51100000000E-03 0.  1.
         11   -1    0    0    0    0 -0.00000000000E+00 -0.00000000000E+00 -0.45593999997E+02  0.45594000000E+02  0.51100000000E-03 0. -1.
    9900012    2    1    2    0    0 -0.96544425728E+01 -0.13144282632E+02  0.92031747782E+01  0.72461578738E+02  0.70000010999E+02 0.  0.
         12    1    1    2    0    0  0.96544425728E+01  0.13144282632E+02 -0.92031747782E+01  0.18726421262E+02  0.00000000000E+00 0. -1.
         11    1    3    3    0    0 -0.72428148631E+01  0.21696971072E+01  0.98405907137E+01  0.12409801712E+02  0.51100000000E-03 0. -1.
        -11    1    3    3    0    0 -0.21011856701E+01 -0.36642116156E+02  0.70596895897E+01  0.37375110367E+02  0.51100000000E-03 0.  1.
         12    1    3    3    0    0 -0.31044203959E+00  0.21328136417E+02 -0.76971055252E+01  0.22676666659E+02  0.00000000000E+00 0. -1.
</event>
<event>
 7    1  0.2944263E-013  0.7246160E+02  0.7816164E-02  0.1226708E+00
        -11   -1    0    0    0    0  0.00000000000E+00  0.00000000000E+00  0.45593999997E+02  0.45594000000E+02  0.51100000000E-03 0.  1.
         11   -1    0    0    0    0 -0.00000000000E+00 -0.00000000000E+00 -0.45593999997E+02  0.45594000000E+02  0.51100000000E-03 0. -1.
    9900012    2    1    2    0    0 -0.15830553723E+02  0.97235539800E+01  0.23503705470E+01  0.72461596852E+02  0.70000034596E+02 0.  0.
         12    1    1    2    0    0  0.15830553723E+02 -0.97235539800E+01 -0.23503705470E+01  0.18726403148E+02  0.00000000000E+00 0. -1.
         11    1    3    3    0    0  0.77239256390E+01  0.98030035676E+01  0.17486880243E+02  0.21483688862E+02  0.51100000000E-03 0. -1.
        -11    1    3    3    0    0 -0.18699616580E+02  0.87922220753E+01  0.10673483719E+02  0.23257301740E+02  0.51100000000E-03 0.  1.
         12    1    3    3    0    0 -0.48548627815E+01 -0.88716716629E+01 -0.25809993416E+02  0.27720606249E+02  0.00000000000E+00 0. -1.
</event>
<event>
 7    1  0.2944263E-013  0.7246178E+02  0.7816164E-02  0.1226707E+00
        -11   -1    0    0    0    0  0.00000000000E+00  0.00000000000E+00  0.45593999997E+02  0.45594000000E+02  0.51100000000E-03 0. -1.
         11   -1    0    0    0    0 -0.00000000000E+00 -0.00000000000E+00 -0.45593999997E+02  0.45594000000E+02  0.51100000000E-03 0.  1.
    9900012    2    1    2    0    0 -0.10919944235E+02  0.49907624478E+01 -0.14370754768E+02  0.72461775487E+02  0.70000267301E+02 0.  0.
         12    1    1    2    0    0  0.10919944235E+02 -0.49907624478E+01  0.14370754768E+02  0.18726224513E+02  0.00000000000E+00 0. -1.
         11    1    3    3    0    0  0.26057045495E+02  0.13572332191E+01  0.20696796367E+01  0.26174324747E+02  0.51100000000E-03 0. -1.
        -11    1    3    3    0    0 -0.70184882672E+01 -0.69417081749E+01  0.12068454176E+01  0.99449970370E+01  0.51100000000E-03 0.  1.
        -12    1    3    3    0    0 -0.29958501462E+02  0.10575237404E+02 -0.17647279822E+02  0.36342453703E+02  0.00000000000E+00 0.  1.
</event>
<event>
 7    1  0.2944263E-013  0.7246158E+02  0.7816164E-02  0.1226708E+00
        -11   -1    0    0    0    0  0.00000000000E+00  0.00000000000E+00  0.45593999997E+02  0.45594000000E+02  0.51100000000E-03 0.  1.
         11   -1    0    0    0    0 -0.00000000000E+00 -0.00000000000E+00 -0.45593999997E+02  0.45594000000E+02  0.51100000000E-03 0. -1.
    9900012    2    1    2    0    0 -0.30524272497E+01  0.13147827219E+02  0.12980606725E+02  0.72461579529E+02  0.70000012030E+02 0.  0.
         12    1    1    2    0    0  0.30524272497E+01 -0.13147827219E+02 -0.12980606725E+02  0.18726420471E+02  0.00000000000E+00 0. -1.
         11    1    3    3    0    0  0.16267507498E+02  0.14252481806E+01 -0.74346840337E+01  0.17942621312E+02  0.51100000000E-03 0. -1.
        -11    1    3    3    0    0 -0.45189853805E+01 -0.45725218333E+01  0.29875016706E+02  0.30558890822E+02  0.51100000000E-03 0.  1.
         12    1    3    3    0    0 -0.14800949368E+02  0.16295100872E+02 -0.94597259479E+01  0.23960067396E+02  0.00000000000E+00 0. -1.
</event>
<event>
 7    1  0.2944263E-013  0.7246156E+02  0.7816164E-02  0.1226708E+00
        -11   -1    0    0    0    0  0.00000000000E+00  0.00000000000E+00  0.45593999997E+02  0.45594000000E+02  0.51100000000E-03 0. -1.
         11   -1    0    0    0    0 -0.00000000000E+00 -0.00000000000E+00 -0.45593999997E+02  0.45594000000E+02  0.51100000000E-03 0.  1.
    9900012    2    1    2    0    0 -0.31525989855E+01  0.18338578532E+01 -0.18367844704E+02  0.72461557891E+02  0.69999983843E+02 0.  0.
         12    1    1    2    0    0  0.31525989855E+01 -0.18338578532E+01  0.18367844704E+02  0.18726442109E+02  0.00000000000E+00 0. -1.
         11    1    3    3    0    0  0.38671773668E+01 -0.23033146581E+01  0.56551134404E+01  0.72277678079E+01  0.51100000000E-03 0. -1.
        -11    1    3    3    0    0 -0.29285251985E+02  0.14594608582E+02 -0.29685892833E+01  0.32854849050E+02  0.51100000000E-03 0.  1.
        -12    1    3    3    0    0  0.22265475633E+02 -0.10457436070E+02 -0.21054368861E+02  0.32378941034E+02  0.00000000000E+00 0.  1.
</event>
<event>
 7    1  0.2944263E-013  0.7246158E+02  0.7816164E-02  0.1226708E+00
        -11   -1    0    0    0    0  0.00000000000E+00  0.00000000000E+00  0.45593999997E+02  0.45594000000E+02  0.51100000000E-03 0. -1.
         11   -1    0    0    0    0 -0.00000000000E+00 -0.00000000000E+00 -0.45593999997E+02  0.45594000000E+02  0.51100000000E-03 0.  1.
    9900012    2    1    2    0    0 -0.87012076325E+01 -0.10163163075E+02 -0.13102589771E+02  0.72461581318E+02  0.70000014360E+02 0.  0.
         12    1    1    2    0    0  0.87012076325E+01  0.10163163075E+02  0.13102589771E+02  0.18726418682E+02  0.00000000000E+00 0. -1.
         11    1    3    3    0    0 -0.71604390746E+01  0.11401865269E+02 -0.26884290541E+02  0.30067249583E+02  0.51100000000E-03 0. -1.
        -11    1    3    3    0    0 -0.54565349540E+01 -0.92125801834E+01 -0.10420788374E+02  0.14941159190E+02  0.51100000000E-03 0.  1.
        -12    1    3    3    0    0  0.39157663961E+01 -0.12352448161E+02  0.24202489144E+02  0.27453172545E+02  0.00000000000E+00 0.  1.
</event>
<event>
 7    1  0.2944263E-013  0.7246158E+02  0.7816164E-02  0.1226708E+00
        -11   -1    0    0    0    0  0.00000000000E+00  0.00000000000E+00  0.45593999997E+02  0.45594000000E+02  0.51100000000E-03 0.  1.
         11   -1    0    0    0    0 -0.00000000000E+00 -0.00000000000E+00 -0.45593999997E+02  0.45594000000E+02  0.51100000000E-03 0. -1.
    9900012    2    1    2    0    0 -0.13555614766E+02 -0.12912775375E+02  0.42923134798E+00  0.72461582854E+02  0.70000016362E+02 0.  0.
         12    1    1    2    0    0  0.13555614766E+02  0.12912775375E+02 -0.42923134798E+00  0.18726417146E+02  0.00000000000E+00 0. -1.
         11    1    3    3    0    0  0.52661064552E+00 -0.63027091599E+00  0.91925702926E+01  0.92291878865E+01  0.51100000000E-03 0. -1.
        -11    1    3    3    0    0 -0.20638201128E+02  0.73005988604E+01  0.18755075866E+02  0.28826844443E+02  0.51100000000E-03 0.  1.
         12    1    3    3    0    0  0.65559757169E+01 -0.19583103319E+02 -0.27518414811E+02  0.34405550525E+02  0.00000000000E+00 0. -1.
</event>
<event>
 7    1  0.2944263E-013  0.7246152E+02  0.7816164E-02  0.1226708E+00
        -11   -1    0    0    0    0  0.00000000000E+00  0.00000000000E+00  0.45593999997E+02  0.45594000000E+02  0.51100000000E-03 0.  1.
         11   -1    0    0    0    0 -0.00000000000E+00 -0.00000000000E+00 -0.45593999997E+02  0.45594000000E+02  0.51100000000E-03 0. -1.
    9900012    2    1    2    0    0 -0.63090529868E+01 -0.94604972199E+01  0.14878707523E+02  0.72461518889E+02  0.69999933036E+02 0.  0.
         12    1    1    2    0    0  0.63090529868E+01  0.94604972199E+01 -0.14878707523E+02  0.18726481111E+02  0.00000000000E+00 0. -1.
         11    1    3    3    0    0 -0.14503673920E+01  0.75083807261E+01 -0.63128456225E+01  0.99162173642E+01  0.51100000000E-03 0. -1.
        -11    1    3    3    0    0 -0.25670673727E+02  0.72536103153E+01  0.12431430450E+02  0.29430236416E+02  0.51100000000E-03 0.  1.
        -12    1    3    3    0    0  0.20811988132E+02 -0.24222488261E+02  0.87601226957E+01  0.33115065110E+02  0.00000000000E+00 0.  1.
</event>
<event>
 7    1  0.2944263E-013  0.7246156E+02  0.7816164E-02  0.1226708E+00
        -11   -1    0    0    0    0  0.00000000000E+00  0.00000000000E+00  0.45593999997E+02  0.45594000000E+02  0.51100000000E-03 0. -1.
         11   -1    0    0    0    0 -0.00000000000E+00 -0.00000000000E+00 -0.45593999997E+02  0.45594000000E+02  0.51100000000E-03 0.  1.
    9900012    2    1    2    0    0 -0.17557381763E+02 -0.64975472520E+01 -0.44690594230E+00  0.72461561482E+02  0.69999988520E+02 0.  0.
         12    1    1    2    0    0  0.17557381763E+02  0.64975472520E+01  0.44690594230E+00  0.18726438518E+02  0.00000000000E+00 0. -1.
         11    1    3    3    0    0 -0.16144249813E+02 -0.30053830612E+01  0.29224284241E+02  0.33522051235E+02  0.51100000000E-03 0. -1.
        -11    1    3    3    0    0 -0.12320538268E+01 -0.11010551543E+02 -0.33643870767E+01  0.11578829931E+02  0.51100000000E-03 0.  1.
        -12    1    3    3    0    0 -0.18107812332E+00  0.75183873521E+01 -0.26306803106E+02  0.27360680316E+02  0.00000000000E+00 0.  1.
</event>
<event>
 7    1  0.2944263E-013  0.7246154E+02  0.7816164E-02  0.1226708E+00
        -11   -1    0    0    0    0  0.00000000000E+00  0.00000000000E+00  0.45593999997E+02  0.45594000000E+02  0.51100000000E-03 0.  1.
         11   -1    0    0    0    0 -0.00000000000E+00 -0.00000000000E+00 -0.45593999997E+02  0.45594000000E+02  0.51100000000E-03 0. -1.
    9900012    2    1    2    0    0  0.48540372493E+01  0.22872010492E+01  0.17941220040E+02  0.72461538968E+02  0.69999959192E+02 0.  0.
         12    1    1    2    0    0 -0.48540372493E+01 -0.22872010492E+01 -0.17941220040E+02  0.18726461032E+02  0.00000000000E+00 0. -1.
         11    1    3    3    0    0 -0.18914475247E+02  0.10762810816E+02  0.38733383838E+01  0.22104257984E+02  0.51100000000E-03 0. -1.
        -11    1    3    3    0    0 -0.83809162223E+01 -0.12612370324E+02  0.31608321564E+00  0.15146337867E+02  0.51100000000E-03 0.  1.
         12    1    3    3    0    0  0.32149428719E+02  0.41367605578E+01  0.13751798441E+02  0.35210943117E+02  0.00000000000E+00 0. -1.
</event>
<event>
 7    1  0.2944263E-013  0.7246158E+02  0.7816164E-02  0.1226708E+00
        -11   -1    0    0    0    0  0.00000000000E+00  0.00000000000E+00  0.45593999997E+02  0.45594000000E+02  0.51100000000E-03 0.  1.
         11   -1    0    0    0    0 -0.00000000000E+00 -0.00000000000E+00 -0.45593999997E+02  0.45594000000E+02  0.51100000000E-03 0. -1.
    9900012    2    1    2    0    0  0.34968958952E+01  0.65884954872E+01  0.17176799454E+02  0.72461575003E+02  0.70000006134E+02 0.  0.
         12    1    1    2    0    0 -0.34968958952E+01 -0.65884954872E+01 -0.17176799454E+02  0.18726424997E+02  0.00000000000E+00 0. -1.
         11    1    3    3    0    0  0.74845583243E+00 -0.71458402769E+01  0.19758364096E+02  0.21024180635E+02  0.51100000000E-03 0. -1.
        -11    1    3    3    0    0 -0.19029076999E+02 -0.79156538471E+01  0.12675642673E+00  0.20610177455E+02  0.51100000000E-03 0.  1.
         12    1    3    3    0    0  0.21777517062E+02  0.21649989611E+02 -0.27083210681E+01  0.30827216912E+02  0.00000000000E+00 0. -1.
</event>
<event>
 7    1  0.2944263E-013  0.7246157E+02  0.7816164E-02  0.1226708E+00
        -11   -1    0    0    0    0  0.00000000000E+00  0.00000000000E+00  0.45593999997E+02  0.45594000000E+02  0.51100000000E-03 0.  1.
         11   -1    0    0    0    0 -0.00000000000E+00 -0.00000000000E+00 -0.45593999997E+02  0.45594000000E+02  0.51100000000E-03 0. -1.
    9900012    2    1    2    0    0  0.73702008787E+01 -0.16198868533E+02 -0.58271825317E+01  0.72461567905E+02  0.69999996887E+02 0.  0.
         12    1    1    2    0    0 -0.73702008787E+01  0.16198868533E+02  0.58271825317E+01  0.18726432095E+02  0.00000000000E+00 0. -1.
         11    1    3    3    0    0  0.54504733408E+01  0.14383727171E+02 -0.24566655278E+02  0.28984820490E+02  0.51100000000E-03 0. -1.
        -11    1    3    3    0    0  0.47769753770E+01 -0.40716545110E+01 -0.48053017518E+01  0.79049850978E+01  0.51100000000E-03 0.  1.
        -12    1    3    3    0    0 -0.28572478392E+01 -0.26510941194E+02  0.23544774498E+02  0.35571762318E+02  0.00000000000E+00 0.  1.
</event>
<event>
 7    1  0.2944263E-013  0.7246159E+02  0.7816164E-02  0.1226708E+00
        -11   -1    0    0    0    0  0.00000000000E+00  0.00000000000E+00  0.45593999997E+02  0.45594000000E+02  0.51100000000E-03 0. -1.
         11   -1    0    0    0    0 -0.00000000000E+00 -0.00000000000E+00 -0.45593999997E+02  0.45594000000E+02  0.51100000000E-03 0.  1.
    9900012    2    1    2    0    0  0.56027745679E+01 -0.11289727969E+02 -0.13850245446E+02  0.72461592459E+02  0.70000028874E+02 0.  0.
         12    1    1    2    0    0 -0.56027745679E+01  0.11289727969E+02  0.13850245446E+02  0.18726407541E+02  0.00000000000E+00 0. -1.
         11    1    3    3    0    0 -0.25640847441E+01 -0.89017824371E+01  0.51708274977E+01  0.10609133725E+02  0.51100000000E-03 0. -1.
        -11    1    3    3    0    0 -0.16660390461E+02 -0.12467013580E+02 -0.26819774400E+02  0.33945475944E+02  0.51100000000E-03 0.  1.
         12    1    3    3    0    0  0.24827249773E+02  0.10079068048E+02  0.77987014570E+01  0.27906982790E+02  0.00000000000E+00 0. -1.
</event>
<event>
 7    1  0.2944263E-013  0.7246159E+02  0.7816164E-02  0.1226708E+00
        -11   -1    0    0    0    0  0.00000000000E+00  0.00000000000E+00  0.45593999997E+02  0.45594000000E+02  0.51100000000E-03 0.  1.
         11   -1    0    0    0    0 -0.00000000000E+00 -0.00000000000E+00 -0.45593999997E+02  0.45594000000E+02  0.51100000000E-03 0. -1.
    9900012    2    1    2    0    0  0.90795792700E+01  0.13093501283E+02  0.98387016492E+01  0.72461585882E+02  0.70000020306E+02 0.  0.
         12    1    1    2    0    0 -0.90795792700E+01 -0.13093501283E+02 -0.98387016492E+01  0.18726414118E+02  0.00000000000E+00 0. -1.
         11    1    3    3    0    0 -0.61156629272E+01  0.20156103215E+02  0.26140691482E+01  0.21225060368E+02  0.51100000000E-03 0. -1.
        -11    1    3    3    0    0 -0.13325798307E+02 -0.66503815099E+01  0.15540848656E+02  0.21524926294E+02  0.51100000000E-03 0.  1.
        -12    1    3    3    0    0  0.28521040504E+02 -0.41222042189E+00 -0.83162161548E+01  0.29711599221E+02  0.00000000000E+00 0.  1.
</event>
<event>
 7    1  0.2944263E-013  0.7246172E+02  0.7816164E-02  0.1226708E+00
        -11   -1    0    0    0    0  0.00000000000E+00  0.00000000000E+00  0.45593999997E+02  0.45594000000E+02  0.51100000000E-03 0. -1.
         11   -1    0    0    0    0 -0.00000000000E+00 -0.00000000000E+00 -0.45593999997E+02  0.45594000000E+02  0.51100000000E-03 0.  1.
    9900012    2    1    2    0    0  0.15503564061E+02  0.16192336698E+00 -0.10501752525E+02  0.72461721036E+02  0.70000196368E+02 0.  0.
         12    1    1    2    0    0 -0.15503564061E+02 -0.16192336698E+00  0.10501752525E+02  0.18726278964E+02  0.00000000000E+00 0. -1.
         11    1    3    3    0    0  0.31229649483E+02 -0.99610345938E+01  0.92333449919E+01  0.34055364879E+02  0.51100000000E-03 0. -1.
        -11    1    3    3    0    0  0.53699833546E+01  0.52225505403E+00  0.28004687021E+01  0.60788236348E+01  0.51100000000E-03 0.  1.
        -12    1    3    3    0    0 -0.21096068777E+02  0.96007029067E+01 -0.22535566219E+02  0.32327532522E+02  0.00000000000E+00 0.  1.
</event>
<event>
 7    1  0.2944263E-013  0.7246155E+02  0.7816164E-02  0.1226708E+00
        -11   -1    0    0    0    0  0.00000000000E+00  0.00000000000E+00  0.45593999997E+02  0.45594000000E+02  0.51100000000E-03 0.  1.
         11   -1    0    0    0    0 -0.00000000000E+00 -0.00000000000E+00 -0.45593999997E+02  0.45594000000E+02  0.51100000000E-03 0. -1.
    9900012    2    1    2    0    0 -0.88901914399E+01 -0.14556074417E+02  0.77307788121E+01  0.72461554867E+02  0.69999979903E+02 0.  0.
         12    1    1    2    0    0  0.88901914399E+01  0.14556074417E+02 -0.77307788121E+01  0.18726445133E+02  0.00000000000E+00 0. -1.
         11    1    3    3    0    0 -0.21811477941E+01  0.78399179313E+01 -0.20200765858E+01  0.83846543484E+01  0.51100000000E-03 0. -1.
        -11    1    3    3    0    0 -0.10100726009E+02  0.17335069880E+02  0.13257140501E+02  0.24047475713E+02  0.51100000000E-03 0.  1.
        -12    1    3    3    0    0  0.33916823632E+01 -0.39731062228E+02 -0.35062851032E+01  0.40029424805E+02  0.00000000000E+00 0.  1.
</event>
<event>
 7    1  0.2944263E-013  0.7246156E+02  0.7816164E-02  0.1226708E+00
        -11   -1    0    0    0    0  0.00000000000E+00  0.00000000000E+00  0.45593999997E+02  0.45594000000E+02  0.51100000000E-03 0.  1.
         11   -1    0    0    0    0 -0.00000000000E+00 -0.00000000000E+00 -0.45593999997E+02  0.45594000000E+02  0.51100000000E-03 0. -1.
    9900012    2    1    2    0    0  0.69743977280E+01  0.72269627137E+01  0.15805323699E+02  0.72461562246E+02  0.69999989515E+02 0.  0.
         12    1    1    2    0    0 -0.69743977280E+01 -0.72269627137E+01 -0.15805323699E+02  0.18726437754E+02  0.00000000000E+00 0. -1.
         11    1    3    3    0    0 -0.17531347450E+02  0.10568400370E+02  0.73234075812E+01  0.21741010295E+02  0.51100000000E-03 0. -1.
        -11    1    3    3    0    0 -0.68373167170E+01  0.20646069755E+01  0.16448436248E+02  0.17932165433E+02  0.51100000000E-03 0.  1.
         12    1    3    3    0    0  0.31343061895E+02 -0.54060446317E+01 -0.79665201298E+01  0.32788386518E+02  0.00000000000E+00 0. -1.
</event>
<event>
 7    1  0.2944263E-013  0.7246145E+02  0.7816164E-02  0.1226708E+00
        -11   -1    0    0    0    0  0.00000000000E+00  0.00000000000E+00  0.45593999997E+02  0.45594000000E+02  0.51100000000E-03 0. -1.
         11   -1    0    0    0    0 -0.00000000000E+00 -0.00000000000E+00 -0.45593999997E+02  0.45594000000E+02  0.51100000000E-03 0.  1.
    9900012    2    1    2    0    0  0.28166012868E+01  0.18365563841E+02 -0.23358888752E+01  0.72461453205E+02  0.69999847470E+02 0.  0.
         12    1    1    2    0    0 -0.28166012868E+01 -0.18365563841E+02  0.23358888752E+01  0.18726546795E+02  0.00000000000E+00 0. -1.
         11    1    3    3    0    0 -0.16868758804E+01  0.11114341790E+02  0.86018062678E+01  0.14155042034E+02  0.51100000000E-03 0. -1.
        -11    1    3    3    0    0 -0.76173379243E+01 -0.15546127097E+02  0.14110098696E+02  0.22333848532E+02  0.51100000000E-03 0.  1.
        -12    1    3    3    0    0  0.12120815092E+02  0.22797349149E+02 -0.25047793839E+02  0.35972562640E+02  0.00000000000E+00 0.  1.
</event>
<event>
 7    1  0.2944263E-013  0.7246140E+02  0.7816164E-02  0.1226708E+00
        -11   -1    0    0    0    0  0.00000000000E+00  0.00000000000E+00  0.45593999997E+02  0.45594000000E+02  0.51100000000E-03 0.  1.
         11   -1    0    0    0    0 -0.00000000000E+00 -0.00000000000E+00 -0.45593999997E+02  0.45594000000E+02  0.51100000000E-03 0. -1.
    9900012    2    1    2    0    0 -0.42513053168E+01 -0.18212934638E+02  0.94912890130E+00  0.72461403120E+02  0.69999782224E+02 0.  0.
         12    1    1    2    0    0  0.42513053168E+01  0.18212934638E+02 -0.94912890130E+00  0.18726596880E+02  0.00000000000E+00 0. -1.
         11    1    3    3    0    0  0.75357412807E+01  0.10008646253E+02 -0.12459705360E+02  0.17669313919E+02  0.51100000000E-03 0. -1.
        -11    1    3    3    0    0 -0.24514698275E+02 -0.10554408461E+02  0.18444213708E+02  0.32443103875E+02  0.51100000000E-03 0.  1.
         12    1    3    3    0    0  0.12727651678E+02 -0.17667172430E+02 -0.50353794470E+01  0.22348985325E+02  0.00000000000E+00 0. -1.
</event>
<event>
 7    1  0.2944263E-013  0.7246158E+02  0.7816164E-02  0.1226708E+00
        -11   -1    0    0    0    0  0.00000000000E+00  0.00000000000E+00  0.45593999997E+02  0.45594000000E+02  0.51100000000E-03 0. -1.
         11   -1    0    0    0    0 -0.00000000000E+00 -0.00000000000E+00 -0.45593999997E+02  0.45594000000E+02  0.51100000000E-03 0.  1.
    9900012    2    1    2    0    0  0.11757299691E+02  0.11351716125E+02 -0.91423929292E+01  0.72461577398E+02  0.70000009253E+02 0.  0.
         12    1    1    2    0    0 -0.11757299691E+02 -0.11351716125E+02  0.91423929292E+01  0.18726422602E+02  0.00000000000E+00 0. -1.
         11    1    3    3    0    0  0.13998821863E+02 -0.10882594262E+02  0.20276464820E+02  0.26935717872E+02  0.51100000000E-03 0. -1.
        -11    1    3    3    0    0  0.89224854403E+01 -0.34036819188E-01 -0.35202889404E+01  0.95918892520E+01  0.51100000000E-03 0.  1.
        -12    1    3    3    0    0 -0.11164007612E+02  0.22268347206E+02 -0.25898568809E+02  0.35933970274E+02  0.00000000000E+00 0.  1.
</event>
<event>
 7    1  0.2944263E-013  0.7246157E+02  0.7816164E-02  0.1226708E+00
        -11   -1    0    0    0    0  0.00000000000E+00  0.00000000000E+00  0.45593999997E+02  0.45594000000E+02  0.51100000000E-03 0.  1.
         11   -1    0    0    0    0 -0.00000000000E+00 -0.00000000000E+00 -0.45593999997E+02  0.45594000000E+02  0.51100000000E-03 0. -1.
    9900012    2    1    2    0    0 -0.12029096224E+02 -0.13693329142E+02  0.42980010045E+01  0.72461568637E+02  0.69999997841E+02 0.  0.
         12    1    1    2    0    0  0.12029096224E+02  0.13693329142E+02 -0.42980010045E+01  0.18726431363E+02  0.00000000000E+00 0. -1.
         11    1    3    3    0    0 -0.29640685441E+02 -0.43664927658E+01 -0.13351138066E+02  0.32800752741E+02  0.51100000000E-03 0. -1.
        -11    1    3    3    0    0  0.63912221834E+01  0.10410654085E+02  0.97235664478E+01  0.15613365563E+02  0.51100000000E-03 0.  1.
        -12    1    3    3    0    0  0.11220367033E+02 -0.19737490462E+02  0.79255726229E+01  0.24047450332E+02  0.00000000000E+00 0.  1.
</event>
<event>
 7    1  0.2944263E-013  0.7246140E+02  0.7816164E-02  0.1226708E+00
        -11   -1    0    0    0    0  0.00000000000E+00  0.00000000000E+00  0.45593999997E+02  0.45594000000E+02  0.51100000000E-03 0. -1.
         11   -1    0    0    0    0 -0.00000000000E+00 -0.00000000000E+00 -0.45593999997E+02  0.45594000000E+02  0.51100000000E-03 0.  1.
    9900012    2    1    2    0    0 -0.56959354453E+01  0.85324659367E+01 -0.15666495040E+02  0.72461395331E+02  0.69999772078E+02 0.  0.
         12    1    1    2    0    0  0.56959354453E+01 -0.85324659367E+01  0.15666495040E+02  0.18726604669E+02  0.00000000000E+00 0. -1.
         11    1    3    3    0    0 -0.89440752262E+01 -0.20350339867E+02 -0.11407983936E+02  0.24985494033E+02  0.51100000000E-03 0. -1.
        -11    1    3    3    0    0  0.76053620818E+01  0.28360896889E+00  0.12060686806E+02  0.14261210781E+02  0.51100000000E-03 0.  1.
        -12    1    3    3    0    0 -0.43572223010E+01  0.28599196834E+02 -0.16319197910E+02  0.33214690518E+02  0.00000000000E+00 0.  1.
</event>
<event>
 7    1  0.2944263E-013  0.7246216E+02  0.7816164E-02  0.1226706E+00
        -11   -1    0    0    0    0  0.00000000000E+00  0.00000000000E+00  0.45593999997E+02  0.45594000000E+02  0.51100000000E-03 0.  1.
         11   -1    0    0    0    0 -0.00000000000E+00 -0.00000000000E+00 -0.45593999997E+02  0.45594000000E+02  0.51100000000E-03 0. -1.
    9900012    2    1    2    0    0  0.16917161666E+02 -0.63974982731E+01  0.48516920681E+01  0.72462155322E+02  0.70000762103E+02 0.  0.
         12    1    1    2    0    0 -0.16917161666E+02  0.63974982731E+01 -0.48516920681E+01  0.18725844678E+02  0.00000000000E+00 0. -1.
         11    1    3    3    0    0 -0.27075271372E+01 -0.52927753745E+00 -0.11071741511E+02  0.11410271612E+02  0.51100000000E-03 0. -1.
        -11    1    3    3    0    0  0.11146222834E+01 -0.16480585185E+02 -0.15775434355E+02  0.22841112061E+02  0.51100000000E-03 0.  1.
        -12    1    3    3    0    0  0.18510066520E+02  0.10612364449E+02  0.31698867933E+02  0.38210771649E+02  0.00000000000E+00 0.  1.
</event>
<event>
 7    1  0.2944263E-013  0.7246154E+02  0.7816164E-02  0.1226708E+00
        -11   -1    0    0    0    0  0.00000000000E+00  0.00000000000E+00  0.45593999997E+02  0.45594000000E+02  0.51100000000E-03 0. -1.
         11   -1    0    0    0    0 -0.00000000000E+00 -0.00000000000E+00 -0.45593999997E+02  0.45594000000E+02  0.51100000000E-03 0.  1.
    9900012    2    1    2    0    0 -0.11651798414E+02 -0.35345797874E+01 -0.14227525272E+02  0.72461544491E+02  0.69999966387E+02 0.  0.
         12    1    1    2    0    0  0.11651798414E+02  0.35345797874E+01  0.14227525272E+02  0.18726455509E+02  0.00000000000E+00 0. -1.
         11    1    3    3    0    0 -0.21905977797E+02 -0.13340566009E+01  0.14621728837E+01  0.21995215845E+02  0.51100000000E-03 0. -1.
        -11    1    3    3    0    0 -0.31833515022E+01 -0.12965278625E+02 -0.26823691669E+02  0.29962353239E+02  0.51100000000E-03 0.  1.
        -12    1    3    3    0    0  0.13437530886E+02  0.10764755438E+02  0.11133993513E+02  0.20503975407E+02  0.00000000000E+00 0.  1.
</event>
<event>
 7    1  0.2944263E-013  0.7246156E+02  0.7816164E-02  0.1226708E+00
        -11   -1    0    0    0    0  0.00000000000E+00  0.00000000000E+00  0.45593999997E+02  0.45594000000E+02  0.51100000000E-03 0.  1.
         11   -1    0    0    0    0 -0.00000000000E+00 -0.00000000000E+00 -0.45593999997E+02  0.45594000000E+02  0.51100000000E-03 0. -1.
    9900012    2    1    2    0    0  0.17911703938E+02 -0.53926659544E+01  0.87720930815E+00  0.72461561998E+02  0.69999989193E+02 0.  0.
         12    1    1    2    0    0 -0.17911703938E+02  0.53926659544E+01 -0.87720930815E+00  0.18726438002E+02  0.00000000000E+00 0. -1.
         11    1    3    3    0    0  0.12904074543E+02  0.26195273965E+01 -0.11134527119E+02  0.17243977442E+02  0.51100000000E-03 0. -1.
        -11    1    3    3    0    0  0.24471006447E+02  0.82426217455E+01 -0.25971985935E+01  0.25952194716E+02  0.51100000000E-03 0.  1.
         12    1    3    3    0    0 -0.19463377051E+02 -0.16254815096E+02  0.14608935021E+02  0.29265389840E+02  0.00000000000E+00 0. -1.
</event>
<event>
 7    1  0.2944263E-013  0.7246159E+02  0.7816164E-02  0.1226708E+00
        -11   -1    0    0    0    0  0.00000000000E+00  0.00000000000E+00  0.45593999997E+02  0.45594000000E+02  0.51100000000E-03 0. -1.
         11   -1    0    0    0    0 -0.00000000000E+00 -0.00000000000E+00 -0.45593999997E+02  0.45594000000E+02  0.51100000000E-03 0.  1.
    9900012    2    1    2    0    0 -0.54418507141E+01  0.39488249495E+00 -0.17913926169E+02  0.72461590249E+02  0.70000025995E+02 0.  0.
         12    1    1    2    0    0  0.54418507141E+01 -0.39488249495E+00  0.17913926169E+02  0.18726409751E+02  0.00000000000E+00 0. -1.
         11    1    3    3    0    0  0.31920277793E+01 -0.41302911597E+01 -0.15393661743E+02  0.16254635293E+02  0.51100000000E-03 0. -1.
        -11    1    3    3    0    0  0.14586422351E+02  0.61108707153E+01 -0.21140131854E+02  0.26400977879E+02  0.51100000000E-03 0.  1.
         12    1    3    3    0    0 -0.23220300844E+02 -0.15856970606E+01  0.18619867428E+02  0.29805977077E+02  0.00000000000E+00 0. -1.
</event>
<event>
 7    1  0.2944263E-013  0.7246147E+02  0.7816164E-02  0.1226708E+00
        -11   -1    0    0    0    0  0.00000000000E+00  0.00000000000E+00  0.45593999997E+02  0.45594000000E+02  0.51100000000E-03 0. -1.
         11   -1    0    0    0    0 -0.00000000000E+00 -0.00000000000E+00 -0.45593999997E+02  0.45594000000E+02  0.51100000000E-03 0.  1.
    9900012    2    1    2    0    0  0.17578674656E+02 -0.64307968292E+01  0.56381179483E+00  0.72461472445E+02  0.69999872534E+02 0.  0.
         12    1    1    2    0    0 -0.17578674656E+02  0.64307968292E+01 -0.56381179483E+00  0.18726527555E+02  0.00000000000E+00 0. -1.
         11    1    3    3    0    0  0.10584694493E+02  0.24995702641E+01  0.88045005471E+01  0.13992956770E+02  0.51100000000E-03 0. -1.
        -11    1    3    3    0    0  0.11424788392E+02 -0.30999493576E+02 -0.12926239076E+02  0.35476499950E+02  0.51100000000E-03 0.  1.
         12    1    3    3    0    0 -0.44308082297E+01  0.22069126483E+02  0.46855503240E+01  0.22992015726E+02  0.00000000000E+00 0. -1.
</event>
<event>
 7    1  0.2944263E-013  0.7246133E+02  0.7816164E-02  0.1226709E+00
        -11   -1    0    0    0    0  0.00000000000E+00  0.00000000000E+00  0.45593999997E+02  0.45594000000E+02  0.51100000000E-03 0.  1.
         11   -1    0    0    0    0 -0.00000000000E+00 -0.00000000000E+00 -0.45593999997E+02  0.45594000000E+02  0.51100000000E-03 0. -1.
    9900012    2    1    2    0    0  0.13709506104E+02  0.12179570973E+02  0.37941813638E+01  0.72461326005E+02  0.69999681767E+02 0.  0.
         12    1    1    2    0    0 -0.13709506104E+02 -0.12179570973E+02 -0.37941813638E+01  0.18726673995E+02  0.00000000000E+00 0. -1.
         11    1    3    3    0    0 -0.16932590693E+02  0.12111338000E+02 -0.30672108326E+01  0.21042930364E+02  0.51100000000E-03 0. -1.
        -11    1    3    3    0    0 -0.66431454334E+01 -0.60679015858E+01  0.10060011686E+02  0.13496467919E+02  0.51100000000E-03 0.  1.
         12    1    3    3    0    0  0.37285242231E+02  0.61361345588E+01 -0.31986194895E+01  0.37921927722E+02  0.00000000000E+00 0. -1.
</event>
<event>
 7    1  0.2944263E-013  0.7246164E+02  0.7816164E-02  0.1226708E+00
        -11   -1    0    0    0    0  0.00000000000E+00  0.00000000000E+00  0.45593999997E+02  0.45594000000E+02  0.51100000000E-03 0.  1.
         11   -1    0    0    0    0 -0.00000000000E+00 -0.00000000000E+00 -0.45593999997E+02  0.45594000000E+02  0.51100000000E-03 0. -1.
    9900012    2    1    2    0    0 -0.13967013681E+02  0.51290647994E+01  0.11370650844E+02  0.72461642172E+02  0.70000093634E+02 0.  0.
         12    1    1    2    0    0  0.13967013681E+02 -0.51290647994E+01 -0.11370650844E+02  0.18726357828E+02  0.00000000000E+00 0. -1.
         11    1    3    3    0    0 -0.30114543625E+02 -0.12143357205E+02  0.65133061525E+01  0.33117518314E+02  0.51100000000E-03 0. -1.
        -11    1    3    3    0    0 -0.32524449281E+01  0.11294638170E+02 -0.89672561810E+01  0.14783738806E+02  0.51100000000E-03 0.  1.
        -12    1    3    3    0    0  0.19399974872E+02  0.59777838348E+01  0.13824600873E+02  0.24560385052E+02  0.00000000000E+00 0.  1.
</event>
<event>
 7    1  0.2944263E-013  0.7246158E+02  0.7816164E-02  0.1226708E+00
        -11   -1    0    0    0    0  0.00000000000E+00  0.00000000000E+00  0.45593999997E+02  0.45594000000E+02  0.51100000000E-03 0.  1.
         11   -1    0    0    0    0 -0.00000000000E+00 -0.00000000000E+00 -0.45593999997E+02  0.45594000000E+02  0.51100000000E-03 0. -1.
    9900012    2    1    2    0    0  0.96429491990E+01 -0.54867909094E+01  0.15086002864E+02  0.72461579463E+02  0.70000011944E+02 0.  0.
         12    1    1    2    0    0 -0.96429491990E+01  0.54867909094E+01 -0.15086002864E+02  0.18726420537E+02  0.00000000000E+00 0. -1.
         11    1    3    3    0    0  0.51992770752E+01  0.94943342473E+01 -0.18831343765E+02  0.21720828096E+02  0.51100000000E-03 0. -1.
        -11    1    3    3    0    0 -0.44593587644E+01 -0.23152480200E+01 -0.60589393255E+01  0.78712768974E+01  0.51100000000E-03 0.  1.
        -12    1    3    3    0    0  0.89030308882E+01 -0.12665877137E+02  0.39976285954E+02  0.42869474470E+02  0.00000000000E+00 0.  1.
</event>
<event>
 7    1  0.2944263E-013  0.7246159E+02  0.7816164E-02  0.1226708E+00
        -11   -1    0    0    0    0  0.00000000000E+00  0.00000000000E+00  0.45593999997E+02  0.45594000000E+02  0.51100000000E-03 0. -1.
         11   -1    0    0    0    0 -0.00000000000E+00 -0.00000000000E+00 -0.45593999997E+02  0.45594000000E+02  0.51100000000E-03 0.  1.
    9900012    2    1    2    0    0 -0.12124005532E+02 -0.13732757910E+02  0.38856295663E+01  0.72461594390E+02  0.70000031389E+02 0.  0.
         12    1    1    2    0    0  0.12124005532E+02  0.13732757910E+02 -0.38856295663E+01  0.18726405610E+02  0.00000000000E+00 0. -1.
         11    1    3    3    0    0 -0.44674633912E+01 -0.29682599045E+02 -0.85747268003E-01  0.30017032965E+02  0.51100000000E-03 0.  1.
        -11    1    3    3    0    0  0.11614656453E+02  0.17071845541E+02 -0.48662630332E+01  0.21213879204E+02  0.51100000000E-03 0. -1.
         12    1    3    3    0    0 -0.19271198594E+02 -0.11220044062E+01  0.88376398676E+01  0.21230682221E+02  0.00000000000E+00 0. -1.
</event>
<event>
 7    1  0.2944263E-013  0.7246160E+02  0.7816164E-02  0.1226708E+00
        -11   -1    0    0    0    0  0.00000000000E+00  0.00000000000E+00  0.45593999997E+02  0.45594000000E+02  0.51100000000E-03 0. -1.
         11   -1    0    0    0    0 -0.00000000000E+00 -0.00000000000E+00 -0.45593999997E+02  0.45594000000E+02  0.51100000000E-03 0.  1.
    9900012    2    1    2    0    0  0.67337822413E+00 -0.11999969659E+02  0.14360546727E+02  0.72461601191E+02  0.70000040248E+02 0.  0.
         12    1    1    2    0    0 -0.67337822413E+00  0.11999969659E+02 -0.14360546727E+02  0.18726398809E+02  0.00000000000E+00 0. -1.
         11    1    3    3    0    0 -0.10488632545E+02 -0.17936062414E+01 -0.53802530455E+01  0.11923739309E+02  0.51100000000E-03 0. -1.
        -11    1    3    3    0    0  0.16743422389E+02 -0.48559509706E+01 -0.16185806180E+02  0.23788711085E+02  0.51100000000E-03 0.  1.
         12    1    3    3    0    0 -0.55814116199E+01 -0.53504124473E+01  0.35926605953E+02  0.36749150797E+02  0.00000000000E+00 0. -1.
</event>
<event>
 7    1  0.2944263E-013  0.7246156E+02  0.7816164E-02  0.1226708E+00
        -11   -1    0    0    0    0  0.00000000000E+00  0.00000000000E+00  0.45593999997E+02  0.45594000000E+02  0.51100000000E-03 0.  1.
         11   -1    0    0    0    0 -0.00000000000E+00 -0.00000000000E+00 -0.45593999997E+02  0.45594000000E+02  0.51100000000E-03 0. -1.
    9900012    2    1    2    0    0  0.16311484673E+02  0.86056166845E+01  0.32493482161E+01  0.72461563217E+02  0.69999990780E+02 0.  0.
         12    1    1    2    0    0 -0.16311484673E+02 -0.86056166845E+01 -0.32493482161E+01  0.18726436783E+02  0.00000000000E+00 0. -1.
         11    1    3    3    0    0  0.29292719252E+02 -0.29399146118E+01 -0.10679019667E+02  0.31316895766E+02  0.51100000000E-03 0. -1.
        -11    1    3    3    0    0  0.54834605673E+01 -0.41425782530E+01  0.15406995873E+02  0.16870234630E+02  0.51100000000E-03 0.  1.
         12    1    3    3    0    0 -0.18464695146E+02  0.15688109549E+02 -0.14786279900E+01  0.24274432821E+02  0.00000000000E+00 0. -1.
</event>
<event>
 7    1  0.2944263E-013  0.7246148E+02  0.7816164E-02  0.1226708E+00
        -11   -1    0    0    0    0  0.00000000000E+00  0.00000000000E+00  0.45593999997E+02  0.45594000000E+02  0.51100000000E-03 0. -1.
         11   -1    0    0    0    0 -0.00000000000E+00 -0.00000000000E+00 -0.45593999997E+02  0.45594000000E+02  0.51100000000E-03 0.  1.
    9900012    2    1    2    0    0  0.90890238279E+01 -0.15458879446E+02  0.53940166042E+01  0.72461475416E+02  0.69999876403E+02 0.  0.
         12    1    1    2    0    0 -0.90890238279E+01  0.15458879446E+02 -0.53940166042E+01  0.18726524584E+02  0.00000000000E+00 0. -1.
         11    1    3    3    0    0 -0.38849496093E+01  0.17361650092E+02 -0.82644697273E+01  0.19616859777E+02  0.51100000000E-03 0. -1.
        -11    1    3    3    0    0 -0.85942306562E+01 -0.10910980720E+02 -0.72467466021E+01  0.15666066431E+02  0.51100000000E-03 0.  1.
        -12    1    3    3    0    0  0.21568204093E+02 -0.21909548818E+02  0.20905232934E+02  0.37178549208E+02  0.00000000000E+00 0.  1.
</event>
<event>
 7    1  0.2944263E-013  0.7246155E+02  0.7816164E-02  0.1226708E+00
        -11   -1    0    0    0    0  0.00000000000E+00  0.00000000000E+00  0.45593999997E+02  0.45594000000E+02  0.51100000000E-03 0.  1.
         11   -1    0    0    0    0 -0.00000000000E+00 -0.00000000000E+00 -0.45593999997E+02  0.45594000000E+02  0.51100000000E-03 0. -1.
    9900012    2    1    2    0    0 -0.22215828349E+01  0.18567002577E+02  0.10054058384E+01  0.72461551969E+02  0.69999976127E+02 0.  0.
         12    1    1    2    0    0  0.22215828349E+01 -0.18567002577E+02 -0.10054058384E+01  0.18726448031E+02  0.00000000000E+00 0. -1.
         11    1    3    3    0    0 -0.57018642525E+01  0.20158325528E+02 -0.65118158807E+01  0.21937937240E+02  0.51100000000E-03 0. -1.
        -11    1    3    3    0    0  0.32879523740E+01  0.12798897209E+02 -0.17339714131E+02  0.21801102885E+02  0.51100000000E-03 0.  1.
        -12    1    3    3    0    0  0.19232904363E+00 -0.14390220160E+02  0.24856935850E+02  0.28722511843E+02  0.00000000000E+00 0.  1.
</event>
<event>
 7    1  0.2944263E-013  0.7246160E+02  0.7816164E-02  0.1226708E+00
        -11   -1    0    0    0    0  0.00000000000E+00  0.00000000000E+00  0.45593999997E+02  0.45594000000E+02  0.51100000000E-03 0. -1.
         11   -1    0    0    0    0 -0.00000000000E+00 -0.00000000000E+00 -0.45593999997E+02  0.45594000000E+02  0.51100000000E-03 0.  1.
    9900012    2    1    2    0    0  0.73283764844E+01 -0.16343574963E+02 -0.54644612117E+01  0.72461604703E+02  0.70000044824E+02 0.  0.
         12    1    1    2    0    0 -0.73283764844E+01  0.16343574963E+02  0.54644612117E+01  0.18726395297E+02  0.00000000000E+00 0. -1.
         11    1    3    3    0    0 -0.51533163962E+01 -0.76513888745E+01 -0.41462723592E+01  0.10113950580E+02  0.51100000000E-03 0. -1.
        -11    1    3    3    0    0  0.34880539851E+02 -0.10753783942E+02  0.90101013613E+01  0.37596247900E+02  0.51100000000E-03 0.  1.
         12    1    3    3    0    0 -0.22398846970E+02  0.20615978528E+01 -0.10328290214E+02  0.24751406224E+02  0.00000000000E+00 0. -1.
</event>
<event>
 7    1  0.2944263E-013  0.7246155E+02  0.7816164E-02  0.1226708E+00
        -11   -1    0    0    0    0  0.00000000000E+00  0.00000000000E+00  0.45593999997E+02  0.45594000000E+02  0.51100000000E-03 0.  1.
         11   -1    0    0    0    0 -0.00000000000E+00 -0.00000000000E+00 -0.45593999997E+02  0.45594000000E+02  0.51100000000E-03 0. -1.
    9900012    2    1    2    0    0  0.87982846421E+01  0.34850671947E+01  0.16159346253E+02  0.72461548726E+02  0.69999971904E+02 0.  0.
         12    1    1    2    0    0 -0.87982846421E+01 -0.34850671947E+01 -0.16159346253E+02  0.18726451274E+02  0.00000000000E+00 0. -1.
         11    1    3    3    0    0 -0.14152332992E+02 -0.14970459014E+00  0.37671139591E+01  0.14645889814E+02  0.51100000000E-03 0. -1.
        -11    1    3    3    0    0  0.39557848398E+01 -0.22650227804E+02  0.10647631667E+02  0.25338767011E+02  0.51100000000E-03 0.  1.
         12    1    3    3    0    0  0.18994832795E+02  0.26284999588E+02  0.17446006264E+01  0.32476891902E+02  0.00000000000E+00 0. -1.
</event>
<event>
 7    1  0.2944263E-013  0.7246156E+02  0.7816164E-02  0.1226708E+00
        -11   -1    0    0    0    0  0.00000000000E+00  0.00000000000E+00  0.45593999997E+02  0.45594000000E+02  0.51100000000E-03 0. -1.
         11   -1    0    0    0    0 -0.00000000000E+00 -0.00000000000E+00 -0.45593999997E+02  0.45594000000E+02  0.51100000000E-03 0.  1.
    9900012    2    1    2    0    0  0.15770646846E+02 -0.97522335308E+01 -0.26192135162E+01  0.72461557726E+02  0.69999983628E+02 0.  0.
         12    1    1    2    0    0 -0.15770646846E+02  0.97522335308E+01  0.26192135162E+01  0.18726442274E+02  0.00000000000E+00 0. -1.
         11    1    3    3    0    0  0.15154908336E+02 -0.18825861126E+02 -0.89773297899E+01  0.25781325494E+02  0.51100000000E-03 0. -1.
        -11    1    3    3    0    0 -0.93497335995E+01 -0.22487711225E+01 -0.16615484572E+02  0.19197625316E+02  0.51100000000E-03 0.  1.
         12    1    3    3    0    0  0.99654721096E+01  0.11322398718E+02  0.22973600846E+02  0.27482606916E+02  0.00000000000E+00 0. -1.
</event>
<event>
 7    1  0.2944263E-013  0.7246155E+02  0.7816164E-02  0.1226708E+00
        -11   -1    0    0    0    0  0.00000000000E+00  0.00000000000E+00  0.45593999997E+02  0.45594000000E+02  0.51100000000E-03 0.  1.
         11   -1    0    0    0    0 -0.00000000000E+00 -0.00000000000E+00 -0.45593999997E+02  0.45594000000E+02  0.51100000000E-03 0. -1.
    9900012    2    1    2    0    0 -0.79079218188E+01 -0.16685486448E+02 -0.31207599206E+01  0.72461552714E+02  0.69999977098E+02 0.  0.
         12    1    1    2    0    0  0.79079218188E+01  0.16685486448E+02  0.31207599206E+01  0.18726447286E+02  0.00000000000E+00 0. -1.
         11    1    3    3    0    0 -0.31687738181E+01  0.51279703822E+01  0.15007721183E+01  0.62120467612E+01  0.51100000000E-03 0. -1.
        -11    1    3    3    0    0 -0.20833157084E+02  0.44546890058E+01  0.18112399890E+02  0.27962898960E+02  0.51100000000E-03 0.  1.
         12    1    3    3    0    0  0.16094009084E+02 -0.26268145836E+02 -0.22733931929E+02  0.38286606992E+02  0.00000000000E+00 0. -1.
</event>
<event>
 7    1  0.2944263E-013  0.7246158E+02  0.7816164E-02  0.1226708E+00
        -11   -1    0    0    0    0  0.00000000000E+00  0.00000000000E+00  0.45593999997E+02  0.45594000000E+02  0.51100000000E-03 0. -1.
         11   -1    0    0    0    0 -0.00000000000E+00 -0.00000000000E+00 -0.45593999997E+02  0.45594000000E+02  0.51100000000E-03 0.  1.
    9900012    2    1    2    0    0  0.41162332847E+01 -0.74785382985E+01 -0.16667537655E+02  0.72461582216E+02  0.70000015530E+02 0.  0.
         12    1    1    2    0    0 -0.41162332847E+01  0.74785382985E+01  0.16667537655E+02  0.18726417784E+02  0.00000000000E+00 0. -1.
         11    1    3    3    0    0  0.13044014329E+02  0.48428364804E+00  0.14099746651E+02  0.19214153543E+02  0.51100000000E-03 0. -1.
        -11    1    3    3    0    0  0.47999844570E+00  0.58348070055E+01  0.86462954532E+01  0.10441924948E+02  0.51100000000E-03 0.  1.
         12    1    3    3    0    0 -0.94077794905E+01 -0.13797628952E+02 -0.39413579760E+02  0.42805503725E+02  0.00000000000E+00 0. -1.
</event>
<event>
 7    1  0.2944263E-013  0.7246161E+02  0.7816164E-02  0.1226708E+00
        -11   -1    0    0    0    0  0.00000000000E+00  0.00000000000E+00  0.45593999997E+02  0.45594000000E+02  0.51100000000E-03 0. -1.
         11   -1    0    0    0    0 -0.00000000000E+00 -0.00000000000E+00 -0.45593999997E+02  0.45594000000E+02  0.51100000000E-03 0.  1.
    9900012    2    1    2    0    0  0.16426497659E+02  0.87563186214E+00 -0.89488052852E+01  0.72461610264E+02  0.70000052068E+02 0.  0.
         12    1    1    2    0    0 -0.16426497659E+02 -0.87563186214E+00  0.89488052852E+01  0.18726389736E+02  0.00000000000E+00 0. -1.
         11    1    3    3    0    0 -0.12553344840E+01  0.63483157966E+00 -0.74402490503E+00  0.15913670606E+01  0.51100000000E-03 0. -1.
        -11    1    3    3    0    0  0.26357138470E+02 -0.77080706791E+01 -0.33294646092E+02  0.43158389226E+02  0.51100000000E-03 0.  1.
         12    1    3    3    0    0 -0.86753063264E+01  0.79488709616E+01  0.25089865712E+02  0.27711853978E+02  0.00000000000E+00 0. -1.
</event>
<event>
 7    1  0.2944263E-013  0.7246155E+02  0.7816164E-02  0.1226708E+00
        -11   -1    0    0    0    0  0.00000000000E+00  0.00000000000E+00  0.45593999997E+02  0.45594000000E+02  0.51100000000E-03 0.  1.
         11   -1    0    0    0    0 -0.00000000000E+00 -0.00000000000E+00 -0.45593999997E+02  0.45594000000E+02  0.51100000000E-03 0. -1.
    9900012    2    1    2    0    0  0.12383422024E+02  0.13422493399E+02  0.41433547590E+01  0.72461551892E+02  0.69999976028E+02 0.  0.
         12    1    1    2    0    0 -0.12383422024E+02 -0.13422493399E+02 -0.41433547590E+01  0.18726448108E+02  0.00000000000E+00 0. -1.
         11    1    3    3    0    0 -0.35129830404E+00 -0.23110431547E+02  0.10954192405E+02  0.25577525061E+02  0.51100000000E-03 0. -1.
        -11    1    3    3    0    0  0.88705642831E+01 -0.91195629596E-01  0.18269228462E+01  0.90572001573E+01  0.51100000000E-03 0.  1.
        -12    1    3    3    0    0  0.38641560452E+01  0.36624120575E+02 -0.86377604918E+01  0.37826826673E+02  0.00000000000E+00 0.  1.
</event>
<event>
 7    1  0.2944263E-013  0.7246156E+02  0.7816164E-02  0.1226708E+00
        -11   -1    0    0    0    0  0.00000000000E+00  0.00000000000E+00  0.45593999997E+02  0.45594000000E+02  0.51100000000E-03 0.  1.
         11   -1    0    0    0    0 -0.00000000000E+00 -0.00000000000E+00 -0.45593999997E+02  0.45594000000E+02  0.51100000000E-03 0. -1.
    9900012    2    1    2    0    0 -0.13873831932E+02  0.46067682298E+01  0.11703585251E+02  0.72461563240E+02  0.69999990810E+02 0.  0.
         12    1    1    2    0    0  0.13873831932E+02 -0.46067682298E+01 -0.11703585251E+02  0.18726436760E+02  0.00000000000E+00 0. -1.
         11    1    3    3    0    0  0.83645234464E+01 -0.16191542942E+02 -0.30908940570E+01  0.18484721844E+02  0.51100000000E-03 0. -1.
        -11    1    3    3    0    0  0.52263289394E+01  0.24097032310E+01 -0.10756970695E+02  0.12199737810E+02  0.51100000000E-03 0.  1.
        -12    1    3    3    0    0 -0.27464684318E+02  0.18388607941E+02  0.25551450004E+02  0.41777103585E+02  0.00000000000E+00 0.  1.
</event>
<event>
 7    1  0.2944263E-013  0.7246185E+02  0.7816164E-02  0.1226707E+00
        -11   -1    0    0    0    0  0.00000000000E+00  0.00000000000E+00  0.45593999997E+02  0.45594000000E+02  0.51100000000E-03 0.  1.
         11   -1    0    0    0    0 -0.00000000000E+00 -0.00000000000E+00 -0.45593999997E+02  0.45594000000E+02  0.51100000000E-03 0. -1.
    9900012    2    1    2    0    0 -0.13617618692E+02 -0.86812619030E+01  0.94797028835E+01  0.72461852136E+02  0.70000367150E+02 0.  0.
         12    1    1    2    0    0  0.13617618692E+02  0.86812619030E+01 -0.94797028835E+01  0.18726147864E+02  0.00000000000E+00 0. -1.
         11    1    3    3    0    0  0.13496794183E+02 -0.14593022456E+02  0.13485569612E+02  0.24020415185E+02  0.51100000000E-03 0. -1.
        -11    1    3    3    0    0  0.11517089823E+01  0.44038551435E+01  0.14115593530E+02  0.14831397596E+02  0.51100000000E-03 0.  1.
         12    1    3    3    0    0 -0.28266121857E+02  0.15079054097E+01 -0.18121460258E+02  0.33610039355E+02  0.00000000000E+00 0. -1.
</event>
<event>
 7    1  0.2944263E-013  0.7246153E+02  0.7816164E-02  0.1226708E+00
        -11   -1    0    0    0    0  0.00000000000E+00  0.00000000000E+00  0.45593999997E+02  0.45594000000E+02  0.51100000000E-03 0. -1.
         11   -1    0    0    0    0 -0.00000000000E+00 -0.00000000000E+00 -0.45593999997E+02  0.45594000000E+02  0.51100000000E-03 0.  1.
    9900012    2    1    2    0    0 -0.68176878507E+01  0.14591929508E+02 -0.95538085409E+01  0.72461533915E+02  0.69999952609E+02 0.  0.
         12    1    1    2    0    0  0.68176878507E+01 -0.14591929508E+02  0.95538085409E+01  0.18726466085E+02  0.00000000000E+00 0. -1.
         11    1    3    3    0    0 -0.45237081333E+01 -0.11444915157E+02  0.59116020644E+01  0.13652730769E+02  0.51100000000E-03 0. -1.
        -11    1    3    3    0    0  0.10354498571E+02  0.43310614809E+01  0.15372063597E+02  0.19033498725E+02  0.51100000000E-03 0.  1.
        -12    1    3    3    0    0 -0.12648478289E+02  0.21705783184E+02 -0.30837474202E+02  0.39775304421E+02  0.00000000000E+00 0.  1.
</event>
<event>
 7    1  0.2944263E-013  0.7246159E+02  0.7816164E-02  0.1226708E+00
        -11   -1    0    0    0    0  0.00000000000E+00  0.00000000000E+00  0.45593999997E+02  0.45594000000E+02  0.51100000000E-03 0.  1.
         11   -1    0    0    0    0 -0.00000000000E+00 -0.00000000000E+00 -0.45593999997E+02  0.45594000000E+02  0.51100000000E-03 0. -1.
    9900012    2    1    2    0    0 -0.50237865988E+01  0.68910657342E+01  0.16671932073E+02  0.72461587162E+02  0.70000021973E+02 0.  0.
         12    1    1    2    0    0  0.50237865988E+01 -0.68910657342E+01 -0.16671932073E+02  0.18726412838E+02  0.00000000000E+00 0. -1.
         11    1    3    3    0    0  0.16502910357E+02  0.20075235527E+02  0.28437879477E+02  0.38523682601E+02  0.51100000000E-03 0. -1.
        -11    1    3    3    0    0  0.36332314481E+01 -0.23652231597E+01 -0.26110807511E+01  0.50608689274E+01  0.51100000000E-03 0.  1.
        -12    1    3    3    0    0 -0.25159928404E+02 -0.10818946633E+02 -0.91548666530E+01  0.28877035633E+02  0.00000000000E+00 0.  1.
</event>
<event>
 7    1  0.2944263E-013  0.7246155E+02  0.7816164E-02  0.1226708E+00
        -11   -1    0    0    0    0  0.00000000000E+00  0.00000000000E+00  0.45593999997E+02  0.45594000000E+02  0.51100000000E-03 0. -1.
         11   -1    0    0    0    0 -0.00000000000E+00 -0.00000000000E+00 -0.45593999997E+02  0.45594000000E+02  0.51100000000E-03 0.  1.
    9900012    2    1    2    0    0  0.11512847357E+02 -0.11871494758E+02  0.87864595524E+01  0.72461550430E+02  0.69999974123E+02 0.  0.
         12    1    1    2    0    0 -0.11512847357E+02  0.11871494758E+02 -0.87864595524E+01  0.18726449570E+02  0.00000000000E+00 0. -1.
         11    1    3    3    0    0  0.29854064572E+02 -0.12309339251E+01 -0.16873494777E+02  0.34314649875E+02  0.51100000000E-03 0.  1.
        -11    1    3    3    0    0 -0.12953387472E+02 -0.14192286754E+02  0.11026885522E+02  0.22154084383E+02  0.51100000000E-03 0. -1.
        -12    1    3    3    0    0 -0.53878297440E+01  0.35517259209E+01  0.14633068807E+02  0.15992816171E+02  0.00000000000E+00 0.  1.
</event>
<event>
 7    1  0.2944263E-013  0.7246167E+02  0.7816164E-02  0.1226708E+00
        -11   -1    0    0    0    0  0.00000000000E+00  0.00000000000E+00  0.45593999997E+02  0.45594000000E+02  0.51100000000E-03 0. -1.
         11   -1    0    0    0    0 -0.00000000000E+00 -0.00000000000E+00 -0.45593999997E+02  0.45594000000E+02  0.51100000000E-03 0.  1.
    9900012    2    1    2    0    0  0.17892524350E+01 -0.80661178207E+01 -0.16805106301E+02  0.72461674178E+02  0.70000135328E+02 0.  0.
         12    1    1    2    0    0 -0.17892524350E+01  0.80661178207E+01  0.16805106301E+02  0.18726325822E+02  0.00000000000E+00 0. -1.
         11    1    3    3    0    0  0.41533553278E+01 -0.18903017097E+02 -0.10398867134E+02  0.21970681687E+02  0.51100000000E-03 0. -1.
        -11    1    3    3    0    0  0.76600171529E+00 -0.19228977628E+02  0.13244188327E+01  0.19289749215E+02  0.51100000000E-03 0.  1.
        -12    1    3    3    0    0 -0.31301046081E+01  0.30065876905E+02 -0.77306580003E+01  0.31201243277E+02  0.00000000000E+00 0.  1.
</event>
<event>
 7    1  0.2944263E-013  0.7246155E+02  0.7816164E-02  0.1226708E+00
        -11   -1    0    0    0    0  0.00000000000E+00  0.00000000000E+00  0.45593999997E+02  0.45594000000E+02  0.51100000000E-03 0.  1.
         11   -1    0    0    0    0 -0.00000000000E+00 -0.00000000000E+00 -0.45593999997E+02  0.45594000000E+02  0.51100000000E-03 0. -1.
    9900012    2    1    2    0    0  0.53968320519E+01 -0.44331157563E+01  0.17375320480E+02  0.72461546164E+02  0.69999968566E+02 0.  0.
         12    1    1    2    0    0 -0.53968320519E+01  0.44331157563E+01 -0.17375320480E+02  0.18726453836E+02  0.00000000000E+00 0. -1.
         11    1    3    3    0    0  0.33132398788E+01 -0.23694844698E+01  0.54870010085E+00  0.41101200966E+01  0.51100000000E-03 0. -1.
        -11    1    3    3    0    0 -0.19815201790E+02  0.23332500028E+01  0.34510258717E+02  0.39862817695E+02  0.51100000000E-03 0.  1.
         12    1    3    3    0    0  0.21898793963E+02 -0.43968812893E+01 -0.17683638338E+02  0.28488608373E+02  0.00000000000E+00 0. -1.
</event>
<event>
 7    1  0.2944263E-013  0.7246142E+02  0.7816164E-02  0.1226708E+00
        -11   -1    0    0    0    0  0.00000000000E+00  0.00000000000E+00  0.45593999997E+02  0.45594000000E+02  0.51100000000E-03 0.  1.
         11   -1    0    0    0    0 -0.00000000000E+00 -0.00000000000E+00 -0.45593999997E+02  0.45594000000E+02  0.51100000000E-03 0. -1.
    9900012    2    1    2    0    0  0.81040947749E+01 -0.16473593114E+02  0.36917961855E+01  0.72461415119E+02  0.69999797855E+02 0.  0.
         12    1    1    2    0    0 -0.81040947749E+01  0.16473593114E+02 -0.36917961855E+01  0.18726584881E+02  0.00000000000E+00 0. -1.
         11    1    3    3    0    0 -0.16971553428E+02  0.23962309953E+01  0.41587088526E+01  0.17637188221E+02  0.51100000000E-03 0. -1.
        -11    1    3    3    0    0  0.95878285600E+00  0.12014762511E+02  0.83456642569E+01  0.14660282907E+02  0.51100000000E-03 0.  1.
         12    1    3    3    0    0  0.24116865347E+02 -0.30884586621E+02 -0.88125769240E+01  0.40163943991E+02  0.00000000000E+00 0. -1.
</event>
<event>
 7    1  0.2944263E-013  0.7246155E+02  0.7816164E-02  0.1226708E+00
        -11   -1    0    0    0    0  0.00000000000E+00  0.00000000000E+00  0.45593999997E+02  0.45594000000E+02  0.51100000000E-03 0.  1.
         11   -1    0    0    0    0 -0.00000000000E+00 -0.00000000000E+00 -0.45593999997E+02  0.45594000000E+02  0.51100000000E-03 0. -1.
    9900012    2    1    2    0    0 -0.11550200763E+02  0.13343647783E+02  0.62625656441E+01  0.72461553400E+02  0.69999977992E+02 0.  0.
         12    1    1    2    0    0  0.11550200763E+02 -0.13343647783E+02 -0.62625656441E+01  0.18726446600E+02  0.00000000000E+00 0. -1.
         11    1    3    3    0    0 -0.94404812528E+01  0.29330364449E+02 -0.17343472444E+02  0.35358011846E+02  0.51100000000E-03 0. -1.
        -11    1    3    3    0    0  0.94902051628E+01 -0.94071335449E+01  0.51215291491E+01  0.14310423357E+02  0.51100000000E-03 0.  1.
        -12    1    3    3    0    0 -0.11599924673E+02 -0.65795831219E+01  0.18484508939E+02  0.22793118198E+02  0.00000000000E+00 0.  1.
</event>
<event>
 7    1  0.2944263E-013  0.7246155E+02  0.7816164E-02  0.1226708E+00
        -11   -1    0    0    0    0  0.00000000000E+00  0.00000000000E+00  0.45593999997E+02  0.45594000000E+02  0.51100000000E-03 0.  1.
         11   -1    0    0    0    0 -0.00000000000E+00 -0.00000000000E+00 -0.45593999997E+02  0.45594000000E+02  0.51100000000E-03 0. -1.
    9900012    2    1    2    0    0 -0.82620267863E+01 -0.43357930021E+00  0.16799729887E+02  0.72461548070E+02  0.69999971048E+02 0.  0.
         12    1    1    2    0    0  0.82620267863E+01  0.43357930021E+00 -0.16799729887E+02  0.18726451930E+02  0.00000000000E+00 0. -1.
         11    1    3    3    0    0  0.95281307790E+01 -0.10091859566E+02 -0.49176459834E+01  0.14724610281E+02  0.51100000000E-03 0. -1.
        -11    1    3    3    0    0  0.84288767449E+01 -0.66604323088E+01  0.24477521692E+02  0.26731187594E+02  0.51100000000E-03 0.  1.
         12    1    3    3    0    0 -0.26219034310E+02  0.16318712574E+02 -0.27601458219E+01  0.31005750196E+02  0.00000000000E+00 0. -1.
</event>
<event>
 7    1  0.2944263E-013  0.7246159E+02  0.7816164E-02  0.1226708E+00
        -11   -1    0    0    0    0  0.00000000000E+00  0.00000000000E+00  0.45593999997E+02  0.45594000000E+02  0.51100000000E-03 0.  1.
         11   -1    0    0    0    0 -0.00000000000E+00 -0.00000000000E+00 -0.45593999997E+02  0.45594000000E+02  0.51100000000E-03 0. -1.
    9900012    2    1    2    0    0  0.20995131557E+01  0.10491557604E+02  0.15368723548E+02  0.72461590843E+02  0.70000026768E+02 0.  0.
         12    1    1    2    0    0 -0.20995131557E+01 -0.10491557604E+02 -0.15368723548E+02  0.18726409157E+02  0.00000000000E+00 0. -1.
         11    1    3    3    0    0 -0.69236217487E+01 -0.49345873139E+01 -0.10962020692E+02  0.13872728210E+02  0.51100000000E-03 0. -1.
        -11    1    3    3    0    0 -0.14471948891E+02  0.13835105899E+01  0.27592408410E+02  0.31188017064E+02  0.51100000000E-03 0.  1.
         12    1    3    3    0    0  0.23495083795E+02  0.14042634328E+02 -0.12616641711E+01  0.27400845569E+02  0.00000000000E+00 0. -1.
</event>
<event>
 7    1  0.2944263E-013  0.7246162E+02  0.7816164E-02  0.1226708E+00
        -11   -1    0    0    0    0  0.00000000000E+00  0.00000000000E+00  0.45593999997E+02  0.45594000000E+02  0.51100000000E-03 0. -1.
         11   -1    0    0    0    0 -0.00000000000E+00 -0.00000000000E+00 -0.45593999997E+02  0.45594000000E+02  0.51100000000E-03 0.  1.
    9900012    2    1    2    0    0 -0.14175202400E+02  0.18983501750E+01  0.12088728034E+02  0.72461616421E+02  0.70000060089E+02 0.  0.
         12    1    1    2    0    0  0.14175202400E+02 -0.18983501750E+01 -0.12088728034E+02  0.18726383579E+02  0.00000000000E+00 0. -1.
         11    1    3    3    0    0  0.10953570383E+02 -0.10089261969E+02  0.29660231348E+00  0.14895028849E+02  0.51100000000E-03 0. -1.
        -11    1    3    3    0    0 -0.22699587312E+02 -0.86856610501E+01 -0.11018891119E+02  0.26685725281E+02  0.51100000000E-03 0.  1.
         12    1    3    3    0    0 -0.24291854709E+01  0.20673273195E+02  0.22811016839E+02  0.30880862291E+02  0.00000000000E+00 0. -1.
</event>
<event>
 7    1  0.2944263E-013  0.7246160E+02  0.7816164E-02  0.1226708E+00
        -11   -1    0    0    0    0  0.00000000000E+00  0.00000000000E+00  0.45593999997E+02  0.45594000000E+02  0.51100000000E-03 0.  1.
         11   -1    0    0    0    0 -0.00000000000E+00 -0.00000000000E+00 -0.45593999997E+02  0.45594000000E+02  0.51100000000E-03 0. -1.
    9900012    2    1    2    0    0  0.17229067757E+02 -0.68875458263E+01  0.25296534228E+01  0.72461595921E+02  0.70000033384E+02 0.  0.
         12    1    1    2    0    0 -0.17229067757E+02  0.68875458263E+01 -0.25296534228E+01  0.18726404079E+02  0.00000000000E+00 0. -1.
         11    1    3    3    0    0  0.92063663660E+01 -0.24499008510E+01  0.30547008823E+01  0.10004518658E+02  0.51100000000E-03 0. -1.
        -11    1    3    3    0    0  0.31637994027E+02  0.10475797280E+02 -0.63479424922E+01  0.33926411081E+02  0.51100000000E-03 0.  1.
         12    1    3    3    0    0 -0.23615292636E+02 -0.14913442256E+02  0.58228950327E+01  0.28530666181E+02  0.00000000000E+00 0. -1.
</event>
<event>
 7    1  0.2944263E-013  0.7246150E+02  0.7816164E-02  0.1226708E+00
        -11   -1    0    0    0    0  0.00000000000E+00  0.00000000000E+00  0.45593999997E+02  0.45594000000E+02  0.51100000000E-03 0.  1.
         11   -1    0    0    0    0 -0.00000000000E+00 -0.00000000000E+00 -0.45593999997E+02  0.45594000000E+02  0.51100000000E-03 0. -1.
    9900012    2    1    2    0    0  0.14220337365E+02 -0.90539133523E+01  0.81541606910E+01  0.72461503308E+02  0.69999912738E+02 0.  0.
         12    1    1    2    0    0 -0.14220337365E+02  0.90539133523E+01 -0.81541606910E+01  0.18726496692E+02  0.00000000000E+00 0. -1.
         11    1    3    3    0    0  0.11692443159E+02  0.63622122082E+01 -0.15899753057E+02  0.20736275431E+02  0.51100000000E-03 0. -1.
        -11    1    3    3    0    0 -0.54013039505E+01  0.13976871610E+02  0.11062544038E+02  0.18625437048E+02  0.51100000000E-03 0.  1.
        -12    1    3    3    0    0  0.79291981564E+01 -0.29392997170E+02  0.12991369709E+02  0.33099790830E+02  0.00000000000E+00 0.  1.
</event>
<event>
 7    1  0.2944263E-013  0.7246154E+02  0.7816164E-02  0.1226708E+00
        -11   -1    0    0    0    0  0.00000000000E+00  0.00000000000E+00  0.45593999997E+02  0.45594000000E+02  0.51100000000E-03 0.  1.
         11   -1    0    0    0    0 -0.00000000000E+00 -0.00000000000E+00 -0.45593999997E+02  0.45594000000E+02  0.51100000000E-03 0. -1.
    9900012    2    1    2    0    0  0.12738781238E+02  0.93126688033E+01  0.10083553761E+02  0.72461537331E+02  0.69999957059E+02 0.  0.
         12    1    1    2    0    0 -0.12738781238E+02 -0.93126688033E+01 -0.10083553761E+02  0.18726462669E+02  0.00000000000E+00 0. -1.
         11    1    3    3    0    0 -0.37679448353E+01  0.12376339294E+02 -0.18552633380E+02  0.22617943943E+02  0.51100000000E-03 0. -1.
        -11    1    3    3    0    0 -0.12573724094E+01 -0.59955976070E+01 -0.73719671522E+01  0.95850965564E+01  0.51100000000E-03 0.  1.
        -12    1    3    3    0    0  0.17764098483E+02  0.29319271165E+01  0.36008154293E+02  0.40258496831E+02  0.00000000000E+00 0.  1.
</event>
<event>
 7    1  0.2944263E-013  0.7246153E+02  0.7816164E-02  0.1226708E+00
        -11   -1    0    0    0    0  0.00000000000E+00  0.00000000000E+00  0.45593999997E+02  0.45594000000E+02  0.51100000000E-03 0.  1.
         11   -1    0    0    0    0 -0.00000000000E+00 -0.00000000000E+00 -0.45593999997E+02  0.45594000000E+02  0.51100000000E-03 0. -1.
    9900012    2    1    2    0    0  0.15015557422E+02 -0.85554724628E+01  0.72123180952E+01  0.72461531938E+02  0.69999950034E+02 0.  0.
         12    1    1    2    0    0 -0.15015557422E+02  0.85554724628E+01 -0.72123180952E+01  0.18726468062E+02  0.00000000000E+00 0. -1.
         11    1    3    3    0    0  0.69092511812E+01  0.95553337873E+01  0.12189866349E+01  0.11854454199E+02  0.51100000000E-03 0. -1.
        -11    1    3    3    0    0  0.26333842457E+02  0.69189413136E+01  0.10764451062E+02  0.29278258390E+02  0.51100000000E-03 0.  1.
         12    1    3    3    0    0 -0.18227536215E+02 -0.25029747564E+02 -0.47711196013E+01  0.31328819350E+02  0.00000000000E+00 0. -1.
</event>
<event>
 7    1  0.2944263E-013  0.7246113E+02  0.7816164E-02  0.1226709E+00
        -11   -1    0    0    0    0  0.00000000000E+00  0.00000000000E+00  0.45593999997E+02  0.45594000000E+02  0.51100000000E-03 0. -1.
         11   -1    0    0    0    0 -0.00000000000E+00 -0.00000000000E+00 -0.45593999997E+02  0.45594000000E+02  0.51100000000E-03 0.  1.
    9900012    2    1    2    0    0  0.11595101304E+02  0.14704808678E+02  0.13314261417E+00  0.72461134286E+02  0.69999432016E+02 0.  0.
         12    1    1    2    0    0 -0.11595101304E+02 -0.14704808678E+02 -0.13314261417E+00  0.18726865714E+02  0.00000000000E+00 0. -1.
         11    1    3    3    0    0  0.54499440970E+01 -0.15616829591E+02 -0.29532791219E+01  0.16802056867E+02  0.51100000000E-03 0. -1.
        -11    1    3    3    0    0 -0.39176112802E+01  0.21798532052E+02 -0.19497291058E+02  0.29507084516E+02  0.51100000000E-03 0.  1.
         12    1    3    3    0    0  0.10062768487E+02  0.85231062172E+01  0.22583712794E+02  0.26151992903E+02  0.00000000000E+00 0. -1.
</event>
<event>
 7    1  0.2944263E-013  0.7246157E+02  0.7816164E-02  0.1226708E+00
        -11   -1    0    0    0    0  0.00000000000E+00  0.00000000000E+00  0.45593999997E+02  0.45594000000E+02  0.51100000000E-03 0.  1.
         11   -1    0    0    0    0 -0.00000000000E+00 -0.00000000000E+00 -0.45593999997E+02  0.45594000000E+02  0.51100000000E-03 0. -1.
    9900012    2    1    2    0    0 -0.10342818520E+02 -0.91270599729E+01  0.12664989033E+02  0.72461573061E+02  0.70000003605E+02 0.  0.
         12    1    1    2    0    0  0.10342818520E+02  0.91270599729E+01 -0.12664989033E+02  0.18726426939E+02  0.00000000000E+00 0. -1.
         11    1    3    3    0    0  0.10718833698E+02 -0.23900811670E+02 -0.90061759200E+01  0.27699339329E+02  0.51100000000E-03 0. -1.
        -11    1    3    3    0    0  0.31088862204E+01 -0.23348422716E+01  0.13491396922E+02  0.14040457725E+02  0.51100000000E-03 0.  1.
        -12    1    3    3    0    0 -0.24170538438E+02  0.17108593968E+02  0.81797680303E+01  0.30721776007E+02  0.00000000000E+00 0.  1.
</event>
<event>
 7    1  0.2944263E-013  0.7246155E+02  0.7816164E-02  0.1226708E+00
        -11   -1    0    0    0    0  0.00000000000E+00  0.00000000000E+00  0.45593999997E+02  0.45594000000E+02  0.51100000000E-03 0.  1.
         11   -1    0    0    0    0 -0.00000000000E+00 -0.00000000000E+00 -0.45593999997E+02  0.45594000000E+02  0.51100000000E-03 0. -1.
    9900012    2    1    2    0    0 -0.12926947575E+02  0.66374800655E+01  0.11811759839E+02  0.72461553841E+02  0.69999978567E+02 0.  0.
         12    1    1    2    0    0  0.12926947575E+02 -0.66374800655E+01 -0.11811759839E+02  0.18726446159E+02  0.00000000000E+00 0. -1.
         11    1    3    3    0    0  0.51654487725E+01  0.12243976396E+02  0.99908370969E+00  0.13326476936E+02  0.51100000000E-03 0. -1.
        -11    1    3    3    0    0 -0.23934319761E+02 -0.16865207042E+02  0.26132835252E+02  0.39245534135E+02  0.51100000000E-03 0.  1.
         12    1    3    3    0    0  0.58419234132E+01  0.11258710712E+02 -0.15320159122E+02  0.19889542770E+02  0.00000000000E+00 0. -1.
</event>
<event>
 7    1  0.2944263E-013  0.7246149E+02  0.7816164E-02  0.1226708E+00
        -11   -1    0    0    0    0  0.00000000000E+00  0.00000000000E+00  0.45593999997E+02  0.45594000000E+02  0.51100000000E-03 0. -1.
         11   -1    0    0    0    0 -0.00000000000E+00 -0.00000000000E+00 -0.45593999997E+02  0.45594000000E+02  0.51100000000E-03 0.  1.
    9900012    2    1    2    0    0  0.36842077221E+01  0.18163338319E+02  0.26836576696E+01  0.72461487673E+02  0.69999892371E+02 0.  0.
         12    1    1    2    0    0 -0.36842077221E+01 -0.18163338319E+02 -0.26836576696E+01  0.18726512327E+02  0.00000000000E+00 0. -1.
         11    1    3    3    0    0  0.11065685783E+02  0.55820729487E+01  0.11906232951E+01  0.12450964796E+02  0.51100000000E-03 0.  1.
        -11    1    3    3    0    0  0.11675670568E+02  0.27751028181E+02 -0.11710440839E+02  0.32304415692E+02  0.51100000000E-03 0. -1.
         12    1    3    3    0    0 -0.19057148629E+02 -0.15169762811E+02  0.13203475214E+02  0.27706107185E+02  0.00000000000E+00 0. -1.
</event>
<event>
 7    1  0.2944263E-013  0.7246162E+02  0.7816164E-02  0.1226708E+00
        -11   -1    0    0    0    0  0.00000000000E+00  0.00000000000E+00  0.45593999997E+02  0.45594000000E+02  0.51100000000E-03 0.  1.
         11   -1    0    0    0    0 -0.00000000000E+00 -0.00000000000E+00 -0.45593999997E+02  0.45594000000E+02  0.51100000000E-03 0. -1.
    9900012    2    1    2    0    0 -0.13710134307E+02 -0.11586347797E+02  0.53353665568E+01  0.72461618227E+02  0.70000062442E+02 0.  0.
         12    1    1    2    0    0  0.13710134307E+02  0.11586347797E+02 -0.53353665568E+01  0.18726381773E+02  0.00000000000E+00 0. -1.
         11    1    3    3    0    0 -0.20888707976E+02 -0.93288368194E+01  0.21045768899E+02  0.31085200757E+02  0.51100000000E-03 0. -1.
        -11    1    3    3    0    0  0.24159595608E+00 -0.18380069974E+02 -0.88758469624E+00  0.18403074410E+02  0.51100000000E-03 0.  1.
         12    1    3    3    0    0  0.69369777125E+01  0.16122558997E+02 -0.14822817646E+02  0.22973343060E+02  0.00000000000E+00 0. -1.
</event>
<event>
 7    1  0.2944263E-013  0.7246157E+02  0.7816164E-02  0.1226708E+00
        -11   -1    0    0    0    0  0.00000000000E+00  0.00000000000E+00  0.45593999997E+02  0.45594000000E+02  0.51100000000E-03 0.  1.
         11   -1    0    0    0    0 -0.00000000000E+00 -0.00000000000E+00 -0.45593999997E+02  0.45594000000E+02  0.51100000000E-03 0. -1.
    9900012    2    1    2    0    0 -0.39897663048E+01 -0.12946476676E+02  0.12928639491E+02  0.72461569145E+02  0.69999998503E+02 0.  0.
         12    1    1    2    0    0  0.39897663048E+01  0.12946476676E+02 -0.12928639491E+02  0.18726430855E+02  0.00000000000E+00 0. -1.
         11    1    3    3    0    0  0.20461172053E+01 -0.60959398024E+01  0.14554103385E+02  0.15911285407E+02  0.51100000000E-03 0. -1.
        -11    1    3    3    0    0 -0.20813447148E+02 -0.21328115823E+01  0.20655838626E+02  0.29400886671E+02  0.51100000000E-03 0.  1.
         12    1    3    3    0    0  0.14777563638E+02 -0.47177252914E+01 -0.22281302521E+02  0.27149397066E+02  0.00000000000E+00 0. -1.
</event>
<event>
 7    1  0.2944263E-013  0.7246158E+02  0.7816164E-02  0.1226708E+00
        -11   -1    0    0    0    0  0.00000000000E+00  0.00000000000E+00  0.45593999997E+02  0.45594000000E+02  0.51100000000E-03 0.  1.
         11   -1    0    0    0    0 -0.00000000000E+00 -0.00000000000E+00 -0.45593999997E+02  0.45594000000E+02  0.51100000000E-03 0. -1.
    9900012    2    1    2    0    0  0.13211388668E+02  0.19377752433E+01  0.13129469568E+02  0.72461581908E+02  0.70000015129E+02 0.  0.
         12    1    1    2    0    0 -0.13211388668E+02 -0.19377752433E+01 -0.13129469568E+02  0.18726418092E+02  0.00000000000E+00 0. -1.
         11    1    3    3    0    0  0.15024546055E+02 -0.53312208343E+01  0.13952171007E+02  0.21185418944E+02  0.51100000000E-03 0. -1.
        -11    1    3    3    0    0  0.15165811906E+02  0.20409509582E+02 -0.10769538092E+02  0.27613997957E+02  0.51100000000E-03 0.  1.
         12    1    3    3    0    0 -0.16978969294E+02 -0.13140513505E+02  0.99468366533E+01  0.23662165008E+02  0.00000000000E+00 0. -1.
</event>
<event>
 7    1  0.2944263E-013  0.7246158E+02  0.7816164E-02  0.1226708E+00
        -11   -1    0    0    0    0  0.00000000000E+00  0.00000000000E+00  0.45593999997E+02  0.45594000000E+02  0.51100000000E-03 0.  1.
         11   -1    0    0    0    0 -0.00000000000E+00 -0.00000000000E+00 -0.45593999997E+02  0.45594000000E+02  0.51100000000E-03 0. -1.
    9900012    2    1    2    0    0  0.52835749448E+01  0.26090817324E+01  0.17775136064E+02  0.72461576589E+02  0.70000008200E+02 0.  0.
         12    1    1    2    0    0 -0.52835749448E+01 -0.26090817324E+01 -0.17775136064E+02  0.18726423411E+02  0.00000000000E+00 0. -1.
         11    1    3    3    0    0 -0.36827898728E+01  0.15103676793E+02 -0.34180367924E+01  0.15917505134E+02  0.51100000000E-03 0. -1.
        -11    1    3    3    0    0 -0.90671063624E+01  0.13392241099E+02  0.18953356447E+02  0.24915743223E+02  0.51100000000E-03 0.  1.
         12    1    3    3    0    0  0.18033471180E+02 -0.25886836161E+02  0.22398164087E+01  0.31628328232E+02  0.00000000000E+00 0. -1.
</event>
<event>
 7    1  0.2944263E-013  0.7246155E+02  0.7816164E-02  0.1226708E+00
        -11   -1    0    0    0    0  0.00000000000E+00  0.00000000000E+00  0.45593999997E+02  0.45594000000E+02  0.51100000000E-03 0. -1.
         11   -1    0    0    0    0 -0.00000000000E+00 -0.00000000000E+00 -0.45593999997E+02  0.45594000000E+02  0.51100000000E-03 0.  1.
    9900012    2    1    2    0    0  0.16220289810E+02 -0.85944813285E+01  0.37036438251E+01  0.72461551100E+02  0.69999974995E+02 0.  0.
         12    1    1    2    0    0 -0.16220289810E+02  0.85944813285E+01 -0.37036438251E+01  0.18726448900E+02  0.00000000000E+00 0. -1.
         11    1    3    3    0    0  0.17466710384E+02  0.63577342361E+01  0.27108432992E+02  0.32869041602E+02  0.51100000000E-03 0. -1.
        -11    1    3    3    0    0  0.10213015994E+02 -0.85675384873E+01 -0.67364191080E+00  0.13347741573E+02  0.51100000000E-03 0.  1.
         12    1    3    3    0    0 -0.11459436567E+02 -0.63846770773E+01 -0.22731147256E+02  0.26244767925E+02  0.00000000000E+00 0. -1.
</event>
<event>
 7    1  0.2944263E-013  0.7246155E+02  0.7816164E-02  0.1226708E+00
        -11   -1    0    0    0    0  0.00000000000E+00  0.00000000000E+00  0.45593999997E+02  0.45594000000E+02  0.51100000000E-03 0.  1.
         11   -1    0    0    0    0 -0.00000000000E+00 -0.00000000000E+00 -0.45593999997E+02  0.45594000000E+02  0.51100000000E-03 0. -1.
    9900012    2    1    2    0    0  0.14294718293E+02 -0.10836932409E+02  0.53760300793E+01  0.72461554141E+02  0.69999978957E+02 0.  0.
         12    1    1    2    0    0 -0.14294718293E+02  0.10836932409E+02 -0.53760300793E+01  0.18726445859E+02  0.00000000000E+00 0. -1.
         11    1    3    3    0    0 -0.24745568602E+01  0.48015209397E+01 -0.18051590387E+02  0.18842450763E+02  0.51100000000E-03 0. -1.
        -11    1    3    3    0    0  0.17321295151E+02  0.76294883190E+01  0.23716045521E+02  0.30342827375E+02  0.51100000000E-03 0.  1.
         12    1    3    3    0    0 -0.55201999751E+00 -0.23267941668E+02 -0.28842505404E+00  0.23276276003E+02  0.00000000000E+00 0. -1.
</event>
<event>
 7    1  0.2944263E-013  0.7246161E+02  0.7816164E-02  0.1226708E+00
        -11   -1    0    0    0    0  0.00000000000E+00  0.00000000000E+00  0.45593999997E+02  0.45594000000E+02  0.51100000000E-03 0.  1.
         11   -1    0    0    0    0 -0.00000000000E+00 -0.00000000000E+00 -0.45593999997E+02  0.45594000000E+02  0.51100000000E-03 0. -1.
    9900012    2    1    2    0    0  0.17560504626E+02  0.26635023553E+01 -0.59339885262E+01  0.72461607198E+02  0.70000048074E+02 0.  0.
         12    1    1    2    0    0 -0.17560504626E+02 -0.26635023553E+01  0.59339885262E+01  0.18726392802E+02  0.00000000000E+00 0. -1.
         11    1    3    3    0    0  0.25900982599E+02  0.13966596453E+02 -0.18610759152E+02  0.34817913099E+02  0.51100000000E-03 0. -1.
        -11    1    3    3    0    0 -0.10634699244E+02  0.48657215513E+01 -0.57413346909E+01  0.13028238504E+02  0.51100000000E-03 0.  1.
        -12    1    3    3    0    0  0.22942212707E+01 -0.16168815649E+02  0.18418105317E+02  0.24615455596E+02  0.00000000000E+00 0.  1.
</event>
<event>
 7    1  0.2944263E-013  0.7246156E+02  0.7816164E-02  0.1226708E+00
        -11   -1    0    0    0    0  0.00000000000E+00  0.00000000000E+00  0.45593999997E+02  0.45594000000E+02  0.51100000000E-03 0.  1.
         11   -1    0    0    0    0 -0.00000000000E+00 -0.00000000000E+00 -0.45593999997E+02  0.45594000000E+02  0.51100000000E-03 0. -1.
    9900012    2    1    2    0    0  0.93438254574E+01 -0.10007042000E+02 -0.12776215661E+02  0.72461557455E+02  0.69999983275E+02 0.  0.
         12    1    1    2    0    0 -0.93438254574E+01  0.10007042000E+02  0.12776215661E+02  0.18726442545E+02  0.00000000000E+00 0. -1.
         11    1    3    3    0    0  0.11024801384E+02  0.15741889753E+02 -0.76965047235E+01  0.20702403816E+02  0.51100000000E-03 0. -1.
        -11    1    3    3    0    0 -0.10271459572E+02  0.25261315410E+01  0.13273352467E+02  0.16972510370E+02  0.51100000000E-03 0.  1.
         12    1    3    3    0    0  0.85904836461E+01 -0.28275063295E+02 -0.18353063404E+02  0.34786643269E+02  0.00000000000E+00 0. -1.
</event>
<event>
 7    1  0.2944263E-013  0.7246157E+02  0.7816164E-02  0.1226708E+00
        -11   -1    0    0    0    0  0.00000000000E+00  0.00000000000E+00  0.45593999997E+02  0.45594000000E+02  0.51100000000E-03 0.  1.
         11   -1    0    0    0    0 -0.00000000000E+00 -0.00000000000E+00 -0.45593999997E+02  0.45594000000E+02  0.51100000000E-03 0. -1.
    9900012    2    1    2    0    0 -0.38975300990E+01 -0.16786541546E+02  0.73280654331E+01  0.72461567854E+02  0.69999996821E+02 0.  0.
         12    1    1    2    0    0  0.38975300990E+01  0.16786541546E+02 -0.73280654331E+01  0.18726432146E+02  0.00000000000E+00 0. -1.
         11    1    3    3    0    0  0.18229079860E+02 -0.15765992469E+02  0.12238176628E+01  0.24132210860E+02  0.51100000000E-03 0. -1.
        -11    1    3    3    0    0  0.10740716852E+02 -0.26102034603E+01  0.10360126016E+02  0.15149533720E+02  0.51100000000E-03 0.  1.
         12    1    3    3    0    0 -0.32867326812E+02  0.15896543833E+01 -0.42558782456E+01  0.33179823273E+02  0.00000000000E+00 0. -1.
</event>
<event>
 7    1  0.2944263E-013  0.7246168E+02  0.7816164E-02  0.1226708E+00
        -11   -1    0    0    0    0  0.00000000000E+00  0.00000000000E+00  0.45593999997E+02  0.45594000000E+02  0.51100000000E-03 0. -1.
         11   -1    0    0    0    0 -0.00000000000E+00 -0.00000000000E+00 -0.45593999997E+02  0.45594000000E+02  0.51100000000E-03 0.  1.
    9900012    2    1    2    0    0 -0.17439897178E+02 -0.57350546147E+01 -0.36924308763E+01  0.72461684004E+02  0.70000148127E+02 0.  0.
         12    1    1    2    0    0  0.17439897178E+02  0.57350546147E+01  0.36924308763E+01  0.18726315996E+02  0.00000000000E+00 0. -1.
         11    1    3    3    0    0 -0.12763370218E+02  0.12704274668E+02  0.77105200408E+01  0.19589648637E+02  0.51100000000E-03 0. -1.
        -11    1    3    3    0    0 -0.55033121477E+01  0.15627471873E+02  0.10245606471E+01  0.16599820677E+02  0.51100000000E-03 0.  1.
        -12    1    3    3    0    0  0.82678518787E+00 -0.34066801156E+02 -0.12427511564E+02  0.36272214689E+02  0.00000000000E+00 0.  1.
</event>
<event>
 7    1  0.2944263E-013  0.7246160E+02  0.7816164E-02  0.1226708E+00
        -11   -1    0    0    0    0  0.00000000000E+00  0.00000000000E+00  0.45593999997E+02  0.45594000000E+02  0.51100000000E-03 0.  1.
         11   -1    0    0    0    0 -0.00000000000E+00 -0.00000000000E+00 -0.45593999997E+02  0.45594000000E+02  0.51100000000E-03 0. -1.
    9900012    2    1    2    0    0  0.13565498955E+02  0.80233515271E+01  0.10113415389E+02  0.72461598785E+02  0.70000037114E+02 0.  0.
         12    1    1    2    0    0 -0.13565498955E+02 -0.80233515271E+01 -0.10113415389E+02  0.18726401215E+02  0.00000000000E+00 0. -1.
         11    1    3    3    0    0 -0.54237591142E+01  0.33942475862E+01  0.14909299511E+02  0.16224219296E+02  0.51100000000E-03 0. -1.
        -11    1    3    3    0    0 -0.95992885248E+01 -0.14859065746E+02 -0.11356786948E+02  0.21021769313E+02  0.51100000000E-03 0.  1.
         12    1    3    3    0    0  0.28588546594E+02  0.19488169687E+02  0.65609028253E+01  0.35215610175E+02  0.00000000000E+00 0. -1.
</event>
<event>
 7    1  0.2944263E-013  0.7246159E+02  0.7816164E-02  0.1226708E+00
        -11   -1    0    0    0    0  0.00000000000E+00  0.00000000000E+00  0.45593999997E+02  0.45594000000E+02  0.51100000000E-03 0. -1.
         11   -1    0    0    0    0 -0.00000000000E+00 -0.00000000000E+00 -0.45593999997E+02  0.45594000000E+02  0.51100000000E-03 0.  1.
    9900012    2    1    2    0    0 -0.40228568350E+01 -0.13101514646E+02 -0.12761087549E+02  0.72461590345E+02  0.70000026119E+02 0.  0.
         12    1    1    2    0    0  0.40228568350E+01  0.13101514646E+02  0.12761087549E+02  0.18726409655E+02  0.00000000000E+00 0. -1.
         11    1    3    3    0    0 -0.84840086605E+01 -0.17393711656E+01 -0.13549017552E+02  0.16080413299E+02  0.51100000000E-03 0. -1.
        -11    1    3    3    0    0  0.13503906847E+02  0.15201057868E+02 -0.13976926914E+02  0.24673511032E+02  0.51100000000E-03 0.  1.
         12    1    3    3    0    0 -0.90427550220E+01 -0.26563201348E+02  0.14764856916E+02  0.31707666013E+02  0.00000000000E+00 0. -1.
</event>
<event>
 7    1  0.2944263E-013  0.7246158E+02  0.7816164E-02  0.1226708E+00
        -11   -1    0    0    0    0  0.00000000000E+00  0.00000000000E+00  0.45593999997E+02  0.45594000000E+02  0.51100000000E-03 0. -1.
         11   -1    0    0    0    0 -0.00000000000E+00 -0.00000000000E+00 -0.45593999997E+02  0.45594000000E+02  0.51100000000E-03 0.  1.
    9900012    2    1    2    0    0  0.93811572444E+01 -0.12863520252E+02 -0.98591281698E+01  0.72461583557E+02  0.70000017277E+02 0.  0.
         12    1    1    2    0    0 -0.93811572444E+01  0.12863520252E+02  0.98591281698E+01  0.18726416443E+02  0.00000000000E+00 0. -1.
         11    1    3    3    0    0 -0.27693705286E+01 -0.46507459689E+01  0.14830363691E+02  0.15787290415E+02  0.51100000000E-03 0. -1.
        -11    1    3    3    0    0 -0.72273661758E+01 -0.24001926042E+02 -0.17808430563E+02  0.30748454838E+02  0.51100000000E-03 0.  1.
         12    1    3    3    0    0  0.19377893949E+02  0.15789151759E+02 -0.68810612974E+01  0.25925838303E+02  0.00000000000E+00 0. -1.
</event>
<event>
 7    1  0.2944263E-013  0.7246155E+02  0.7816164E-02  0.1226708E+00
        -11   -1    0    0    0    0  0.00000000000E+00  0.00000000000E+00  0.45593999997E+02  0.45594000000E+02  0.51100000000E-03 0. -1.
         11   -1    0    0    0    0 -0.00000000000E+00 -0.00000000000E+00 -0.45593999997E+02  0.45594000000E+02  0.51100000000E-03 0.  1.
    9900012    2    1    2    0    0  0.27250038101E+01  0.47339961384E+01 -0.17912105800E+02  0.72461550806E+02  0.69999974613E+02 0.  0.
         12    1    1    2    0    0 -0.27250038101E+01 -0.47339961384E+01  0.17912105800E+02  0.18726449194E+02  0.00000000000E+00 0. -1.
         11    1    3    3    0    0  0.77534705421E+01 -0.83229463740E+01  0.10315902554E+02  0.15355962606E+02  0.51100000000E-03 0. -1.
        -11    1    3    3    0    0  0.14655724532E+02  0.23242257587E+02 -0.15480368537E+02  0.31537828232E+02  0.51100000000E-03 0.  1.
         12    1    3    3    0    0 -0.19684191264E+02 -0.10185315075E+02 -0.12747639817E+02  0.25567759968E+02  0.00000000000E+00 0. -1.
</event>
<event>
 7    1  0.2944263E-013  0.7246159E+02  0.7816164E-02  0.1226708E+00
        -11   -1    0    0    0    0  0.00000000000E+00  0.00000000000E+00  0.45593999997E+02  0.45594000000E+02  0.51100000000E-03 0. -1.
         11   -1    0    0    0    0 -0.00000000000E+00 -0.00000000000E+00 -0.45593999997E+02  0.45594000000E+02  0.51100000000E-03 0.  1.
    9900012    2    1    2    0    0  0.85117981954E+01  0.12312754110E+02 -0.11252724182E+02  0.72461590205E+02  0.70000025938E+02 0.  0.
         12    1    1    2    0    0 -0.85117981954E+01 -0.12312754110E+02  0.11252724182E+02  0.18726409795E+02  0.00000000000E+00 0. -1.
         11    1    3    3    0    0  0.80895440937E+01  0.15706403146E+02  0.11407227980E+02  0.21029899522E+02  0.51100000000E-03 0. -1.
        -11    1    3    3    0    0  0.26443494536E+00  0.20522053661E+02 -0.35724186467E+01  0.20832349545E+02  0.51100000000E-03 0.  1.
        -12    1    3    3    0    0  0.15781915635E+00 -0.23915702698E+02 -0.19087533515E+02  0.30599341138E+02  0.00000000000E+00 0.  1.
</event>
<event>
 7    1  0.2944263E-013  0.7246157E+02  0.7816164E-02  0.1226708E+00
        -11   -1    0    0    0    0  0.00000000000E+00  0.00000000000E+00  0.45593999997E+02  0.45594000000E+02  0.51100000000E-03 0.  1.
         11   -1    0    0    0    0 -0.00000000000E+00 -0.00000000000E+00 -0.45593999997E+02  0.45594000000E+02  0.51100000000E-03 0. -1.
    9900012    2    1    2    0    0 -0.50335878205E+01  0.11636587556E+02 -0.13781576678E+02  0.72461573966E+02  0.70000004782E+02 0.  0.
         12    1    1    2    0    0  0.50335878205E+01 -0.11636587556E+02  0.13781576678E+02  0.18726426034E+02  0.00000000000E+00 0. -1.
         11    1    3    3    0    0 -0.13137191496E+02 -0.43084334494E+01 -0.17157119191E+02  0.22034408056E+02  0.51100000000E-03 0. -1.
        -11    1    3    3    0    0 -0.18628778115E+02 -0.69950250754E+00  0.33271507799E+01  0.18936488861E+02  0.51100000000E-03 0.  1.
        -12    1    3    3    0    0  0.26732381791E+02  0.16644523513E+02  0.48391733113E-01  0.31490677048E+02  0.00000000000E+00 0.  1.
</event>
<event>
 7    1  0.2944263E-013  0.7246161E+02  0.7816164E-02  0.1226708E+00
        -11   -1    0    0    0    0  0.00000000000E+00  0.00000000000E+00  0.45593999997E+02  0.45594000000E+02  0.51100000000E-03 0.  1.
         11   -1    0    0    0    0 -0.00000000000E+00 -0.00000000000E+00 -0.45593999997E+02  0.45594000000E+02  0.51100000000E-03 0. -1.
    9900012    2    1    2    0    0  0.13704264217E+02 -0.10574125662E+02  0.71455472773E+01  0.72461605869E+02  0.70000046343E+02 0.  0.
         12    1    1    2    0    0 -0.13704264217E+02  0.10574125662E+02 -0.71455472773E+01  0.18726394131E+02  0.00000000000E+00 0. -1.
         11    1    3    3    0    0  0.49972025156E+01 -0.24891207182E+02  0.13286750900E+01  0.25422619962E+02  0.51100000000E-03 0. -1.
        -11    1    3    3    0    0 -0.73937230921E+01 -0.90842926129E+01 -0.92133791763E+01  0.14902277328E+02  0.51100000000E-03 0.  1.
        -12    1    3    3    0    0  0.16100784794E+02  0.23401374133E+02  0.15030251364E+02  0.32136708580E+02  0.00000000000E+00 0.  1.
</event>
<event>
 7    1  0.2944263E-013  0.7246159E+02  0.7816164E-02  0.1226708E+00
        -11   -1    0    0    0    0  0.00000000000E+00  0.00000000000E+00  0.45593999997E+02  0.45594000000E+02  0.51100000000E-03 0.  1.
         11   -1    0    0    0    0 -0.00000000000E+00 -0.00000000000E+00 -0.45593999997E+02  0.45594000000E+02  0.51100000000E-03 0. -1.
    9900012    2    1    2    0    0  0.51393334580E+01 -0.36013440166E+01  0.17643584985E+02  0.72461587684E+02  0.70000022653E+02 0.  0.
         12    1    1    2    0    0 -0.51393334580E+01  0.36013440166E+01 -0.17643584985E+02  0.18726412316E+02  0.00000000000E+00 0. -1.
         11    1    3    3    0    0 -0.76844258178E+01  0.12805329458E+02  0.12903288262E+02  0.19736304388E+02  0.51100000000E-03 0. -1.
        -11    1    3    3    0    0  0.18130068697E+01  0.17040003434E+02 -0.39265320500E+00  0.17140679325E+02  0.51100000000E-03 0.  1.
         12    1    3    3    0    0  0.11010752406E+02 -0.33446676908E+02  0.51329499274E+01  0.35584603970E+02  0.00000000000E+00 0. -1.
</event>
<event>
 7    1  0.2944263E-013  0.7246156E+02  0.7816164E-02  0.1226708E+00
        -11   -1    0    0    0    0  0.00000000000E+00  0.00000000000E+00  0.45593999997E+02  0.45594000000E+02  0.51100000000E-03 0.  1.
         11   -1    0    0    0    0 -0.00000000000E+00 -0.00000000000E+00 -0.45593999997E+02  0.45594000000E+02  0.51100000000E-03 0. -1.
    9900012    2    1    2    0    0  0.61630017352E+01 -0.11752463818E+02  0.13212746770E+02  0.72461556841E+02  0.69999982474E+02 0.  0.
         12    1    1    2    0    0 -0.61630017352E+01  0.11752463818E+02 -0.13212746770E+02  0.18726443159E+02  0.00000000000E+00 0. -1.
         11    1    3    3    0    0  0.27157387201E+01  0.12470439884E+02 -0.14157298203E+02  0.19060855185E+02  0.51100000000E-03 0. -1.
        -11    1    3    3    0    0  0.30520844034E+01  0.20980901428E+01 -0.82884222778E+01  0.90782787779E+01  0.51100000000E-03 0.  1.
        -12    1    3    3    0    0  0.39517861167E+00 -0.26320993845E+02  0.35658467251E+02  0.44322422878E+02  0.00000000000E+00 0.  1.
</event>
<event>
 7    1  0.2944263E-013  0.7246200E+02  0.7816164E-02  0.1226707E+00
        -11   -1    0    0    0    0  0.00000000000E+00  0.00000000000E+00  0.45593999997E+02  0.45594000000E+02  0.51100000000E-03 0.  1.
         11   -1    0    0    0    0 -0.00000000000E+00 -0.00000000000E+00 -0.45593999997E+02  0.45594000000E+02  0.51100000000E-03 0. -1.
    9900012    2    1    2    0    0 -0.72880514120E+01 -0.17231323491E+02  0.79312144780E+00  0.72461995507E+02  0.70000553917E+02 0.  0.
         12    1    1    2    0    0  0.72880514120E+01  0.17231323491E+02 -0.79312144780E+00  0.18726004493E+02  0.00000000000E+00 0. -1.
         11    1    3    3    0    0 -0.11919635064E+02 -0.33499533664E+02 -0.39302541890E+01  0.35773500724E+02  0.51100000000E-03 0. -1.
        -11    1    3    3    0    0  0.12787872244E+02 -0.22934334760E+01 -0.53487577987E+01  0.14049865618E+02  0.51100000000E-03 0.  1.
        -12    1    3    3    0    0 -0.81562885919E+01  0.18561643649E+02  0.10072133435E+02  0.22638629166E+02  0.00000000000E+00 0.  1.
</event>
<event>
 7    1  0.2944263E-013  0.7246157E+02  0.7816164E-02  0.1226708E+00
        -11   -1    0    0    0    0  0.00000000000E+00  0.00000000000E+00  0.45593999997E+02  0.45594000000E+02  0.51100000000E-03 0.  1.
         11   -1    0    0    0    0 -0.00000000000E+00 -0.00000000000E+00 -0.45593999997E+02  0.45594000000E+02  0.51100000000E-03 0. -1.
    9900012    2    1    2    0    0  0.16422601584E+02  0.83585497901E+01  0.33334417731E+01  0.72461573982E+02  0.70000004803E+02 0.  0.
         12    1    1    2    0    0 -0.16422601584E+02 -0.83585497901E+01 -0.33334417731E+01  0.18726426018E+02  0.00000000000E+00 0. -1.
         11    1    3    3    0    0  0.31088137511E+01  0.13384351210E+02 -0.15469191103E+02  0.20690612700E+02  0.51100000000E-03 0. -1.
        -11    1    3    3    0    0  0.11222184875E+02  0.16826551219E+02 -0.34443912531E+01  0.20516678353E+02  0.51100000000E-03 0.  1.
         12    1    3    3    0    0  0.20916029574E+01 -0.21852352639E+02  0.22247024129E+02  0.31254282929E+02  0.00000000000E+00 0. -1.
</event>
<event>
 7    1  0.2944263E-013  0.7246150E+02  0.7816164E-02  0.1226708E+00
        -11   -1    0    0    0    0  0.00000000000E+00  0.00000000000E+00  0.45593999997E+02  0.45594000000E+02  0.51100000000E-03 0. -1.
         11   -1    0    0    0    0 -0.00000000000E+00 -0.00000000000E+00 -0.45593999997E+02  0.45594000000E+02  0.51100000000E-03 0.  1.
    9900012    2    1    2    0    0  0.89642300802E+01  0.25787745953E+01 -0.16238050081E+02  0.72461500867E+02  0.69999909558E+02 0.  0.
         12    1    1    2    0    0 -0.89642300802E+01 -0.25787745953E+01  0.16238050081E+02  0.18726499133E+02  0.00000000000E+00 0. -1.
         11    1    3    3    0    0 -0.55773727464E+01  0.99338001109E+01 -0.13720137635E+02  0.17833385780E+02  0.51100000000E-03 0. -1.
        -11    1    3    3    0    0  0.18879339735E+01  0.52221544845E+01 -0.25180518940E+02  0.25785533280E+02  0.51100000000E-03 0.  1.
         12    1    3    3    0    0  0.12653668853E+02 -0.12577180000E+02  0.22662606495E+02  0.28842581808E+02  0.00000000000E+00 0. -1.
</event>
<event>
 7    1  0.2944263E-013  0.7246083E+02  0.7816164E-02  0.1226710E+00
        -11   -1    0    0    0    0  0.00000000000E+00  0.00000000000E+00  0.45593999997E+02  0.45594000000E+02  0.51100000000E-03 0. -1.
         11   -1    0    0    0    0 -0.00000000000E+00 -0.00000000000E+00 -0.45593999997E+02  0.45594000000E+02  0.51100000000E-03 0.  1.
    9900012    2    1    2    0    0 -0.86770119578E+01 -0.11259693399E+02  0.12191626946E+02  0.72460827241E+02  0.69999032029E+02 0.  0.
         12    1    1    2    0    0  0.86770119578E+01  0.11259693399E+02 -0.12191626946E+02  0.18727172759E+02  0.00000000000E+00 0. -1.
         11    1    3    3    0    0 -0.25250187937E+02  0.35423865023E+00  0.15304560246E+02  0.29528410733E+02  0.51100000000E-03 0. -1.
        -11    1    3    3    0    0 -0.58877363761E+01 -0.17616048605E+02 -0.59669611273E+01  0.19508850131E+02  0.51100000000E-03 0.  1.
         12    1    3    3    0    0  0.22460912355E+02  0.60021165555E+01  0.28540278273E+01  0.23423566377E+02  0.00000000000E+00 0. -1.
</event>
<event>
 7    1  0.2944263E-013  0.7246150E+02  0.7816164E-02  0.1226708E+00
        -11   -1    0    0    0    0  0.00000000000E+00  0.00000000000E+00  0.45593999997E+02  0.45594000000E+02  0.51100000000E-03 0. -1.
         11   -1    0    0    0    0 -0.00000000000E+00 -0.00000000000E+00 -0.45593999997E+02  0.45594000000E+02  0.51100000000E-03 0.  1.
    9900012    2    1    2    0    0  0.10987083882E+01  0.17578528471E+02 -0.63615888903E+01  0.72461504425E+02  0.69999914192E+02 0.  0.
         12    1    1    2    0    0 -0.10987083882E+01 -0.17578528471E+02  0.63615888903E+01  0.18726495575E+02  0.00000000000E+00 0. -1.
         11    1    3    3    0    0 -0.25449990254E+01 -0.32615580357E+01 -0.96178340347E+01  0.10469838234E+02  0.51100000000E-03 0. -1.
        -11    1    3    3    0    0  0.26683330638E+02  0.86283894434E+01 -0.13368425451E+02  0.31067089300E+02  0.51100000000E-03 0.  1.
         12    1    3    3    0    0 -0.23039623224E+02  0.12211697063E+02  0.16624670595E+02  0.30924576891E+02  0.00000000000E+00 0. -1.
</event>
<event>
 7    1  0.2944263E-013  0.7246168E+02  0.7816164E-02  0.1226708E+00
        -11   -1    0    0    0    0  0.00000000000E+00  0.00000000000E+00  0.45593999997E+02  0.45594000000E+02  0.51100000000E-03 0. -1.
         11   -1    0    0    0    0 -0.00000000000E+00 -0.00000000000E+00 -0.45593999997E+02  0.45594000000E+02  0.51100000000E-03 0.  1.
    9900012    2    1    2    0    0 -0.13034597803E+02  0.76358326405E+01 -0.11066540548E+02  0.72461681630E+02  0.70000145035E+02 0.  0.
         12    1    1    2    0    0  0.13034597803E+02 -0.76358326405E+01  0.11066540548E+02  0.18726318370E+02  0.00000000000E+00 0. -1.
         11    1    3    3    0    0 -0.10047085854E+02  0.26331459085E+02 -0.52476593514E-01  0.28183194031E+02  0.51100000000E-03 0. -1.
        -11    1    3    3    0    0 -0.11504658098E+02  0.67253588899E+01  0.35189283622E+01  0.13782977444E+02  0.51100000000E-03 0.  1.
        -12    1    3    3    0    0  0.85171461491E+01 -0.25420985335E+02 -0.14532992317E+02  0.30495510155E+02  0.00000000000E+00 0.  1.
</event>
<event>
 7    1  0.2945035E-013  0.7246159E+02  0.7816164E-02  0.1226708E+00
        -11   -1    0    0    0    0  0.00000000000E+00  0.00000000000E+00  0.45593999997E+02  0.45594000000E+02  0.51100000000E-03 0. -1.
         11   -1    0    0    0    0 -0.00000000000E+00 -0.00000000000E+00 -0.45593999997E+02  0.45594000000E+02  0.51100000000E-03 0.  1.
    9900012    2    1    2    0    0 -0.35115247226E+01  0.10332098019E+02 -0.15218263338E+02  0.72461585651E+02  0.70000020005E+02 0.  0.
         12    1    1    2    0    0  0.35115247226E+01 -0.10332098019E+02  0.15218263338E+02  0.18726414349E+02  0.00000000000E+00 0. -1.
         11    1    3    3    0    0 -0.85937415485E+01 -0.12890447194E+02  0.10695204051E+02  0.18825605239E+02  0.51100000000E-03 0. -1.
        -11    1    3    3    0    0 -0.55217759206E+01 -0.90961985877E+01 -0.14023791741E+02  0.17603907894E+02  0.51100000000E-03 0.  1.
         12    1    3    3    0    0  0.10603992746E+02  0.32318743800E+02 -0.11889675648E+02  0.36032072519E+02  0.00000000000E+00 0. -1.
</event>
<event>
 7    1  0.2944263E-013  0.7246126E+02  0.7816164E-02  0.1226709E+00
        -11   -1    0    0    0    0  0.00000000000E+00  0.00000000000E+00  0.45593999997E+02  0.45594000000E+02  0.51100000000E-03 0. -1.
         11   -1    0    0    0    0 -0.00000000000E+00 -0.00000000000E+00 -0.45593999997E+02  0.45594000000E+02  0.51100000000E-03 0.  1.
    9900012    2    1    2    0    0  0.13301944039E+02  0.12708416614E+02 -0.34993306646E+01  0.72461257541E+02  0.69999592579E+02 0.  0.
         12    1    1    2    0    0 -0.13301944039E+02 -0.12708416614E+02  0.34993306646E+01  0.18726742459E+02  0.00000000000E+00 0. -1.
         11    1    3    3    0    0  0.16807783323E+02  0.24634617833E+02  0.18796623342E+02  0.35251652803E+02  0.51100000000E-03 0. -1.
        -11    1    3    3    0    0 -0.19327887436E+01  0.32435192495E+01  0.48056561176E+01  0.61114990331E+01  0.51100000000E-03 0.  1.
        -12    1    3    3    0    0 -0.15730505407E+01 -0.15169720469E+02 -0.27101610124E+02  0.31098105705E+02  0.00000000000E+00 0.  1.
</event>
<event>
 7    1  0.2944263E-013  0.7246190E+02  0.7816164E-02  0.1226707E+00
        -11   -1    0    0    0    0  0.00000000000E+00  0.00000000000E+00  0.45593999997E+02  0.45594000000E+02  0.51100000000E-03 0. -1.
         11   -1    0    0    0    0 -0.00000000000E+00 -0.00000000000E+00 -0.45593999997E+02  0.45594000000E+02  0.51100000000E-03 0.  1.
    9900012    2    1    2    0    0  0.33696683444E+01 -0.10280202022E+02 -0.15284941864E+02  0.72461904140E+02  0.70000434894E+02 0.  0.
         12    1    1    2    0    0 -0.33696683444E+01  0.10280202022E+02  0.15284941864E+02  0.18726095860E+02  0.00000000000E+00 0. -1.
         11    1    3    3    0    0 -0.21076961710E+02 -0.71799084750E+00  0.13789287320E+02  0.25197187757E+02  0.51100000000E-03 0. -1.
        -11    1    3    3    0    0  0.12334767395E+02  0.87318043080E+01 -0.14362162640E+02  0.20848563719E+02  0.51100000000E-03 0.  1.
        -12    1    3    3    0    0  0.12111862660E+02 -0.18294015483E+02 -0.14712066544E+02  0.26416152664E+02  0.00000000000E+00 0.  1.
</event>
<event>
 7    1  0.2944263E-013  0.7246157E+02  0.7816164E-02  0.1226708E+00
        -11   -1    0    0    0    0  0.00000000000E+00  0.00000000000E+00  0.45593999997E+02  0.45594000000E+02  0.51100000000E-03 0. -1.
         11   -1    0    0    0    0 -0.00000000000E+00 -0.00000000000E+00 -0.45593999997E+02  0.45594000000E+02  0.51100000000E-03 0.  1.
    9900012    2    1    2    0    0  0.17936817985E+01 -0.15567535557E+02 -0.10252501095E+02  0.72461568508E+02  0.69999997674E+02 0.  0.
         12    1    1    2    0    0 -0.17936817985E+01  0.15567535557E+02  0.10252501095E+02  0.18726431492E+02  0.00000000000E+00 0. -1.
         11    1    3    3    0    0 -0.46682344453E+01  0.16422093101E+01  0.18251872954E+02  0.18910846910E+02  0.51100000000E-03 0. -1.
        -11    1    3    3    0    0  0.20799472574E+02  0.46457636779E+00 -0.62580867602E+01  0.21725504383E+02  0.51100000000E-03 0.  1.
         12    1    3    3    0    0 -0.14337556330E+02 -0.17674321235E+02 -0.22246287289E+02  0.31825217215E+02  0.00000000000E+00 0. -1.
</event>
<event>
 7    1  0.2944263E-013  0.7246153E+02  0.7816164E-02  0.1226708E+00
        -11   -1    0    0    0    0  0.00000000000E+00  0.00000000000E+00  0.45593999997E+02  0.45594000000E+02  0.51100000000E-03 0.  1.
         11   -1    0    0    0    0 -0.00000000000E+00 -0.00000000000E+00 -0.45593999997E+02  0.45594000000E+02  0.51100000000E-03 0. -1.
    9900012    2    1    2    0    0  0.12422078821E+01  0.18376959350E+02  0.33800718866E+01  0.72461532065E+02  0.69999950199E+02 0.  0.
         12    1    1    2    0    0 -0.12422078821E+01 -0.18376959350E+02 -0.33800718866E+01  0.18726467935E+02  0.00000000000E+00 0. -1.
         11    1    3    3    0    0  0.87116370217E+00  0.35214225771E+02 -0.16583270999E+02  0.38933346891E+02  0.51100000000E-03 0. -1.
        -11    1    3    3    0    0  0.14790146626E+01 -0.12417032157E+02 -0.54792358818E+00  0.12516804403E+02  0.51100000000E-03 0.  1.
        -12    1    3    3    0    0 -0.11079704828E+01 -0.44202342642E+01  0.20511266474E+02  0.21011380771E+02  0.00000000000E+00 0.  1.
</event>
<event>
 7    1  0.2944263E-013  0.7246155E+02  0.7816164E-02  0.1226708E+00
        -11   -1    0    0    0    0  0.00000000000E+00  0.00000000000E+00  0.45593999997E+02  0.45594000000E+02  0.51100000000E-03 0. -1.
         11   -1    0    0    0    0 -0.00000000000E+00 -0.00000000000E+00 -0.45593999997E+02  0.45594000000E+02  0.51100000000E-03 0.  1.
    9900012    2    1    2    0    0  0.18031936907E+02 -0.22028909114E+01  0.45471280895E+01  0.72461552102E+02  0.69999976302E+02 0.  0.
         12    1    1    2    0    0 -0.18031936907E+02  0.22028909114E+01 -0.45471280895E+01  0.18726447898E+02  0.00000000000E+00 0. -1.
         11    1    3    3    0    0  0.34186925107E+02 -0.90872505270E+01  0.10590820903E+00  0.35374216418E+02  0.51100000000E-03 0. -1.
        -11    1    3    3    0    0  0.42704053235E+01 -0.20537749397E+01 -0.96231016992E+01  0.10726529714E+02  0.51100000000E-03 0.  1.
         12    1    3    3    0    0 -0.20425393523E+02  0.89381345554E+01  0.14064321580E+02  0.26360805970E+02  0.00000000000E+00 0. -1.
</event>
<event>
 7    1  0.2944263E-013  0.7246153E+02  0.7816164E-02  0.1226708E+00
        -11   -1    0    0    0    0  0.00000000000E+00  0.00000000000E+00  0.45593999997E+02  0.45594000000E+02  0.51100000000E-03 0.  1.
         11   -1    0    0    0    0 -0.00000000000E+00 -0.00000000000E+00 -0.45593999997E+02  0.45594000000E+02  0.51100000000E-03 0. -1.
    9900012    2    1    2    0    0 -0.83027588759E+01  0.14508294605E+02  0.84412253260E+01  0.72461529369E+02  0.69999946687E+02 0.  0.
         12    1    1    2    0    0  0.83027588759E+01 -0.14508294605E+02 -0.84412253260E+01  0.18726470631E+02  0.00000000000E+00 0. -1.
         11    1    3    3    0    0  0.10691926424E+02  0.52194270198E+01  0.77212184702E+01  0.14183685135E+02  0.51100000000E-03 0. -1.
        -11    1    3    3    0    0  0.39220379872E+01  0.19680925575E+02  0.18637537906E+02  0.27387570774E+02  0.51100000000E-03 0.  1.
         12    1    3    3    0    0 -0.22916723288E+02 -0.10392057989E+02 -0.17917531050E+02  0.30890273460E+02  0.00000000000E+00 0. -1.
</event>
<event>
 7    1  0.2944263E-013  0.7246197E+02  0.7816164E-02  0.1226707E+00
        -11   -1    0    0    0    0  0.00000000000E+00  0.00000000000E+00  0.45593999997E+02  0.45594000000E+02  0.51100000000E-03 0. -1.
         11   -1    0    0    0    0 -0.00000000000E+00 -0.00000000000E+00 -0.45593999997E+02  0.45594000000E+02  0.51100000000E-03 0.  1.
    9900012    2    1    2    0    0 -0.32116220356E+01  0.17934701779E+02  0.43239225252E+01  0.72461965983E+02  0.70000515456E+02 0.  0.
         12    1    1    2    0    0  0.32116220356E+01 -0.17934701779E+02 -0.43239225252E+01  0.18726034017E+02  0.00000000000E+00 0. -1.
         11    1    3    3    0    0 -0.15050439555E+02  0.14683336960E+02  0.13782748924E-01  0.21026561900E+02  0.51100000000E-03 0. -1.
        -11    1    3    3    0    0 -0.84115545106E+01  0.15979853166E+02  0.16613505326E+02  0.24538103349E+02  0.51100000000E-03 0.  1.
         12    1    3    3    0    0  0.20250372030E+02 -0.12728488346E+02 -0.12303365549E+02  0.26897300734E+02  0.00000000000E+00 0. -1.
</event>
<event>
 7    1  0.2944263E-013  0.7246162E+02  0.7816164E-02  0.1226708E+00
        -11   -1    0    0    0    0  0.00000000000E+00  0.00000000000E+00  0.45593999997E+02  0.45594000000E+02  0.51100000000E-03 0.  1.
         11   -1    0    0    0    0 -0.00000000000E+00 -0.00000000000E+00 -0.45593999997E+02  0.45594000000E+02  0.51100000000E-03 0. -1.
    9900012    2    1    2    0    0 -0.88339676159E+01 -0.13249518294E+02  0.98533635530E+01  0.72461615080E+02  0.70000058342E+02 0.  0.
         12    1    1    2    0    0  0.88339676159E+01  0.13249518294E+02 -0.98533635530E+01  0.18726384920E+02  0.00000000000E+00 0. -1.
         11    1    3    3    0    0 -0.15205807665E+02 -0.21378930025E+02  0.26840212152E+02  0.37532282430E+02  0.51100000000E-03 0. -1.
        -11    1    3    3    0    0  0.28991102459E+01 -0.17182136362E+01  0.75472880478E+01  0.82655099936E+01  0.51100000000E-03 0.  1.
         12    1    3    3    0    0  0.34727298035E+01  0.98476253678E+01 -0.24534136647E+02  0.26663822657E+02  0.00000000000E+00 0. -1.
</event>
<event>
 7    1  0.2944263E-013  0.7246157E+02  0.7816164E-02  0.1226708E+00
        -11   -1    0    0    0    0  0.00000000000E+00  0.00000000000E+00  0.45593999997E+02  0.45594000000E+02  0.51100000000E-03 0. -1.
         11   -1    0    0    0    0 -0.00000000000E+00 -0.00000000000E+00 -0.45593999997E+02  0.45594000000E+02  0.51100000000E-03 0.  1.
    9900012    2    1    2    0    0  0.57475347304E+01 -0.57283704695E+01 -0.16876935121E+02  0.72461566202E+02  0.69999994669E+02 0.  0.
         12    1    1    2    0    0 -0.57475347304E+01  0.57283704695E+01  0.16876935121E+02  0.18726433798E+02  0.00000000000E+00 0. -1.
         11    1    3    3    0    0 -0.89817182183E+01 -0.51439411283E+01 -0.16680544822E+02  0.19630893212E+02  0.51100000000E-03 0. -1.
        -11    1    3    3    0    0 -0.12922875670E+02 -0.13065255705E+02 -0.10033577581E+02  0.20937390037E+02  0.51100000000E-03 0.  1.
         12    1    3    3    0    0  0.27652128619E+02  0.12480826364E+02  0.98371872821E+01  0.31893282953E+02  0.00000000000E+00 0. -1.
</event>
<event>
 7    1  0.2944263E-013  0.7246150E+02  0.7816164E-02  0.1226708E+00
        -11   -1    0    0    0    0  0.00000000000E+00  0.00000000000E+00  0.45593999997E+02  0.45594000000E+02  0.51100000000E-03 0.  1.
         11   -1    0    0    0    0 -0.00000000000E+00 -0.00000000000E+00 -0.45593999997E+02  0.45594000000E+02  0.51100000000E-03 0. -1.
    9900012    2    1    2    0    0 -0.49869426710E+01  0.84760372368E+00  0.18030356006E+02  0.72461500942E+02  0.69999909656E+02 0.  0.
         12    1    1    2    0    0  0.49869426710E+01 -0.84760372368E+00 -0.18030356006E+02  0.18726499058E+02  0.00000000000E+00 0. -1.
         11    1    3    3    0    0  0.10087691523E+02 -0.19435680188E+02  0.96423255057E+01  0.23926588266E+02  0.51100000000E-03 0. -1.
        -11    1    3    3    0    0  0.58698350971E+01  0.12205134708E+02 -0.12086170883E+02  0.18152019287E+02  0.51100000000E-03 0.  1.
        -12    1    3    3    0    0 -0.20944469291E+02  0.80781492040E+01  0.20474201383E+02  0.30382893389E+02  0.00000000000E+00 0.  1.
</event>
<event>
 7    1  0.2944263E-013  0.7246178E+02  0.7816164E-02  0.1226707E+00
        -11   -1    0    0    0    0  0.00000000000E+00  0.00000000000E+00  0.45593999997E+02  0.45594000000E+02  0.51100000000E-03 0.  1.
         11   -1    0    0    0    0 -0.00000000000E+00 -0.00000000000E+00 -0.45593999997E+02  0.45594000000E+02  0.51100000000E-03 0. -1.
    9900012    2    1    2    0    0  0.14353292708E+01 -0.18509658106E+02  0.24502809489E+01  0.72461775339E+02  0.70000267109E+02 0.  0.
         12    1    1    2    0    0 -0.14353292708E+01  0.18509658106E+02 -0.24502809489E+01  0.18726224661E+02  0.00000000000E+00 0. -1.
         11    1    3    3    0    0  0.11063250557E+02  0.69898431985E+01  0.15667782512E+02  0.20414035121E+02  0.51100000000E-03 0. -1.
        -11    1    3    3    0    0  0.13121311133E+02 -0.22079179349E+02 -0.34474907587E+00  0.25686140597E+02  0.51100000000E-03 0.  1.
        -12    1    3    3    0    0 -0.22749232420E+02 -0.34203219557E+01 -0.12872752487E+02  0.26361599621E+02  0.00000000000E+00 0.  1.
</event>
<event>
 7    1  0.2944263E-013  0.7246155E+02  0.7816164E-02  0.1226708E+00
        -11   -1    0    0    0    0  0.00000000000E+00  0.00000000000E+00  0.45593999997E+02  0.45594000000E+02  0.51100000000E-03 0. -1.
         11   -1    0    0    0    0 -0.00000000000E+00 -0.00000000000E+00 -0.45593999997E+02  0.45594000000E+02  0.51100000000E-03 0.  1.
    9900012    2    1    2    0    0 -0.55151580889E+01  0.31153648505E+01 -0.17622643711E+02  0.72461547099E+02  0.69999969784E+02 0.  0.
         12    1    1    2    0    0  0.55151580889E+01 -0.31153648505E+01  0.17622643711E+02  0.18726452901E+02  0.00000000000E+00 0. -1.
         11    1    3    3    0    0 -0.25966640897E+02  0.77645717030E+01  0.63541926522E+01  0.27837578517E+02  0.51100000000E-03 0. -1.
        -11    1    3    3    0    0 -0.46772229776E+01  0.47299214077E+01 -0.14883634034E+02  0.16302488571E+02  0.51100000000E-03 0.  1.
         12    1    3    3    0    0  0.25128705785E+02 -0.93791282602E+01 -0.90932023290E+01  0.28321480010E+02  0.00000000000E+00 0. -1.
</event>
<event>
 7    1  0.2944263E-013  0.7246158E+02  0.7816164E-02  0.1226708E+00
        -11   -1    0    0    0    0  0.00000000000E+00  0.00000000000E+00  0.45593999997E+02  0.45594000000E+02  0.51100000000E-03 0.  1.
         11   -1    0    0    0    0 -0.00000000000E+00 -0.00000000000E+00 -0.45593999997E+02  0.45594000000E+02  0.51100000000E-03 0. -1.
    9900012    2    1    2    0    0  0.11076123881E+02  0.14739201733E+02 -0.32793356808E+01  0.72461584687E+02  0.70000018749E+02 0.  0.
         12    1    1    2    0    0 -0.11076123881E+02 -0.14739201733E+02  0.32793356808E+01  0.18726415313E+02  0.00000000000E+00 0. -1.
         11    1    3    3    0    0  0.82528191124E+01  0.20408441836E+01 -0.85468994878E+01  0.12055022165E+02  0.51100000000E-03 0. -1.
        -11    1    3    3    0    0 -0.77125280855E+01 -0.51140719410E+01 -0.23334598252E+02  0.25102595426E+02  0.51100000000E-03 0.  1.
        -12    1    3    3    0    0  0.10535832855E+02  0.17812429490E+02  0.28602162059E+02  0.35303967096E+02  0.00000000000E+00 0.  1.
</event>
<event>
 7    1  0.2944263E-013  0.7246120E+02  0.7816164E-02  0.1226709E+00
        -11   -1    0    0    0    0  0.00000000000E+00  0.00000000000E+00  0.45593999997E+02  0.45594000000E+02  0.51100000000E-03 0.  1.
         11   -1    0    0    0    0 -0.00000000000E+00 -0.00000000000E+00 -0.45593999997E+02  0.45594000000E+02  0.51100000000E-03 0. -1.
    9900012    2    1    2    0    0  0.37377756261E+01  0.80932957743E+01  0.16468782831E+02  0.72461195386E+02  0.69999511610E+02 0.  0.
         12    1    1    2    0    0 -0.37377756261E+01 -0.80932957743E+01 -0.16468782831E+02  0.18726804614E+02  0.00000000000E+00 0. -1.
         11    1    3    3    0    0  0.10776506264E+02  0.23311330655E+01 -0.75760697633E+01  0.13377746520E+02  0.51100000000E-03 0. -1.
        -11    1    3    3    0    0 -0.67914540533E+01  0.14521997482E+02 -0.13234114738E+02  0.20788315280E+02  0.51100000000E-03 0.  1.
         12    1    3    3    0    0 -0.24727658482E+00 -0.87598347729E+01  0.37278967333E+02  0.38295133586E+02  0.00000000000E+00 0. -1.
</event>
<event>
 7    1  0.2944263E-013  0.7246162E+02  0.7816164E-02  0.1226708E+00
        -11   -1    0    0    0    0  0.00000000000E+00  0.00000000000E+00  0.45593999997E+02  0.45594000000E+02  0.51100000000E-03 0.  1.
         11   -1    0    0    0    0 -0.00000000000E+00 -0.00000000000E+00 -0.45593999997E+02  0.45594000000E+02  0.51100000000E-03 0. -1.
    9900012    2    1    2    0    0  0.10627455319E+02  0.17459239447E+01  0.15319477530E+02  0.72461616239E+02  0.70000059851E+02 0.  0.
         12    1    1    2    0    0 -0.10627455319E+02 -0.17459239447E+01 -0.15319477530E+02  0.18726383761E+02  0.00000000000E+00 0. -1.
         11    1    3    3    0    0 -0.25783688336E+01  0.23691039552E+01 -0.77112946557E+01  0.84690439201E+01  0.51100000000E-03 0. -1.
        -11    1    3    3    0    0  0.15464535093E+02  0.27440076456E+02  0.13502542268E+02  0.34269932733E+02  0.51100000000E-03 0.  1.
         12    1    3    3    0    0 -0.22587109402E+01 -0.28063256466E+02  0.95282299176E+01  0.29722639586E+02  0.00000000000E+00 0. -1.
</event>
<event>
 7    1  0.2944263E-013  0.7246152E+02  0.7816164E-02  0.1226708E+00
        -11   -1    0    0    0    0  0.00000000000E+00  0.00000000000E+00  0.45593999997E+02  0.45594000000E+02  0.51100000000E-03 0.  1.
         11   -1    0    0    0    0 -0.00000000000E+00 -0.00000000000E+00 -0.45593999997E+02  0.45594000000E+02  0.51100000000E-03 0. -1.
    9900012    2    1    2    0    0  0.17038718440E+02  0.17652389809E+01  0.75661727718E+01  0.72461522351E+02  0.69999937545E+02 0.  0.
         12    1    1    2    0    0 -0.17038718440E+02 -0.17652389809E+01 -0.75661727718E+01  0.18726477649E+02  0.00000000000E+00 0. -1.
         11    1    3    3    0    0  0.17106511052E+02 -0.91551910949E+01  0.13055766442E+02  0.23385963354E+02  0.51100000000E-03 0. -1.
        -11    1    3    3    0    0 -0.91817567956E+01  0.15003114766E+02  0.17003839783E+02  0.24464845762E+02  0.51100000000E-03 0.  1.
        -12    1    3    3    0    0  0.91139641835E+01 -0.40826846905E+01 -0.22493433453E+02  0.24610713235E+02  0.00000000000E+00 0.  1.
</event>
<event>
 7    1  0.2944263E-013  0.7246158E+02  0.7816164E-02  0.1226708E+00
        -11   -1    0    0    0    0  0.00000000000E+00  0.00000000000E+00  0.45593999997E+02  0.45594000000E+02  0.51100000000E-03 0. -1.
         11   -1    0    0    0    0 -0.00000000000E+00 -0.00000000000E+00 -0.45593999997E+02  0.45594000000E+02  0.51100000000E-03 0.  1.
    9900012    2    1    2    0    0 -0.80708617955E+00 -0.18590029825E+02  0.21066998852E+01  0.72461580657E+02  0.70000013499E+02 0.  0.
         12    1    1    2    0    0  0.80708617955E+00  0.18590029825E+02 -0.21066998852E+01  0.18726419343E+02  0.00000000000E+00 0. -1.
         11    1    3    3    0    0 -0.23258030600E+02 -0.19656919398E+01  0.42170121672E+01  0.23718834796E+02  0.51100000000E-03 0. -1.
        -11    1    3    3    0    0 -0.10033548299E+02 -0.12294912818E+02 -0.17845779083E+01  0.15969398588E+02  0.51100000000E-03 0.  1.
        -12    1    3    3    0    0  0.32484492719E+02 -0.43294250670E+01 -0.32573437368E+00  0.32773347274E+02  0.00000000000E+00 0.  1.
</event>
<event>
 7    1  0.2944263E-013  0.7246154E+02  0.7816164E-02  0.1226708E+00
        -11   -1    0    0    0    0  0.00000000000E+00  0.00000000000E+00  0.45593999997E+02  0.45594000000E+02  0.51100000000E-03 0.  1.
         11   -1    0    0    0    0 -0.00000000000E+00 -0.00000000000E+00 -0.45593999997E+02  0.45594000000E+02  0.51100000000E-03 0. -1.
    9900012    2    1    2    0    0  0.11681115996E+02 -0.14574319514E+02  0.13494905396E+01  0.72461537842E+02  0.69999957725E+02 0.  0.
         12    1    1    2    0    0 -0.11681115996E+02  0.14574319514E+02 -0.13494905396E+01  0.18726462158E+02  0.00000000000E+00 0. -1.
         11    1    3    3    0    0 -0.58792004148E+01 -0.30974583401E+00 -0.25762434461E+02  0.26426576956E+02  0.51100000000E-03 0. -1.
        -11    1    3    3    0    0 -0.66785944335E+01  0.30478049827E+01  0.65711680474E+01  0.98525625391E+01  0.51100000000E-03 0.  1.
         12    1    3    3    0    0  0.24238910844E+02 -0.17312378663E+02  0.20540756954E+02  0.36182398347E+02  0.00000000000E+00 0. -1.
</event>
<event>
 7    1  0.2944263E-013  0.7246154E+02  0.7816164E-02  0.1226708E+00
        -11   -1    0    0    0    0  0.00000000000E+00  0.00000000000E+00  0.45593999997E+02  0.45594000000E+02  0.51100000000E-03 0. -1.
         11   -1    0    0    0    0 -0.00000000000E+00 -0.00000000000E+00 -0.45593999997E+02  0.45594000000E+02  0.51100000000E-03 0.  1.
    9900012    2    1    2    0    0 -0.13489669121E+02 -0.12247789940E+02 -0.43244604909E+01  0.72461535038E+02  0.69999954073E+02 0.  0.
         12    1    1    2    0    0  0.13489669121E+02  0.12247789940E+02  0.43244604909E+01  0.18726464962E+02  0.00000000000E+00 0. -1.
         11    1    3    3    0    0  0.63028919995E+01 -0.21414730620E+01 -0.29127727762E+01  0.72661268871E+01  0.51100000000E-03 0. -1.
        -11    1    3    3    0    0  0.93457714528E+01  0.19619855774E+02  0.67929053776E+01  0.22768964587E+02  0.51100000000E-03 0.  1.
        -12    1    3    3    0    0 -0.29138332574E+02 -0.29726172652E+02 -0.82045930924E+01  0.42426443564E+02  0.00000000000E+00 0.  1.
</event>
<event>
 7    1  0.2944263E-013  0.7246156E+02  0.7816164E-02  0.1226708E+00
        -11   -1    0    0    0    0  0.00000000000E+00  0.00000000000E+00  0.45593999997E+02  0.45594000000E+02  0.51100000000E-03 0.  1.
         11   -1    0    0    0    0 -0.00000000000E+00 -0.00000000000E+00 -0.45593999997E+02  0.45594000000E+02  0.51100000000E-03 0. -1.
    9900012    2    1    2    0    0  0.18473786821E+02 -0.30610004207E+01 -0.17063340749E+00  0.72461557763E+02  0.69999983676E+02 0.  0.
         12    1    1    2    0    0 -0.18473786821E+02  0.30610004207E+01  0.17063340749E+00  0.18726442237E+02  0.00000000000E+00 0. -1.
         11    1    3    3    0    0  0.57359434103E+01  0.63369350237E+01  0.62135263188E+01  0.10567199339E+02  0.51100000000E-03 0. -1.
        -11    1    3    3    0    0  0.30402777542E+02  0.96540315404E+01  0.70156543102E+01  0.32661117754E+02  0.51100000000E-03 0.  1.
         12    1    3    3    0    0 -0.17664934131E+02 -0.19051966985E+02 -0.13399814037E+02  0.29233240670E+02  0.00000000000E+00 0. -1.
</event>
<event>
 7    1  0.2944263E-013  0.7246160E+02  0.7816164E-02  0.1226708E+00
        -11   -1    0    0    0    0  0.00000000000E+00  0.00000000000E+00  0.45593999997E+02  0.45594000000E+02  0.51100000000E-03 0. -1.
         11   -1    0    0    0    0 -0.00000000000E+00 -0.00000000000E+00 -0.45593999997E+02  0.45594000000E+02  0.51100000000E-03 0.  1.
    9900012    2    1    2    0    0 -0.43503200693E+01  0.82636536224E+01 -0.16231596038E+02  0.72461602433E+02  0.70000041867E+02 0.  0.
         12    1    1    2    0    0  0.43503200693E+01 -0.82636536224E+01  0.16231596038E+02  0.18726397567E+02  0.00000000000E+00 0. -1.
         11    1    3    3    0    0  0.16442186278E+02 -0.10826073621E+02  0.84783433871E+01  0.21434357151E+02  0.51100000000E-03 0. -1.
        -11    1    3    3    0    0  0.44466696432E+01  0.38957816483E+01  0.60338244461E+01  0.84473086409E+01  0.51100000000E-03 0.  1.
        -12    1    3    3    0    0 -0.25239175990E+02  0.15193945595E+02 -0.30743763871E+02  0.42579936641E+02  0.00000000000E+00 0.  1.
</event>
<event>
 7    1  0.2944263E-013  0.7246158E+02  0.7816164E-02  0.1226708E+00
        -11   -1    0    0    0    0  0.00000000000E+00  0.00000000000E+00  0.45593999997E+02  0.45594000000E+02  0.51100000000E-03 0.  1.
         11   -1    0    0    0    0 -0.00000000000E+00 -0.00000000000E+00 -0.45593999997E+02  0.45594000000E+02  0.51100000000E-03 0. -1.
    9900012    2    1    2    0    0 -0.80464367440E+01 -0.15503167108E+02 -0.67516914203E+01  0.72461583587E+02  0.70000017316E+02 0.  0.
         12    1    1    2    0    0  0.80464367440E+01  0.15503167108E+02  0.67516914203E+01  0.18726416413E+02  0.00000000000E+00 0. -1.
         11    1    3    3    0    0 -0.23114303359E+02  0.29997762232E+01 -0.10945595900E+02  0.25750257223E+02  0.51100000000E-03 0. -1.
        -11    1    3    3    0    0  0.18874764070E+02 -0.19823165126E+01 -0.12653723628E+02  0.22810151673E+02  0.51100000000E-03 0.  1.
        -12    1    3    3    0    0 -0.38068974548E+01 -0.16520626819E+02  0.16847628108E+02  0.23901174690E+02  0.00000000000E+00 0.  1.
</event>
<event>
 7    1  0.2944263E-013  0.7246161E+02  0.7816164E-02  0.1226708E+00
        -11   -1    0    0    0    0  0.00000000000E+00  0.00000000000E+00  0.45593999997E+02  0.45594000000E+02  0.51100000000E-03 0.  1.
         11   -1    0    0    0    0 -0.00000000000E+00 -0.00000000000E+00 -0.45593999997E+02  0.45594000000E+02  0.51100000000E-03 0. -1.
    9900012    2    1    2    0    0  0.10341333049E+02 -0.14381892473E+02  0.60741690183E+01  0.72461614081E+02  0.70000057040E+02 0.  0.
         12    1    1    2    0    0 -0.10341333049E+02  0.14381892473E+02 -0.60741690183E+01  0.18726385919E+02  0.00000000000E+00 0. -1.
         11    1    3    3    0    0 -0.34393292604E+01 -0.24284011641E+02 -0.80793648215E+01  0.25822826013E+02  0.51100000000E-03 0. -1.
        -11    1    3    3    0    0 -0.12409189346E+02 -0.56115039629E+01  0.16024074004E+01  0.13712937930E+02  0.51100000000E-03 0.  1.
        -12    1    3    3    0    0  0.26189851655E+02  0.15513623131E+02  0.12551126439E+02  0.32925850137E+02  0.00000000000E+00 0.  1.
</event>
<event>
 7    1  0.3127464E-013  0.7246156E+02  0.7816164E-02  0.1226708E+00
        -11   -1    0    0    0    0  0.00000000000E+00  0.00000000000E+00  0.45593999997E+02  0.45594000000E+02  0.51100000000E-03 0. -1.
         11   -1    0    0    0    0 -0.00000000000E+00 -0.00000000000E+00 -0.45593999997E+02  0.45594000000E+02  0.51100000000E-03 0.  1.
    9900012    2    1    2    0    0  0.15026811114E+02 -0.36311909084E+01 -0.10568296324E+02  0.72461561821E+02  0.69999988962E+02 0.  0.
         12    1    1    2    0    0 -0.15026811114E+02  0.36311909084E+01  0.10568296324E+02  0.18726438179E+02  0.00000000000E+00 0. -1.
         11    1    3    3    0    0 -0.35457568925E+01  0.37150362212E+01 -0.50840818334E+01  0.72264634791E+01  0.51100000000E-03 0. -1.
        -11    1    3    3    0    0 -0.64156571764E+01 -0.87234247305E+01 -0.28962005125E+02  0.30920163925E+02  0.51100000000E-03 0.  1.
         12    1    3    3    0    0  0.24988225183E+02  0.13771976009E+01  0.23477790634E+02  0.34314934417E+02  0.00000000000E+00 0. -1.
</event>
<event>
 7    1  0.2944263E-013  0.7246159E+02  0.7816164E-02  0.1226708E+00
        -11   -1    0    0    0    0  0.00000000000E+00  0.00000000000E+00  0.45593999997E+02  0.45594000000E+02  0.51100000000E-03 0.  1.
         11   -1    0    0    0    0 -0.00000000000E+00 -0.00000000000E+00 -0.45593999997E+02  0.45594000000E+02  0.51100000000E-03 0. -1.
    9900012    2    1    2    0    0  0.17046938095E+02  0.75039388883E+01 -0.19419685431E+01  0.72461589797E+02  0.70000025406E+02 0.  0.
         12    1    1    2    0    0 -0.17046938095E+02 -0.75039388883E+01  0.19419685431E+01  0.18726410203E+02  0.00000000000E+00 0. -1.
         11    1    3    3    0    0 -0.12717190395E+02 -0.55827742804E+01 -0.12130530251E+02  0.18440283746E+02  0.51100000000E-03 0. -1.
        -11    1    3    3    0    0 -0.63074753304E+01  0.14909742556E+02  0.73883066084E+01  0.17795273050E+02  0.51100000000E-03 0.  1.
        -12    1    3    3    0    0  0.36071603821E+02 -0.18230293875E+01  0.28002550992E+01  0.36226033001E+02  0.00000000000E+00 0.  1.
</event>
<event>
 7    1  0.2944263E-013  0.7246163E+02  0.7816164E-02  0.1226708E+00
        -11   -1    0    0    0    0  0.00000000000E+00  0.00000000000E+00  0.45593999997E+02  0.45594000000E+02  0.51100000000E-03 0. -1.
         11   -1    0    0    0    0 -0.00000000000E+00 -0.00000000000E+00 -0.45593999997E+02  0.45594000000E+02  0.51100000000E-03 0.  1.
    9900012    2    1    2    0    0  0.43865925293E+01 -0.10232861277E+02 -0.15057339337E+02  0.72461625235E+02  0.70000071571E+02 0.  0.
         12    1    1    2    0    0 -0.43865925293E+01  0.10232861277E+02  0.15057339337E+02  0.18726374765E+02  0.00000000000E+00 0. -1.
         11    1    3    3    0    0  0.78783538513E+01 -0.14830498734E+01 -0.39022119259E+01  0.89160055243E+01  0.51100000000E-03 0. -1.
        -11    1    3    3    0    0 -0.96374379255E+01 -0.53669462815E+01 -0.36040227901E+02  0.37690613547E+02  0.51100000000E-03 0.  1.
         12    1    3    3    0    0  0.61456766035E+01 -0.33828651217E+01  0.24885100490E+02  0.25855006164E+02  0.00000000000E+00 0. -1.
</event>
<event>
 7    1  0.2944263E-013  0.7246157E+02  0.7816164E-02  0.1226708E+00
        -11   -1    0    0    0    0  0.00000000000E+00  0.00000000000E+00  0.45593999997E+02  0.45594000000E+02  0.51100000000E-03 0. -1.
         11   -1    0    0    0    0 -0.00000000000E+00 -0.00000000000E+00 -0.45593999997E+02  0.45594000000E+02  0.51100000000E-03 0.  1.
    9900012    2    1    2    0    0  0.12729554228E+01  0.18067678558E+02  0.47558261969E+01  0.72461566629E+02  0.69999995225E+02 0.  0.
         12    1    1    2    0    0 -0.12729554228E+01 -0.18067678558E+02 -0.47558261969E+01  0.18726433371E+02  0.00000000000E+00 0. -1.
         11    1    3    3    0    0  0.93926428644E+01  0.13741983844E+01 -0.18633699497E+02  0.20912314993E+02  0.51100000000E-03 0. -1.
        -11    1    3    3    0    0  0.12998145960E+01  0.17284615418E+02 -0.77674040991E+01  0.18994210035E+02  0.51100000000E-03 0.  1.
        -12    1    3    3    0    0 -0.94195020376E+01 -0.59113524486E+00  0.31156929793E+02  0.32555041601E+02  0.00000000000E+00 0.  1.
</event>
<event>
 7    1  0.2944263E-013  0.7246157E+02  0.7816164E-02  0.1226708E+00
        -11   -1    0    0    0    0  0.00000000000E+00  0.00000000000E+00  0.45593999997E+02  0.45594000000E+02  0.51100000000E-03 0. -1.
         11   -1    0    0    0    0 -0.00000000000E+00 -0.00000000000E+00 -0.45593999997E+02  0.45594000000E+02  0.51100000000E-03 0.  1.
    9900012    2    1    2    0    0  0.15735362575E+02 -0.10138777085E+02 -0.53187475089E+00  0.72461566092E+02  0.69999994526E+02 0.  0.
         12    1    1    2    0    0 -0.15735362575E+02  0.10138777085E+02  0.53187475089E+00  0.18726433908E+02  0.00000000000E+00 0. -1.
         11    1    3    3    0    0  0.32036614974E+01 -0.87830264492E+01  0.37123182425E+01  0.10059140500E+02  0.51100000000E-03 0.  1.
        -11    1    3    3    0    0 -0.53298593826E+01 -0.26285603790E+02 -0.13954757034E+02  0.30233683398E+02  0.51100000000E-03 0. -1.
        -12    1    3    3    0    0  0.17861560460E+02  0.24929853154E+02  0.97105640410E+01  0.32168742195E+02  0.00000000000E+00 0.  1.
</event>
<event>
 7    1  0.2944263E-013  0.7246155E+02  0.7816164E-02  0.1226708E+00
        -11   -1    0    0    0    0  0.00000000000E+00  0.00000000000E+00  0.45593999997E+02  0.45594000000E+02  0.51100000000E-03 0.  1.
         11   -1    0    0    0    0 -0.00000000000E+00 -0.00000000000E+00 -0.45593999997E+02  0.45594000000E+02  0.51100000000E-03 0. -1.
    9900012    2    1    2    0    0  0.15962774796E+02 -0.75122552321E+01  0.62797845261E+01  0.72461552084E+02  0.69999976278E+02 0.  0.
         12    1    1    2    0    0 -0.15962774796E+02  0.75122552321E+01 -0.62797845261E+01  0.18726447916E+02  0.00000000000E+00 0. -1.
         11    1    3    3    0    0 -0.19718413746E+01  0.18299635836E+02  0.16095951897E+02  0.24450858837E+02  0.51100000000E-03 0. -1.
        -11    1    3    3    0    0  0.83373291464E+01 -0.40455954592E+01  0.12387492502E+02  0.15470225295E+02  0.51100000000E-03 0.  1.
        -12    1    3    3    0    0  0.95972870241E+01 -0.21766295609E+02 -0.22203659873E+02  0.32540467952E+02  0.00000000000E+00 0.  1.
</event>
<event>
 7    1  0.2944263E-013  0.7246155E+02  0.7816164E-02  0.1226708E+00
        -11   -1    0    0    0    0  0.00000000000E+00  0.00000000000E+00  0.45593999997E+02  0.45594000000E+02  0.51100000000E-03 0.  1.
         11   -1    0    0    0    0 -0.00000000000E+00 -0.00000000000E+00 -0.45593999997E+02  0.45594000000E+02  0.51100000000E-03 0. -1.
    9900012    2    1    2    0    0 -0.14566439174E+02 -0.74473510454E+01  0.91123853750E+01  0.72461554661E+02  0.69999979635E+02 0.  0.
         12    1    1    2    0    0  0.14566439174E+02  0.74473510454E+01 -0.91123853750E+01  0.18726445339E+02  0.00000000000E+00 0. -1.
         11    1    3    3    0    0  0.25360395831E+00  0.11014690909E+02 -0.24596039130E+01  0.11288816699E+02  0.51100000000E-03 0. -1.
        -11    1    3    3    0    0 -0.14544286958E+02  0.31921848927E+01  0.29508954849E+02  0.33053059526E+02  0.51100000000E-03 0.  1.
        -12    1    3    3    0    0 -0.27575617397E+00 -0.21654226847E+02 -0.17936965561E+02  0.28119678436E+02  0.00000000000E+00 0.  1.
</event>
<event>
 7    1  0.2944263E-013  0.7246160E+02  0.7816164E-02  0.1226708E+00
        -11   -1    0    0    0    0  0.00000000000E+00  0.00000000000E+00  0.45593999997E+02  0.45594000000E+02  0.51100000000E-03 0.  1.
         11   -1    0    0    0    0 -0.00000000000E+00 -0.00000000000E+00 -0.45593999997E+02  0.45594000000E+02  0.51100000000E-03 0. -1.
    9900012    2    1    2    0    0  0.38516597131E+01  0.10197193004E+02  0.15226945542E+02  0.72461604238E+02  0.70000044218E+02 0.  0.
         12    1    1    2    0    0 -0.38516597131E+01 -0.10197193004E+02 -0.15226945542E+02  0.18726395762E+02  0.00000000000E+00 0. -1.
         11    1    3    3    0    0  0.12809177369E+02  0.26396325734E+02  0.10600798274E+02  0.31196441487E+02  0.51100000000E-03 0. -1.
        -11    1    3    3    0    0  0.79309111502E+01 -0.82601023147E+01  0.15800722181E+02  0.19513878744E+02  0.51100000000E-03 0.  1.
         12    1    3    3    0    0 -0.16888428806E+02 -0.79390304158E+01 -0.11174574914E+02  0.21751284007E+02  0.00000000000E+00 0. -1.
</event>
<event>
 7    1  0.2944263E-013  0.7246154E+02  0.7816164E-02  0.1226708E+00
        -11   -1    0    0    0    0  0.00000000000E+00  0.00000000000E+00  0.45593999997E+02  0.45594000000E+02  0.51100000000E-03 0. -1.
         11   -1    0    0    0    0 -0.00000000000E+00 -0.00000000000E+00 -0.45593999997E+02  0.45594000000E+02  0.51100000000E-03 0.  1.
    9900012    2    1    2    0    0 -0.14175039011E+01  0.58007190903E+01 -0.17748873346E+02  0.72461543732E+02  0.69999965398E+02 0.  0.
         12    1    1    2    0    0  0.14175039011E+01 -0.58007190903E+01  0.17748873346E+02  0.18726456268E+02  0.00000000000E+00 0. -1.
         11    1    3    3    0    0  0.23993430328E+02 -0.85851820563E+01  0.46493185655E+01  0.25903787623E+02  0.51100000000E-03 0. -1.
        -11    1    3    3    0    0 -0.52075682959E+01 -0.85473239356E+01 -0.33971495830E+01  0.10569585591E+02  0.51100000000E-03 0.  1.
        -12    1    3    3    0    0 -0.20203365933E+02  0.22933225082E+02 -0.19001042329E+02  0.35988170519E+02  0.00000000000E+00 0.  1.
</event>
<event>
 7    1  0.2944263E-013  0.7246155E+02  0.7816164E-02  0.1226708E+00
        -11   -1    0    0    0    0  0.00000000000E+00  0.00000000000E+00  0.45593999997E+02  0.45594000000E+02  0.51100000000E-03 0. -1.
         11   -1    0    0    0    0 -0.00000000000E+00 -0.00000000000E+00 -0.45593999997E+02  0.45594000000E+02  0.51100000000E-03 0.  1.
    9900012    2    1    2    0    0 -0.15881015183E+02  0.99045656260E+01  0.61052708630E+00  0.72461553279E+02  0.69999977834E+02 0.  0.
         12    1    1    2    0    0  0.15881015183E+02 -0.99045656260E+01 -0.61052708630E+00  0.18726446721E+02  0.00000000000E+00 0. -1.
         11    1    3    3    0    0 -0.33243740194E+01 -0.29843688602E+01  0.19195846164E+01  0.48623785820E+01  0.51100000000E-03 0. -1.
        -11    1    3    3    0    0 -0.17672870308E+02 -0.17247243963E+02 -0.19993806174E+02  0.31773417425E+02  0.51100000000E-03 0.  1.
         12    1    3    3    0    0  0.51162291442E+01  0.30136178449E+02  0.18684748644E+02  0.35825757272E+02  0.00000000000E+00 0. -1.
</event>
<event>
 7    1  0.2944263E-013  0.7246158E+02  0.7816164E-02  0.1226708E+00
        -11   -1    0    0    0    0  0.00000000000E+00  0.00000000000E+00  0.45593999997E+02  0.45594000000E+02  0.51100000000E-03 0.  1.
         11   -1    0    0    0    0 -0.00000000000E+00 -0.00000000000E+00 -0.45593999997E+02  0.45594000000E+02  0.51100000000E-03 0. -1.
    9900012    2    1    2    0    0  0.17480251033E+02  0.23595824503E+01  0.62890232970E+01  0.72461584978E+02  0.70000019129E+02 0.  0.
         12    1    1    2    0    0 -0.17480251033E+02 -0.23595824503E+01 -0.62890232970E+01  0.18726415022E+02  0.00000000000E+00 0. -1.
         11    1    3    3    0    0  0.45917179338E+00 -0.14384040916E+02  0.16112953481E+01  0.14481289472E+02  0.51100000000E-03 0. -1.
        -11    1    3    3    0    0  0.11417842236E+02  0.33694565567E+02 -0.75142374159E+01  0.36361444337E+02  0.51100000000E-03 0.  1.
         12    1    3    3    0    0  0.56032370045E+01 -0.16950942201E+02  0.12191965365E+02  0.21618851169E+02  0.00000000000E+00 0. -1.
</event>
<event>
 7    1  0.2944263E-013  0.7246151E+02  0.7816164E-02  0.1226708E+00
        -11   -1    0    0    0    0  0.00000000000E+00  0.00000000000E+00  0.45593999997E+02  0.45594000000E+02  0.51100000000E-03 0. -1.
         11   -1    0    0    0    0 -0.00000000000E+00 -0.00000000000E+00 -0.45593999997E+02  0.45594000000E+02  0.51100000000E-03 0.  1.
    9900012    2    1    2    0    0 -0.17019995973E+02  0.51697306228E+01 -0.58544843833E+01  0.72461511674E+02  0.69999923636E+02 0.  0.
         12    1    1    2    0    0  0.17019995973E+02 -0.51697306228E+01  0.58544843833E+01  0.18726488326E+02  0.00000000000E+00 0. -1.
         11    1    3    3    0    0  0.23584013408E+01  0.11981693658E+02 -0.23060174077E+01  0.12427419536E+02  0.51100000000E-03 0. -1.
        -11    1    3    3    0    0 -0.30818620162E+02 -0.21505384216E+02 -0.12185922622E+02  0.39506526162E+02  0.51100000000E-03 0.  1.
         12    1    3    3    0    0  0.11440222848E+02  0.14693421181E+02  0.86374556469E+01  0.20527565975E+02  0.00000000000E+00 0. -1.
</event>
<event>
 7    1  0.2944263E-013  0.7246170E+02  0.7816164E-02  0.1226708E+00
        -11   -1    0    0    0    0  0.00000000000E+00  0.00000000000E+00  0.45593999997E+02  0.45594000000E+02  0.51100000000E-03 0.  1.
         11   -1    0    0    0    0 -0.00000000000E+00 -0.00000000000E+00 -0.45593999997E+02  0.45594000000E+02  0.51100000000E-03 0. -1.
    9900012    2    1    2    0    0 -0.93017088557E+01  0.73187048935E+01  0.14511682858E+02  0.72461703828E+02  0.70000173952E+02 0.  0.
         12    1    1    2    0    0  0.93017088557E+01 -0.73187048935E+01 -0.14511682858E+02  0.18726296172E+02  0.00000000000E+00 0. -1.
         11    1    3    3    0    0 -0.26575550144E+02 -0.60739538362E+01 -0.84580845336E+01  0.28542809513E+02  0.51100000000E-03 0. -1.
        -11    1    3    3    0    0 -0.43936181469E+01 -0.63737076083E+01  0.24331440993E+01  0.81146915879E+01  0.51100000000E-03 0.  1.
        -12    1    3    3    0    0  0.21667459436E+02  0.19766366338E+02  0.20536623293E+02  0.35804202726E+02  0.00000000000E+00 0.  1.
</event>
<event>
 7    1  0.2944263E-013  0.7246148E+02  0.7816164E-02  0.1226708E+00
        -11   -1    0    0    0    0  0.00000000000E+00  0.00000000000E+00  0.45593999997E+02  0.45594000000E+02  0.51100000000E-03 0. -1.
         11   -1    0    0    0    0 -0.00000000000E+00 -0.00000000000E+00 -0.45593999997E+02  0.45594000000E+02  0.51100000000E-03 0.  1.
    9900012    2    1    2    0    0 -0.17879542887E+02  0.40147195649E+01 -0.38583108385E+01  0.72461478979E+02  0.69999881044E+02 0.  0.
         12    1    1    2    0    0  0.17879542887E+02 -0.40147195649E+01  0.38583108385E+01  0.18726521021E+02  0.00000000000E+00 0. -1.
         11    1    3    3    0    0  0.23633768120E+01 -0.51797875586E+00  0.70248747059E+01  0.74298530834E+01  0.51100000000E-03 0. -1.
        -11    1    3    3    0    0 -0.29119701070E+02 -0.18491003947E+02  0.61627722777E+01  0.35040747420E+02  0.51100000000E-03 0.  1.
         12    1    3    3    0    0  0.88767813707E+01  0.23023702268E+02 -0.17045957822E+02  0.29990878475E+02  0.00000000000E+00 0. -1.
</event>
<event>
 7    1  0.2944263E-013  0.7246155E+02  0.7816164E-02  0.1226708E+00
        -11   -1    0    0    0    0  0.00000000000E+00  0.00000000000E+00  0.45593999997E+02  0.45594000000E+02  0.51100000000E-03 0. -1.
         11   -1    0    0    0    0 -0.00000000000E+00 -0.00000000000E+00 -0.45593999997E+02  0.45594000000E+02  0.51100000000E-03 0.  1.
    9900012    2    1    2    0    0  0.18615476761E+01 -0.46356495058E+01 -0.18047862291E+02  0.72461549739E+02  0.69999973223E+02 0.  0.
         12    1    1    2    0    0 -0.18615476761E+01  0.46356495058E+01  0.18047862291E+02  0.18726450261E+02  0.00000000000E+00 0. -1.
         11    1    3    3    0    0 -0.19541138318E+02 -0.22802475596E+02 -0.46128366969E+01  0.30382350842E+02  0.51100000000E-03 0. -1.
        -11    1    3    3    0    0 -0.26000168623E+01 -0.18647603292E+01  0.48880094703E+01  0.58420934272E+01  0.51100000000E-03 0.  1.
        -12    1    3    3    0    0  0.24002702856E+02  0.20031586419E+02 -0.18323035064E+02  0.36237105470E+02  0.00000000000E+00 0.  1.
</event>
<event>
 7    1  0.2944263E-013  0.7246158E+02  0.7816164E-02  0.1226708E+00
        -11   -1    0    0    0    0  0.00000000000E+00  0.00000000000E+00  0.45593999997E+02  0.45594000000E+02  0.51100000000E-03 0.  1.
         11   -1    0    0    0    0 -0.00000000000E+00 -0.00000000000E+00 -0.45593999997E+02  0.45594000000E+02  0.51100000000E-03 0. -1.
    9900012    2    1    2    0    0  0.15707526315E+02  0.44881158864E+01  0.91547414469E+01  0.72461578609E+02  0.70000010832E+02 0.  0.
         12    1    1    2    0    0 -0.15707526315E+02 -0.44881158864E+01 -0.91547414469E+01  0.18726421391E+02  0.00000000000E+00 0. -1.
         11    1    3    3    0    0  0.10484499027E+02  0.16664316983E+02 -0.16517274776E+02  0.25699115678E+02  0.51100000000E-03 0. -1.
        -11    1    3    3    0    0  0.17171639891E+01  0.12982690726E+02  0.50212394692E+01  0.14025396847E+02  0.51100000000E-03 0.  1.
        -12    1    3    3    0    0  0.35058632990E+01 -0.25158891823E+02  0.20650776753E+02  0.32737066084E+02  0.00000000000E+00 0.  1.
</event>
<event>
 7    1  0.2944263E-013  0.7246162E+02  0.7816164E-02  0.1226708E+00
        -11   -1    0    0    0    0  0.00000000000E+00  0.00000000000E+00  0.45593999997E+02  0.45594000000E+02  0.51100000000E-03 0. -1.
         11   -1    0    0    0    0 -0.00000000000E+00 -0.00000000000E+00 -0.45593999997E+02  0.45594000000E+02  0.51100000000E-03 0.  1.
    9900012    2    1    2    0    0 -0.86303144576E+01 -0.16605799362E+02  0.66507367268E+00  0.72461622265E+02  0.70000067701E+02 0.  0.
         12    1    1    2    0    0  0.86303144576E+01  0.16605799362E+02 -0.66507367268E+00  0.18726377735E+02  0.00000000000E+00 0. -1.
         11    1    3    3    0    0  0.92837364121E+00  0.52971196051E+01 -0.17559436424E+02  0.18364508202E+02  0.51100000000E-03 0.  1.
        -11    1    3    3    0    0 -0.17234762179E+02 -0.31686208227E+02  0.20450611002E+02  0.41464205163E+02  0.51100000000E-03 0. -1.
         12    1    3    3    0    0  0.76760740802E+01  0.97832892600E+01 -0.22261009054E+01  0.12632908900E+02  0.00000000000E+00 0. -1.
</event>
<event>
 7    1  0.2944263E-013  0.7246155E+02  0.7816164E-02  0.1226708E+00
        -11   -1    0    0    0    0  0.00000000000E+00  0.00000000000E+00  0.45593999997E+02  0.45594000000E+02  0.51100000000E-03 0.  1.
         11   -1    0    0    0    0 -0.00000000000E+00 -0.00000000000E+00 -0.45593999997E+02  0.45594000000E+02  0.51100000000E-03 0. -1.
    9900012    2    1    2    0    0 -0.98155258029E+01  0.19421068678E+01  0.15829204737E+02  0.72461546826E+02  0.69999969428E+02 0.  0.
         12    1    1    2    0    0  0.98155258029E+01 -0.19421068678E+01 -0.15829204737E+02  0.18726453174E+02  0.00000000000E+00 0. -1.
         11    1    3    3    0    0  0.43482390927E+00  0.20453161627E+02 -0.48202355211E+01  0.21017981899E+02  0.51100000000E-03 0. -1.
        -11    1    3    3    0    0 -0.46310857581E+01 -0.29123609275E+02  0.23859243193E+01  0.29585878517E+02  0.51100000000E-03 0.  1.
         12    1    3    3    0    0 -0.56192639541E+01  0.10612554516E+02  0.18263515939E+02  0.21857686410E+02  0.00000000000E+00 0. -1.
</event>
<event>
 7    1  0.2944263E-013  0.7246149E+02  0.7816164E-02  0.1226708E+00
        -11   -1    0    0    0    0  0.00000000000E+00  0.00000000000E+00  0.45593999997E+02  0.45594000000E+02  0.51100000000E-03 0.  1.
         11   -1    0    0    0    0 -0.00000000000E+00 -0.00000000000E+00 -0.45593999997E+02  0.45594000000E+02  0.51100000000E-03 0. -1.
    9900012    2    1    2    0    0 -0.15871451371E+02  0.86991963243E+01  0.48065625339E+01  0.72461493954E+02  0.69999900552E+02 0.  0.
         12    1    1    2    0    0  0.15871451371E+02 -0.86991963243E+01 -0.48065625339E+01  0.18726506046E+02  0.00000000000E+00 0. -1.
         11    1    3    3    0    0  0.26256697066E+01  0.97988234561E+01 -0.16977178802E+02  0.19777150525E+02  0.51100000000E-03 0. -1.
        -11    1    3    3    0    0 -0.22889867399E+02  0.60753678980E+01 -0.53475526763E+01  0.24278641736E+02  0.51100000000E-03 0.  1.
        -12    1    3    3    0    0  0.43927463212E+01 -0.71749950299E+01  0.27131294012E+02  0.28405701694E+02  0.00000000000E+00 0.  1.
</event>
<event>
 7    1  0.2944263E-013  0.7246160E+02  0.7816164E-02  0.1226708E+00
        -11   -1    0    0    0    0  0.00000000000E+00  0.00000000000E+00  0.45593999997E+02  0.45594000000E+02  0.51100000000E-03 0.  1.
         11   -1    0    0    0    0 -0.00000000000E+00 -0.00000000000E+00 -0.45593999997E+02  0.45594000000E+02  0.51100000000E-03 0. -1.
    9900012    2    1    2    0    0  0.34500742624E+01  0.17820151495E+02  0.46062331052E+01  0.72461596311E+02  0.70000033891E+02 0.  0.
         12    1    1    2    0    0 -0.34500742624E+01 -0.17820151495E+02 -0.46062331052E+01  0.18726403689E+02  0.00000000000E+00 0. -1.
         11    1    3    3    0    0 -0.14853831449E+02 -0.22928929273E+01 -0.90680705039E+01  0.17553448938E+02  0.51100000000E-03 0. -1.
        -11    1    3    3    0    0  0.29841114135E+02  0.52718891884E+01  0.18495514772E+02  0.35501675670E+02  0.51100000000E-03 0.  1.
         12    1    3    3    0    0 -0.11537208423E+02  0.14841155234E+02 -0.48212111634E+01  0.19406471703E+02  0.00000000000E+00 0. -1.
</event>
<event>
 7    1  0.2944263E-013  0.7246156E+02  0.7816164E-02  0.1226708E+00
        -11   -1    0    0    0    0  0.00000000000E+00  0.00000000000E+00  0.45593999997E+02  0.45594000000E+02  0.51100000000E-03 0.  1.
         11   -1    0    0    0    0 -0.00000000000E+00 -0.00000000000E+00 -0.45593999997E+02  0.45594000000E+02  0.51100000000E-03 0. -1.
    9900012    2    1    2    0    0 -0.18090453010E+02  0.42144093243E+01 -0.23777493087E+01  0.72461563397E+02  0.69999991015E+02 0.  0.
         12    1    1    2    0    0  0.18090453010E+02 -0.42144093243E+01  0.23777493087E+01  0.18726436603E+02  0.00000000000E+00 0. -1.
         11    1    3    3    0    0  0.60809939497E+01 -0.85396955141E+00 -0.21134753260E+02  0.22008760688E+02  0.51100000000E-03 0. -1.
        -11    1    3    3    0    0 -0.14174418159E+02 -0.26192953785E+01 -0.11001057738E+02  0.18132791016E+02  0.51100000000E-03 0.  1.
         12    1    3    3    0    0 -0.99970288012E+01  0.76876742542E+01  0.29758061689E+02  0.32320011692E+02  0.00000000000E+00 0. -1.
</event>
<event>
 7    1  0.2944263E-013  0.7246158E+02  0.7816164E-02  0.1226708E+00
        -11   -1    0    0    0    0  0.00000000000E+00  0.00000000000E+00  0.45593999997E+02  0.45594000000E+02  0.51100000000E-03 0.  1.
         11   -1    0    0    0    0 -0.00000000000E+00 -0.00000000000E+00 -0.45593999997E+02  0.45594000000E+02  0.51100000000E-03 0. -1.
    9900012    2    1    2    0    0  0.49868159184E+01 -0.92648586446E+01  0.15491053373E+02  0.72461583544E+02  0.70000017260E+02 0.  0.
         12    1    1    2    0    0 -0.49868159184E+01  0.92648586446E+01 -0.15491053373E+02  0.18726416456E+02  0.00000000000E+00 0. -1.
         11    1    3    3    0    0  0.11008037059E+02 -0.79295157719E+01 -0.18984985386E+02  0.23334176022E+02  0.51100000000E-03 0. -1.
        -11    1    3    3    0    0  0.14442773686E+02 -0.12526423848E+01  0.13182190334E+02  0.19594207485E+02  0.51100000000E-03 0.  1.
        -12    1    3    3    0    0 -0.20463994827E+02 -0.82700487831E-01  0.21293848425E+02  0.29533200036E+02  0.00000000000E+00 0.  1.
</event>
<event>
 7    1  0.2944263E-013  0.7246158E+02  0.7816164E-02  0.1226708E+00
        -11   -1    0    0    0    0  0.00000000000E+00  0.00000000000E+00  0.45593999997E+02  0.45594000000E+02  0.51100000000E-03 0. -1.
         11   -1    0    0    0    0 -0.00000000000E+00 -0.00000000000E+00 -0.45593999997E+02  0.45594000000E+02  0.51100000000E-03 0.  1.
    9900012    2    1    2    0    0 -0.92687886092E+01  0.16234750142E+02 -0.10960537246E+01  0.72461577805E+02  0.70000009784E+02 0.  0.
         12    1    1    2    0    0  0.92687886092E+01 -0.16234750142E+02  0.10960537246E+01  0.18726422195E+02  0.00000000000E+00 0. -1.
         11    1    3    3    0    0  0.15080510577E+02  0.11657977697E+02  0.19815161954E+02  0.27494924746E+02  0.51100000000E-03 0. -1.
        -11    1    3    3    0    0 -0.69834414534E+01 -0.11397716191E+02  0.10674201793E+00  0.13367414971E+02  0.51100000000E-03 0.  1.
        -12    1    3    3    0    0 -0.17365857732E+02  0.15974488637E+02 -0.21017957697E+02  0.31599238088E+02  0.00000000000E+00 0.  1.
</event>
<event>
 7    1  0.2944263E-013  0.7246156E+02  0.7816164E-02  0.1226708E+00
        -11   -1    0    0    0    0  0.00000000000E+00  0.00000000000E+00  0.45593999997E+02  0.45594000000E+02  0.51100000000E-03 0. -1.
         11   -1    0    0    0    0 -0.00000000000E+00 -0.00000000000E+00 -0.45593999997E+02  0.45594000000E+02  0.51100000000E-03 0.  1.
    9900012    2    1    2    0    0  0.32032301127E+01 -0.46877351185E+01 -0.17844997702E+02  0.72461561826E+02  0.69999988969E+02 0.  0.
         12    1    1    2    0    0 -0.32032301127E+01  0.46877351185E+01  0.17844997702E+02  0.18726438174E+02  0.00000000000E+00 0. -1.
         11    1    3    3    0    0 -0.77587284367E+00 -0.24496162472E+01  0.21252809368E+01  0.33345790963E+01  0.51100000000E-03 0. -1.
        -11    1    3    3    0    0 -0.24612651859E+02  0.71142580206E+01  0.92019624003E+01  0.27222626820E+02  0.51100000000E-03 0.  1.
        -12    1    3    3    0    0  0.28591754815E+02 -0.93523768919E+01 -0.29172241039E+02  0.41904355910E+02  0.00000000000E+00 0.  1.
</event>
<event>
 7    1  0.2944263E-013  0.7246157E+02  0.7816164E-02  0.1226708E+00
        -11   -1    0    0    0    0  0.00000000000E+00  0.00000000000E+00  0.45593999997E+02  0.45594000000E+02  0.51100000000E-03 0.  1.
         11   -1    0    0    0    0 -0.00000000000E+00 -0.00000000000E+00 -0.45593999997E+02  0.45594000000E+02  0.51100000000E-03 0. -1.
    9900012    2    1    2    0    0  0.72055821634E+01 -0.53498515416E+01  0.16435875768E+02  0.72461565794E+02  0.69999994137E+02 0.  0.
         12    1    1    2    0    0 -0.72055821634E+01  0.53498515416E+01 -0.16435875768E+02  0.18726434206E+02  0.00000000000E+00 0. -1.
         11    1    3    3    0    0  0.19902160521E+02  0.20780727661E+02  0.96645819241E+01  0.30353562881E+02  0.51100000000E-03 0. -1.
        -11    1    3    3    0    0  0.84156672555E+01 -0.15473961953E+02  0.53804302528E+01  0.18417817022E+02  0.51100000000E-03 0.  1.
         12    1    3    3    0    0 -0.21112245613E+02 -0.10656617249E+02  0.13908635910E+01  0.23690185891E+02  0.00000000000E+00 0. -1.
</event>
<event>
 7    1  0.2944263E-013  0.7246161E+02  0.7816164E-02  0.1226708E+00
        -11   -1    0    0    0    0  0.00000000000E+00  0.00000000000E+00  0.45593999997E+02  0.45594000000E+02  0.51100000000E-03 0.  1.
         11   -1    0    0    0    0 -0.00000000000E+00 -0.00000000000E+00 -0.45593999997E+02  0.45594000000E+02  0.51100000000E-03 0. -1.
    9900012    2    1    2    0    0 -0.19740757038E+00 -0.12447527156E+02  0.13989202526E+02  0.72461609815E+02  0.70000051483E+02 0.  0.
         12    1    1    2    0    0  0.19740757038E+00  0.12447527156E+02 -0.13989202526E+02  0.18726390185E+02  0.00000000000E+00 0. -1.
         11    1    3    3    0    0  0.58885750057E+01 -0.18433341934E+02 -0.99417158669E+01  0.21755484943E+02  0.51100000000E-03 0. -1.
        -11    1    3    3    0    0 -0.28863422690E+01 -0.14859200279E+02  0.25397333807E+02  0.29566050961E+02  0.51100000000E-03 0.  1.
         12    1    3    3    0    0 -0.31996403071E+01  0.20845015057E+02 -0.14664154146E+01  0.21140073912E+02  0.00000000000E+00 0. -1.
</event>
<event>
 7    1  0.2944263E-013  0.7246161E+02  0.7816164E-02  0.1226708E+00
        -11   -1    0    0    0    0  0.00000000000E+00  0.00000000000E+00  0.45593999997E+02  0.45594000000E+02  0.51100000000E-03 0.  1.
         11   -1    0    0    0    0 -0.00000000000E+00 -0.00000000000E+00 -0.45593999997E+02  0.45594000000E+02  0.51100000000E-03 0. -1.
    9900012    2    1    2    0    0 -0.43771766545E+01  0.79227866959E+01  0.16393519686E+02  0.72461609205E+02  0.70000050689E+02 0.  0.
         12    1    1    2    0    0  0.43771766545E+01 -0.79227866959E+01 -0.16393519686E+02  0.18726390795E+02  0.00000000000E+00 0. -1.
         11    1    3    3    0    0  0.12229833070E+02 -0.62979818850E+01  0.65883734870E+01  0.15252542680E+02  0.51100000000E-03 0.  1.
        -11    1    3    3    0    0 -0.31151286686E+01 -0.18177797099E+02 -0.50153207823E+01  0.19112555476E+02  0.51100000000E-03 0. -1.
        -12    1    3    3    0    0 -0.13491881056E+02  0.32398565680E+02  0.14820466981E+02  0.38096511049E+02  0.00000000000E+00 0.  1.
</event>
<event>
 7    1  0.2944263E-013  0.7246158E+02  0.7816164E-02  0.1226708E+00
        -11   -1    0    0    0    0  0.00000000000E+00  0.00000000000E+00  0.45593999997E+02  0.45594000000E+02  0.51100000000E-03 0. -1.
         11   -1    0    0    0    0 -0.00000000000E+00 -0.00000000000E+00 -0.45593999997E+02  0.45594000000E+02  0.51100000000E-03 0.  1.
    9900012    2    1    2    0    0 -0.69274357970E-01 -0.10675124350E+02 -0.15385571608E+02  0.72461577690E+02  0.70000009634E+02 0.  0.
         12    1    1    2    0    0  0.69274357970E-01  0.10675124350E+02  0.15385571608E+02  0.18726422310E+02  0.00000000000E+00 0. -1.
         11    1    3    3    0    0  0.73401363570E+01 -0.12209870828E+01 -0.78957158298E+01  0.10849458047E+02  0.51100000000E-03 0. -1.
        -11    1    3    3    0    0  0.15829361858E+02  0.18099857098E+02 -0.86348038369E+01  0.25548646957E+02  0.51100000000E-03 0.  1.
         12    1    3    3    0    0 -0.23238772573E+02 -0.27553994364E+02  0.11449480585E+01  0.36063472686E+02  0.00000000000E+00 0. -1.
</event>
<event>
 7    1  0.2944263E-013  0.7246159E+02  0.7816164E-02  0.1226708E+00
        -11   -1    0    0    0    0  0.00000000000E+00  0.00000000000E+00  0.45593999997E+02  0.45594000000E+02  0.51100000000E-03 0.  1.
         11   -1    0    0    0    0 -0.00000000000E+00 -0.00000000000E+00 -0.45593999997E+02  0.45594000000E+02  0.51100000000E-03 0. -1.
    9900012    2    1    2    0    0 -0.86878879532E+01  0.13175507085E+02  0.10079929403E+02  0.72461591888E+02  0.70000028129E+02 0.  0.
         12    1    1    2    0    0  0.86878879532E+01 -0.13175507085E+02 -0.10079929403E+02  0.18726408112E+02  0.00000000000E+00 0. -1.
         11    1    3    3    0    0 -0.20118487203E+02 -0.24665877368E+01  0.25092243177E+00  0.20270681901E+02  0.51100000000E-03 0. -1.
        -11    1    3    3    0    0  0.12375366985E+02 -0.90515518296E+01 -0.11802593820E+02  0.19348941048E+02  0.51100000000E-03 0.  1.
        -12    1    3    3    0    0 -0.94476773537E+00  0.24693646651E+02  0.21631600791E+02  0.32841968939E+02  0.00000000000E+00 0.  1.
</event>
<event>
 7    1  0.2944263E-013  0.7246157E+02  0.7816164E-02  0.1226708E+00
        -11   -1    0    0    0    0  0.00000000000E+00  0.00000000000E+00  0.45593999997E+02  0.45594000000E+02  0.51100000000E-03 0.  1.
         11   -1    0    0    0    0 -0.00000000000E+00 -0.00000000000E+00 -0.45593999997E+02  0.45594000000E+02  0.51100000000E-03 0. -1.
    9900012    2    1    2    0    0 -0.68806952574E+01  0.11785528448E+02  0.12823274555E+02  0.72461574330E+02  0.70000005258E+02 0.  0.
         12    1    1    2    0    0  0.68806952574E+01 -0.11785528448E+02 -0.12823274555E+02  0.18726425670E+02  0.00000000000E+00 0. -1.
         11    1    3    3    0    0  0.38131795963E+01 -0.21609386564E+02  0.76038519116E+01  0.23223360878E+02  0.51100000000E-03 0. -1.
        -11    1    3    3    0    0  0.10767788269E+02  0.34516278568E+01 -0.25410228329E+01  0.11589469201E+02  0.51100000000E-03 0.  1.
        -12    1    3    3    0    0 -0.21461663123E+02  0.29943287156E+02  0.77604454767E+01  0.37648744251E+02  0.00000000000E+00 0.  1.
</event>
<event>
 7    1  0.2944263E-013  0.7246136E+02  0.7816164E-02  0.1226709E+00
        -11   -1    0    0    0    0  0.00000000000E+00  0.00000000000E+00  0.45593999997E+02  0.45594000000E+02  0.51100000000E-03 0. -1.
         11   -1    0    0    0    0 -0.00000000000E+00 -0.00000000000E+00 -0.45593999997E+02  0.45594000000E+02  0.51100000000E-03 0.  1.
    9900012    2    1    2    0    0  0.85718106449E+01  0.16482557464E+02 -0.23529635818E+01  0.72461359193E+02  0.69999725001E+02 0.  0.
         12    1    1    2    0    0 -0.85718106449E+01 -0.16482557464E+02  0.23529635818E+01  0.18726640807E+02  0.00000000000E+00 0. -1.
         11    1    3    3    0    0 -0.76147743990E-01 -0.92700707864E+00  0.87638204424E+01  0.88130408833E+01  0.51100000000E-03 0. -1.
        -11    1    3    3    0    0  0.25932823148E+02  0.10919244084E+02  0.14827037296E+02  0.31805380724E+02  0.51100000000E-03 0.  1.
         12    1    3    3    0    0 -0.17284864759E+02  0.64903204586E+01 -0.25943821320E+02  0.31842937585E+02  0.00000000000E+00 0. -1.
</event>
<event>
 7    1  0.2944263E-013  0.7246156E+02  0.7816164E-02  0.1226708E+00
        -11   -1    0    0    0    0  0.00000000000E+00  0.00000000000E+00  0.45593999997E+02  0.45594000000E+02  0.51100000000E-03 0.  1.
         11   -1    0    0    0    0 -0.00000000000E+00 -0.00000000000E+00 -0.45593999997E+02  0.45594000000E+02  0.51100000000E-03 0. -1.
    9900012    2    1    2    0    0 -0.10773963246E+02 -0.10056551181E+02  0.11552801638E+02  0.72461555293E+02  0.69999980457E+02 0.  0.
         12    1    1    2    0    0  0.10773963246E+02  0.10056551181E+02 -0.11552801638E+02  0.18726444707E+02  0.00000000000E+00 0. -1.
         11    1    3    3    0    0  0.42267491163E+01  0.17798632073E+01  0.46889033941E+01  0.65588975011E+01  0.51100000000E-03 0. -1.
        -11    1    3    3    0    0  0.15259840464E+02  0.10859704023E+02  0.18501479514E+02  0.26326804723E+02  0.51100000000E-03 0.  1.
         12    1    3    3    0    0 -0.30260552827E+02 -0.22696118411E+02 -0.11637581270E+02  0.39575853069E+02  0.00000000000E+00 0. -1.
</event>
<event>
 7    1  0.2944263E-013  0.7246157E+02  0.7816164E-02  0.1226708E+00
        -11   -1    0    0    0    0  0.00000000000E+00  0.00000000000E+00  0.45593999997E+02  0.45594000000E+02  0.51100000000E-03 0.  1.
         11   -1    0    0    0    0 -0.00000000000E+00 -0.00000000000E+00 -0.45593999997E+02  0.45594000000E+02  0.51100000000E-03 0. -1.
    9900012    2    1    2    0    0 -0.13083882783E+02  0.67555664535E+01  0.11569505413E+02  0.72461571556E+02  0.70000001643E+02 0.  0.
         12    1    1    2    0    0  0.13083882783E+02 -0.67555664535E+01 -0.11569505413E+02  0.18726428444E+02  0.00000000000E+00 0. -1.
         11    1    3    3    0    0 -0.50736636989E+01 -0.25642261260E+02  0.68702426516E+01  0.27027168927E+02  0.51100000000E-03 0. -1.
        -11    1    3    3    0    0  0.67507673432E+01  0.18290985611E+00  0.72487757704E+01  0.99071219922E+01  0.51100000000E-03 0.  1.
        -12    1    3    3    0    0 -0.14760986427E+02  0.32214917857E+02 -0.25495130094E+01  0.35527280637E+02  0.00000000000E+00 0.  1.
</event>
<event>
 7    1  0.2944263E-013  0.7246157E+02  0.7816164E-02  0.1226708E+00
        -11   -1    0    0    0    0  0.00000000000E+00  0.00000000000E+00  0.45593999997E+02  0.45594000000E+02  0.51100000000E-03 0.  1.
         11   -1    0    0    0    0 -0.00000000000E+00 -0.00000000000E+00 -0.45593999997E+02  0.45594000000E+02  0.51100000000E-03 0. -1.
    9900012    2    1    2    0    0  0.10176771040E+02  0.15252611163E+02 -0.38039758798E+01  0.72461573523E+02  0.70000004206E+02 0.  0.
         12    1    1    2    0    0 -0.10176771040E+02 -0.15252611163E+02  0.38039758798E+01  0.18726426477E+02  0.00000000000E+00 0. -1.
         11    1    3    3    0    0  0.67651625771E+01  0.15763820720E+01 -0.13375689396E+02  0.15071876865E+02  0.51100000000E-03 0. -1.
        -11    1    3    3    0    0  0.23789684785E+02 -0.93164915712E+01  0.13469218236E+01  0.25584376405E+02  0.51100000000E-03 0.  1.
         12    1    3    3    0    0 -0.20378076322E+02  0.22992720662E+02  0.82247916930E+01  0.31805320254E+02  0.00000000000E+00 0. -1.
</event>
<event>
 7    1  0.2944263E-013  0.7246177E+02  0.7816164E-02  0.1226707E+00
        -11   -1    0    0    0    0  0.00000000000E+00  0.00000000000E+00  0.45593999997E+02  0.45594000000E+02  0.51100000000E-03 0.  1.
         11   -1    0    0    0    0 -0.00000000000E+00 -0.00000000000E+00 -0.45593999997E+02  0.45594000000E+02  0.51100000000E-03 0. -1.
    9900012    2    1    2    0    0 -0.14069060337E+02  0.12017893111E+02  0.28815798037E+01  0.72461769313E+02  0.70000259258E+02 0.  0.
         12    1    1    2    0    0  0.14069060337E+02 -0.12017893111E+02 -0.28815798037E+01  0.18726230687E+02  0.00000000000E+00 0. -1.
         11    1    3    3    0    0 -0.23525135468E+02  0.21309579518E+02 -0.13007634463E+02  0.34303479891E+02  0.51100000000E-03 0. -1.
        -11    1    3    3    0    0 -0.10414631992E+01  0.90332808186E+01 -0.32507267167E+01  0.96567091905E+01  0.51100000000E-03 0.  1.
        -12    1    3    3    0    0  0.10497538330E+02 -0.18324967226E+02  0.19139940984E+02  0.28501580232E+02  0.00000000000E+00 0.  1.
</event>
<event>
 7    1  0.2944263E-013  0.7246159E+02  0.7816164E-02  0.1226708E+00
        -11   -1    0    0    0    0  0.00000000000E+00  0.00000000000E+00  0.45593999997E+02  0.45594000000E+02  0.51100000000E-03 0.  1.
         11   -1    0    0    0    0 -0.00000000000E+00 -0.00000000000E+00 -0.45593999997E+02  0.45594000000E+02  0.51100000000E-03 0. -1.
    9900012    2    1    2    0    0  0.17943044161E+02 -0.51554266212E+01  0.14652853860E+01  0.72461593013E+02  0.70000029595E+02 0.  0.
         12    1    1    2    0    0 -0.17943044161E+02  0.51554266212E+01 -0.14652853860E+01  0.18726406987E+02  0.00000000000E+00 0. -1.
         11    1    3    3    0    0 -0.10130615832E+02  0.96765638214E+01  0.68993987709E+01  0.15616240526E+02  0.51100000000E-03 0. -1.
        -11    1    3    3    0    0 -0.32788666417E+01  0.11262212523E+02  0.76541449737E+01  0.14006224792E+02  0.51100000000E-03 0.  1.
        -12    1    3    3    0    0  0.31352526634E+02 -0.26094202966E+02 -0.13088258359E+02  0.42839127694E+02  0.00000000000E+00 0.  1.
</event>
<event>
 7    1  0.2944263E-013  0.7246159E+02  0.7816164E-02  0.1226708E+00
        -11   -1    0    0    0    0  0.00000000000E+00  0.00000000000E+00  0.45593999997E+02  0.45594000000E+02  0.51100000000E-03 0.  1.
         11   -1    0    0    0    0 -0.00000000000E+00 -0.00000000000E+00 -0.45593999997E+02  0.45594000000E+02  0.51100000000E-03 0. -1.
    9900012    2    1    2    0    0  0.82384377437E+00  0.20111608818E+01  0.18599861845E+02  0.72461592247E+02  0.70000028598E+02 0.  0.
         12    1    1    2    0    0 -0.82384377437E+00 -0.20111608818E+01 -0.18599861845E+02  0.18726407753E+02  0.00000000000E+00 0. -1.
         11    1    3    3    0    0 -0.90537715048E+01  0.83804585842E+00  0.51654315999E+01  0.10457283739E+02  0.51100000000E-03 0. -1.
        -11    1    3    3    0    0 -0.17449544923E+01  0.77224578034E+01  0.35416541918E+02  0.36290669082E+02  0.51100000000E-03 0.  1.
         12    1    3    3    0    0  0.11622569771E+02 -0.65493427800E+01 -0.21982111673E+02  0.25713639426E+02  0.00000000000E+00 0. -1.
</event>
<event>
 7    1  0.2944263E-013  0.7246131E+02  0.7816164E-02  0.1226709E+00
        -11   -1    0    0    0    0  0.00000000000E+00  0.00000000000E+00  0.45593999997E+02  0.45594000000E+02  0.51100000000E-03 0.  1.
         11   -1    0    0    0    0 -0.00000000000E+00 -0.00000000000E+00 -0.45593999997E+02  0.45594000000E+02  0.51100000000E-03 0. -1.
    9900012    2    1    2    0    0  0.10322156732E+00  0.88025569823E+01  0.16528555128E+02  0.72461313194E+02  0.69999665078E+02 0.  0.
         12    1    1    2    0    0 -0.10322156732E+00 -0.88025569823E+01 -0.16528555128E+02  0.18726686806E+02  0.00000000000E+00 0. -1.
         11    1    3    3    0    0 -0.94726563326E+01  0.18367286843E+02  0.18254063631E+02  0.27573525042E+02  0.51100000000E-03 0. -1.
        -11    1    3    3    0    0  0.21459474948E+02  0.61409150770E+01  0.69342984421E+01  0.23373155503E+02  0.51100000000E-03 0.  1.
        -12    1    3    3    0    0 -0.11883597048E+02 -0.15705644938E+02 -0.86598069449E+01  0.21514632649E+02  0.00000000000E+00 0.  1.
</event>
<event>
 7    1  0.2944263E-013  0.7246143E+02  0.7816164E-02  0.1226708E+00
        -11   -1    0    0    0    0  0.00000000000E+00  0.00000000000E+00  0.45593999997E+02  0.45594000000E+02  0.51100000000E-03 0. -1.
         11   -1    0    0    0    0 -0.00000000000E+00 -0.00000000000E+00 -0.45593999997E+02  0.45594000000E+02  0.51100000000E-03 0.  1.
    9900012    2    1    2    0    0 -0.18437912536E+02  0.11424900620E+01  0.30696217225E+01  0.72461428510E+02  0.69999815300E+02 0.  0.
         12    1    1    2    0    0  0.18437912536E+02 -0.11424900620E+01 -0.30696217225E+01  0.18726571490E+02  0.00000000000E+00 0. -1.
         11    1    3    3    0    0  0.65147339673E+01  0.87617789471E+01  0.66637435505E+01  0.12791247295E+02  0.51100000000E-03 0. -1.
        -11    1    3    3    0    0  0.41506055825E+01 -0.24851034818E+02 -0.55217014774E+01  0.25793228679E+02  0.51100000000E-03 0.  1.
        -12    1    3    3    0    0 -0.29103252086E+02  0.17231745933E+02  0.19275796493E+01  0.33876952537E+02  0.00000000000E+00 0.  1.
</event>
<event>
 7    1  0.2944263E-013  0.7246149E+02  0.7816164E-02  0.1226708E+00
        -11   -1    0    0    0    0  0.00000000000E+00  0.00000000000E+00  0.45593999997E+02  0.45594000000E+02  0.51100000000E-03 0.  1.
         11   -1    0    0    0    0 -0.00000000000E+00 -0.00000000000E+00 -0.45593999997E+02  0.45594000000E+02  0.51100000000E-03 0. -1.
    9900012    2    1    2    0    0  0.14205119736E+02  0.61763599278E+00 -0.12186678894E+02  0.72461493562E+02  0.69999900041E+02 0.  0.
         12    1    1    2    0    0 -0.14205119736E+02 -0.61763599278E+00  0.12186678894E+02  0.18726506438E+02  0.00000000000E+00 0. -1.
         11    1    3    3    0    0 -0.27001227747E+01 -0.19249184131E+02 -0.98956359058E+01  0.21811587814E+02  0.51100000000E-03 0. -1.
        -11    1    3    3    0    0  0.15627970465E+02 -0.11292866258E+02 -0.26472342814E+01  0.19462017850E+02  0.51100000000E-03 0.  1.
        -12    1    3    3    0    0  0.12772720449E+01  0.31159686382E+02  0.35619129314E+00  0.31187887898E+02  0.00000000000E+00 0.  1.
</event>
<event>
 7    1  0.2944263E-013  0.7246162E+02  0.7816164E-02  0.1226708E+00
        -11   -1    0    0    0    0  0.00000000000E+00  0.00000000000E+00  0.45593999997E+02  0.45594000000E+02  0.51100000000E-03 0.  1.
         11   -1    0    0    0    0 -0.00000000000E+00 -0.00000000000E+00 -0.45593999997E+02  0.45594000000E+02  0.51100000000E-03 0. -1.
    9900012    2    1    2    0    0  0.11322596275E+01 -0.16609821399E+02 -0.85737486526E+01  0.72461619017E+02  0.70000063470E+02 0.  0.
         12    1    1    2    0    0 -0.11322596275E+01  0.16609821399E+02  0.85737486526E+01  0.18726380983E+02  0.00000000000E+00 0. -1.
         11    1    3    3    0    0 -0.61346761414E+01 -0.54333548344E+01 -0.53898537007E+01  0.98084718123E+01  0.51100000000E-03 0. -1.
        -11    1    3    3    0    0 -0.21735827759E+02  0.78738946499E+01  0.10451012114E+02  0.25370614493E+02  0.51100000000E-03 0.  1.
         12    1    3    3    0    0  0.29002763527E+02 -0.19050361215E+02 -0.13634907066E+02  0.37282532711E+02  0.00000000000E+00 0. -1.
</event>
<event>
 7    1  0.2944263E-013  0.7246164E+02  0.7816164E-02  0.1226708E+00
        -11   -1    0    0    0    0  0.00000000000E+00  0.00000000000E+00  0.45593999997E+02  0.45594000000E+02  0.51100000000E-03 0.  1.
         11   -1    0    0    0    0 -0.00000000000E+00 -0.00000000000E+00 -0.45593999997E+02  0.45594000000E+02  0.51100000000E-03 0. -1.
    9900012    2    1    2    0    0 -0.10904682475E+02 -0.14953686209E+02  0.28550992086E+01  0.72461643638E+02  0.70000095543E+02 0.  0.
         12    1    1    2    0    0  0.10904682475E+02  0.14953686209E+02 -0.28550992086E+01  0.18726356362E+02  0.00000000000E+00 0. -1.
         11    1    3    3    0    0  0.23700027464E+01 -0.81740485544E+01 -0.10794056625E+02  0.13745677192E+02  0.51100000000E-03 0. -1.
        -11    1    3    3    0    0 -0.25381575588E+02  0.11947069174E+02 -0.63496190653E+01  0.28762380008E+02  0.51100000000E-03 0.  1.
         12    1    3    3    0    0  0.12106890367E+02 -0.18726706828E+02  0.19998774899E+02  0.29953586438E+02  0.00000000000E+00 0. -1.
</event>
<event>
 7    1  0.2944263E-013  0.7246175E+02  0.7816164E-02  0.1226708E+00
        -11   -1    0    0    0    0  0.00000000000E+00  0.00000000000E+00  0.45593999997E+02  0.45594000000E+02  0.51100000000E-03 0.  1.
         11   -1    0    0    0    0 -0.00000000000E+00 -0.00000000000E+00 -0.45593999997E+02  0.45594000000E+02  0.51100000000E-03 0. -1.
    9900012    2    1    2    0    0  0.16774186375E+02  0.21188680335E+01  0.80504371228E+01  0.72461749223E+02  0.70000233088E+02 0.  0.
         12    1    1    2    0    0 -0.16774186375E+02 -0.21188680335E+01 -0.80504371228E+01  0.18726250777E+02  0.00000000000E+00 0. -1.
         11    1    3    3    0    0 -0.22528333121E+02  0.15081433605E+02 -0.27114415999E+01  0.27245684954E+02  0.51100000000E-03 0. -1.
        -11    1    3    3    0    0  0.33534016428E+01 -0.47304959960E+01 -0.20863884749E+01  0.61624599046E+01  0.51100000000E-03 0.  1.
        -12    1    3    3    0    0  0.35949117853E+02 -0.82320695758E+01  0.12848267198E+02  0.39053604365E+02  0.00000000000E+00 0.  1.
</event>
<event>
 7    1  0.2944263E-013  0.7246154E+02  0.7816164E-02  0.1226708E+00
        -11   -1    0    0    0    0  0.00000000000E+00  0.00000000000E+00  0.45593999997E+02  0.45594000000E+02  0.51100000000E-03 0. -1.
         11   -1    0    0    0    0 -0.00000000000E+00 -0.00000000000E+00 -0.45593999997E+02  0.45594000000E+02  0.51100000000E-03 0.  1.
    9900012    2    1    2    0    0 -0.11201947992E+02  0.61904648320E+01 -0.13670216657E+02  0.72461539654E+02  0.69999960085E+02 0.  0.
         12    1    1    2    0    0  0.11201947992E+02 -0.61904648320E+01  0.13670216657E+02  0.18726460346E+02  0.00000000000E+00 0. -1.
         11    1    3    3    0    0  0.10810261945E+02 -0.40408872328E-02 -0.19706765786E+02  0.22477063813E+02  0.51100000000E-03 0.  1.
        -11    1    3    3    0    0 -0.21382751016E+02 -0.93538598388E+00  0.23093497098E+02  0.31486609795E+02  0.51100000000E-03 0. -1.
         12    1    3    3    0    0 -0.62945892113E+00  0.71298917032E+01 -0.17056947968E+02  0.18497866045E+02  0.00000000000E+00 0. -1.
</event>
<event>
 7    1  0.2944263E-013  0.7246154E+02  0.7816164E-02  0.1226708E+00
        -11   -1    0    0    0    0  0.00000000000E+00  0.00000000000E+00  0.45593999997E+02  0.45594000000E+02  0.51100000000E-03 0. -1.
         11   -1    0    0    0    0 -0.00000000000E+00 -0.00000000000E+00 -0.45593999997E+02  0.45594000000E+02  0.51100000000E-03 0.  1.
    9900012    2    1    2    0    0 -0.18346216240E+02  0.63934967558E+00  0.36997331132E+01  0.72461536281E+02  0.69999955691E+02 0.  0.
         12    1    1    2    0    0  0.18346216240E+02 -0.63934967558E+00 -0.36997331132E+01  0.18726463719E+02  0.00000000000E+00 0. -1.
         11    1    3    3    0    0 -0.99538519726E+01 -0.15102276412E+02  0.16614475457E+01  0.18163654096E+02  0.51100000000E-03 0. -1.
        -11    1    3    3    0    0 -0.14196499432E+02 -0.94630088564E+01  0.17274435414E+02  0.24279523304E+02  0.51100000000E-03 0.  1.
        -12    1    3    3    0    0  0.58041351644E+01  0.25204634944E+02 -0.15236149847E+02  0.30018358880E+02  0.00000000000E+00 0.  1.
</event>
<event>
 7    1  0.2944263E-013  0.7246166E+02  0.7816164E-02  0.1226708E+00
        -11   -1    0    0    0    0  0.00000000000E+00  0.00000000000E+00  0.45593999997E+02  0.45594000000E+02  0.51100000000E-03 0. -1.
         11   -1    0    0    0    0 -0.00000000000E+00 -0.00000000000E+00 -0.45593999997E+02  0.45594000000E+02  0.51100000000E-03 0.  1.
    9900012    2    1    2    0    0  0.14626208671E+02 -0.32364751157E+01  0.11237214065E+02  0.72461662098E+02  0.70000119592E+02 0.  0.
         12    1    1    2    0    0 -0.14626208671E+02  0.32364751157E+01 -0.11237214065E+02  0.18726337902E+02  0.00000000000E+00 0. -1.
         11    1    3    3    0    0  0.52035447052E+01 -0.21907945776E+01  0.25448123639E+02  0.26066903448E+02  0.51100000000E-03 0. -1.
        -11    1    3    3    0    0  0.20824195463E+02 -0.10264109732E+02  0.34167405588E+01  0.23466426689E+02  0.51100000000E-03 0.  1.
        -12    1    3    3    0    0 -0.11401531496E+02  0.92184291941E+01 -0.17627650133E+02  0.22928331960E+02  0.00000000000E+00 0.  1.
</event>
<event>
 7    1  0.2944263E-013  0.7246178E+02  0.7816164E-02  0.1226707E+00
        -11   -1    0    0    0    0  0.00000000000E+00  0.00000000000E+00  0.45593999997E+02  0.45594000000E+02  0.51100000000E-03 0. -1.
         11   -1    0    0    0    0 -0.00000000000E+00 -0.00000000000E+00 -0.45593999997E+02  0.45594000000E+02  0.51100000000E-03 0.  1.
    9900012    2    1    2    0    0  0.14287732718E+02 -0.87065148589E+01 -0.84100392971E+01  0.72461775923E+02  0.70000267869E+02 0.  0.
         12    1    1    2    0    0 -0.14287732718E+02  0.87065148589E+01  0.84100392971E+01  0.18726224077E+02  0.00000000000E+00 0. -1.
         11    1    3    3    0    0  0.18398130117E+02 -0.26005409923E+02 -0.23385571733E+01  0.31941217682E+02  0.51100000000E-03 0. -1.
        -11    1    3    3    0    0 -0.28823292712E+01 -0.11186156736E+02 -0.17178357437E+01  0.11678565171E+02  0.51100000000E-03 0.  1.
        -12    1    3    3    0    0 -0.12280681281E+01  0.28485051801E+02 -0.43536463801E+01  0.28841993069E+02  0.00000000000E+00 0.  1.
</event>
<event>
 7    1  0.2944263E-013  0.7246158E+02  0.7816164E-02  0.1226708E+00
        -11   -1    0    0    0    0  0.00000000000E+00  0.00000000000E+00  0.45593999997E+02  0.45594000000E+02  0.51100000000E-03 0.  1.
         11   -1    0    0    0    0 -0.00000000000E+00 -0.00000000000E+00 -0.45593999997E+02  0.45594000000E+02  0.51100000000E-03 0. -1.
    9900012    2    1    2    0    0  0.51244855652E+01 -0.12210515517E+02  0.13240919516E+02  0.72461575057E+02  0.70000006205E+02 0.  0.
         12    1    1    2    0    0 -0.51244855652E+01  0.12210515517E+02 -0.13240919516E+02  0.18726424943E+02  0.00000000000E+00 0. -1.
         11    1    3    3    0    0  0.24503140462E+01 -0.10126578317E+02  0.22341781686E+02  0.24651710620E+02  0.51100000000E-03 0. -1.
        -11    1    3    3    0    0 -0.53355849044E+00  0.53993393135E+00  0.19196072488E+02  0.19211075257E+02  0.51100000000E-03 0.  1.
         12    1    3    3    0    0  0.32077300094E+01 -0.26238711316E+01 -0.28296934658E+02  0.28598789180E+02  0.00000000000E+00 0. -1.
</event>
<event>
 7    1  0.2944263E-013  0.7246155E+02  0.7816164E-02  0.1226708E+00
        -11   -1    0    0    0    0  0.00000000000E+00  0.00000000000E+00  0.45593999997E+02  0.45594000000E+02  0.51100000000E-03 0.  1.
         11   -1    0    0    0    0 -0.00000000000E+00 -0.00000000000E+00 -0.45593999997E+02  0.45594000000E+02  0.51100000000E-03 0. -1.
    9900012    2    1    2    0    0 -0.13710944698E+01 -0.38424805820E+01  0.18276632006E+02  0.72461552538E+02  0.69999976869E+02 0.  0.
         12    1    1    2    0    0  0.13710944698E+01  0.38424805820E+01 -0.18276632006E+02  0.18726447462E+02  0.00000000000E+00 0. -1.
         11    1    3    3    0    0 -0.25369398251E+01 -0.21650031242E+02  0.81556879732E+01  0.23273915937E+02  0.51100000000E-03 0. -1.
        -11    1    3    3    0    0  0.21322758593E+02  0.84820237416E+01  0.13648055677E+02  0.26699703834E+02  0.51100000000E-03 0.  1.
         12    1    3    3    0    0 -0.20156913238E+02  0.93255269181E+01 -0.35271116443E+01  0.22487932767E+02  0.00000000000E+00 0. -1.
</event>
<event>
 7    1  0.2944263E-013  0.7246152E+02  0.7816164E-02  0.1226708E+00
        -11   -1    0    0    0    0  0.00000000000E+00  0.00000000000E+00  0.45593999997E+02  0.45594000000E+02  0.51100000000E-03 0.  1.
         11   -1    0    0    0    0 -0.00000000000E+00 -0.00000000000E+00 -0.45593999997E+02  0.45594000000E+02  0.51100000000E-03 0. -1.
    9900012    2    1    2    0    0 -0.32725266707E+00  0.16312641513E+02  0.91908401660E+01  0.72461523813E+02  0.69999939449E+02 0.  0.
         12    1    1    2    0    0  0.32725266707E+00 -0.16312641513E+02 -0.91908401660E+01  0.18726476187E+02  0.00000000000E+00 0. -1.
         11    1    3    3    0    0 -0.27134650164E+01  0.46352356702E+01  0.12899573593E+02  0.13973092043E+02  0.51100000000E-03 0. -1.
        -11    1    3    3    0    0  0.27855977774E+02  0.14737196402E+02 -0.79152097094E+01  0.32492937703E+02  0.51100000000E-03 0.  1.
         12    1    3    3    0    0 -0.25469765425E+02 -0.30597905590E+01  0.42064762826E+01  0.25995494067E+02  0.00000000000E+00 0. -1.
</event>
<event>
 7    1  0.2944263E-013  0.7246164E+02  0.7816164E-02  0.1226708E+00
        -11   -1    0    0    0    0  0.00000000000E+00  0.00000000000E+00  0.45593999997E+02  0.45594000000E+02  0.51100000000E-03 0.  1.
         11   -1    0    0    0    0 -0.00000000000E+00 -0.00000000000E+00 -0.45593999997E+02  0.45594000000E+02  0.51100000000E-03 0. -1.
    9900012    2    1    2    0    0  0.11598268523E+02 -0.10531843397E+02  0.10258516516E+02  0.72461635719E+02  0.70000085228E+02 0.  0.
         12    1    1    2    0    0 -0.11598268523E+02  0.10531843397E+02 -0.10258516516E+02  0.18726364281E+02  0.00000000000E+00 0. -1.
         11    1    3    3    0    0 -0.11025699498E+02 -0.20943119928E+02 -0.13869271387E+02  0.27432408039E+02  0.51100000000E-03 0. -1.
        -11    1    3    3    0    0  0.15684232065E+01 -0.86630737310E+01  0.20260244298E+01  0.90340230836E+01  0.51100000000E-03 0.  1.
        -12    1    3    3    0    0  0.21055544814E+02  0.19074350262E+02  0.22101763473E+02  0.35995204597E+02  0.00000000000E+00 0.  1.
</event>
<event>
 7    1  0.2944263E-013  0.7246158E+02  0.7816164E-02  0.1226708E+00
        -11   -1    0    0    0    0  0.00000000000E+00  0.00000000000E+00  0.45593999997E+02  0.45594000000E+02  0.51100000000E-03 0.  1.
         11   -1    0    0    0    0 -0.00000000000E+00 -0.00000000000E+00 -0.45593999997E+02  0.45594000000E+02  0.51100000000E-03 0. -1.
    9900012    2    1    2    0    0 -0.87130551094E+01  0.13032594372E+02 -0.10242696816E+02  0.72461583272E+02  0.70000016906E+02 0.  0.
         12    1    1    2    0    0  0.87130551094E+01 -0.13032594372E+02  0.10242696816E+02  0.18726416728E+02  0.00000000000E+00 0. -1.
         11    1    3    3    0    0 -0.23619677590E+01  0.20467366064E+02 -0.13745244262E+02  0.24767391978E+02  0.51100000000E-03 0. -1.
        -11    1    3    3    0    0 -0.26606108258E+02 -0.56354020419E+01  0.28990183786E+01  0.27350449003E+02  0.51100000000E-03 0.  1.
         12    1    3    3    0    0  0.20255020908E+02 -0.17993696505E+01  0.60352906761E+00  0.20343742292E+02  0.00000000000E+00 0. -1.
</event>
<event>
 7    1  0.2944263E-013  0.7246155E+02  0.7816164E-02  0.1226708E+00
        -11   -1    0    0    0    0  0.00000000000E+00  0.00000000000E+00  0.45593999997E+02  0.45594000000E+02  0.51100000000E-03 0.  1.
         11   -1    0    0    0    0 -0.00000000000E+00 -0.00000000000E+00 -0.45593999997E+02  0.45594000000E+02  0.51100000000E-03 0. -1.
    9900012    2    1    2    0    0 -0.13488073754E+02 -0.64593167278E+01  0.11270714013E+02  0.72461550776E+02  0.69999974574E+02 0.  0.
         12    1    1    2    0    0  0.13488073754E+02  0.64593167278E+01 -0.11270714013E+02  0.18726449224E+02  0.00000000000E+00 0. -1.
         11    1    3    3    0    0 -0.83428129799E+01  0.95874233252E+00  0.70402186007E+01  0.10958393746E+02  0.51100000000E-03 0. -1.
        -11    1    3    3    0    0  0.20714101451E+02 -0.76994055661E+01  0.21158347186E+02  0.30594615554E+02  0.51100000000E-03 0.  1.
         12    1    3    3    0    0 -0.25859362225E+02  0.28134650586E+00 -0.16927851774E+02  0.30908541476E+02  0.00000000000E+00 0. -1.
</event>
<event>
 7    1  0.2944263E-013  0.7246155E+02  0.7816164E-02  0.1226708E+00
        -11   -1    0    0    0    0  0.00000000000E+00  0.00000000000E+00  0.45593999997E+02  0.45594000000E+02  0.51100000000E-03 0. -1.
         11   -1    0    0    0    0 -0.00000000000E+00 -0.00000000000E+00 -0.45593999997E+02  0.45594000000E+02  0.51100000000E-03 0.  1.
    9900012    2    1    2    0    0  0.18476201048E+02  0.18442387227E+01 -0.24308129063E+01  0.72461546170E+02  0.69999968574E+02 0.  0.
         12    1    1    2    0    0 -0.18476201048E+02 -0.18442387227E+01  0.24308129063E+01  0.18726453830E+02  0.00000000000E+00 0. -1.
         11    1    3    3    0    0  0.45688780156E+01 -0.22246452063E+02 -0.10619069854E+02  0.25070778220E+02  0.51100000000E-03 0. -1.
        -11    1    3    3    0    0  0.11051161673E+02 -0.40703559826E+01 -0.85073149666E+01  0.14528261436E+02  0.51100000000E-03 0.  1.
        -12    1    3    3    0    0  0.28561613596E+01  0.28161046769E+02  0.16695571915E+02  0.32862506514E+02  0.00000000000E+00 0.  1.
</event>
<event>
 7    1  0.2944263E-013  0.7246161E+02  0.7816164E-02  0.1226708E+00
        -11   -1    0    0    0    0  0.00000000000E+00  0.00000000000E+00  0.45593999997E+02  0.45594000000E+02  0.51100000000E-03 0.  1.
         11   -1    0    0    0    0 -0.00000000000E+00 -0.00000000000E+00 -0.45593999997E+02  0.45594000000E+02  0.51100000000E-03 0. -1.
    9900012    2    1    2    0    0  0.87008674347E+01 -0.88058108165E+01  0.14050982717E+02  0.72461614508E+02  0.70000057597E+02 0.  0.
         12    1    1    2    0    0 -0.87008674347E+01  0.88058108165E+01 -0.14050982717E+02  0.18726385492E+02  0.00000000000E+00 0. -1.
         11    1    3    3    0    0 -0.10781240317E+01  0.27090186489E+01  0.59845636377E+00  0.29764548960E+01  0.51100000000E-03 0. -1.
        -11    1    3    3    0    0 -0.15254841997E+02 -0.39041337762E+01  0.33173057038E+02  0.36720623339E+02  0.51100000000E-03 0.  1.
         12    1    3    3    0    0  0.25033833463E+02 -0.76106956892E+01 -0.19720530685E+02  0.32764536273E+02  0.00000000000E+00 0. -1.
</event>
<event>
 7    1  0.2944263E-013  0.7246159E+02  0.7816164E-02  0.1226708E+00
        -11   -1    0    0    0    0  0.00000000000E+00  0.00000000000E+00  0.45593999997E+02  0.45594000000E+02  0.51100000000E-03 0.  1.
         11   -1    0    0    0    0 -0.00000000000E+00 -0.00000000000E+00 -0.45593999997E+02  0.45594000000E+02  0.51100000000E-03 0. -1.
    9900012    2    1    2    0    0 -0.15755108221E+02 -0.10110178080E+02  0.48930534997E+00  0.72461586687E+02  0.70000021354E+02 0.  0.
         12    1    1    2    0    0  0.15755108221E+02  0.10110178080E+02 -0.48930534997E+00  0.18726413313E+02  0.00000000000E+00 0. -1.
         11    1    3    3    0    0 -0.18708114947E+02  0.40846776183E+01  0.43215299362E+01  0.19630429882E+02  0.51100000000E-03 0.  1.
        -11    1    3    3    0    0  0.70151820026E+01 -0.31625111477E+02 -0.99977934325E+01  0.33901568227E+02  0.51100000000E-03 0. -1.
         12    1    3    3    0    0 -0.40621752764E+01  0.17430255779E+02  0.61655688462E+01  0.18929588577E+02  0.00000000000E+00 0. -1.
</event>
<event>
 7    1  0.2944263E-013  0.7246153E+02  0.7816164E-02  0.1226708E+00
        -11   -1    0    0    0    0  0.00000000000E+00  0.00000000000E+00  0.45593999997E+02  0.45594000000E+02  0.51100000000E-03 0.  1.
         11   -1    0    0    0    0 -0.00000000000E+00 -0.00000000000E+00 -0.45593999997E+02  0.45594000000E+02  0.51100000000E-03 0. -1.
    9900012    2    1    2    0    0  0.57044259239E+00  0.14728126782E+02  0.11551521338E+02  0.72461527602E+02  0.69999944385E+02 0.  0.
         12    1    1    2    0    0 -0.57044259239E+00 -0.14728126782E+02 -0.11551521338E+02  0.18726472398E+02  0.00000000000E+00 0. -1.
         11    1    3    3    0    0  0.87181860217E+01  0.41097817441E+01  0.22028732322E+01  0.98868460204E+01  0.51100000000E-03 0. -1.
        -11    1    3    3    0    0 -0.16680141419E+02 -0.14196031604E+01 -0.22165799939E+02  0.27777060285E+02  0.51100000000E-03 0.  1.
         12    1    3    3    0    0  0.85323979892E+01  0.12037948198E+02  0.31514448045E+02  0.34797621296E+02  0.00000000000E+00 0. -1.
</event>
<event>
 7    1  0.2944263E-013  0.7246167E+02  0.7816164E-02  0.1226708E+00
        -11   -1    0    0    0    0  0.00000000000E+00  0.00000000000E+00  0.45593999997E+02  0.45594000000E+02  0.51100000000E-03 0.  1.
         11   -1    0    0    0    0 -0.00000000000E+00 -0.00000000000E+00 -0.45593999997E+02  0.45594000000E+02  0.51100000000E-03 0. -1.
    9900012    2    1    2    0    0 -0.10798320655E+02 -0.11488002455E+02 -0.10104324184E+02  0.72461673702E+02  0.70000134708E+02 0.  0.
         12    1    1    2    0    0  0.10798320655E+02  0.11488002455E+02  0.10104324184E+02  0.18726326298E+02  0.00000000000E+00 0. -1.
         11    1    3    3    0    0  0.10924653747E+02 -0.29949393557E+01  0.67911836104E+01  0.13207493946E+02  0.51100000000E-03 0. -1.
        -11    1    3    3    0    0  0.64323289431E+01 -0.20402981568E+02  0.46011062098E+01  0.21882108927E+02  0.51100000000E-03 0.  1.
        -12    1    3    3    0    0 -0.28155303345E+02  0.11909918468E+02 -0.21496614005E+02  0.37372070829E+02  0.00000000000E+00 0.  1.
</event>
<event>
 7    1  0.2944263E-013  0.7246152E+02  0.7816164E-02  0.1226708E+00
        -11   -1    0    0    0    0  0.00000000000E+00  0.00000000000E+00  0.45593999997E+02  0.45594000000E+02  0.51100000000E-03 0.  1.
         11   -1    0    0    0    0 -0.00000000000E+00 -0.00000000000E+00 -0.45593999997E+02  0.45594000000E+02  0.51100000000E-03 0. -1.
    9900012    2    1    2    0    0 -0.14451820888E+02 -0.40159117926E+01  0.11211529668E+02  0.72461519497E+02  0.69999933828E+02 0.  0.
         12    1    1    2    0    0  0.14451820888E+02  0.40159117926E+01 -0.11211529668E+02  0.18726480503E+02  0.00000000000E+00 0. -1.
         11    1    3    3    0    0 -0.41262696897E+01 -0.15262740510E+02 -0.64579682363E+01  0.17078720779E+02  0.51100000000E-03 0. -1.
        -11    1    3    3    0    0  0.17630196662E+01 -0.81840319738E+01 -0.13998970042E+02  0.16311277699E+02  0.51100000000E-03 0.  1.
        -12    1    3    3    0    0 -0.12088570865E+02  0.19430860691E+02  0.31668467946E+02  0.39071521020E+02  0.00000000000E+00 0.  1.
</event>
<event>
 7    1  0.2944263E-013  0.7246147E+02  0.7816164E-02  0.1226708E+00
        -11   -1    0    0    0    0  0.00000000000E+00  0.00000000000E+00  0.45593999997E+02  0.45594000000E+02  0.51100000000E-03 0. -1.
         11   -1    0    0    0    0 -0.00000000000E+00 -0.00000000000E+00 -0.45593999997E+02  0.45594000000E+02  0.51100000000E-03 0.  1.
    9900012    2    1    2    0    0  0.40186906415E+01  0.12452570973E+02 -0.13396509055E+02  0.72461471940E+02  0.69999871875E+02 0.  0.
         12    1    1    2    0    0 -0.40186906415E+01 -0.12452570973E+02  0.13396509055E+02  0.18726528060E+02  0.00000000000E+00 0. -1.
         11    1    3    3    0    0 -0.74619629403E+01  0.29706554402E+02 -0.24454174730E+02  0.39193965446E+02  0.51100000000E-03 0. -1.
        -11    1    3    3    0    0  0.75124260772E+01 -0.16564190469E+01  0.14857154786E+02  0.16730669987E+02  0.51100000000E-03 0.  1.
        -12    1    3    3    0    0  0.39682275046E+01 -0.15597564382E+02 -0.37994891101E+01  0.16536836508E+02  0.00000000000E+00 0.  1.
</event>
<event>
 7    1  0.2944263E-013  0.7246158E+02  0.7816164E-02  0.1226708E+00
        -11   -1    0    0    0    0  0.00000000000E+00  0.00000000000E+00  0.45593999997E+02  0.45594000000E+02  0.51100000000E-03 0. -1.
         11   -1    0    0    0    0 -0.00000000000E+00 -0.00000000000E+00 -0.45593999997E+02  0.45594000000E+02  0.51100000000E-03 0.  1.
    9900012    2    1    2    0    0  0.54537905629E+01  0.15592623506E+02 -0.88207228651E+01  0.72461577727E+02  0.70000009682E+02 0.  0.
         12    1    1    2    0    0 -0.54537905629E+01 -0.15592623506E+02  0.88207228651E+01  0.18726422273E+02  0.00000000000E+00 0. -1.
         11    1    3    3    0    0 -0.14425382873E+02  0.24404668700E+02  0.72869286466E+01  0.29270785004E+02  0.51100000000E-03 0. -1.
        -11    1    3    3    0    0  0.92487668730E+01  0.11735276448E+02  0.10312807401E+00  0.14942122929E+02  0.51100000000E-03 0.  1.
        -12    1    3    3    0    0  0.10630406563E+02 -0.20547321641E+02 -0.16210779586E+02  0.28248669794E+02  0.00000000000E+00 0.  1.
</event>
<event>
 7    1  0.2944263E-013  0.7246160E+02  0.7816164E-02  0.1226708E+00
        -11   -1    0    0    0    0  0.00000000000E+00  0.00000000000E+00  0.45593999997E+02  0.45594000000E+02  0.51100000000E-03 0.  1.
         11   -1    0    0    0    0 -0.00000000000E+00 -0.00000000000E+00 -0.45593999997E+02  0.45594000000E+02  0.51100000000E-03 0. -1.
    9900012    2    1    2    0    0  0.92160591625E+01  0.16194227853E+02  0.18679157681E+01  0.72461604950E+02  0.70000045145E+02 0.  0.
         12    1    1    2    0    0 -0.92160591625E+01 -0.16194227853E+02 -0.18679157681E+01  0.18726395050E+02  0.00000000000E+00 0. -1.
         11    1    3    3    0    0  0.95633753036E+01 -0.16265378489E+01 -0.14574356040E+02  0.17507587692E+02  0.51100000000E-03 0. -1.
        -11    1    3    3    0    0 -0.17504814131E+02  0.16797715039E+02 -0.75788258309E+01  0.25416930372E+02  0.51100000000E-03 0.  1.
        -12    1    3    3    0    0  0.17157497990E+02  0.10230506633E+01  0.24021097639E+02  0.29537086886E+02  0.00000000000E+00 0.  1.
</event>
<event>
 7    1  0.2944263E-013  0.7246158E+02  0.7816164E-02  0.1226708E+00
        -11   -1    0    0    0    0  0.00000000000E+00  0.00000000000E+00  0.45593999997E+02  0.45594000000E+02  0.51100000000E-03 0.  1.
         11   -1    0    0    0    0 -0.00000000000E+00 -0.00000000000E+00 -0.45593999997E+02  0.45594000000E+02  0.51100000000E-03 0. -1.
    9900012    2    1    2    0    0  0.14810049978E+02 -0.55656194972E+01  0.10018232204E+02  0.72461583439E+02  0.70000017123E+02 0.  0.
         12    1    1    2    0    0 -0.14810049978E+02  0.55656194972E+01 -0.10018232204E+02  0.18726416561E+02  0.00000000000E+00 0. -1.
         11    1    3    3    0    0  0.23793668969E+02  0.18090270910E+02 -0.60974635344E+01  0.30505337999E+02  0.51100000000E-03 0. -1.
        -11    1    3    3    0    0  0.91567298667E+01 -0.62646359322E+00  0.18887094903E+01  0.93704526190E+01  0.51100000000E-03 0.  1.
        -12    1    3    3    0    0 -0.18140348858E+02 -0.23029426814E+02  0.14226986248E+02  0.32585792821E+02  0.00000000000E+00 0.  1.
</event>
<event>
 7    1  0.2944263E-013  0.7246157E+02  0.7816164E-02  0.1226708E+00
        -11   -1    0    0    0    0  0.00000000000E+00  0.00000000000E+00  0.45593999997E+02  0.45594000000E+02  0.51100000000E-03 0.  1.
         11   -1    0    0    0    0 -0.00000000000E+00 -0.00000000000E+00 -0.45593999997E+02  0.45594000000E+02  0.51100000000E-03 0. -1.
    9900012    2    1    2    0    0 -0.16789369635E+02 -0.45753138072E+01 -0.69182870725E+01  0.72461571477E+02  0.70000001541E+02 0.  0.
         12    1    1    2    0    0  0.16789369635E+02  0.45753138072E+01  0.69182870725E+01  0.18726428523E+02  0.00000000000E+00 0. -1.
         11    1    3    3    0    0 -0.73157172743E+01 -0.38370376836E+01 -0.19912079749E+02  0.21557678392E+02  0.51100000000E-03 0. -1.
        -11    1    3    3    0    0  0.19446517085E+02 -0.24600947729E+01  0.12453523854E+01  0.19641028381E+02  0.51100000000E-03 0.  1.
        -12    1    3    3    0    0 -0.28920169446E+02  0.17218186493E+01  0.11748440292E+02  0.31262864705E+02  0.00000000000E+00 0.  1.
</event>
<event>
 7    1  0.2944263E-013  0.7246167E+02  0.7816164E-02  0.1226708E+00
        -11   -1    0    0    0    0  0.00000000000E+00  0.00000000000E+00  0.45593999997E+02  0.45594000000E+02  0.51100000000E-03 0. -1.
         11   -1    0    0    0    0 -0.00000000000E+00 -0.00000000000E+00 -0.45593999997E+02  0.45594000000E+02  0.51100000000E-03 0.  1.
    9900012    2    1    2    0    0 -0.55233004178E+01  0.17873056724E+02 -0.84988267868E+00  0.72461673485E+02  0.70000134425E+02 0.  0.
         12    1    1    2    0    0  0.55233004178E+01 -0.17873056724E+02  0.84988267868E+00  0.18726326515E+02  0.00000000000E+00 0. -1.
         11    1    3    3    0    0 -0.18438640356E+02  0.20775540388E+02  0.64308346400E+01  0.28512491491E+02  0.51100000000E-03 0. -1.
        -11    1    3    3    0    0  0.16811835322E+01  0.69096107581E+01 -0.21923008803E+02  0.23047503425E+02  0.51100000000E-03 0.  1.
        -12    1    3    3    0    0  0.11234156405E+02 -0.98120944221E+01  0.14642291485E+02  0.20901678569E+02  0.00000000000E+00 0.  1.
</event>
<event>
 7    1  0.2944263E-013  0.7246168E+02  0.7816164E-02  0.1226708E+00
        -11   -1    0    0    0    0  0.00000000000E+00  0.00000000000E+00  0.45593999997E+02  0.45594000000E+02  0.51100000000E-03 0.  1.
         11   -1    0    0    0    0 -0.00000000000E+00 -0.00000000000E+00 -0.45593999997E+02  0.45594000000E+02  0.51100000000E-03 0. -1.
    9900012    2    1    2    0    0  0.12664133907E+02  0.90543870564E+00 -0.13764994881E+02  0.72461676524E+02  0.70000138384E+02 0.  0.
         12    1    1    2    0    0 -0.12664133907E+02 -0.90543870564E+00  0.13764994881E+02  0.18726323476E+02  0.00000000000E+00 0. -1.
         11    1    3    3    0    0  0.30656995176E+01  0.15097655863E+02  0.95588874092E+01  0.18130362789E+02  0.51100000000E-03 0. -1.
        -11    1    3    3    0    0 -0.61567135191E+01 -0.99322455671E+00  0.11965345473E+02  0.13493002220E+02  0.51100000000E-03 0.  1.
        -12    1    3    3    0    0  0.15755147908E+02 -0.13198992601E+02 -0.35289227763E+02  0.40838311515E+02  0.00000000000E+00 0.  1.
</event>
<event>
 7    1  0.2944263E-013  0.7246156E+02  0.7816164E-02  0.1226708E+00
        -11   -1    0    0    0    0  0.00000000000E+00  0.00000000000E+00  0.45593999997E+02  0.45594000000E+02  0.51100000000E-03 0. -1.
         11   -1    0    0    0    0 -0.00000000000E+00 -0.00000000000E+00 -0.45593999997E+02  0.45594000000E+02  0.51100000000E-03 0.  1.
    9900012    2    1    2    0    0  0.11357107288E+02 -0.89352335786E+01 -0.11910380981E+02  0.72461562534E+02  0.69999989890E+02 0.  0.
         12    1    1    2    0    0 -0.11357107288E+02  0.89352335786E+01  0.11910380981E+02  0.18726437466E+02  0.00000000000E+00 0. -1.
         11    1    3    3    0    0  0.20144927668E+02 -0.84554219573E+01 -0.59547911790E+01  0.22644465316E+02  0.51100000000E-03 0. -1.
        -11    1    3    3    0    0  0.31792279952E+01  0.22577631568E+02 -0.69011724883E+01  0.23821904203E+02  0.51100000000E-03 0.  1.
         12    1    3    3    0    0 -0.11967048374E+02 -0.23057443190E+02  0.94558268609E+00  0.25995193014E+02  0.00000000000E+00 0. -1.
</event>
<event>
 7    1  0.2944263E-013  0.7246161E+02  0.7816164E-02  0.1226708E+00
        -11   -1    0    0    0    0  0.00000000000E+00  0.00000000000E+00  0.45593999997E+02  0.45594000000E+02  0.51100000000E-03 0.  1.
         11   -1    0    0    0    0 -0.00000000000E+00 -0.00000000000E+00 -0.45593999997E+02  0.45594000000E+02  0.51100000000E-03 0. -1.
    9900012    2    1    2    0    0 -0.15343826686E+01 -0.15711965359E+02  0.10072612010E+02  0.72461609576E+02  0.70000051172E+02 0.  0.
         12    1    1    2    0    0  0.15343826686E+01  0.15711965359E+02 -0.10072612010E+02  0.18726390424E+02  0.00000000000E+00 0. -1.
         11    1    3    3    0    0  0.29099184804E+02 -0.29850551777E+01  0.27282238230E+01  0.29378841301E+02  0.51100000000E-03 0. -1.
        -11    1    3    3    0    0 -0.59222109278E+01 -0.12268877438E+01  0.13804677786E+02  0.15071395584E+02  0.51100000000E-03 0.  1.
        -12    1    3    3    0    0 -0.24711356545E+02 -0.11500022438E+02 -0.64602895993E+01  0.28011372692E+02  0.00000000000E+00 0.  1.
</event>
<event>
 7    1  0.2944263E-013  0.7246155E+02  0.7816164E-02  0.1226708E+00
        -11   -1    0    0    0    0  0.00000000000E+00  0.00000000000E+00  0.45593999997E+02  0.45594000000E+02  0.51100000000E-03 0.  1.
         11   -1    0    0    0    0 -0.00000000000E+00 -0.00000000000E+00 -0.45593999997E+02  0.45594000000E+02  0.51100000000E-03 0. -1.
    9900012    2    1    2    0    0 -0.18367575025E+02 -0.83601999369E+00  0.35515252217E+01  0.72461546167E+02  0.69999968570E+02 0.  0.
         12    1    1    2    0    0  0.18367575025E+02  0.83601999369E+00 -0.35515252217E+01  0.18726453833E+02  0.00000000000E+00 0. -1.
         11    1    3    3    0    0  0.18534549068E+01  0.18291856270E+02 -0.13152074232E+02  0.22605405499E+02  0.51100000000E-03 0. -1.
        -11    1    3    3    0    0  0.11360738578E+01  0.88763310673E+01 -0.30766113969E+01  0.94628460294E+01  0.51100000000E-03 0.  1.
        -12    1    3    3    0    0 -0.21357103790E+02 -0.28004207331E+02  0.19780210851E+02  0.40393294639E+02  0.00000000000E+00 0.  1.
</event>
<event>
 7    1  0.2944263E-013  0.7246151E+02  0.7816164E-02  0.1226708E+00
        -11   -1    0    0    0    0  0.00000000000E+00  0.00000000000E+00  0.45593999997E+02  0.45594000000E+02  0.51100000000E-03 0.  1.
         11   -1    0    0    0    0 -0.00000000000E+00 -0.00000000000E+00 -0.45593999997E+02  0.45594000000E+02  0.51100000000E-03 0. -1.
    9900012    2    1    2    0    0  0.17484666090E+02 -0.66947784372E+01  0.38444801699E+00  0.72461510556E+02  0.69999922180E+02 0.  0.
         12    1    1    2    0    0 -0.17484666090E+02  0.66947784372E+01 -0.38444801699E+00  0.18726489444E+02  0.00000000000E+00 0. -1.
         11    1    3    3    0    0 -0.30818994223E+01  0.23728078876E+01 -0.14950242689E+02  0.15447915006E+02  0.51100000000E-03 0. -1.
        -11    1    3    3    0    0 -0.25449130685E+00  0.12812043434E+02  0.22571527034E+02  0.25955482189E+02  0.51100000000E-03 0.  1.
         12    1    3    3    0    0  0.20821056820E+02 -0.21879629759E+02 -0.72368363278E+01  0.31058113361E+02  0.00000000000E+00 0. -1.
</event>
<event>
 7    1  0.2944263E-013  0.7246158E+02  0.7816164E-02  0.1226708E+00
        -11   -1    0    0    0    0  0.00000000000E+00  0.00000000000E+00  0.45593999997E+02  0.45594000000E+02  0.51100000000E-03 0.  1.
         11   -1    0    0    0    0 -0.00000000000E+00 -0.00000000000E+00 -0.45593999997E+02  0.45594000000E+02  0.51100000000E-03 0. -1.
    9900012    2    1    2    0    0  0.56362841706E+01  0.12938464725E+02  0.12308826155E+02  0.72461580961E+02  0.70000013895E+02 0.  0.
         12    1    1    2    0    0 -0.56362841706E+01 -0.12938464725E+02 -0.12308826155E+02  0.18726419039E+02  0.00000000000E+00 0. -1.
         11    1    3    3    0    0 -0.15152778979E+02  0.12996636783E+02 -0.22736727440E+02  0.30256867871E+02  0.51100000000E-03 0. -1.
        -11    1    3    3    0    0  0.14632618053E+01  0.15324294212E+01 -0.37688624445E-01  0.21191733613E+01  0.51100000000E-03 0.  1.
        -12    1    3    3    0    0  0.19325801345E+02 -0.15906014791E+01  0.35083242220E+02  0.40085539728E+02  0.00000000000E+00 0.  1.
</event>
<event>
 7    1  0.2944263E-013  0.7246158E+02  0.7816164E-02  0.1226708E+00
        -11   -1    0    0    0    0  0.00000000000E+00  0.00000000000E+00  0.45593999997E+02  0.45594000000E+02  0.51100000000E-03 0. -1.
         11   -1    0    0    0    0 -0.00000000000E+00 -0.00000000000E+00 -0.45593999997E+02  0.45594000000E+02  0.51100000000E-03 0.  1.
    9900012    2    1    2    0    0  0.93174764284E+01  0.16108162470E+02 -0.20953463187E+01  0.72461581726E+02  0.70000014892E+02 0.  0.
         12    1    1    2    0    0 -0.93174764284E+01 -0.16108162470E+02  0.20953463187E+01  0.18726418274E+02  0.00000000000E+00 0. -1.
         11    1    3    3    0    0 -0.14373458543E+02  0.10887156537E+02 -0.15283077649E+02  0.23636813462E+02  0.51100000000E-03 0. -1.
        -11    1    3    3    0    0  0.22978798313E+02  0.36341845360E+01 -0.10178718000E+02  0.25393675778E+02  0.51100000000E-03 0.  1.
         12    1    3    3    0    0  0.71213665844E+00  0.15868213973E+01  0.23366449331E+02  0.23431092486E+02  0.00000000000E+00 0. -1.
</event>
<event>
 7    1  0.2944263E-013  0.7246155E+02  0.7816164E-02  0.1226708E+00
        -11   -1    0    0    0    0  0.00000000000E+00  0.00000000000E+00  0.45593999997E+02  0.45594000000E+02  0.51100000000E-03 0.  1.
         11   -1    0    0    0    0 -0.00000000000E+00 -0.00000000000E+00 -0.45593999997E+02  0.45594000000E+02  0.51100000000E-03 0. -1.
    9900012    2    1    2    0    0  0.56712265957E+01  0.95219970947E+01  0.15094662511E+02  0.72461546089E+02  0.69999968468E+02 0.  0.
         12    1    1    2    0    0 -0.56712265957E+01 -0.95219970947E+01 -0.15094662511E+02  0.18726453911E+02  0.00000000000E+00 0. -1.
         11    1    3    3    0    0  0.63782313489E+01 -0.18044328353E+02 -0.17638912497E+02  0.26027117689E+02  0.51100000000E-03 0. -1.
        -11    1    3    3    0    0 -0.59311961147E+01  0.30293135511E+01  0.12659893193E+02  0.14304849662E+02  0.51100000000E-03 0.  1.
        -12    1    3    3    0    0  0.52241913615E+01  0.24537011897E+02  0.20073681816E+02  0.32129578737E+02  0.00000000000E+00 0.  1.
</event>
<event>
 7    1  0.2944263E-013  0.7246161E+02  0.7816164E-02  0.1226708E+00
        -11   -1    0    0    0    0  0.00000000000E+00  0.00000000000E+00  0.45593999997E+02  0.45594000000E+02  0.51100000000E-03 0. -1.
         11   -1    0    0    0    0 -0.00000000000E+00 -0.00000000000E+00 -0.45593999997E+02  0.45594000000E+02  0.51100000000E-03 0.  1.
    9900012    2    1    2    0    0  0.96658207039E+01  0.70215927708E+01 -0.14420365487E+02  0.72461606976E+02  0.70000047785E+02 0.  0.
         12    1    1    2    0    0 -0.96658207039E+01 -0.70215927708E+01  0.14420365487E+02  0.18726393024E+02  0.00000000000E+00 0. -1.
         11    1    3    3    0    0  0.22173545428E+02 -0.10983447812E+02  0.15062615760E+02  0.28968683721E+02  0.51100000000E-03 0. -1.
        -11    1    3    3    0    0  0.21319593925E+01 -0.33361719950E+01  0.37868252323E+00  0.39772723248E+01  0.51100000000E-03 0.  1.
        -12    1    3    3    0    0 -0.14639684117E+02  0.21341212578E+02 -0.29861663770E+02  0.39515650931E+02  0.00000000000E+00 0.  1.
</event>
<event>
 7    1  0.2944263E-013  0.7246159E+02  0.7816164E-02  0.1226708E+00
        -11   -1    0    0    0    0  0.00000000000E+00  0.00000000000E+00  0.45593999997E+02  0.45594000000E+02  0.51100000000E-03 0.  1.
         11   -1    0    0    0    0 -0.00000000000E+00 -0.00000000000E+00 -0.45593999997E+02  0.45594000000E+02  0.51100000000E-03 0. -1.
    9900012    2    1    2    0    0 -0.10980822865E+02  0.14280552656E+02  0.51152445157E+01  0.72461591337E+02  0.70000027412E+02 0.  0.
         12    1    1    2    0    0  0.10980822865E+02 -0.14280552656E+02 -0.51152445157E+01  0.18726408663E+02  0.00000000000E+00 0. -1.
         11    1    3    3    0    0 -0.15084842123E+02  0.20814166319E+02  0.96742034919E+01  0.27465836869E+02  0.51100000000E-03 0. -1.
        -11    1    3    3    0    0  0.34597408622E+01 -0.86227777367E+01  0.19097956263E+02  0.21238032781E+02  0.51100000000E-03 0.  1.
         12    1    3    3    0    0  0.64427839548E+00  0.20891640732E+01 -0.23656915239E+02  0.23757721688E+02  0.00000000000E+00 0. -1.
</event>
<event>
 7    1  0.2944263E-013  0.7246136E+02  0.7816164E-02  0.1226709E+00
        -11   -1    0    0    0    0  0.00000000000E+00  0.00000000000E+00  0.45593999997E+02  0.45594000000E+02  0.51100000000E-03 0. -1.
         11   -1    0    0    0    0 -0.00000000000E+00 -0.00000000000E+00 -0.45593999997E+02  0.45594000000E+02  0.51100000000E-03 0.  1.
    9900012    2    1    2    0    0  0.88065783650E+01 -0.81171755701E+00 -0.16506736396E+02  0.72461359769E+02  0.69999725751E+02 0.  0.
         12    1    1    2    0    0 -0.88065783650E+01  0.81171755701E+00  0.16506736396E+02  0.18726640231E+02  0.00000000000E+00 0. -1.
         11    1    3    3    0    0  0.40653554601E+01 -0.59265932024E+00 -0.26729085689E+01  0.49013060061E+01  0.51100000000E-03 0. -1.
        -11    1    3    3    0    0  0.13183206039E+02  0.24566430756E+02 -0.26507680534E+02  0.38470294633E+02  0.51100000000E-03 0.  1.
         12    1    3    3    0    0 -0.84419831345E+01 -0.24785488992E+02  0.12673852707E+02  0.29089759131E+02  0.00000000000E+00 0. -1.
</event>
<event>
 7    1  0.2944263E-013  0.7246158E+02  0.7816164E-02  0.1226708E+00
        -11   -1    0    0    0    0  0.00000000000E+00  0.00000000000E+00  0.45593999997E+02  0.45594000000E+02  0.51100000000E-03 0.  1.
         11   -1    0    0    0    0 -0.00000000000E+00 -0.00000000000E+00 -0.45593999997E+02  0.45594000000E+02  0.51100000000E-03 0. -1.
    9900012    2    1    2    0    0 -0.21596481369E+01 -0.84503385588E+01 -0.16571256634E+02  0.72461578872E+02  0.70000011174E+02 0.  0.
         12    1    1    2    0    0  0.21596481369E+01  0.84503385588E+01  0.16571256634E+02  0.18726421128E+02  0.00000000000E+00 0. -1.
         11    1    3    3    0    0  0.64360027721E+01  0.12419633293E+01  0.82714493919E+01  0.10553742459E+02  0.51100000000E-03 0. -1.
        -11    1    3    3    0    0 -0.31382073187E+02 -0.11368933734E+02 -0.10764668659E+02  0.35070860602E+02  0.51100000000E-03 0.  1.
         12    1    3    3    0    0  0.22786422278E+02  0.16766318455E+01 -0.14078037367E+02  0.26836975811E+02  0.00000000000E+00 0. -1.
</event>
<event>
 7    1  0.2944263E-013  0.7246154E+02  0.7816164E-02  0.1226708E+00
        -11   -1    0    0    0    0  0.00000000000E+00  0.00000000000E+00  0.45593999997E+02  0.45594000000E+02  0.51100000000E-03 0.  1.
         11   -1    0    0    0    0 -0.00000000000E+00 -0.00000000000E+00 -0.45593999997E+02  0.45594000000E+02  0.51100000000E-03 0. -1.
    9900012    2    1    2    0    0  0.18563643479E+02  0.11056465162E+01  0.22020542485E+01  0.72461538605E+02  0.69999958719E+02 0.  0.
         12    1    1    2    0    0 -0.18563643479E+02 -0.11056465162E+01 -0.22020542485E+01  0.18726461395E+02  0.00000000000E+00 0. -1.
         11    1    3    3    0    0  0.17606127298E+02  0.28557770199E+00  0.10352065990E+02  0.20426026134E+02  0.51100000000E-03 0. -1.
        -11    1    3    3    0    0  0.96643219066E+00  0.25620673707E+02 -0.91288451940E+01  0.27215597132E+02  0.51100000000E-03 0.  1.
         12    1    3    3    0    0 -0.89160096952E-02 -0.24800604893E+02  0.97883345203E+00  0.24819915340E+02  0.00000000000E+00 0. -1.
</event>
<event>
 7    1  0.2944263E-013  0.7246168E+02  0.7816164E-02  0.1226708E+00
        -11   -1    0    0    0    0  0.00000000000E+00  0.00000000000E+00  0.45593999997E+02  0.45594000000E+02  0.51100000000E-03 0. -1.
         11   -1    0    0    0    0 -0.00000000000E+00 -0.00000000000E+00 -0.45593999997E+02  0.45594000000E+02  0.51100000000E-03 0.  1.
    9900012    2    1    2    0    0  0.44931148639E+01 -0.18127339534E+02 -0.13735435448E+01  0.72461677840E+02  0.70000140098E+02 0.  0.
         12    1    1    2    0    0 -0.44931148639E+01  0.18127339534E+02  0.13735435448E+01  0.18726322160E+02  0.00000000000E+00 0. -1.
         11    1    3    3    0    0  0.84258669702E+01  0.66949143909E+01 -0.44043418845E+01  0.11628213130E+02  0.51100000000E-03 0.  1.
        -11    1    3    3    0    0  0.22836278899E+02  0.70543723788E+00 -0.39629597988E+01  0.23188323059E+02  0.51100000000E-03 0. -1.
         12    1    3    3    0    0 -0.26769031005E+02 -0.25527691163E+02  0.69937581384E+01  0.37645141651E+02  0.00000000000E+00 0. -1.
</event>
<event>
 7    1  0.2944263E-013  0.7246157E+02  0.7816164E-02  0.1226708E+00
        -11   -1    0    0    0    0  0.00000000000E+00  0.00000000000E+00  0.45593999997E+02  0.45594000000E+02  0.51100000000E-03 0.  1.
         11   -1    0    0    0    0 -0.00000000000E+00 -0.00000000000E+00 -0.45593999997E+02  0.45594000000E+02  0.51100000000E-03 0. -1.
    9900012    2    1    2    0    0 -0.14782674027E+02 -0.11495691613E+02 -0.27120954108E-01  0.72461571814E+02  0.70000001980E+02 0.  0.
         12    1    1    2    0    0  0.14782674027E+02  0.11495691613E+02  0.27120954108E-01  0.18726428186E+02  0.00000000000E+00 0. -1.
         11    1    3    3    0    0 -0.21208853199E+01  0.10302957991E+02  0.20810410005E+01  0.10722864813E+02  0.51100000000E-03 0. -1.
        -11    1    3    3    0    0  0.21206459035E+02 -0.14524166408E+02  0.54695142090E+01  0.26278906001E+02  0.51100000000E-03 0.  1.
         12    1    3    3    0    0 -0.33868247742E+02 -0.72744831960E+01 -0.75776761636E+01  0.35459801000E+02  0.00000000000E+00 0. -1.
</event>
<event>
 7    1  0.2944263E-013  0.7246156E+02  0.7816164E-02  0.1226708E+00
        -11   -1    0    0    0    0  0.00000000000E+00  0.00000000000E+00  0.45593999997E+02  0.45594000000E+02  0.51100000000E-03 0. -1.
         11   -1    0    0    0    0 -0.00000000000E+00 -0.00000000000E+00 -0.45593999997E+02  0.45594000000E+02  0.51100000000E-03 0.  1.
    9900012    2    1    2    0    0  0.29903930494E+01  0.17751890607E+02 -0.51582588079E+01  0.72461556006E+02  0.69999981387E+02 0.  0.
         12    1    1    2    0    0 -0.29903930494E+01 -0.17751890607E+02  0.51582588079E+01  0.18726443994E+02  0.00000000000E+00 0. -1.
         11    1    3    3    0    0  0.62779229028E+01  0.66431813309E+01  0.19968779288E+02  0.21961245882E+02  0.51100000000E-03 0. -1.
        -11    1    3    3    0    0  0.11782905978E+02 -0.38395230375E+01  0.52358917888E+01  0.13453377774E+02  0.51100000000E-03 0.  1.
        -12    1    3    3    0    0 -0.15070435831E+02  0.14948232314E+02 -0.30362929885E+02  0.37046932351E+02  0.00000000000E+00 0.  1.
</event>
<event>
 7    1  0.2944263E-013  0.7246154E+02  0.7816164E-02  0.1226708E+00
        -11   -1    0    0    0    0  0.00000000000E+00  0.00000000000E+00  0.45593999997E+02  0.45594000000E+02  0.51100000000E-03 0.  1.
         11   -1    0    0    0    0 -0.00000000000E+00 -0.00000000000E+00 -0.45593999997E+02  0.45594000000E+02  0.51100000000E-03 0. -1.
    9900012    2    1    2    0    0  0.17166550511E+02 -0.69141496346E+01  0.28608064428E+01  0.72461544513E+02  0.69999966414E+02 0.  0.
         12    1    1    2    0    0 -0.17166550511E+02  0.69141496346E+01 -0.28608064428E+01  0.18726455487E+02  0.00000000000E+00 0. -1.
         11    1    3    3    0    0  0.24079520693E+01 -0.90645151779E+01  0.24977719872E+02  0.26680520213E+02  0.51100000000E-03 0. -1.
        -11    1    3    3    0    0  0.21956723326E+01  0.12659781420E+02  0.52557609043E+01  0.13882149168E+02  0.51100000000E-03 0.  1.
         12    1    3    3    0    0  0.12562926109E+02 -0.10509415876E+02 -0.27372674333E+02  0.31898875131E+02  0.00000000000E+00 0. -1.
</event>
<event>
 7    1  0.2944263E-013  0.7246158E+02  0.7816164E-02  0.1226708E+00
        -11   -1    0    0    0    0  0.00000000000E+00  0.00000000000E+00  0.45593999997E+02  0.45594000000E+02  0.51100000000E-03 0.  1.
         11   -1    0    0    0    0 -0.00000000000E+00 -0.00000000000E+00 -0.45593999997E+02  0.45594000000E+02  0.51100000000E-03 0. -1.
    9900012    2    1    2    0    0 -0.50185633785E+01  0.17807092800E+02 -0.28983108070E+01  0.72461581818E+02  0.70000015012E+02 0.  0.
         12    1    1    2    0    0  0.50185633785E+01 -0.17807092800E+02  0.28983108070E+01  0.18726418182E+02  0.00000000000E+00 0. -1.
         11    1    3    3    0    0 -0.12934472305E+02 -0.59779869681E+01  0.37181194300E+01  0.14726211813E+02  0.51100000000E-03 0. -1.
        -11    1    3    3    0    0 -0.11306457244E+02 -0.70451134775E+00  0.15750328770E+02  0.19401164096E+02  0.51100000000E-03 0.  1.
        -12    1    3    3    0    0  0.19222366170E+02  0.24489591116E+02 -0.22366759007E+02  0.38334205909E+02  0.00000000000E+00 0.  1.
</event>
<event>
 7    1  0.2944263E-013  0.7246160E+02  0.7816164E-02  0.1226708E+00
        -11   -1    0    0    0    0  0.00000000000E+00  0.00000000000E+00  0.45593999997E+02  0.45594000000E+02  0.51100000000E-03 0. -1.
         11   -1    0    0    0    0 -0.00000000000E+00 -0.00000000000E+00 -0.45593999997E+02  0.45594000000E+02  0.51100000000E-03 0.  1.
    9900012    2    1    2    0    0 -0.15240337452E+02 -0.73164370686E+01 -0.80548085141E+01  0.72461599459E+02  0.70000037992E+02 0.  0.
         12    1    1    2    0    0  0.15240337452E+02  0.73164370686E+01  0.80548085141E+01  0.18726400541E+02  0.00000000000E+00 0. -1.
         11    1    3    3    0    0 -0.12250815856E+02 -0.18857727881E+02 -0.76262721557E+01  0.23745661018E+02  0.51100000000E-03 0. -1.
        -11    1    3    3    0    0 -0.14759550232E+02 -0.42876910512E+01 -0.17025711671E+02  0.22936945650E+02  0.51100000000E-03 0.  1.
        -12    1    3    3    0    0  0.11770028635E+02  0.15828981863E+02  0.16597175313E+02  0.25778992790E+02  0.00000000000E+00 0.  1.
</event>
<event>
 7    1  0.2944263E-013  0.7246158E+02  0.7816164E-02  0.1226708E+00
        -11   -1    0    0    0    0  0.00000000000E+00  0.00000000000E+00  0.45593999997E+02  0.45594000000E+02  0.51100000000E-03 0.  1.
         11   -1    0    0    0    0 -0.00000000000E+00 -0.00000000000E+00 -0.45593999997E+02  0.45594000000E+02  0.51100000000E-03 0. -1.
    9900012    2    1    2    0    0  0.16019110259E+02 -0.96852335114E+01  0.51315579824E+00  0.72461575608E+02  0.70000006922E+02 0.  0.
         12    1    1    2    0    0 -0.16019110259E+02  0.96852335114E+01 -0.51315579824E+00  0.18726424392E+02  0.00000000000E+00 0. -1.
         11    1    3    3    0    0  0.24323984994E+02  0.98726649791E+01 -0.20009965757E+02  0.33007945856E+02  0.51100000000E-03 0. -1.
        -11    1    3    3    0    0  0.59786124849E+01  0.25340800792E+01  0.73512177117E+00  0.65349654453E+01  0.51100000000E-03 0.  1.
        -12    1    3    3    0    0 -0.14283487220E+02 -0.22091978570E+02  0.19787999784E+02  0.32918664307E+02  0.00000000000E+00 0.  1.
</event>
<event>
 7    1  0.2944263E-013  0.7246153E+02  0.7816164E-02  0.1226708E+00
        -11   -1    0    0    0    0  0.00000000000E+00  0.00000000000E+00  0.45593999997E+02  0.45594000000E+02  0.51100000000E-03 0.  1.
         11   -1    0    0    0    0 -0.00000000000E+00 -0.00000000000E+00 -0.45593999997E+02  0.45594000000E+02  0.51100000000E-03 0. -1.
    9900012    2    1    2    0    0 -0.15482232805E+02  0.10523960973E+02 -0.47678821199E+00  0.72461531721E+02  0.69999949752E+02 0.  0.
         12    1    1    2    0    0  0.15482232805E+02 -0.10523960973E+02  0.47678821199E+00  0.18726468279E+02  0.00000000000E+00 0. -1.
         11    1    3    3    0    0 -0.10824605906E+02  0.14197795034E+02 -0.38805015770E+00  0.17857773099E+02  0.51100000000E-03 0. -1.
        -11    1    3    3    0    0 -0.24657473153E+02  0.12672503524E+02 -0.53715380713E+01  0.28238922596E+02  0.51100000000E-03 0.  1.
        -12    1    3    3    0    0  0.19999846255E+02 -0.16346337586E+02  0.52828000170E+01  0.26364836026E+02  0.00000000000E+00 0.  1.
</event>
<event>
 7    1  0.2944263E-013  0.7246156E+02  0.7816164E-02  0.1226708E+00
        -11   -1    0    0    0    0  0.00000000000E+00  0.00000000000E+00  0.45593999997E+02  0.45594000000E+02  0.51100000000E-03 0. -1.
         11   -1    0    0    0    0 -0.00000000000E+00 -0.00000000000E+00 -0.45593999997E+02  0.45594000000E+02  0.51100000000E-03 0.  1.
    9900012    2    1    2    0    0 -0.13214410090E+02  0.11263639778E+02 -0.70135086851E+01  0.72461560959E+02  0.69999987839E+02 0.  0.
         12    1    1    2    0    0  0.13214410090E+02 -0.11263639778E+02  0.70135086851E+01  0.18726439041E+02  0.00000000000E+00 0. -1.
         11    1    3    3    0    0 -0.26170143535E+02  0.12115126108E+02  0.18286934806E+01  0.28896311415E+02  0.51100000000E-03 0. -1.
        -11    1    3    3    0    0 -0.57419943411E+01  0.12535621731E+02 -0.14369019782E+02  0.19914342594E+02  0.51100000000E-03 0.  1.
         12    1    3    3    0    0  0.18697727787E+02 -0.13387108061E+02  0.55268176159E+01  0.23650906951E+02  0.00000000000E+00 0. -1.
</event>
<event>
 7    1  0.2944263E-013  0.7246158E+02  0.7816164E-02  0.1226708E+00
        -11   -1    0    0    0    0  0.00000000000E+00  0.00000000000E+00  0.45593999997E+02  0.45594000000E+02  0.51100000000E-03 0. -1.
         11   -1    0    0    0    0 -0.00000000000E+00 -0.00000000000E+00 -0.45593999997E+02  0.45594000000E+02  0.51100000000E-03 0.  1.
    9900012    2    1    2    0    0  0.12795162168E+02 -0.19710263466E+01 -0.13530623422E+02  0.72461577759E+02  0.70000009724E+02 0.  0.
         12    1    1    2    0    0 -0.12795162168E+02  0.19710263466E+01  0.13530623422E+02  0.18726422241E+02  0.00000000000E+00 0. -1.
         11    1    3    3    0    0  0.17167763991E+02  0.20497229033E+02 -0.19999152692E+02  0.33389139359E+02  0.51100000000E-03 0. -1.
        -11    1    3    3    0    0 -0.49655691978E+01  0.23158921626E+01  0.12421729443E+02  0.13576435341E+02  0.51100000000E-03 0.  1.
        -12    1    3    3    0    0  0.59296737509E+00 -0.24784147542E+02 -0.59532001724E+01  0.25496003059E+02  0.00000000000E+00 0.  1.
</event>
<event>
 7    1  0.2944263E-013  0.7246157E+02  0.7816164E-02  0.1226708E+00
        -11   -1    0    0    0    0  0.00000000000E+00  0.00000000000E+00  0.45593999997E+02  0.45594000000E+02  0.51100000000E-03 0.  1.
         11   -1    0    0    0    0 -0.00000000000E+00 -0.00000000000E+00 -0.45593999997E+02  0.45594000000E+02  0.51100000000E-03 0. -1.
    9900012    2    1    2    0    0 -0.32055190895E+01  0.17884041922E+02 -0.45348483518E+01  0.72461570611E+02  0.70000000412E+02 0.  0.
         12    1    1    2    0    0  0.32055190895E+01 -0.17884041922E+02  0.45348483518E+01  0.18726429389E+02  0.00000000000E+00 0. -1.
         11    1    3    3    0    0 -0.24288806046E-01  0.71077509854E+01 -0.13288758525E+02  0.15070229508E+02  0.51100000000E-03 0. -1.
        -11    1    3    3    0    0 -0.24365660127E+02  0.13788457504E+02 -0.91894482016E+01  0.29466131614E+02  0.51100000000E-03 0.  1.
        -12    1    3    3    0    0  0.21184429844E+02 -0.30121665679E+01  0.17943358375E+02  0.27925209489E+02  0.00000000000E+00 0.  1.
</event>
<event>
 7    1  0.2944263E-013  0.7246147E+02  0.7816164E-02  0.1226708E+00
        -11   -1    0    0    0    0  0.00000000000E+00  0.00000000000E+00  0.45593999997E+02  0.45594000000E+02  0.51100000000E-03 0.  1.
         11   -1    0    0    0    0 -0.00000000000E+00 -0.00000000000E+00 -0.45593999997E+02  0.45594000000E+02  0.51100000000E-03 0. -1.
    9900012    2    1    2    0    0 -0.41660499416E+01  0.14401632496E+02  0.11221411507E+02  0.72461466234E+02  0.69999864442E+02 0.  0.
         12    1    1    2    0    0  0.41660499416E+01 -0.14401632496E+02 -0.11221411507E+02  0.18726533766E+02  0.00000000000E+00 0. -1.
         11    1    3    3    0    0 -0.87231999463E+01 -0.17171760619E+02  0.64169376729E+01  0.20301247977E+02  0.51100000000E-03 0. -1.
        -11    1    3    3    0    0 -0.76047291944E+01  0.12736784336E+02 -0.15825988944E+02  0.21691461631E+02  0.51100000000E-03 0.  1.
        -12    1    3    3    0    0  0.12161879199E+02  0.18836608779E+02  0.20630462778E+02  0.30468756627E+02  0.00000000000E+00 0.  1.
</event>
<event>
 7    1  0.2944263E-013  0.7246174E+02  0.7816164E-02  0.1226708E+00
        -11   -1    0    0    0    0  0.00000000000E+00  0.00000000000E+00  0.45593999997E+02  0.45594000000E+02  0.51100000000E-03 0.  1.
         11   -1    0    0    0    0 -0.00000000000E+00 -0.00000000000E+00 -0.45593999997E+02  0.45594000000E+02  0.51100000000E-03 0. -1.
    9900012    2    1    2    0    0 -0.73733185103E+01  0.17203543670E+02  0.58758629998E+00  0.72461735068E+02  0.70000214647E+02 0.  0.
         12    1    1    2    0    0  0.73733185103E+01 -0.17203543670E+02 -0.58758629998E+00  0.18726264932E+02  0.00000000000E+00 0. -1.
         11    1    3    3    0    0 -0.14401907864E+02 -0.33804123033E+01  0.21022594894E+02  0.25705867692E+02  0.51100000000E-03 0. -1.
        -11    1    3    3    0    0  0.11673129712E+02  0.23389231626E+02 -0.55241686095E+00  0.26146190506E+02  0.51100000000E-03 0.  1.
         12    1    3    3    0    0 -0.46445403589E+01 -0.28052756524E+01 -0.19882591733E+02  0.20609676869E+02  0.00000000000E+00 0. -1.
</event>
<event>
 7    1  0.2944263E-013  0.7246161E+02  0.7816164E-02  0.1226708E+00
        -11   -1    0    0    0    0  0.00000000000E+00  0.00000000000E+00  0.45593999997E+02  0.45594000000E+02  0.51100000000E-03 0. -1.
         11   -1    0    0    0    0 -0.00000000000E+00 -0.00000000000E+00 -0.45593999997E+02  0.45594000000E+02  0.51100000000E-03 0.  1.
    9900012    2    1    2    0    0  0.17956103686E+02  0.44981741868E+01  0.28324037740E+01  0.72461608417E+02  0.70000049662E+02 0.  0.
         12    1    1    2    0    0 -0.17956103686E+02 -0.44981741868E+01 -0.28324037740E+01  0.18726391583E+02  0.00000000000E+00 0. -1.
         11    1    3    3    0    0 -0.66670088466E+01 -0.12526240197E+02  0.17677676272E+00  0.14191087017E+02  0.51100000000E-03 0. -1.
        -11    1    3    3    0    0 -0.91307276040E+01  0.13313436714E+02 -0.13143771175E+02  0.20817696911E+02  0.51100000000E-03 0.  1.
         12    1    3    3    0    0  0.33753840136E+02  0.37109776696E+01  0.15799398186E+02  0.37452824490E+02  0.00000000000E+00 0. -1.
</event>
<event>
 7    1  0.2944263E-013  0.7246157E+02  0.7816164E-02  0.1226708E+00
        -11   -1    0    0    0    0  0.00000000000E+00  0.00000000000E+00  0.45593999997E+02  0.45594000000E+02  0.51100000000E-03 0. -1.
         11   -1    0    0    0    0 -0.00000000000E+00 -0.00000000000E+00 -0.45593999997E+02  0.45594000000E+02  0.51100000000E-03 0.  1.
    9900012    2    1    2    0    0  0.50373199039E+01  0.17908825225E+02  0.21397776467E+01  0.72461567849E+02  0.69999996814E+02 0.  0.
         12    1    1    2    0    0 -0.50373199039E+01 -0.17908825225E+02 -0.21397776467E+01  0.18726432151E+02  0.00000000000E+00 0. -1.
         11    1    3    3    0    0  0.10253149197E+02  0.22712786719E+02  0.45155443162E+01  0.25325637005E+02  0.51100000000E-03 0. -1.
        -11    1    3    3    0    0  0.15442259940E+02  0.92112217992E+01 -0.10575320879E+02  0.20860187224E+02  0.51100000000E-03 0.  1.
        -12    1    3    3    0    0 -0.20658089233E+02 -0.14015183293E+02  0.81995542090E+01  0.26275743619E+02  0.00000000000E+00 0.  1.
</event>
<event>
 7    1  0.2944263E-013  0.7246155E+02  0.7816164E-02  0.1226708E+00
        -11   -1    0    0    0    0  0.00000000000E+00  0.00000000000E+00  0.45593999997E+02  0.45594000000E+02  0.51100000000E-03 0.  1.
         11   -1    0    0    0    0 -0.00000000000E+00 -0.00000000000E+00 -0.45593999997E+02  0.45594000000E+02  0.51100000000E-03 0. -1.
    9900012    2    1    2    0    0  0.84246756406E+00  0.82827360908E+01  0.16773978626E+02  0.72461552721E+02  0.69999977108E+02 0.  0.
         12    1    1    2    0    0 -0.84246756406E+00 -0.82827360908E+01 -0.16773978626E+02  0.18726447279E+02  0.00000000000E+00 0. -1.
         11    1    3    3    0    0  0.93254411038E+01  0.95486139383E+01 -0.81891878491E+01  0.15658948809E+02  0.51100000000E-03 0. -1.
        -11    1    3    3    0    0  0.15422955728E+02 -0.15404309889E+02  0.43820952671E+01  0.22234277270E+02  0.51100000000E-03 0.  1.
         12    1    3    3    0    0 -0.23905929268E+02  0.14138432041E+02  0.20581071208E+02  0.34568326642E+02  0.00000000000E+00 0. -1.
</event>
<event>
 7    1  0.2944263E-013  0.7246158E+02  0.7816164E-02  0.1226708E+00
        -11   -1    0    0    0    0  0.00000000000E+00  0.00000000000E+00  0.45593999997E+02  0.45594000000E+02  0.51100000000E-03 0.  1.
         11   -1    0    0    0    0 -0.00000000000E+00 -0.00000000000E+00 -0.45593999997E+02  0.45594000000E+02  0.51100000000E-03 0. -1.
    9900012    2    1    2    0    0 -0.39753485792E+01 -0.13346876796E+02 -0.12519440004E+02  0.72461577636E+02  0.70000009564E+02 0.  0.
         12    1    1    2    0    0  0.39753485792E+01  0.13346876796E+02  0.12519440004E+02  0.18726422364E+02  0.00000000000E+00 0. -1.
         11    1    3    3    0    0 -0.16805833715E+02 -0.19378435035E+02 -0.19777991591E+02  0.32390256913E+02  0.51100000000E-03 0. -1.
        -11    1    3    3    0    0  0.26442008383E+01  0.74151567841E+01 -0.14223228471E+02  0.16256585638E+02  0.51100000000E-03 0.  1.
        -12    1    3    3    0    0  0.10186284297E+02 -0.13835985458E+01  0.21481780058E+02  0.23814735085E+02  0.00000000000E+00 0.  1.
</event>
<event>
 7    1  0.2944263E-013  0.7246157E+02  0.7816164E-02  0.1226708E+00
        -11   -1    0    0    0    0  0.00000000000E+00  0.00000000000E+00  0.45593999997E+02  0.45594000000E+02  0.51100000000E-03 0.  1.
         11   -1    0    0    0    0 -0.00000000000E+00 -0.00000000000E+00 -0.45593999997E+02  0.45594000000E+02  0.51100000000E-03 0. -1.
    9900012    2    1    2    0    0  0.10394927590E+02 -0.68857036343E+01  0.13971814989E+02  0.72461573533E+02  0.70000004219E+02 0.  0.
         12    1    1    2    0    0 -0.10394927590E+02  0.68857036343E+01 -0.13971814989E+02  0.18726426467E+02  0.00000000000E+00 0. -1.
         11    1    3    3    0    0  0.21070729617E+02 -0.79173049883E+01 -0.13201590812E+02  0.26094853230E+02  0.51100000000E-03 0. -1.
        -11    1    3    3    0    0  0.55886802295E+01 -0.13966013837E+02  0.14379911074E+02  0.20810207398E+02  0.51100000000E-03 0.  1.
        -12    1    3    3    0    0 -0.16264482257E+02  0.14997615191E+02  0.12793494727E+02  0.25556512904E+02  0.00000000000E+00 0.  1.
</event>
<event>
 7    1  0.2944263E-013  0.7246166E+02  0.7816164E-02  0.1226708E+00
        -11   -1    0    0    0    0  0.00000000000E+00  0.00000000000E+00  0.45593999997E+02  0.45594000000E+02  0.51100000000E-03 0. -1.
         11   -1    0    0    0    0 -0.00000000000E+00 -0.00000000000E+00 -0.45593999997E+02  0.45594000000E+02  0.51100000000E-03 0.  1.
    9900012    2    1    2    0    0  0.16253054218E+02  0.78568846831E+01 -0.49782988097E+01  0.72461658463E+02  0.70000114856E+02 0.  0.
         12    1    1    2    0    0 -0.16253054218E+02 -0.78568846831E+01  0.49782988097E+01  0.18726341537E+02  0.00000000000E+00 0. -1.
         11    1    3    3    0    0  0.26246993884E+01 -0.11440024093E+02  0.83310708088E+01  0.14393399154E+02  0.51100000000E-03 0.  1.
        -11    1    3    3    0    0 -0.15559355294E+02 -0.68962481443E+01 -0.67364350651E+01  0.18303861157E+02  0.51100000000E-03 0. -1.
         12    1    3    3    0    0  0.29187710123E+02  0.26193156920E+02 -0.65729345534E+01  0.39764398151E+02  0.00000000000E+00 0. -1.
</event>
<event>
 7    1  0.2944263E-013  0.7246156E+02  0.7816164E-02  0.1226708E+00
        -11   -1    0    0    0    0  0.00000000000E+00  0.00000000000E+00  0.45593999997E+02  0.45594000000E+02  0.51100000000E-03 0. -1.
         11   -1    0    0    0    0 -0.00000000000E+00 -0.00000000000E+00 -0.45593999997E+02  0.45594000000E+02  0.51100000000E-03 0.  1.
    9900012    2    1    2    0    0 -0.51804536443E+01  0.17937951494E+02  0.14396015363E+01  0.72461557296E+02  0.69999983067E+02 0.  0.
         12    1    1    2    0    0  0.51804536443E+01 -0.17937951494E+02 -0.14396015363E+01  0.18726442704E+02  0.00000000000E+00 0. -1.
         11    1    3    3    0    0 -0.93987512685E+01 -0.55778190026E+01  0.16464101421E+02  0.19761458097E+02  0.51100000000E-03 0. -1.
        -11    1    3    3    0    0  0.45862240304E+01 -0.13047747334E+02 -0.57419424707E+01  0.14974881133E+02  0.51100000000E-03 0.  1.
        -12    1    3    3    0    0 -0.36792640622E+00  0.36563517831E+02 -0.92825574142E+01  0.37725218066E+02  0.00000000000E+00 0.  1.
</event>
<event>
 7    1  0.2944263E-013  0.7246158E+02  0.7816164E-02  0.1226708E+00
        -11   -1    0    0    0    0  0.00000000000E+00  0.00000000000E+00  0.45593999997E+02  0.45594000000E+02  0.51100000000E-03 0.  1.
         11   -1    0    0    0    0 -0.00000000000E+00 -0.00000000000E+00 -0.45593999997E+02  0.45594000000E+02  0.51100000000E-03 0. -1.
    9900012    2    1    2    0    0  0.15661452770E+02  0.10259762736E+02 -0.36730293618E+00  0.72461581610E+02  0.70000014741E+02 0.  0.
         12    1    1    2    0    0 -0.15661452770E+02 -0.10259762736E+02  0.36730293618E+00  0.18726418390E+02  0.00000000000E+00 0. -1.
         11    1    3    3    0    0  0.48254653105E+01 -0.99574783543E+01  0.65218973328E+01  0.12844128453E+02  0.51100000000E-03 0. -1.
        -11    1    3    3    0    0 -0.86966777203E+01 -0.37002308056E+01  0.17751921123E+02  0.20111057038E+02  0.51100000000E-03 0.  1.
         12    1    3    3    0    0  0.19532665180E+02  0.23917471896E+02 -0.24641121392E+02  0.39506396119E+02  0.00000000000E+00 0. -1.
</event>
<event>
 7    1  0.2944263E-013  0.7246159E+02  0.7816164E-02  0.1226708E+00
        -11   -1    0    0    0    0  0.00000000000E+00  0.00000000000E+00  0.45593999997E+02  0.45594000000E+02  0.51100000000E-03 0.  1.
         11   -1    0    0    0    0 -0.00000000000E+00 -0.00000000000E+00 -0.45593999997E+02  0.45594000000E+02  0.51100000000E-03 0. -1.
    9900012    2    1    2    0    0  0.11787471680E+02 -0.36708181997E+00 -0.14546447524E+02  0.72461591556E+02  0.70000027697E+02 0.  0.
         12    1    1    2    0    0 -0.11787471680E+02  0.36708181997E+00  0.14546447524E+02  0.18726408444E+02  0.00000000000E+00 0. -1.
         11    1    3    3    0    0 -0.18436981046E+02  0.13070197211E+01 -0.16086826317E+02  0.24503398782E+02  0.51100000000E-03 0. -1.
        -11    1    3    3    0    0 -0.94631644629E+00 -0.23983366835E+01 -0.13214746259E+02  0.13463916689E+02  0.51100000000E-03 0.  1.
        -12    1    3    3    0    0  0.31170769171E+02  0.72423514243E+00  0.14755125053E+02  0.34494276085E+02  0.00000000000E+00 0.  1.
</event>
<event>
 7    1  0.2944263E-013  0.7246179E+02  0.7816164E-02  0.1226707E+00
        -11   -1    0    0    0    0  0.00000000000E+00  0.00000000000E+00  0.45593999997E+02  0.45594000000E+02  0.51100000000E-03 0.  1.
         11   -1    0    0    0    0 -0.00000000000E+00 -0.00000000000E+00 -0.45593999997E+02  0.45594000000E+02  0.51100000000E-03 0. -1.
    9900012    2    1    2    0    0 -0.76418239641E+01 -0.61646205824E+01  0.15945871519E+02  0.72461792724E+02  0.70000289756E+02 0.  0.
         12    1    1    2    0    0  0.76418239641E+01  0.61646205824E+01 -0.15945871519E+02  0.18726207276E+02  0.00000000000E+00 0. -1.
         11    1    3    3    0    0 -0.46741203636E+01 -0.72984521307E+01  0.11698454070E+01  0.87454755855E+01  0.51100000000E-03 0. -1.
        -11    1    3    3    0    0 -0.17123996568E+02 -0.33775960185E+01  0.34711804936E+02  0.38852912574E+02  0.51100000000E-03 0.  1.
         12    1    3    3    0    0  0.14156292967E+02  0.45114275669E+01 -0.19935778823E+02  0.24863404565E+02  0.00000000000E+00 0. -1.
</event>
<event>
 7    1  0.2944263E-013  0.7246155E+02  0.7816164E-02  0.1226708E+00
        -11   -1    0    0    0    0  0.00000000000E+00  0.00000000000E+00  0.45593999997E+02  0.45594000000E+02  0.51100000000E-03 0. -1.
         11   -1    0    0    0    0 -0.00000000000E+00 -0.00000000000E+00 -0.45593999997E+02  0.45594000000E+02  0.51100000000E-03 0.  1.
    9900012    2    1    2    0    0 -0.12600911688E+02  0.87038394613E+01  0.10776840942E+02  0.72461545519E+02  0.69999967725E+02 0.  0.
         12    1    1    2    0    0  0.12600911688E+02 -0.87038394613E+01 -0.10776840942E+02  0.18726454481E+02  0.00000000000E+00 0. -1.
         11    1    3    3    0    0  0.58617559827E+01  0.14719848169E+02 -0.13597599050E+02  0.20878908341E+02  0.51100000000E-03 0.  1.
        -11    1    3    3    0    0 -0.25048539362E+02 -0.75645392107E+01 -0.12507727165E+00  0.26166146492E+02  0.51100000000E-03 0. -1.
         12    1    3    3    0    0  0.65858716911E+01  0.15485305028E+01  0.24499517264E+02  0.25416490687E+02  0.00000000000E+00 0. -1.
</event>
<event>
 7    1  0.2944263E-013  0.7246156E+02  0.7816164E-02  0.1226708E+00
        -11   -1    0    0    0    0  0.00000000000E+00  0.00000000000E+00  0.45593999997E+02  0.45594000000E+02  0.51100000000E-03 0.  1.
         11   -1    0    0    0    0 -0.00000000000E+00 -0.00000000000E+00 -0.45593999997E+02  0.45594000000E+02  0.51100000000E-03 0. -1.
    9900012    2    1    2    0    0 -0.18612743257E+02 -0.18232037862E+01 -0.95979022357E+00  0.72461561981E+02  0.69999989171E+02 0.  0.
         12    1    1    2    0    0  0.18612743257E+02  0.18232037862E+01  0.95979022357E+00  0.18726438019E+02  0.00000000000E+00 0. -1.
         11    1    3    3    0    0  0.22759537617E+01  0.72433880697E+01  0.95451706300E+01  0.12196594560E+02  0.51100000000E-03 0. -1.
        -11    1    3    3    0    0  0.22247049282E+01 -0.18060602341E+02  0.15808849540E+02  0.24105069860E+02  0.51100000000E-03 0.  1.
        -12    1    3    3    0    0 -0.23113401947E+02  0.89940104850E+01 -0.26313810394E+02  0.36159897561E+02  0.00000000000E+00 0.  1.
</event>
<event>
 7    1  0.2944263E-013  0.7246161E+02  0.7816164E-02  0.1226708E+00
        -11   -1    0    0    0    0  0.00000000000E+00  0.00000000000E+00  0.45593999997E+02  0.45594000000E+02  0.51100000000E-03 0.  1.
         11   -1    0    0    0    0 -0.00000000000E+00 -0.00000000000E+00 -0.45593999997E+02  0.45594000000E+02  0.51100000000E-03 0. -1.
    9900012    2    1    2    0    0 -0.62300759466E+01 -0.64929887772E+01  0.16422699030E+02  0.72461607048E+02  0.70000047879E+02 0.  0.
         12    1    1    2    0    0  0.62300759466E+01  0.64929887772E+01 -0.16422699030E+02  0.18726392952E+02  0.00000000000E+00 0. -1.
         11    1    3    3    0    0  0.72281819101E+01  0.55761080279E+01  0.27878162357E+02  0.29334817728E+02  0.51100000000E-03 0. -1.
        -11    1    3    3    0    0  0.91109149263E+01 -0.15041610080E+02  0.12547513221E+00  0.17586203367E+02  0.51100000000E-03 0.  1.
         12    1    3    3    0    0 -0.22569172783E+02  0.29725132747E+01 -0.11580938459E+02  0.25540585954E+02  0.00000000000E+00 0. -1.
</event>
<event>
 7    1  0.2944263E-013  0.7246140E+02  0.7816164E-02  0.1226708E+00
        -11   -1    0    0    0    0  0.00000000000E+00  0.00000000000E+00  0.45593999997E+02  0.45594000000E+02  0.51100000000E-03 0. -1.
         11   -1    0    0    0    0 -0.00000000000E+00 -0.00000000000E+00 -0.45593999997E+02  0.45594000000E+02  0.51100000000E-03 0.  1.
    9900012    2    1    2    0    0 -0.73990494012E+01  0.11553913772E+02 -0.12745460174E+02  0.72461398319E+02  0.69999775969E+02 0.  0.
         12    1    1    2    0    0  0.73990494012E+01 -0.11553913772E+02  0.12745460174E+02  0.18726601681E+02  0.00000000000E+00 0. -1.
         11    1    3    3    0    0  0.54468949744E+01  0.26934670976E+02  0.66250695675E+01  0.28267237440E+02  0.51100000000E-03 0.  1.
        -11    1    3    3    0    0 -0.52880731167E+01  0.65631746898E+01  0.55876217136E+01  0.10112393187E+02  0.51100000000E-03 0. -1.
        -12    1    3    3    0    0 -0.75578712589E+01 -0.21943931894E+02 -0.24958151455E+02  0.34081767691E+02  0.00000000000E+00 0.  1.
</event>
<event>
 7    1  0.2944263E-013  0.7246157E+02  0.7816164E-02  0.1226708E+00
        -11   -1    0    0    0    0  0.00000000000E+00  0.00000000000E+00  0.45593999997E+02  0.45594000000E+02  0.51100000000E-03 0. -1.
         11   -1    0    0    0    0 -0.00000000000E+00 -0.00000000000E+00 -0.45593999997E+02  0.45594000000E+02  0.51100000000E-03 0.  1.
    9900012    2    1    2    0    0  0.84539973414E+01 -0.90656053133E+01 -0.14036519054E+02  0.72461571138E+02  0.70000001099E+02 0.  0.
         12    1    1    2    0    0 -0.84539973414E+01  0.90656053133E+01  0.14036519054E+02  0.18726428862E+02  0.00000000000E+00 0. -1.
         11    1    3    3    0    0  0.25820353357E+02 -0.42406089709E+01  0.41365334688E+01  0.26491212153E+02  0.51100000000E-03 0. -1.
        -11    1    3    3    0    0 -0.98949792122E+01 -0.16344932431E+02  0.43465884388E+01  0.19594903958E+02  0.51100000000E-03 0.  1.
        -12    1    3    3    0    0 -0.74713768038E+01  0.11519936089E+02 -0.22519640962E+02  0.26375455027E+02  0.00000000000E+00 0.  1.
</event>
<event>
 7    1  0.2944263E-013  0.7246159E+02  0.7816164E-02  0.1226708E+00
        -11   -1    0    0    0    0  0.00000000000E+00  0.00000000000E+00  0.45593999997E+02  0.45594000000E+02  0.51100000000E-03 0.  1.
         11   -1    0    0    0    0 -0.00000000000E+00 -0.00000000000E+00 -0.45593999997E+02  0.45594000000E+02  0.51100000000E-03 0. -1.
    9900012    2    1    2    0    0 -0.12846074832E+02 -0.10576857813E+02 -0.85899350429E+01  0.72461587000E+02  0.70000021763E+02 0.  0.
         12    1    1    2    0    0  0.12846074832E+02  0.10576857813E+02  0.85899350429E+01  0.18726413000E+02  0.00000000000E+00 0. -1.
         11    1    3    3    0    0  0.23620856022E+01  0.26923927695E+01 -0.21470378713E+01  0.41759069792E+01  0.51100000000E-03 0. -1.
        -11    1    3    3    0    0  0.22362563590E+02 -0.19338362984E+02 -0.62970999307E+01  0.30227636378E+02  0.51100000000E-03 0.  1.
         12    1    3    3    0    0 -0.37570724025E+02  0.60691124013E+01 -0.14579724090E+00  0.38058043643E+02  0.00000000000E+00 0. -1.
</event>
<event>
 7    1  0.2944263E-013  0.7246099E+02  0.7816164E-02  0.1226710E+00
        -11   -1    0    0    0    0  0.00000000000E+00  0.00000000000E+00  0.45593999997E+02  0.45594000000E+02  0.51100000000E-03 0. -1.
         11   -1    0    0    0    0 -0.00000000000E+00 -0.00000000000E+00 -0.45593999997E+02  0.45594000000E+02  0.51100000000E-03 0.  1.
    9900012    2    1    2    0    0 -0.94796791738E+01  0.62285262931E+01 -0.14901070135E+02  0.72460994148E+02  0.69999249458E+02 0.  0.
         12    1    1    2    0    0  0.94796791738E+01 -0.62285262931E+01  0.14901070135E+02  0.18727005852E+02  0.00000000000E+00 0. -1.
         11    1    3    3    0    0 -0.33277436853E+01 -0.29849784924E+01  0.75968986559E+01  0.88145813334E+01  0.51100000000E-03 0. -1.
        -11    1    3    3    0    0 -0.49440784651E+01 -0.20254722116E+02  0.69417832293E+01  0.21974668019E+02  0.51100000000E-03 0.  1.
        -12    1    3    3    0    0 -0.12078570235E+01  0.29468226901E+02 -0.29439752020E+02  0.41671744796E+02  0.00000000000E+00 0.  1.
</event>
<event>
 7    1  0.2944263E-013  0.7246158E+02  0.7816164E-02  0.1226708E+00
        -11   -1    0    0    0    0  0.00000000000E+00  0.00000000000E+00  0.45593999997E+02  0.45594000000E+02  0.51100000000E-03 0. -1.
         11   -1    0    0    0    0 -0.00000000000E+00 -0.00000000000E+00 -0.45593999997E+02  0.45594000000E+02  0.51100000000E-03 0.  1.
    9900012    2    1    2    0    0 -0.34695102691E+01  0.59113936844E+01 -0.17426891572E+02  0.72461584789E+02  0.70000018882E+02 0.  0.
         12    1    1    2    0    0  0.34695102691E+01 -0.59113936844E+01  0.17426891572E+02  0.18726415211E+02  0.00000000000E+00 0. -1.
         11    1    3    3    0    0  0.74687285492E+01  0.40407066762E+01 -0.21815924370E+02  0.23410334747E+02  0.51100000000E-03 0. -1.
        -11    1    3    3    0    0 -0.59009065697E+01 -0.42427924442E+01 -0.21122649288E+02  0.22338046004E+02  0.51100000000E-03 0.  1.
         12    1    3    3    0    0 -0.50373322486E+01  0.61134794523E+01  0.25511682085E+02  0.26713204039E+02  0.00000000000E+00 0. -1.
</event>
<event>
 7    1  0.2944263E-013  0.7246159E+02  0.7816164E-02  0.1226708E+00
        -11   -1    0    0    0    0  0.00000000000E+00  0.00000000000E+00  0.45593999997E+02  0.45594000000E+02  0.51100000000E-03 0. -1.
         11   -1    0    0    0    0 -0.00000000000E+00 -0.00000000000E+00 -0.45593999997E+02  0.45594000000E+02  0.51100000000E-03 0.  1.
    9900012    2    1    2    0    0 -0.42969596883E+01  0.18223834938E+02  0.32630956233E+00  0.72461588162E+02  0.70000023276E+02 0.  0.
         12    1    1    2    0    0  0.42969596883E+01 -0.18223834938E+02 -0.32630956233E+00  0.18726411838E+02  0.00000000000E+00 0. -1.
         11    1    3    3    0    0 -0.23548170752E+02 -0.46435380113E+00 -0.16212564222E+02  0.28593342042E+02  0.51100000000E-03 0. -1.
        -11    1    3    3    0    0 -0.61594912830E+00 -0.71193830755E+01 -0.40113784189E+00  0.71572285512E+01  0.51100000000E-03 0.  1.
        -12    1    3    3    0    0  0.19867160192E+02  0.25807571814E+02  0.16940011626E+02  0.36711017569E+02  0.00000000000E+00 0.  1.
</event>
<event>
 7    1  0.2944263E-013  0.7246160E+02  0.7816164E-02  0.1226708E+00
        -11   -1    0    0    0    0  0.00000000000E+00  0.00000000000E+00  0.45593999997E+02  0.45594000000E+02  0.51100000000E-03 0.  1.
         11   -1    0    0    0    0 -0.00000000000E+00 -0.00000000000E+00 -0.45593999997E+02  0.45594000000E+02  0.51100000000E-03 0. -1.
    9900012    2    1    2    0    0 -0.15174889755E+02  0.48220731079E+01  0.98563810731E+01  0.72461603764E+02  0.70000043600E+02 0.  0.
         12    1    1    2    0    0  0.15174889755E+02 -0.48220731079E+01 -0.98563810731E+01  0.18726396236E+02  0.00000000000E+00 0. -1.
         11    1    3    3    0    0 -0.12779893194E+02  0.53788606403E+01  0.11198045045E+02  0.17822851201E+02  0.51100000000E-03 0. -1.
        -11    1    3    3    0    0 -0.46471249979E+01 -0.26915949765E+02 -0.54895604173E+01  0.27860355280E+02  0.51100000000E-03 0.  1.
         12    1    3    3    0    0  0.22521284365E+01  0.26359162233E+02  0.41478964455E+01  0.26778397283E+02  0.00000000000E+00 0. -1.
</event>
<event>
 7    1  0.2944263E-013  0.7246160E+02  0.7816164E-02  0.1226708E+00
        -11   -1    0    0    0    0  0.00000000000E+00  0.00000000000E+00  0.45593999997E+02  0.45594000000E+02  0.51100000000E-03 0. -1.
         11   -1    0    0    0    0 -0.00000000000E+00 -0.00000000000E+00 -0.45593999997E+02  0.45594000000E+02  0.51100000000E-03 0.  1.
    9900012    2    1    2    0    0  0.46778109625E+01 -0.17713021507E+02  0.38787766364E+01  0.72461602735E+02  0.70000042260E+02 0.  0.
         12    1    1    2    0    0 -0.46778109625E+01  0.17713021507E+02 -0.38787766364E+01  0.18726397265E+02  0.00000000000E+00 0. -1.
         11    1    3    3    0    0 -0.12870743871E+02  0.76748043905E+01 -0.42366313445E+01  0.15572659234E+02  0.51100000000E-03 0. -1.
        -11    1    3    3    0    0 -0.10631379745E+02 -0.39287654175E+01 -0.11710772695E+02  0.16297350409E+02  0.51100000000E-03 0.  1.
        -12    1    3    3    0    0  0.28179934578E+02 -0.21459060480E+02  0.19826180676E+02  0.40591593092E+02  0.00000000000E+00 0.  1.
</event>
<event>
 7    1  0.2944263E-013  0.7246157E+02  0.7816164E-02  0.1226708E+00
        -11   -1    0    0    0    0  0.00000000000E+00  0.00000000000E+00  0.45593999997E+02  0.45594000000E+02  0.51100000000E-03 0. -1.
         11   -1    0    0    0    0 -0.00000000000E+00 -0.00000000000E+00 -0.45593999997E+02  0.45594000000E+02  0.51100000000E-03 0.  1.
    9900012    2    1    2    0    0  0.17499526112E+02 -0.21536652208E+01  0.63093183221E+01  0.72461569862E+02  0.69999999437E+02 0.  0.
         12    1    1    2    0    0 -0.17499526112E+02  0.21536652208E+01 -0.63093183221E+01  0.18726430138E+02  0.00000000000E+00 0. -1.
         11    1    3    3    0    0 -0.27838223442E+01 -0.47772723895E+01  0.60878969273E+01  0.82240189437E+01  0.51100000000E-03 0. -1.
        -11    1    3    3    0    0  0.21874260427E+01  0.26480146589E+01  0.29564436113E+02  0.29763277663E+02  0.51100000000E-03 0.  1.
        -12    1    3    3    0    0  0.18095922414E+02 -0.24407490103E-01 -0.29343014718E+02  0.34474273255E+02  0.00000000000E+00 0.  1.
</event>
<event>
 7    1  0.2944263E-013  0.7246160E+02  0.7816164E-02  0.1226708E+00
        -11   -1    0    0    0    0  0.00000000000E+00  0.00000000000E+00  0.45593999997E+02  0.45594000000E+02  0.51100000000E-03 0.  1.
         11   -1    0    0    0    0 -0.00000000000E+00 -0.00000000000E+00 -0.45593999997E+02  0.45594000000E+02  0.51100000000E-03 0. -1.
    9900012    2    1    2    0    0  0.11869186202E+02  0.30653159071E+01  0.14156421169E+02  0.72461601440E+02  0.70000040573E+02 0.  0.
         12    1    1    2    0    0 -0.11869186202E+02 -0.30653159071E+01 -0.14156421169E+02  0.18726398560E+02  0.00000000000E+00 0. -1.
         11    1    3    3    0    0  0.21947996815E+02  0.92134470674E+01 -0.21770430950E+01  0.23902754819E+02  0.51100000000E-03 0. -1.
        -11    1    3    3    0    0  0.72420936528E+01  0.14704116742E+02 -0.93600817423E+00  0.16417523601E+02  0.51100000000E-03 0.  1.
        -12    1    3    3    0    0 -0.17320904266E+02 -0.20852247902E+02  0.17269472438E+02  0.32141323020E+02  0.00000000000E+00 0.  1.
</event>
<event>
 7    1  0.2944263E-013  0.7246167E+02  0.7816164E-02  0.1226708E+00
        -11   -1    0    0    0    0  0.00000000000E+00  0.00000000000E+00  0.45593999997E+02  0.45594000000E+02  0.51100000000E-03 0.  1.
         11   -1    0    0    0    0 -0.00000000000E+00 -0.00000000000E+00 -0.45593999997E+02  0.45594000000E+02  0.51100000000E-03 0. -1.
    9900012    2    1    2    0    0 -0.76951769197E+01 -0.11198404112E+02  0.12886251552E+02  0.72461668764E+02  0.70000128275E+02 0.  0.
         12    1    1    2    0    0  0.76951769197E+01  0.11198404112E+02 -0.12886251552E+02  0.18726331236E+02  0.00000000000E+00 0. -1.
         11    1    3    3    0    0  0.11390253778E+02  0.72622134444E+01  0.29559538580E+01  0.13828061639E+02  0.51100000000E-03 0. -1.
        -11    1    3    3    0    0 -0.77377949875E+01  0.11120058389E+02  0.21070235983E+02  0.25049631025E+02  0.51100000000E-03 0.  1.
         12    1    3    3    0    0 -0.11347635710E+02 -0.29580675946E+02 -0.11139938288E+02  0.33583976100E+02  0.00000000000E+00 0. -1.
</event>
<event>
 7    1  0.2944263E-013  0.7246156E+02  0.7816164E-02  0.1226708E+00
        -11   -1    0    0    0    0  0.00000000000E+00  0.00000000000E+00  0.45593999997E+02  0.45594000000E+02  0.51100000000E-03 0.  1.
         11   -1    0    0    0    0 -0.00000000000E+00 -0.00000000000E+00 -0.45593999997E+02  0.45594000000E+02  0.51100000000E-03 0. -1.
    9900012    2    1    2    0    0 -0.89527208278E+01  0.78696174627E+01  0.14442902300E+02  0.72461561041E+02  0.69999987946E+02 0.  0.
         12    1    1    2    0    0  0.89527208278E+01 -0.78696174627E+01 -0.14442902300E+02  0.18726438959E+02  0.00000000000E+00 0. -1.
         11    1    3    3    0    0 -0.31294637069E+01 -0.75028414107E+01 -0.10177183206E+01  0.81927970296E+01  0.51100000000E-03 0. -1.
        -11    1    3    3    0    0  0.16995197808E+02 -0.10881101863E+02 -0.86393622559E+01  0.21951621961E+02  0.51100000000E-03 0.  1.
        -12    1    3    3    0    0 -0.22818454929E+02  0.26253560737E+02  0.24099982876E+02  0.42317142051E+02  0.00000000000E+00 0.  1.
</event>
<event>
 7    1  0.2944263E-013  0.7246121E+02  0.7816164E-02  0.1226709E+00
        -11   -1    0    0    0    0  0.00000000000E+00  0.00000000000E+00  0.45593999997E+02  0.45594000000E+02  0.51100000000E-03 0. -1.
         11   -1    0    0    0    0 -0.00000000000E+00 -0.00000000000E+00 -0.45593999997E+02  0.45594000000E+02  0.51100000000E-03 0.  1.
    9900012    2    1    2    0    0 -0.33124341015E+01 -0.17999970782E+02 -0.39650517488E+01  0.72461206275E+02  0.69999525796E+02 0.  0.
         12    1    1    2    0    0  0.33124341015E+01  0.17999970782E+02  0.39650517488E+01  0.18726793725E+02  0.00000000000E+00 0. -1.
         11    1    3    3    0    0 -0.95122014750E+01 -0.21658666784E+01 -0.67685936109E+01  0.11873786890E+02  0.51100000000E-03 0. -1.
        -11    1    3    3    0    0 -0.14087037325E+02 -0.29202027649E+02  0.12054370535E+02  0.34590618507E+02  0.51100000000E-03 0.  1.
         12    1    3    3    0    0  0.20286804699E+02  0.13367923545E+02 -0.92508286732E+01  0.25996800879E+02  0.00000000000E+00 0. -1.
</event>
<event>
 7    1  0.2944263E-013  0.7246156E+02  0.7816164E-02  0.1226708E+00
        -11   -1    0    0    0    0  0.00000000000E+00  0.00000000000E+00  0.45593999997E+02  0.45594000000E+02  0.51100000000E-03 0. -1.
         11   -1    0    0    0    0 -0.00000000000E+00 -0.00000000000E+00 -0.45593999997E+02  0.45594000000E+02  0.51100000000E-03 0.  1.
    9900012    2    1    2    0    0  0.45010751218E+01  0.10940655864E+02 -0.14516267561E+02  0.72461557415E+02  0.69999983222E+02 0.  0.
         12    1    1    2    0    0 -0.45010751218E+01 -0.10940655864E+02  0.14516267561E+02  0.18726442585E+02  0.00000000000E+00 0. -1.
         11    1    3    3    0    0 -0.13568860164E+02  0.14098787292E+02  0.11600224953E+02  0.22747636986E+02  0.51100000000E-03 0. -1.
        -11    1    3    3    0    0 -0.47903875352E+01  0.85881904287E+01 -0.21443687777E+02  0.23591027390E+02  0.51100000000E-03 0.  1.
        -12    1    3    3    0    0  0.22860322821E+02 -0.11746321856E+02 -0.46728047370E+01  0.26122893039E+02  0.00000000000E+00 0.  1.
</event>
<event>
 7    1  0.2944263E-013  0.7246165E+02  0.7816164E-02  0.1226708E+00
        -11   -1    0    0    0    0  0.00000000000E+00  0.00000000000E+00  0.45593999997E+02  0.45594000000E+02  0.51100000000E-03 0. -1.
         11   -1    0    0    0    0 -0.00000000000E+00 -0.00000000000E+00 -0.45593999997E+02  0.45594000000E+02  0.51100000000E-03 0.  1.
    9900012    2    1    2    0    0 -0.46872769720E+01 -0.17321382622E+02 -0.53549237938E+01  0.72461653047E+02  0.70000107801E+02 0.  0.
         12    1    1    2    0    0  0.46872769720E+01  0.17321382622E+02  0.53549237938E+01  0.18726346953E+02  0.00000000000E+00 0. -1.
         11    1    3    3    0    0 -0.27992765334E+02 -0.14602495983E+02  0.58726434018E+01  0.32114105012E+02  0.51100000000E-03 0. -1.
        -11    1    3    3    0    0 -0.42226610773E+01 -0.20050208845E+01 -0.11917527991E+02  0.12801501826E+02  0.51100000000E-03 0.  1.
         12    1    3    3    0    0  0.27528149439E+02 -0.71386575437E+00  0.68996079537E+00  0.27546046209E+02  0.00000000000E+00 0. -1.
</event>
<event>
 7    1  0.2944263E-013  0.7246151E+02  0.7816164E-02  0.1226708E+00
        -11   -1    0    0    0    0  0.00000000000E+00  0.00000000000E+00  0.45593999997E+02  0.45594000000E+02  0.51100000000E-03 0.  1.
         11   -1    0    0    0    0 -0.00000000000E+00 -0.00000000000E+00 -0.45593999997E+02  0.45594000000E+02  0.51100000000E-03 0. -1.
    9900012    2    1    2    0    0  0.76583708263E+00  0.18051244822E+02  0.49241562342E+01  0.72461514460E+02  0.69999927266E+02 0.  0.
         12    1    1    2    0    0 -0.76583708263E+00 -0.18051244822E+02 -0.49241562342E+01  0.18726485540E+02  0.00000000000E+00 0. -1.
         11    1    3    3    0    0 -0.59896712339E+01  0.66357018041E+01  0.42305989432E+01  0.98897253553E+01  0.51100000000E-03 0. -1.
        -11    1    3    3    0    0 -0.18315818452E+01  0.35263961528E+00  0.30017468412E+02  0.30075362955E+02  0.51100000000E-03 0.  1.
         12    1    3    3    0    0  0.85870901617E+01  0.11062903402E+02 -0.29323911121E+02  0.32496426150E+02  0.00000000000E+00 0. -1.
</event>
<event>
 7    1  0.2944263E-013  0.7246155E+02  0.7816164E-02  0.1226708E+00
        -11   -1    0    0    0    0  0.00000000000E+00  0.00000000000E+00  0.45593999997E+02  0.45594000000E+02  0.51100000000E-03 0.  1.
         11   -1    0    0    0    0 -0.00000000000E+00 -0.00000000000E+00 -0.45593999997E+02  0.45594000000E+02  0.51100000000E-03 0. -1.
    9900012    2    1    2    0    0 -0.60717613720E+01  0.96068351822E+01  0.14883622537E+02  0.72461553775E+02  0.69999978481E+02 0.  0.
         12    1    1    2    0    0  0.60717613720E+01 -0.96068351822E+01 -0.14883622537E+02  0.18726446225E+02  0.00000000000E+00 0. -1.
         11    1    3    3    0    0 -0.15431796140E+02 -0.35911483078E+01  0.25082275469E+01  0.16041442702E+02  0.51100000000E-03 0. -1.
        -11    1    3    3    0    0 -0.14165939716E+02  0.21783726147E+02 -0.42924280018E+01  0.26336847026E+02  0.51100000000E-03 0.  1.
         12    1    3    3    0    0  0.23525974484E+02 -0.85857426566E+01  0.16667822992E+02  0.30083264047E+02  0.00000000000E+00 0. -1.
</event>
<event>
 7    1  0.2944263E-013  0.7246157E+02  0.7816164E-02  0.1226708E+00
        -11   -1    0    0    0    0  0.00000000000E+00  0.00000000000E+00  0.45593999997E+02  0.45594000000E+02  0.51100000000E-03 0. -1.
         11   -1    0    0    0    0 -0.00000000000E+00 -0.00000000000E+00 -0.45593999997E+02  0.45594000000E+02  0.51100000000E-03 0.  1.
    9900012    2    1    2    0    0  0.90054809119E+01 -0.42952462018E+01 -0.15847118708E+02  0.72461574881E+02  0.70000005975E+02 0.  0.
         12    1    1    2    0    0 -0.90054809119E+01  0.42952462018E+01  0.15847118708E+02  0.18726425119E+02  0.00000000000E+00 0. -1.
         11    1    3    3    0    0  0.20039832674E+00 -0.16036913458E+02 -0.42316781454E+01  0.16587038703E+02  0.51100000000E-03 0. -1.
        -11    1    3    3    0    0  0.10608229373E+02 -0.19063663354E+02 -0.12229504230E+02  0.25010369147E+02  0.51100000000E-03 0.  1.
        -12    1    3    3    0    0 -0.18031467875E+01  0.30805330610E+02  0.61406366712E+00  0.30864167031E+02  0.00000000000E+00 0.  1.
</event>
<event>
 7    1  0.2944263E-013  0.7246152E+02  0.7816164E-02  0.1226708E+00
        -11   -1    0    0    0    0  0.00000000000E+00  0.00000000000E+00  0.45593999997E+02  0.45594000000E+02  0.51100000000E-03 0.  1.
         11   -1    0    0    0    0 -0.00000000000E+00 -0.00000000000E+00 -0.45593999997E+02  0.45594000000E+02  0.51100000000E-03 0. -1.
    9900012    2    1    2    0    0  0.14554113473E+02 -0.11216123347E+02  0.36135090934E+01  0.72461519020E+02  0.69999933206E+02 0.  0.
         12    1    1    2    0    0 -0.14554113473E+02  0.11216123347E+02 -0.36135090934E+01  0.18726480980E+02  0.00000000000E+00 0. -1.
         11    1    3    3    0    0  0.13863345440E+02 -0.25325078636E+02 -0.23694831310E+02  0.37349658442E+02  0.51100000000E-03 0. -1.
        -11    1    3    3    0    0  0.43221647058E+01 -0.23294963841E+01  0.89134550952E+01  0.10176312846E+02  0.51100000000E-03 0.  1.
        -12    1    3    3    0    0 -0.36313966729E+01  0.16438451672E+02  0.18394885308E+02  0.24935547732E+02  0.00000000000E+00 0.  1.
</event>
<event>
 7    1  0.2944263E-013  0.7246160E+02  0.7816164E-02  0.1226708E+00
        -11   -1    0    0    0    0  0.00000000000E+00  0.00000000000E+00  0.45593999997E+02  0.45594000000E+02  0.51100000000E-03 0.  1.
         11   -1    0    0    0    0 -0.00000000000E+00 -0.00000000000E+00 -0.45593999997E+02  0.45594000000E+02  0.51100000000E-03 0. -1.
    9900012    2    1    2    0    0 -0.14640416165E+02  0.93071383051E+01  0.70507663359E+01  0.72461603795E+02  0.70000043641E+02 0.  0.
         12    1    1    2    0    0  0.14640416165E+02 -0.93071383051E+01 -0.70507663359E+01  0.18726396205E+02  0.00000000000E+00 0. -1.
         11    1    3    3    0    0 -0.31721505348E+01 -0.20946147694E+02 -0.14411553613E+02  0.25622188042E+02  0.51100000000E-03 0. -1.
        -11    1    3    3    0    0  0.39631343738E+00  0.16332010773E+01 -0.55106457254E+01  0.57612174644E+01  0.51100000000E-03 0.  1.
        -12    1    3    3    0    0 -0.11864579067E+02  0.28620084922E+02  0.26972965675E+02  0.41078198289E+02  0.00000000000E+00 0.  1.
</event>
<event>
 7    1  0.2944263E-013  0.7246155E+02  0.7816164E-02  0.1226708E+00
        -11   -1    0    0    0    0  0.00000000000E+00  0.00000000000E+00  0.45593999997E+02  0.45594000000E+02  0.51100000000E-03 0. -1.
         11   -1    0    0    0    0 -0.00000000000E+00 -0.00000000000E+00 -0.45593999997E+02  0.45594000000E+02  0.51100000000E-03 0.  1.
    9900012    2    1    2    0    0  0.46960086008E+01  0.96726005541E+01 -0.15331933049E+02  0.72461551611E+02  0.69999975661E+02 0.  0.
         12    1    1    2    0    0 -0.46960086008E+01 -0.96726005541E+01  0.15331933049E+02  0.18726448389E+02  0.00000000000E+00 0. -1.
         11    1    3    3    0    0  0.16807402912E+02  0.89689014804E+01 -0.16197383074E+02  0.25005703452E+02  0.51100000000E-03 0. -1.
        -11    1    3    3    0    0 -0.96612094554E+01 -0.14041845779E+02 -0.17060245238E+02  0.24115645728E+02  0.51100000000E-03 0.  1.
         12    1    3    3    0    0 -0.24501848561E+01  0.14745544853E+02  0.17925695263E+02  0.23340202431E+02  0.00000000000E+00 0. -1.
</event>
<event>
 7    1  0.2944263E-013  0.7246158E+02  0.7816164E-02  0.1226708E+00
        -11   -1    0    0    0    0  0.00000000000E+00  0.00000000000E+00  0.45593999997E+02  0.45594000000E+02  0.51100000000E-03 0.  1.
         11   -1    0    0    0    0 -0.00000000000E+00 -0.00000000000E+00 -0.45593999997E+02  0.45594000000E+02  0.51100000000E-03 0. -1.
    9900012    2    1    2    0    0  0.67537340756E+01  0.96700977882E+01  0.14544934188E+02  0.72461579474E+02  0.70000011958E+02 0.  0.
         12    1    1    2    0    0 -0.67537340756E+01 -0.96700977882E+01 -0.14544934188E+02  0.18726420526E+02  0.00000000000E+00 0. -1.
         11    1    3    3    0    0  0.11403663267E+02 -0.14363365564E+00  0.10313716618E+02  0.15376505366E+02  0.51100000000E-03 0. -1.
        -11    1    3    3    0    0  0.25248099855E+02  0.93605447564E+01  0.36868694713E+01  0.27178656170E+02  0.51100000000E-03 0.  1.
         12    1    3    3    0    0 -0.29898029046E+02  0.45318668744E+00  0.54434809824E+00  0.29906417938E+02  0.00000000000E+00 0. -1.
</event>
<event>
 7    1  0.2944263E-013  0.7246186E+02  0.7816164E-02  0.1226707E+00
        -11   -1    0    0    0    0  0.00000000000E+00  0.00000000000E+00  0.45593999997E+02  0.45594000000E+02  0.51100000000E-03 0.  1.
         11   -1    0    0    0    0 -0.00000000000E+00 -0.00000000000E+00 -0.45593999997E+02  0.45594000000E+02  0.51100000000E-03 0. -1.
    9900012    2    1    2    0    0 -0.84899439023E+01  0.16662776095E+02  0.97010044357E+00  0.72461859193E+02  0.70000376343E+02 0.  0.
         12    1    1    2    0    0  0.84899439023E+01 -0.16662776095E+02 -0.97010044357E+00  0.18726140807E+02  0.00000000000E+00 0. -1.
         11    1    3    3    0    0  0.19040361807E+01 -0.84228795612E+01 -0.19596002029E+02  0.21414330474E+02  0.51100000000E-03 0. -1.
        -11    1    3    3    0    0 -0.19308454489E+02  0.15273028106E+02 -0.21851488562E+01  0.24715514926E+02  0.51100000000E-03 0.  1.
        -12    1    3    3    0    0  0.89144744058E+01  0.98126275508E+01  0.22751251329E+02  0.26332013793E+02  0.00000000000E+00 0.  1.
</event>
<event>
 7    1  0.2944263E-013  0.7246158E+02  0.7816164E-02  0.1226708E+00
        -11   -1    0    0    0    0  0.00000000000E+00  0.00000000000E+00  0.45593999997E+02  0.45594000000E+02  0.51100000000E-03 0.  1.
         11   -1    0    0    0    0 -0.00000000000E+00 -0.00000000000E+00 -0.45593999997E+02  0.45594000000E+02  0.51100000000E-03 0. -1.
    9900012    2    1    2    0    0  0.82238878795E+00 -0.12122260446E-01  0.18708350406E+02  0.72461578954E+02  0.70000011281E+02 0.  0.
         12    1    1    2    0    0 -0.82238878795E+00  0.12122260446E-01 -0.18708350406E+02  0.18726421046E+02  0.00000000000E+00 0. -1.
         11    1    3    3    0    0 -0.91179914992E+01 -0.29168441367E+02 -0.62082233921E+01  0.31184575974E+02  0.51100000000E-03 0. -1.
        -11    1    3    3    0    0 -0.25850013883E+01  0.37621411632E+01  0.40687415052E+01  0.61147850336E+01  0.51100000000E-03 0.  1.
        -12    1    3    3    0    0  0.12525381675E+02  0.25394177943E+02  0.20847832293E+02  0.35162217946E+02  0.00000000000E+00 0.  1.
</event>
<event>
 7    1  0.2944263E-013  0.7246191E+02  0.7816164E-02  0.1226707E+00
        -11   -1    0    0    0    0  0.00000000000E+00  0.00000000000E+00  0.45593999997E+02  0.45594000000E+02  0.51100000000E-03 0.  1.
         11   -1    0    0    0    0 -0.00000000000E+00 -0.00000000000E+00 -0.45593999997E+02  0.45594000000E+02  0.51100000000E-03 0. -1.
    9900012    2    1    2    0    0  0.39672600422E+01  0.17159485635E+02  0.63623315157E+01  0.72461912266E+02  0.70000445481E+02 0.  0.
         12    1    1    2    0    0 -0.39672600422E+01 -0.17159485635E+02 -0.63623315157E+01  0.18726087734E+02  0.00000000000E+00 0. -1.
         11    1    3    3    0    0 -0.22027524948E+02  0.13527203589E+01 -0.14703914751E+02  0.26518801198E+02  0.51100000000E-03 0. -1.
        -11    1    3    3    0    0  0.10089325754E+02 -0.99518370875E+00 -0.48188826098E+01  0.11225262342E+02  0.51100000000E-03 0.  1.
        -12    1    3    3    0    0  0.15905459236E+02  0.16801948985E+02  0.25885128877E+02  0.34717848726E+02  0.00000000000E+00 0.  1.
</event>
<event>
 7    1  0.2944263E-013  0.7246152E+02  0.7816164E-02  0.1226708E+00
        -11   -1    0    0    0    0  0.00000000000E+00  0.00000000000E+00  0.45593999997E+02  0.45594000000E+02  0.51100000000E-03 0.  1.
         11   -1    0    0    0    0 -0.00000000000E+00 -0.00000000000E+00 -0.45593999997E+02  0.45594000000E+02  0.51100000000E-03 0. -1.
    9900012    2    1    2    0    0 -0.41158392264E+01 -0.14682738781E+02  0.10870054149E+02  0.72461520677E+02  0.69999935364E+02 0.  0.
         12    1    1    2    0    0  0.41158392264E+01  0.14682738781E+02 -0.10870054149E+02  0.18726479323E+02  0.00000000000E+00 0. -1.
         11    1    3    3    0    0 -0.18918828622E+02  0.20708700640E+01  0.15232522991E+02  0.24377045272E+02  0.51100000000E-03 0. -1.
        -11    1    3    3    0    0 -0.14974118411E+02 -0.52012072209E+01 -0.28749917711E+01  0.16110318330E+02  0.51100000000E-03 0.  1.
         12    1    3    3    0    0  0.29777107807E+02 -0.11552401624E+02 -0.14874770709E+01  0.31974157075E+02  0.00000000000E+00 0. -1.
</event>
<event>
 7    1  0.2944263E-013  0.7246160E+02  0.7816164E-02  0.1226708E+00
        -11   -1    0    0    0    0  0.00000000000E+00  0.00000000000E+00  0.45593999997E+02  0.45594000000E+02  0.51100000000E-03 0. -1.
         11   -1    0    0    0    0 -0.00000000000E+00 -0.00000000000E+00 -0.45593999997E+02  0.45594000000E+02  0.51100000000E-03 0.  1.
    9900012    2    1    2    0    0  0.13854180750E+02  0.11862665131E+02  0.42446124685E+01  0.72461604637E+02  0.70000044738E+02 0.  0.
         12    1    1    2    0    0 -0.13854180750E+02 -0.11862665131E+02 -0.42446124685E+01  0.18726395363E+02  0.00000000000E+00 0. -1.
         11    1    3    3    0    0 -0.99210186678E+01 -0.18464602696E+02 -0.34759586572E+01  0.21247363436E+02  0.51100000000E-03 0. -1.
        -11    1    3    3    0    0  0.20613726563E+01 -0.32883208275E+01  0.10405345402E+02  0.11105562763E+02  0.51100000000E-03 0.  1.
        -12    1    3    3    0    0  0.21713826762E+02  0.33615588654E+02 -0.26847742759E+01  0.40108678439E+02  0.00000000000E+00 0.  1.
</event>
<event>
 7    1  0.2944263E-013  0.7246147E+02  0.7816164E-02  0.1226708E+00
        -11   -1    0    0    0    0  0.00000000000E+00  0.00000000000E+00  0.45593999997E+02  0.45594000000E+02  0.51100000000E-03 0.  1.
         11   -1    0    0    0    0 -0.00000000000E+00 -0.00000000000E+00 -0.45593999997E+02  0.45594000000E+02  0.51100000000E-03 0. -1.
    9900012    2    1    2    0    0 -0.11760276807E+02 -0.14142326128E+02  0.35176077893E+01  0.72461466326E+02  0.69999864562E+02 0.  0.
         12    1    1    2    0    0  0.11760276807E+02  0.14142326128E+02 -0.35176077893E+01  0.18726533674E+02  0.00000000000E+00 0. -1.
         11    1    3    3    0    0 -0.35952695050E+01  0.40758041462E-01  0.75162733759E+01  0.83319859429E+01  0.51100000000E-03 0. -1.
        -11    1    3    3    0    0  0.50745678539E+01 -0.21062381985E+02  0.24043845767E+02  0.32364821849E+02  0.51100000000E-03 0.  1.
         12    1    3    3    0    0 -0.13239575155E+02  0.68792978161E+01 -0.28042511354E+02  0.31764658534E+02  0.00000000000E+00 0. -1.
</event>
<event>
 7    1  0.2944263E-013  0.7246159E+02  0.7816164E-02  0.1226708E+00
        -11   -1    0    0    0    0  0.00000000000E+00  0.00000000000E+00  0.45593999997E+02  0.45594000000E+02  0.51100000000E-03 0. -1.
         11   -1    0    0    0    0 -0.00000000000E+00 -0.00000000000E+00 -0.45593999997E+02  0.45594000000E+02  0.51100000000E-03 0.  1.
    9900012    2    1    2    0    0 -0.14870392633E+02  0.11212485535E+02  0.19570052889E+01  0.72461594081E+02  0.70000030986E+02 0.  0.
         12    1    1    2    0    0  0.14870392633E+02 -0.11212485535E+02 -0.19570052889E+01  0.18726405919E+02  0.00000000000E+00 0. -1.
         11    1    3    3    0    0  0.57369363887E+01  0.36001910221E+02 -0.78897179757E+01  0.37300102261E+02  0.51100000000E-03 0. -1.
        -11    1    3    3    0    0 -0.32973233567E+00 -0.15076712848E+01 -0.16098717473E+01  0.22301308078E+01  0.51100000000E-03 0.  1.
        -12    1    3    3    0    0 -0.20277596686E+02 -0.23281753401E+02  0.11456595012E+02  0.32931361012E+02  0.00000000000E+00 0.  1.
</event>
<event>
 7    1  0.2944263E-013  0.7246183E+02  0.7816164E-02  0.1226707E+00
        -11   -1    0    0    0    0  0.00000000000E+00  0.00000000000E+00  0.45593999997E+02  0.45594000000E+02  0.51100000000E-03 0. -1.
         11   -1    0    0    0    0 -0.00000000000E+00 -0.00000000000E+00 -0.45593999997E+02  0.45594000000E+02  0.51100000000E-03 0.  1.
    9900012    2    1    2    0    0 -0.75926843004E+01  0.17114921482E+02 -0.31654093218E+00  0.72461826061E+02  0.70000333183E+02 0.  0.
         12    1    1    2    0    0  0.75926843004E+01 -0.17114921482E+02  0.31654093218E+00  0.18726173939E+02  0.00000000000E+00 0. -1.
         11    1    3    3    0    0 -0.63406242197E+01  0.21740295452E+02  0.63432539816E+01  0.23517670658E+02  0.51100000000E-03 0. -1.
        -11    1    3    3    0    0 -0.12510197720E+02  0.14620928524E+02 -0.15748756043E+02  0.24865637234E+02  0.51100000000E-03 0.  1.
         12    1    3    3    0    0  0.11258137640E+02 -0.19246302494E+02  0.90889611289E+01  0.24078518169E+02  0.00000000000E+00 0. -1.
</event>
<event>
 7    1  0.2944263E-013  0.7246152E+02  0.7816164E-02  0.1226708E+00
        -11   -1    0    0    0    0  0.00000000000E+00  0.00000000000E+00  0.45593999997E+02  0.45594000000E+02  0.51100000000E-03 0. -1.
         11   -1    0    0    0    0 -0.00000000000E+00 -0.00000000000E+00 -0.45593999997E+02  0.45594000000E+02  0.51100000000E-03 0.  1.
    9900012    2    1    2    0    0  0.13696480410E+02 -0.10555461919E+02 -0.71881524520E+01  0.72461524420E+02  0.69999940241E+02 0.  0.
         12    1    1    2    0    0 -0.13696480410E+02  0.10555461919E+02  0.71881524520E+01  0.18726475580E+02  0.00000000000E+00 0. -1.
         11    1    3    3    0    0  0.13363710909E+02  0.13050308183E+02 -0.51626334381E+01  0.19379166577E+02  0.51100000000E-03 0. -1.
        -11    1    3    3    0    0  0.23942754169E+00  0.26727160502E+01 -0.20681484723E+02  0.20854844695E+02  0.51100000000E-03 0.  1.
         12    1    3    3    0    0  0.93341959248E-01 -0.26278486153E+02  0.18655965709E+02  0.32227513149E+02  0.00000000000E+00 0. -1.
</event>
<event>
 7    1  0.2944263E-013  0.7246160E+02  0.7816164E-02  0.1226708E+00
        -11   -1    0    0    0    0  0.00000000000E+00  0.00000000000E+00  0.45593999997E+02  0.45594000000E+02  0.51100000000E-03 0. -1.
         11   -1    0    0    0    0 -0.00000000000E+00 -0.00000000000E+00 -0.45593999997E+02  0.45594000000E+02  0.51100000000E-03 0.  1.
    9900012    2    1    2    0    0  0.13829902122E+02  0.77430060433E+01 -0.99728414374E+01  0.72461604147E+02  0.70000044100E+02 0.  0.
         12    1    1    2    0    0 -0.13829902122E+02 -0.77430060433E+01  0.99728414374E+01  0.18726395853E+02  0.00000000000E+00 0. -1.
         11    1    3    3    0    0  0.95747241862E+01  0.14079121889E+02  0.46242181947E+01  0.17643140610E+02  0.51100000000E-03 0. -1.
        -11    1    3    3    0    0 -0.51129915020E+01  0.20444104369E+02  0.32170819721E+01  0.21317919744E+02  0.51100000000E-03 0.  1.
        -12    1    3    3    0    0  0.93681694382E+01 -0.26780220214E+02 -0.17814141604E+02  0.33500543793E+02  0.00000000000E+00 0.  1.
</event>
<event>
 7    1  0.2944263E-013  0.7246156E+02  0.7816164E-02  0.1226708E+00
        -11   -1    0    0    0    0  0.00000000000E+00  0.00000000000E+00  0.45593999997E+02  0.45594000000E+02  0.51100000000E-03 0.  1.
         11   -1    0    0    0    0 -0.00000000000E+00 -0.00000000000E+00 -0.45593999997E+02  0.45594000000E+02  0.51100000000E-03 0. -1.
    9900012    2    1    2    0    0 -0.13413833327E+02 -0.54762988884E+01  0.11864182556E+02  0.72461558753E+02  0.69999984966E+02 0.  0.
         12    1    1    2    0    0  0.13413833327E+02  0.54762988884E+01 -0.11864182556E+02  0.18726441247E+02  0.00000000000E+00 0. -1.
         11    1    3    3    0    0  0.83686458492E+00 -0.20203509620E+02  0.35175580867E+01  0.20524506290E+02  0.51100000000E-03 0. -1.
        -11    1    3    3    0    0 -0.29240230060E+01 -0.70856535982E+01 -0.15750453663E+02  0.17516654598E+02  0.51100000000E-03 0.  1.
        -12    1    3    3    0    0 -0.11326674906E+02  0.21812864330E+02  0.24097078132E+02  0.34420397865E+02  0.00000000000E+00 0.  1.
</event>
<event>
 7    1  0.2944263E-013  0.7246158E+02  0.7816164E-02  0.1226708E+00
        -11   -1    0    0    0    0  0.00000000000E+00  0.00000000000E+00  0.45593999997E+02  0.45594000000E+02  0.51100000000E-03 0. -1.
         11   -1    0    0    0    0 -0.00000000000E+00 -0.00000000000E+00 -0.45593999997E+02  0.45594000000E+02  0.51100000000E-03 0.  1.
    9900012    2    1    2    0    0  0.10704793179E+02  0.15133573626E+02 -0.26572736221E+01  0.72461581475E+02  0.70000014564E+02 0.  0.
         12    1    1    2    0    0 -0.10704793179E+02 -0.15133573626E+02  0.26572736221E+01  0.18726418525E+02  0.00000000000E+00 0. -1.
         11    1    3    3    0    0  0.18934407844E+01 -0.17795195140E+02 -0.11305521765E+01  0.17931319990E+02  0.51100000000E-03 0. -1.
        -11    1    3    3    0    0  0.76716372950E+01  0.19997508227E+02 -0.21732887058E+02  0.30513484466E+02  0.51100000000E-03 0.  1.
         12    1    3    3    0    0  0.11397150995E+01  0.12931260539E+02  0.20206165613E+02  0.24016777019E+02  0.00000000000E+00 0. -1.
</event>
<event>
 7    1  0.2944263E-013  0.7246159E+02  0.7816164E-02  0.1226708E+00
        -11   -1    0    0    0    0  0.00000000000E+00  0.00000000000E+00  0.45593999997E+02  0.45594000000E+02  0.51100000000E-03 0.  1.
         11   -1    0    0    0    0 -0.00000000000E+00 -0.00000000000E+00 -0.45593999997E+02  0.45594000000E+02  0.51100000000E-03 0. -1.
    9900012    2    1    2    0    0 -0.16731777621E+02  0.84036294665E+01 -0.32435144350E+00  0.72461586183E+02  0.70000020698E+02 0.  0.
         12    1    1    2    0    0  0.16731777621E+02 -0.84036294665E+01  0.32435144350E+00  0.18726413817E+02  0.00000000000E+00 0. -1.
         11    1    3    3    0    0  0.15290618083E+02  0.12544736942E+02 -0.11048670074E+02  0.22654945089E+02  0.51100000000E-03 0. -1.
        -11    1    3    3    0    0  0.81341165968E+01 -0.41447098995E+00  0.33609407929E+01  0.88108774980E+01  0.51100000000E-03 0.  1.
        -12    1    3    3    0    0 -0.40156512301E+02 -0.37266364857E+01  0.73633778375E+01  0.40995763597E+02  0.00000000000E+00 0.  1.
</event>
<event>
 7    1  0.2944263E-013  0.7246157E+02  0.7816164E-02  0.1226708E+00
        -11   -1    0    0    0    0  0.00000000000E+00  0.00000000000E+00  0.45593999997E+02  0.45594000000E+02  0.51100000000E-03 0. -1.
         11   -1    0    0    0    0 -0.00000000000E+00 -0.00000000000E+00 -0.45593999997E+02  0.45594000000E+02  0.51100000000E-03 0.  1.
    9900012    2    1    2    0    0 -0.60762739790E+01 -0.15456649530E+02  0.86515882122E+01  0.72461572184E+02  0.70000002461E+02 0.  0.
         12    1    1    2    0    0  0.60762739790E+01  0.15456649530E+02 -0.86515882122E+01  0.18726427816E+02  0.00000000000E+00 0. -1.
         11    1    3    3    0    0 -0.34250106887E+02 -0.10555297669E+02 -0.25096491685E+01  0.35927461222E+02  0.51100000000E-03 0. -1.
        -11    1    3    3    0    0 -0.24136995782E+01  0.73289174389E+00  0.38193692277E+01  0.45771888229E+01  0.51100000000E-03 0.  1.
        -12    1    3    3    0    0  0.30587532486E+02 -0.56342436047E+01  0.73418681530E+01  0.31956922139E+02  0.00000000000E+00 0.  1.
</event>
<event>
 7    1  0.2944263E-013  0.7246149E+02  0.7816164E-02  0.1226708E+00
        -11   -1    0    0    0    0  0.00000000000E+00  0.00000000000E+00  0.45593999997E+02  0.45594000000E+02  0.51100000000E-03 0.  1.
         11   -1    0    0    0    0 -0.00000000000E+00 -0.00000000000E+00 -0.45593999997E+02  0.45594000000E+02  0.51100000000E-03 0. -1.
    9900012    2    1    2    0    0  0.42320036917E+01 -0.17030579168E+02  0.65369550078E+01  0.72461487702E+02  0.69999892409E+02 0.  0.
         12    1    1    2    0    0 -0.42320036917E+01  0.17030579168E+02 -0.65369550078E+01  0.18726512298E+02  0.00000000000E+00 0. -1.
         11    1    3    3    0    0  0.11968069838E+02 -0.10964528665E+02  0.12403021026E+02  0.20427689917E+02  0.51100000000E-03 0. -1.
        -11    1    3    3    0    0  0.20445132342E+02 -0.69640322339E+01 -0.95179034953E+01  0.23602789425E+02  0.51100000000E-03 0.  1.
         12    1    3    3    0    0 -0.28181198489E+02  0.89798173058E+00  0.36518374769E+01  0.28431008361E+02  0.00000000000E+00 0. -1.
</event>
<event>
 7    1  0.2944263E-013  0.7246153E+02  0.7816164E-02  0.1226708E+00
        -11   -1    0    0    0    0  0.00000000000E+00  0.00000000000E+00  0.45593999997E+02  0.45594000000E+02  0.51100000000E-03 0.  1.
         11   -1    0    0    0    0 -0.00000000000E+00 -0.00000000000E+00 -0.45593999997E+02  0.45594000000E+02  0.51100000000E-03 0. -1.
    9900012    2    1    2    0    0 -0.63549045006E+01  0.14454398344E+02 -0.10068073618E+02  0.72461533460E+02  0.69999952016E+02 0.  0.
         12    1    1    2    0    0  0.63549045006E+01 -0.14454398344E+02  0.10068073618E+02  0.18726466540E+02  0.00000000000E+00 0. -1.
         11    1    3    3    0    0  0.26306289513E+00  0.19714103562E+02  0.10014596358E+02  0.22113507677E+02  0.51100000000E-03 0. -1.
        -11    1    3    3    0    0  0.94742959995E+01 -0.13333344723E+02  0.70288840102E+01  0.17802965396E+02  0.51100000000E-03 0.  1.
         12    1    3    3    0    0 -0.16092263395E+02  0.80736395057E+01 -0.27111553986E+02  0.32545060387E+02  0.00000000000E+00 0. -1.
</event>
<event>
 7    1  0.2944263E-013  0.7246156E+02  0.7816164E-02  0.1226708E+00
        -11   -1    0    0    0    0  0.00000000000E+00  0.00000000000E+00  0.45593999997E+02  0.45594000000E+02  0.51100000000E-03 0.  1.
         11   -1    0    0    0    0 -0.00000000000E+00 -0.00000000000E+00 -0.45593999997E+02  0.45594000000E+02  0.51100000000E-03 0. -1.
    9900012    2    1    2    0    0  0.39061058460E+01 -0.16877876234E+02  0.71104959168E+01  0.72461560903E+02  0.69999987767E+02 0.  0.
         12    1    1    2    0    0 -0.39061058460E+01  0.16877876234E+02 -0.71104959168E+01  0.18726439097E+02  0.00000000000E+00 0. -1.
         11    1    3    3    0    0  0.95298726712E+01 -0.94536803100E+01 -0.21184123538E+02  0.25079027789E+02  0.51100000000E-03 0. -1.
        -11    1    3    3    0    0 -0.64005856964E+01 -0.21026644932E+02  0.89730017838E+01  0.23740304455E+02  0.51100000000E-03 0.  1.
        -12    1    3    3    0    0  0.77681887113E+00  0.13602449007E+02  0.19321617671E+02  0.23642228659E+02  0.00000000000E+00 0.  1.
</event>
<event>
 7    1  0.2944263E-013  0.7246160E+02  0.7816164E-02  0.1226708E+00
        -11   -1    0    0    0    0  0.00000000000E+00  0.00000000000E+00  0.45593999997E+02  0.45594000000E+02  0.51100000000E-03 0.  1.
         11   -1    0    0    0    0 -0.00000000000E+00 -0.00000000000E+00 -0.45593999997E+02  0.45594000000E+02  0.51100000000E-03 0. -1.
    9900012    2    1    2    0    0  0.49474552841E+01 -0.19289067574E+01  0.17957730968E+02  0.72461598942E+02  0.70000037319E+02 0.  0.
         12    1    1    2    0    0 -0.49474552841E+01  0.19289067574E+01 -0.17957730968E+02  0.18726401058E+02  0.00000000000E+00 0. -1.
         11    1    3    3    0    0  0.71253005995E+01 -0.21294644795E+01  0.16973514628E+02  0.18531182549E+02  0.51100000000E-03 0. -1.
        -11    1    3    3    0    0  0.23880414451E+02  0.38905331273E+01  0.99009969985E+01  0.26142688924E+02  0.51100000000E-03 0.  1.
         12    1    3    3    0    0 -0.26058259767E+02 -0.36899754053E+01 -0.89167806583E+01  0.27787727468E+02  0.00000000000E+00 0. -1.
</event>
<event>
 7    1  0.2944263E-013  0.7246152E+02  0.7816164E-02  0.1226708E+00
        -11   -1    0    0    0    0  0.00000000000E+00  0.00000000000E+00  0.45593999997E+02  0.45594000000E+02  0.51100000000E-03 0.  1.
         11   -1    0    0    0    0 -0.00000000000E+00 -0.00000000000E+00 -0.45593999997E+02  0.45594000000E+02  0.51100000000E-03 0. -1.
    9900012    2    1    2    0    0 -0.59403271868E+01 -0.11494646982E+02 -0.13537603292E+02  0.72461518771E+02  0.69999932881E+02 0.  0.
         12    1    1    2    0    0  0.59403271868E+01  0.11494646982E+02  0.13537603292E+02  0.18726481229E+02  0.00000000000E+00 0. -1.
         11    1    3    3    0    0  0.13168276977E+02 -0.33556464425E+02  0.33628897211E+01  0.36204265644E+02  0.51100000000E-03 0. -1.
        -11    1    3    3    0    0 -0.75951477523E+01  0.73714659960E+00 -0.58869146560E+01  0.96377081776E+01  0.51100000000E-03 0.  1.
        -12    1    3    3    0    0 -0.11513456411E+02  0.21324670843E+02 -0.11013578357E+02  0.26619544950E+02  0.00000000000E+00 0.  1.
</event>
<event>
 7    1  0.2944263E-013  0.7246157E+02  0.7816164E-02  0.1226708E+00
        -11   -1    0    0    0    0  0.00000000000E+00  0.00000000000E+00  0.45593999997E+02  0.45594000000E+02  0.51100000000E-03 0. -1.
         11   -1    0    0    0    0 -0.00000000000E+00 -0.00000000000E+00 -0.45593999997E+02  0.45594000000E+02  0.51100000000E-03 0.  1.
    9900012    2    1    2    0    0  0.34310502839E+01 -0.15300313276E+02 -0.10237546169E+02  0.72461573647E+02  0.70000004368E+02 0.  0.
         12    1    1    2    0    0 -0.34310502839E+01  0.15300313276E+02  0.10237546169E+02  0.18726426353E+02  0.00000000000E+00 0. -1.
         11    1    3    3    0    0 -0.88291962237E+01  0.18227556582E+02  0.88463948299E+01  0.22101068451E+02  0.51100000000E-03 0. -1.
        -11    1    3    3    0    0 -0.26397208784E+00 -0.44963883595E+01 -0.18180188906E+02  0.18729828042E+02  0.51100000000E-03 0.  1.
        -12    1    3    3    0    0  0.12524218596E+02 -0.29031481498E+02 -0.90375209271E+00  0.31630677155E+02  0.00000000000E+00 0.  1.
</event>
<event>
 7    1  0.2944263E-013  0.7246144E+02  0.7816164E-02  0.1226708E+00
        -11   -1    0    0    0    0  0.00000000000E+00  0.00000000000E+00  0.45593999997E+02  0.45594000000E+02  0.51100000000E-03 0.  1.
         11   -1    0    0    0    0 -0.00000000000E+00 -0.00000000000E+00 -0.45593999997E+02  0.45594000000E+02  0.51100000000E-03 0. -1.
    9900012    2    1    2    0    0 -0.98499023832E+01 -0.86197306415E+01  0.13392667852E+02  0.72461444377E+02  0.69999835969E+02 0.  0.
         12    1    1    2    0    0  0.98499023832E+01  0.86197306415E+01 -0.13392667852E+02  0.18726555623E+02  0.00000000000E+00 0. -1.
         11    1    3    3    0    0 -0.25960154419E+02 -0.47182993230E+01  0.49524207687E+01  0.26846199688E+02  0.51100000000E-03 0. -1.
        -11    1    3    3    0    0 -0.11620935785E+02 -0.46754867611E+01 -0.64933450515E+01  0.14109211714E+02  0.51100000000E-03 0.  1.
        -12    1    3    3    0    0  0.27731187821E+02  0.77405544255E+00  0.14933592135E+02  0.31506032975E+02  0.00000000000E+00 0.  1.
</event>
<event>
 7    1  0.2944263E-013  0.7246159E+02  0.7816164E-02  0.1226708E+00
        -11   -1    0    0    0    0  0.00000000000E+00  0.00000000000E+00  0.45593999997E+02  0.45594000000E+02  0.51100000000E-03 0. -1.
         11   -1    0    0    0    0 -0.00000000000E+00 -0.00000000000E+00 -0.45593999997E+02  0.45594000000E+02  0.51100000000E-03 0.  1.
    9900012    2    1    2    0    0 -0.12596923089E+02 -0.28000347205E+01 -0.13570398879E+02  0.72461591068E+02  0.70000027061E+02 0.  0.
         12    1    1    2    0    0  0.12596923089E+02  0.28000347205E+01  0.13570398879E+02  0.18726408932E+02  0.00000000000E+00 0. -1.
         11    1    3    3    0    0  0.13661341049E+02  0.12800499537E+02 -0.71562365082E+01  0.20042373834E+02  0.51100000000E-03 0. -1.
        -11    1    3    3    0    0  0.82215322877E-01  0.33372207231E+01 -0.17744611460E+02  0.18055886509E+02  0.51100000000E-03 0.  1.
         12    1    3    3    0    0 -0.26340479462E+02 -0.18937754981E+02  0.11330449089E+02  0.34363330725E+02  0.00000000000E+00 0. -1.
</event>
<event>
 7    1  0.2944263E-013  0.7246157E+02  0.7816164E-02  0.1226708E+00
        -11   -1    0    0    0    0  0.00000000000E+00  0.00000000000E+00  0.45593999997E+02  0.45594000000E+02  0.51100000000E-03 0.  1.
         11   -1    0    0    0    0 -0.00000000000E+00 -0.00000000000E+00 -0.45593999997E+02  0.45594000000E+02  0.51100000000E-03 0. -1.
    9900012    2    1    2    0    0  0.25107343228E+01 -0.28434654982E+01  0.18338212435E+02  0.72461571665E+02  0.70000001785E+02 0.  0.
         12    1    1    2    0    0 -0.25107343228E+01  0.28434654982E+01 -0.18338212435E+02  0.18726428335E+02  0.00000000000E+00 0. -1.
         11    1    3    3    0    0  0.98820562236E+01 -0.39634008857E+01 -0.39175020987E+01  0.11345060808E+02  0.51100000000E-03 0. -1.
        -11    1    3    3    0    0  0.12013336416E+02  0.23988694962E+02  0.85961062590E+01  0.28172163227E+02  0.51100000000E-03 0.  1.
        -12    1    3    3    0    0 -0.19384658317E+02 -0.22868759574E+02  0.13659608275E+02  0.32944347630E+02  0.00000000000E+00 0.  1.
</event>
<event>
 7    1  0.2944263E-013  0.7246161E+02  0.7816164E-02  0.1226708E+00
        -11   -1    0    0    0    0  0.00000000000E+00  0.00000000000E+00  0.45593999997E+02  0.45594000000E+02  0.51100000000E-03 0. -1.
         11   -1    0    0    0    0 -0.00000000000E+00 -0.00000000000E+00 -0.45593999997E+02  0.45594000000E+02  0.51100000000E-03 0.  1.
    9900012    2    1    2    0    0  0.15831091763E+02 -0.39400618842E+01 -0.91940166918E+01  0.72461614951E+02  0.70000058174E+02 0.  0.
         12    1    1    2    0    0 -0.15831091763E+02  0.39400618842E+01  0.91940166918E+01  0.18726385049E+02  0.00000000000E+00 0. -1.
         11    1    3    3    0    0  0.13153350857E+02 -0.25869252886E+02 -0.17183634557E+02  0.33726935534E+02  0.51100000000E-03 0. -1.
        -11    1    3    3    0    0  0.11836730686E+02 -0.16454532861E+01 -0.75473294374E+00  0.11974361441E+02  0.51100000000E-03 0.  1.
        -12    1    3    3    0    0 -0.91589897800E+01  0.23574644288E+02  0.87443508089E+01  0.26760317976E+02  0.00000000000E+00 0.  1.
</event>
<event>
 7    1  0.2944263E-013  0.7246158E+02  0.7816164E-02  0.1226708E+00
        -11   -1    0    0    0    0  0.00000000000E+00  0.00000000000E+00  0.45593999997E+02  0.45594000000E+02  0.51100000000E-03 0.  1.
         11   -1    0    0    0    0 -0.00000000000E+00 -0.00000000000E+00 -0.45593999997E+02  0.45594000000E+02  0.51100000000E-03 0. -1.
    9900012    2    1    2    0    0  0.14128212450E+02 -0.12291148138E+02 -0.14624520265E-01  0.72461576864E+02  0.70000008558E+02 0.  0.
         12    1    1    2    0    0 -0.14128212450E+02  0.12291148138E+02  0.14624520265E-01  0.18726423136E+02  0.00000000000E+00 0. -1.
         11    1    3    3    0    0  0.28934463752E+02 -0.31021167783E+01 -0.25849820809E+01  0.29214866998E+02  0.51100000000E-03 0.  1.
        -11    1    3    3    0    0 -0.14203878119E+02  0.22598389349E+01  0.18616864582E+02  0.23525404837E+02  0.51100000000E-03 0. -1.
         12    1    3    3    0    0 -0.60237318252E+00 -0.11448870294E+02 -0.16046507021E+02  0.19721305029E+02  0.00000000000E+00 0. -1.
</event>
<event>
 7    1  0.2944263E-013  0.7246159E+02  0.7816164E-02  0.1226708E+00
        -11   -1    0    0    0    0  0.00000000000E+00  0.00000000000E+00  0.45593999997E+02  0.45594000000E+02  0.51100000000E-03 0.  1.
         11   -1    0    0    0    0 -0.00000000000E+00 -0.00000000000E+00 -0.45593999997E+02  0.45594000000E+02  0.51100000000E-03 0. -1.
    9900012    2    1    2    0    0 -0.40463755704E+01  0.58082111586E+00  0.18274793174E+02  0.72461586196E+02  0.70000020714E+02 0.  0.
         12    1    1    2    0    0  0.40463755704E+01 -0.58082111586E+00 -0.18274793174E+02  0.18726413804E+02  0.00000000000E+00 0. -1.
         11    1    3    3    0    0 -0.82898075018E+01  0.19369067814E+02 -0.10874253250E+02  0.23709303668E+02  0.51100000000E-03 0. -1.
        -11    1    3    3    0    0  0.14554944248E+02  0.15063109758E+01  0.47531984256E+01  0.15385326463E+02  0.51100000000E-03 0.  1.
        -12    1    3    3    0    0 -0.10311512317E+02 -0.20294557674E+02  0.24395847998E+02  0.33366956065E+02  0.00000000000E+00 0.  1.
</event>
<event>
 7    1  0.2944263E-013  0.7246155E+02  0.7816164E-02  0.1226708E+00
        -11   -1    0    0    0    0  0.00000000000E+00  0.00000000000E+00  0.45593999997E+02  0.45594000000E+02  0.51100000000E-03 0. -1.
         11   -1    0    0    0    0 -0.00000000000E+00 -0.00000000000E+00 -0.45593999997E+02  0.45594000000E+02  0.51100000000E-03 0.  1.
    9900012    2    1    2    0    0  0.86707536382E+01 -0.27266045896E+01 -0.16372647942E+02  0.72461549672E+02  0.69999973136E+02 0.  0.
         12    1    1    2    0    0 -0.86707536382E+01  0.27266045896E+01  0.16372647942E+02  0.18726450328E+02  0.00000000000E+00 0. -1.
         11    1    3    3    0    0  0.36940668072E+01  0.10048316291E+02 -0.35155891265E+01  0.11268281015E+02  0.51100000000E-03 0. -1.
        -11    1    3    3    0    0  0.30029319563E+02  0.27305646330E+01 -0.39329049392E+01  0.30408613223E+02  0.51100000000E-03 0.  1.
         12    1    3    3    0    0 -0.25052632732E+02 -0.15505485514E+02 -0.89241538765E+01  0.30784655434E+02  0.00000000000E+00 0. -1.
</event>
<event>
 7    1  0.2944263E-013  0.7246161E+02  0.7816164E-02  0.1226708E+00
        -11   -1    0    0    0    0  0.00000000000E+00  0.00000000000E+00  0.45593999997E+02  0.45594000000E+02  0.51100000000E-03 0.  1.
         11   -1    0    0    0    0 -0.00000000000E+00 -0.00000000000E+00 -0.45593999997E+02  0.45594000000E+02  0.51100000000E-03 0. -1.
    9900012    2    1    2    0    0 -0.10049634722E+02 -0.49580744621E+01  0.15003332593E+02  0.72461610884E+02  0.70000052876E+02 0.  0.
         12    1    1    2    0    0  0.10049634722E+02  0.49580744621E+01 -0.15003332593E+02  0.18726389116E+02  0.00000000000E+00 0. -1.
         11    1    3    3    0    0  0.18016427090E+01  0.10119768860E+02  0.47311635530E+01  0.11315456113E+02  0.51100000000E-03 0. -1.
        -11    1    3    3    0    0 -0.56244726932E+01 -0.32116487825E+02  0.22190863427E+02  0.39440308102E+02  0.51100000000E-03 0.  1.
         12    1    3    3    0    0 -0.62268047377E+01  0.17038644503E+02 -0.11918694387E+02  0.21705846669E+02  0.00000000000E+00 0. -1.
</event>
<event>
 7    1  0.2944263E-013  0.7246162E+02  0.7816164E-02  0.1226708E+00
        -11   -1    0    0    0    0  0.00000000000E+00  0.00000000000E+00  0.45593999997E+02  0.45594000000E+02  0.51100000000E-03 0. -1.
         11   -1    0    0    0    0 -0.00000000000E+00 -0.00000000000E+00 -0.45593999997E+02  0.45594000000E+02  0.51100000000E-03 0.  1.
    9900012    2    1    2    0    0 -0.12692579637E+02 -0.12067117440E+02  0.66302736651E+01  0.72461616739E+02  0.70000060503E+02 0.  0.
         12    1    1    2    0    0  0.12692579637E+02  0.12067117440E+02 -0.66302736651E+01  0.18726383261E+02  0.00000000000E+00 0. -1.
         11    1    3    3    0    0  0.45807912432E+01 -0.54530472417E+01  0.35098877806E+02  0.35814111690E+02  0.51100000000E-03 0. -1.
        -11    1    3    3    0    0 -0.61013978431E+01 -0.22688390817E+01 -0.88204602403E+00  0.65690708527E+01  0.51100000000E-03 0.  1.
        -12    1    3    3    0    0 -0.11171973037E+02 -0.43452311169E+01 -0.27586558117E+02  0.30078434197E+02  0.00000000000E+00 0.  1.
</event>
<event>
 7    1  0.2944263E-013  0.7246158E+02  0.7816164E-02  0.1226708E+00
        -11   -1    0    0    0    0  0.00000000000E+00  0.00000000000E+00  0.45593999997E+02  0.45594000000E+02  0.51100000000E-03 0.  1.
         11   -1    0    0    0    0 -0.00000000000E+00 -0.00000000000E+00 -0.45593999997E+02  0.45594000000E+02  0.51100000000E-03 0. -1.
    9900012    2    1    2    0    0  0.13011389307E+00  0.18449579624E+02 -0.32054619298E+01  0.72461577381E+02  0.70000009232E+02 0.  0.
         12    1    1    2    0    0 -0.13011389307E+00 -0.18449579624E+02  0.32054619298E+01  0.18726422619E+02  0.00000000000E+00 0. -1.
         11    1    3    3    0    0 -0.14520890961E+02  0.62073645598E+01 -0.20851502384E+02  0.26156697059E+02  0.51100000000E-03 0. -1.
        -11    1    3    3    0    0  0.26821729368E+01  0.24755092895E+02  0.65776615635E+01  0.25754112445E+02  0.51100000000E-03 0.  1.
        -12    1    3    3    0    0  0.11968831917E+02 -0.12512877832E+02  0.11068378891E+02  0.20550767878E+02  0.00000000000E+00 0.  1.
</event>
<event>
 7    1  0.2944263E-013  0.7246158E+02  0.7816164E-02  0.1226708E+00
        -11   -1    0    0    0    0  0.00000000000E+00  0.00000000000E+00  0.45593999997E+02  0.45594000000E+02  0.51100000000E-03 0.  1.
         11   -1    0    0    0    0 -0.00000000000E+00 -0.00000000000E+00 -0.45593999997E+02  0.45594000000E+02  0.51100000000E-03 0. -1.
    9900012    2    1    2    0    0  0.79828328100E+01 -0.85576938264E+01 -0.14619127053E+02  0.72461584991E+02  0.70000019145E+02 0.  0.
         12    1    1    2    0    0 -0.79828328100E+01  0.85576938264E+01  0.14619127053E+02  0.18726415009E+02  0.00000000000E+00 0. -1.
         11    1    3    3    0    0  0.21735164025E+01 -0.34447751089E+01 -0.20523356440E+01  0.45610010918E+01  0.51100000000E-03 0. -1.
        -11    1    3    3    0    0  0.26952028868E+01  0.13209628773E+02  0.23633316515E+02  0.27208308670E+02  0.51100000000E-03 0.  1.
         12    1    3    3    0    0  0.31141135208E+01 -0.18322547491E+02 -0.36200107924E+02  0.40692275229E+02  0.00000000000E+00 0. -1.
</event>
<event>
 7    1  0.2944263E-013  0.7246153E+02  0.7816164E-02  0.1226708E+00
        -11   -1    0    0    0    0  0.00000000000E+00  0.00000000000E+00  0.45593999997E+02  0.45594000000E+02  0.51100000000E-03 0. -1.
         11   -1    0    0    0    0 -0.00000000000E+00 -0.00000000000E+00 -0.45593999997E+02  0.45594000000E+02  0.51100000000E-03 0.  1.
    9900012    2    1    2    0    0  0.28614109080E+01 -0.61666909786E+01  0.17448923459E+02  0.72461529968E+02  0.69999947467E+02 0.  0.
         12    1    1    2    0    0 -0.28614109080E+01  0.61666909786E+01 -0.17448923459E+02  0.18726470032E+02  0.00000000000E+00 0. -1.
         11    1    3    3    0    0 -0.56107711260E+00  0.31748463287E+01  0.29185844685E+01  0.43488610346E+01  0.51100000000E-03 0. -1.
        -11    1    3    3    0    0  0.17238612995E+02  0.10514930451E+02 -0.18355302735E+02  0.27288288315E+02  0.51100000000E-03 0.  1.
         12    1    3    3    0    0 -0.13816124974E+02 -0.19856467759E+02  0.32885641726E+02  0.40824380618E+02  0.00000000000E+00 0. -1.
</event>
<event>
 7    1  0.2944263E-013  0.7246233E+02  0.7816164E-02  0.1226706E+00
        -11   -1    0    0    0    0  0.00000000000E+00  0.00000000000E+00  0.45593999997E+02  0.45594000000E+02  0.51100000000E-03 0. -1.
         11   -1    0    0    0    0 -0.00000000000E+00 -0.00000000000E+00 -0.45593999997E+02  0.45594000000E+02  0.51100000000E-03 0.  1.
    9900012    2    1    2    0    0 -0.28841662092E+00  0.14109441228E+02 -0.12308178335E+02  0.72462328588E+02  0.70000987811E+02 0.  0.
         12    1    1    2    0    0  0.28841662092E+00 -0.14109441228E+02  0.12308178335E+02  0.18725671412E+02  0.00000000000E+00 0. -1.
         11    1    3    3    0    0  0.11211941704E+02  0.98627003619E+00 -0.14306598910E+02  0.18203272728E+02  0.51100000000E-03 0. -1.
        -11    1    3    3    0    0  0.17861442986E+02 -0.36833337166E+01 -0.65266098881E+01  0.19369943978E+02  0.51100000000E-03 0.  1.
        -12    1    3    3    0    0 -0.29361801311E+02  0.16806504908E+02  0.85250304631E+01  0.34889111882E+02  0.00000000000E+00 0.  1.
</event>
<event>
 7    1  0.2944263E-013  0.7246155E+02  0.7816164E-02  0.1226708E+00
        -11   -1    0    0    0    0  0.00000000000E+00  0.00000000000E+00  0.45593999997E+02  0.45594000000E+02  0.51100000000E-03 0.  1.
         11   -1    0    0    0    0 -0.00000000000E+00 -0.00000000000E+00 -0.45593999997E+02  0.45594000000E+02  0.51100000000E-03 0. -1.
    9900012    2    1    2    0    0  0.16374745832E+02 -0.29134874306E+01  0.86057599283E+01  0.72461553086E+02  0.69999977583E+02 0.  0.
         12    1    1    2    0    0 -0.16374745832E+02  0.29134874306E+01 -0.86057599283E+01  0.18726446914E+02  0.00000000000E+00 0. -1.
         11    1    3    3    0    0  0.12490974620E+02  0.76146121689E+01  0.71507264032E+01  0.16283109463E+02  0.51100000000E-03 0. -1.
        -11    1    3    3    0    0  0.30712640768E+01 -0.28546609169E+02  0.16124518843E+02  0.32929343544E+02  0.51100000000E-03 0.  1.
         12    1    3    3    0    0  0.81250713536E+00  0.18018509570E+02 -0.14669485318E+02  0.23249100078E+02  0.00000000000E+00 0. -1.
</event>
<event>
 7    1  0.2944263E-013  0.7246156E+02  0.7816164E-02  0.1226708E+00
        -11   -1    0    0    0    0  0.00000000000E+00  0.00000000000E+00  0.45593999997E+02  0.45594000000E+02  0.51100000000E-03 0.  1.
         11   -1    0    0    0    0 -0.00000000000E+00 -0.00000000000E+00 -0.45593999997E+02  0.45594000000E+02  0.51100000000E-03 0. -1.
    9900012    2    1    2    0    0 -0.66753138181E+01 -0.66093499618E+01  0.16199884952E+02  0.72461558962E+02  0.69999985237E+02 0.  0.
         12    1    1    2    0    0  0.66753138181E+01  0.66093499618E+01 -0.16199884952E+02  0.18726441038E+02  0.00000000000E+00 0. -1.
         11    1    3    3    0    0  0.10366279002E+02 -0.11516374556E+02 -0.72472082733E+01  0.17105807530E+02  0.51100000000E-03 0. -1.
        -11    1    3    3    0    0 -0.17318256268E+02 -0.25576387956E+01 -0.10622533152E+02  0.20476858334E+02  0.51100000000E-03 0.  1.
        -12    1    3    3    0    0  0.27666344880E+00  0.74646633899E+01  0.34069626378E+02  0.34878893098E+02  0.00000000000E+00 0.  1.
</event>
<event>
 7    1  0.2944263E-013  0.7246153E+02  0.7816164E-02  0.1226708E+00
        -11   -1    0    0    0    0  0.00000000000E+00  0.00000000000E+00  0.45593999997E+02  0.45594000000E+02  0.51100000000E-03 0.  1.
         11   -1    0    0    0    0 -0.00000000000E+00 -0.00000000000E+00 -0.45593999997E+02  0.45594000000E+02  0.51100000000E-03 0. -1.
    9900012    2    1    2    0    0 -0.37501199714E+01 -0.18332037642E+02  0.74411112199E+00  0.72461529289E+02  0.69999946583E+02 0.  0.
         12    1    1    2    0    0  0.37501199714E+01  0.18332037642E+02 -0.74411112199E+00  0.18726470711E+02  0.00000000000E+00 0. -1.
         11    1    3    3    0    0 -0.14803178173E+02 -0.41563870239E+01  0.16086132829E+02  0.22252489900E+02  0.51100000000E-03 0. -1.
        -11    1    3    3    0    0 -0.97954389227E+01 -0.14237516841E+02  0.78867137617E+01  0.18996256571E+02  0.51100000000E-03 0.  1.
         12    1    3    3    0    0  0.20848497124E+02  0.61866222408E-01 -0.23228735469E+02  0.31212782818E+02  0.00000000000E+00 0. -1.
</event>
<event>
 7    1  0.2944263E-013  0.7246157E+02  0.7816164E-02  0.1226708E+00
        -11   -1    0    0    0    0  0.00000000000E+00  0.00000000000E+00  0.45593999997E+02  0.45594000000E+02  0.51100000000E-03 0. -1.
         11   -1    0    0    0    0 -0.00000000000E+00 -0.00000000000E+00 -0.45593999997E+02  0.45594000000E+02  0.51100000000E-03 0.  1.
    9900012    2    1    2    0    0  0.12047572430E+02 -0.93676989939E+01 -0.10852711053E+02  0.72461571534E+02  0.70000001615E+02 0.  0.
         12    1    1    2    0    0 -0.12047572430E+02  0.93676989939E+01  0.10852711053E+02  0.18726428466E+02  0.00000000000E+00 0. -1.
         11    1    3    3    0    0  0.53175792071E+01  0.58268739256E+00  0.39168522576E+01  0.66300757982E+01  0.51100000000E-03 0. -1.
        -11    1    3    3    0    0  0.11000629730E+02  0.25221108225E+02 -0.18274766015E+00  0.27516386964E+02  0.51100000000E-03 0.  1.
         12    1    3    3    0    0 -0.42706365067E+01 -0.35171494612E+02 -0.14586815650E+02  0.38315108772E+02  0.00000000000E+00 0. -1.
</event>
<event>
 7    1  0.2944263E-013  0.7246155E+02  0.7816164E-02  0.1226708E+00
        -11   -1    0    0    0    0  0.00000000000E+00  0.00000000000E+00  0.45593999997E+02  0.45594000000E+02  0.51100000000E-03 0.  1.
         11   -1    0    0    0    0 -0.00000000000E+00 -0.00000000000E+00 -0.45593999997E+02  0.45594000000E+02  0.51100000000E-03 0. -1.
    9900012    2    1    2    0    0  0.91682327177E+01 -0.15217774375E+02 -0.59197039472E+01  0.72461546974E+02  0.69999969621E+02 0.  0.
         12    1    1    2    0    0 -0.91682327177E+01  0.15217774375E+02  0.59197039472E+01  0.18726453026E+02  0.00000000000E+00 0. -1.
         11    1    3    3    0    0  0.45332854832E+01 -0.64735509981E+01  0.10030736372E+01  0.79664105330E+01  0.51100000000E-03 0. -1.
        -11    1    3    3    0    0 -0.10310031919E+02  0.24512250616E+01  0.25200888879E+02  0.27338435636E+02  0.51100000000E-03 0.  1.
         12    1    3    3    0    0  0.14944979153E+02 -0.11195448439E+02 -0.32123666464E+02  0.37156700805E+02  0.00000000000E+00 0. -1.
</event>
<event>
 7    1  0.2944263E-013  0.7246158E+02  0.7816164E-02  0.1226708E+00
        -11   -1    0    0    0    0  0.00000000000E+00  0.00000000000E+00  0.45593999997E+02  0.45594000000E+02  0.51100000000E-03 0.  1.
         11   -1    0    0    0    0 -0.00000000000E+00 -0.00000000000E+00 -0.45593999997E+02  0.45594000000E+02  0.51100000000E-03 0. -1.
    9900012    2    1    2    0    0  0.32193354023E+01  0.17901719233E+02 -0.44545454149E+01  0.72461584252E+02  0.70000018182E+02 0.  0.
         12    1    1    2    0    0 -0.32193354023E+01 -0.17901719233E+02  0.44545454149E+01  0.18726415748E+02  0.00000000000E+00 0. -1.
         11    1    3    3    0    0 -0.92152788537E+01 -0.15463787990E+02 -0.20248227151E+02  0.27093187453E+02  0.51100000000E-03 0. -1.
        -11    1    3    3    0    0  0.29848805760E+01 -0.25293181532E+01 -0.17826421401E+01  0.42993924727E+01  0.51100000000E-03 0.  1.
        -12    1    3    3    0    0  0.94497336799E+01  0.35894825376E+02  0.17576323876E+02  0.41069004326E+02  0.00000000000E+00 0.  1.
</event>
<event>
 7    1  0.2944263E-013  0.7246159E+02  0.7816164E-02  0.1226708E+00
        -11   -1    0    0    0    0  0.00000000000E+00  0.00000000000E+00  0.45593999997E+02  0.45594000000E+02  0.51100000000E-03 0. -1.
         11   -1    0    0    0    0 -0.00000000000E+00 -0.00000000000E+00 -0.45593999997E+02  0.45594000000E+02  0.51100000000E-03 0.  1.
    9900012    2    1    2    0    0 -0.14908787503E+02  0.31908888141E+01  0.10873127529E+02  0.72461585007E+02  0.70000019166E+02 0.  0.
         12    1    1    2    0    0  0.14908787503E+02 -0.31908888141E+01 -0.10873127529E+02  0.18726414993E+02  0.00000000000E+00 0. -1.
         11    1    3    3    0    0 -0.24392892162E+01  0.11480704324E+02 -0.10912019231E+02  0.16025881180E+02  0.51100000000E-03 0. -1.
        -11    1    3    3    0    0 -0.23818483654E+02  0.12227075103E+02  0.41409084295E+01  0.27091855825E+02  0.51100000000E-03 0.  1.
         12    1    3    3    0    0  0.11348985367E+02 -0.20516890613E+02  0.17644238330E+02  0.29343848001E+02  0.00000000000E+00 0. -1.
</event>
<event>
 7    1  0.2944263E-013  0.7246161E+02  0.7816164E-02  0.1226708E+00
        -11   -1    0    0    0    0  0.00000000000E+00  0.00000000000E+00  0.45593999997E+02  0.45594000000E+02  0.51100000000E-03 0.  1.
         11   -1    0    0    0    0 -0.00000000000E+00 -0.00000000000E+00 -0.45593999997E+02  0.45594000000E+02  0.51100000000E-03 0. -1.
    9900012    2    1    2    0    0  0.13990090038E+02  0.12064185208E+02 -0.30676581476E+01  0.72461609250E+02  0.70000050747E+02 0.  0.
         12    1    1    2    0    0 -0.13990090038E+02 -0.12064185208E+02  0.30676581476E+01  0.18726390750E+02  0.00000000000E+00 0. -1.
         11    1    3    3    0    0  0.13180422434E+02  0.32269437385E+02  0.36612308133E+01  0.35049175967E+02  0.51100000000E-03 0. -1.
        -11    1    3    3    0    0  0.58482688604E+01  0.32388835609E+01  0.70829646686E+01  0.97396613978E+01  0.51100000000E-03 0.  1.
         12    1    3    3    0    0 -0.50386012562E+01 -0.23444135737E+02 -0.13811853630E+02  0.27672771885E+02  0.00000000000E+00 0. -1.
</event>
<event>
 7    1  0.2944263E-013  0.7246166E+02  0.7816164E-02  0.1226708E+00
        -11   -1    0    0    0    0  0.00000000000E+00  0.00000000000E+00  0.45593999997E+02  0.45594000000E+02  0.51100000000E-03 0.  1.
         11   -1    0    0    0    0 -0.00000000000E+00 -0.00000000000E+00 -0.45593999997E+02  0.45594000000E+02  0.51100000000E-03 0. -1.
    9900012    2    1    2    0    0 -0.68540659077E+01 -0.14860825778E+02  0.91023781104E+01  0.72461664279E+02  0.70000122432E+02 0.  0.
         12    1    1    2    0    0  0.68540659077E+01  0.14860825778E+02 -0.91023781104E+01  0.18726335721E+02  0.00000000000E+00 0. -1.
         11    1    3    3    0    0  0.17391762536E+02 -0.12086773367E+02  0.21028349791E+02  0.29845518755E+02  0.51100000000E-03 0. -1.
        -11    1    3    3    0    0 -0.11009631118E+02  0.52920173607E+01  0.99847940753E+01  0.15776993950E+02  0.51100000000E-03 0.  1.
         12    1    3    3    0    0 -0.13236197326E+02 -0.80660697717E+01 -0.21910765756E+02  0.26839151574E+02  0.00000000000E+00 0. -1.
</event>
<event>
 7    1  0.2944263E-013  0.7246159E+02  0.7816164E-02  0.1226708E+00
        -11   -1    0    0    0    0  0.00000000000E+00  0.00000000000E+00  0.45593999997E+02  0.45594000000E+02  0.51100000000E-03 0.  1.
         11   -1    0    0    0    0 -0.00000000000E+00 -0.00000000000E+00 -0.45593999997E+02  0.45594000000E+02  0.51100000000E-03 0. -1.
    9900012    2    1    2    0    0 -0.13552206977E+02 -0.16561899493E+01 -0.12816906699E+02  0.72461591470E+02  0.70000027585E+02 0.  0.
         12    1    1    2    0    0  0.13552206977E+02  0.16561899493E+01  0.12816906699E+02  0.18726408530E+02  0.00000000000E+00 0. -1.
         11    1    3    3    0    0 -0.50728327001E+01  0.17276273480E+01  0.67391685407E+01  0.86101521901E+01  0.51100000000E-03 0. -1.
        -11    1    3    3    0    0 -0.13572357940E+02  0.26648066403E+02 -0.13422175125E+02  0.32779309456E+02  0.51100000000E-03 0.  1.
         12    1    3    3    0    0  0.50929836632E+01 -0.30031883700E+02 -0.61339001150E+01  0.31072129824E+02  0.00000000000E+00 0. -1.
</event>
<event>
 7    1  0.2944263E-013  0.7246158E+02  0.7816164E-02  0.1226708E+00
        -11   -1    0    0    0    0  0.00000000000E+00  0.00000000000E+00  0.45593999997E+02  0.45594000000E+02  0.51100000000E-03 0.  1.
         11   -1    0    0    0    0 -0.00000000000E+00 -0.00000000000E+00 -0.45593999997E+02  0.45594000000E+02  0.51100000000E-03 0. -1.
    9900012    2    1    2    0    0  0.19342573424E+01 -0.50765617814E+01  0.17921105204E+02  0.72461579020E+02  0.70000011367E+02 0.  0.
         12    1    1    2    0    0 -0.19342573424E+01  0.50765617814E+01 -0.17921105204E+02  0.18726420980E+02  0.00000000000E+00 0. -1.
         11    1    3    3    0    0  0.46773663912E+01 -0.21568148932E+01  0.44386572565E+01  0.67993591862E+01  0.51100000000E-03 0. -1.
        -11    1    3    3    0    0  0.20261564415E+02  0.81728394304E+01 -0.15683941185E+02  0.26894466127E+02  0.51100000000E-03 0.  1.
        -12    1    3    3    0    0 -0.23004673464E+02 -0.11092586319E+02  0.29166389132E+02  0.38767753707E+02  0.00000000000E+00 0.  1.
</event>
<event>
 7    1  0.2944263E-013  0.7246157E+02  0.7816164E-02  0.1226708E+00
        -11   -1    0    0    0    0  0.00000000000E+00  0.00000000000E+00  0.45593999997E+02  0.45594000000E+02  0.51100000000E-03 0.  1.
         11   -1    0    0    0    0 -0.00000000000E+00 -0.00000000000E+00 -0.45593999997E+02  0.45594000000E+02  0.51100000000E-03 0. -1.
    9900012    2    1    2    0    0 -0.15342200291E+02  0.91627256392E+01  0.55982718494E+01  0.72461566847E+02  0.69999995510E+02 0.  0.
         12    1    1    2    0    0  0.15342200291E+02 -0.91627256392E+01 -0.55982718494E+01  0.18726433153E+02  0.00000000000E+00 0. -1.
         11    1    3    3    0    0  0.73935579856E+01  0.14308361748E+02 -0.10280044862E+02  0.19106889811E+02  0.51100000000E-03 0. -1.
        -11    1    3    3    0    0  0.92465580349E+01  0.11020184544E+02  0.86854265124E+01  0.16804164271E+02  0.51100000000E-03 0.  1.
        -12    1    3    3    0    0 -0.31982316312E+02 -0.16165820653E+02  0.71928901988E+01  0.36550512766E+02  0.00000000000E+00 0.  1.
</event>
<event>
 7    1  0.2944263E-013  0.7246159E+02  0.7816164E-02  0.1226708E+00
        -11   -1    0    0    0    0  0.00000000000E+00  0.00000000000E+00  0.45593999997E+02  0.45594000000E+02  0.51100000000E-03 0. -1.
         11   -1    0    0    0    0 -0.00000000000E+00 -0.00000000000E+00 -0.45593999997E+02  0.45594000000E+02  0.51100000000E-03 0.  1.
    9900012    2    1    2    0    0  0.12866550423E+02 -0.13599111610E+02 -0.44109641156E+00  0.72461587572E+02  0.70000022508E+02 0.  0.
         12    1    1    2    0    0 -0.12866550423E+02  0.13599111610E+02  0.44109641156E+00  0.18726412428E+02  0.00000000000E+00 0. -1.
         11    1    3    3    0    0  0.51661513244E+01  0.19739496541E+01  0.54711123031E+01  0.77793744503E+01  0.51100000000E-03 0. -1.
        -11    1    3    3    0    0  0.86103615639E+01 -0.38485656874E+02 -0.11501825720E+02  0.41080118140E+02  0.51100000000E-03 0.  1.
         12    1    3    3    0    0 -0.90996246507E+00  0.22912595610E+02  0.55896170059E+01  0.23602094982E+02  0.00000000000E+00 0. -1.
</event>
<event>
 7    1  0.2944263E-013  0.7246133E+02  0.7816164E-02  0.1226709E+00
        -11   -1    0    0    0    0  0.00000000000E+00  0.00000000000E+00  0.45593999997E+02  0.45594000000E+02  0.51100000000E-03 0. -1.
         11   -1    0    0    0    0 -0.00000000000E+00 -0.00000000000E+00 -0.45593999997E+02  0.45594000000E+02  0.51100000000E-03 0.  1.
    9900012    2    1    2    0    0 -0.16582154957E+02  0.86437263038E+01  0.10032344325E+01  0.72461325261E+02  0.69999680798E+02 0.  0.
         12    1    1    2    0    0  0.16582154957E+02 -0.86437263038E+01 -0.10032344325E+01  0.18726674739E+02  0.00000000000E+00 0. -1.
         11    1    3    3    0    0  0.46971275288E+01  0.11709461930E+02 -0.12740178729E+00  0.12617081168E+02  0.51100000000E-03 0. -1.
        -11    1    3    3    0    0  0.10260453826E+02 -0.17280240286E+01 -0.19521178290E+02  0.22121016746E+02  0.51100000000E-03 0.  1.
         12    1    3    3    0    0 -0.31539736312E+02 -0.13377115978E+01  0.20651814510E+02  0.37723227348E+02  0.00000000000E+00 0. -1.
</event>
<event>
 7    1  0.2944263E-013  0.7246155E+02  0.7816164E-02  0.1226708E+00
        -11   -1    0    0    0    0  0.00000000000E+00  0.00000000000E+00  0.45593999997E+02  0.45594000000E+02  0.51100000000E-03 0. -1.
         11   -1    0    0    0    0 -0.00000000000E+00 -0.00000000000E+00 -0.45593999997E+02  0.45594000000E+02  0.51100000000E-03 0.  1.
    9900012    2    1    2    0    0  0.76474373977E+01  0.67133472455E+01 -0.15720294794E+02  0.72461548163E+02  0.69999971170E+02 0.  0.
         12    1    1    2    0    0 -0.76474373977E+01 -0.67133472455E+01  0.15720294794E+02  0.18726451837E+02  0.00000000000E+00 0. -1.
         11    1    3    3    0    0 -0.54258812017E+01 -0.29456686886E+00 -0.64062433951E+01  0.84004113681E+01  0.51100000000E-03 0. -1.
        -11    1    3    3    0    0  0.34747383159E+02  0.11649596524E+02 -0.17266722745E+02  0.40512139541E+02  0.51100000000E-03 0.  1.
         12    1    3    3    0    0 -0.21674064560E+02 -0.46416824093E+01  0.79526713456E+01  0.23548997254E+02  0.00000000000E+00 0. -1.
</event>
<event>
 7    1  0.2944263E-013  0.7246160E+02  0.7816164E-02  0.1226708E+00
        -11   -1    0    0    0    0  0.00000000000E+00  0.00000000000E+00  0.45593999997E+02  0.45594000000E+02  0.51100000000E-03 0.  1.
         11   -1    0    0    0    0 -0.00000000000E+00 -0.00000000000E+00 -0.45593999997E+02  0.45594000000E+02  0.51100000000E-03 0. -1.
    9900012    2    1    2    0    0 -0.21998119831E+01 -0.88665336210E+01  0.16346971786E+02  0.72461599444E+02  0.70000037973E+02 0.  0.
         12    1    1    2    0    0  0.21998119831E+01  0.88665336210E+01 -0.16346971786E+02  0.18726400556E+02  0.00000000000E+00 0. -1.
         11    1    3    3    0    0 -0.85447746457E+01 -0.27384159831E+02 -0.15313841224E+02  0.32517981436E+02  0.51100000000E-03 0. -1.
        -11    1    3    3    0    0 -0.87514267297E+00  0.12773192412E+01 -0.13199771882E+01  0.20346398159E+01  0.51100000000E-03 0.  1.
        -12    1    3    3    0    0  0.72201053356E+01  0.17240306969E+02  0.32980790198E+02  0.37908978192E+02  0.00000000000E+00 0.  1.
</event>
<event>
 7    1  0.2944263E-013  0.7246154E+02  0.7816164E-02  0.1226708E+00
        -11   -1    0    0    0    0  0.00000000000E+00  0.00000000000E+00  0.45593999997E+02  0.45594000000E+02  0.51100000000E-03 0. -1.
         11   -1    0    0    0    0 -0.00000000000E+00 -0.00000000000E+00 -0.45593999997E+02  0.45594000000E+02  0.51100000000E-03 0.  1.
    9900012    2    1    2    0    0  0.41655658788E+01 -0.16806880818E+02 -0.71314159384E+01  0.72461540772E+02  0.69999961542E+02 0.  0.
         12    1    1    2    0    0 -0.41655658788E+01  0.16806880818E+02  0.71314159384E+01  0.18726459228E+02  0.00000000000E+00 0. -1.
         11    1    3    3    0    0 -0.11869120591E+02  0.27788751278E+01 -0.79867092246E+01  0.14573458583E+02  0.51100000000E-03 0. -1.
        -11    1    3    3    0    0  0.10859379658E+02  0.67145356666E+01 -0.20135711231E+02  0.23842356905E+02  0.51100000000E-03 0.  1.
         12    1    3    3    0    0  0.51753068125E+01 -0.26300291612E+02  0.20991004517E+02  0.34045725284E+02  0.00000000000E+00 0. -1.
</event>
<event>
 7    1  0.2944263E-013  0.7246157E+02  0.7816164E-02  0.1226708E+00
        -11   -1    0    0    0    0  0.00000000000E+00  0.00000000000E+00  0.45593999997E+02  0.45594000000E+02  0.51100000000E-03 0. -1.
         11   -1    0    0    0    0 -0.00000000000E+00 -0.00000000000E+00 -0.45593999997E+02  0.45594000000E+02  0.51100000000E-03 0.  1.
    9900012    2    1    2    0    0 -0.12895711575E+02  0.13532148484E+02  0.11228338407E+01  0.72461570136E+02  0.69999999794E+02 0.  0.
         12    1    1    2    0    0  0.12895711575E+02 -0.13532148484E+02 -0.11228338407E+01  0.18726429864E+02  0.00000000000E+00 0. -1.
         11    1    3    3    0    0  0.12060421438E+02  0.13896250668E+01 -0.19893506702E+01  0.12302127436E+02  0.51100000000E-03 0. -1.
        -11    1    3    3    0    0 -0.13183665905E+02  0.75956186065E+00  0.27660112760E+02  0.30650739291E+02  0.51100000000E-03 0.  1.
        -12    1    3    3    0    0 -0.11772467108E+02  0.11382961556E+02 -0.24547928249E+02  0.29508703409E+02  0.00000000000E+00 0.  1.
</event>
<event>
 7    1  0.2944263E-013  0.7246159E+02  0.7816164E-02  0.1226708E+00
        -11   -1    0    0    0    0  0.00000000000E+00  0.00000000000E+00  0.45593999997E+02  0.45594000000E+02  0.51100000000E-03 0.  1.
         11   -1    0    0    0    0 -0.00000000000E+00 -0.00000000000E+00 -0.45593999997E+02  0.45594000000E+02  0.51100000000E-03 0. -1.
    9900012    2    1    2    0    0 -0.94191578812E+01 -0.70567350895E+01  0.14565724166E+02  0.72461591754E+02  0.70000027956E+02 0.  0.
         12    1    1    2    0    0  0.94191578812E+01  0.70567350895E+01 -0.14565724166E+02  0.18726408246E+02  0.00000000000E+00 0. -1.
         11    1    3    3    0    0 -0.86095316187E+01 -0.27436052507E+02  0.77682902379E+01  0.29786026008E+02  0.51100000000E-03 0. -1.
        -11    1    3    3    0    0  0.37756641290E+01 -0.57169589569E+01  0.13680418984E+02  0.15300102064E+02  0.51100000000E-03 0.  1.
         12    1    3    3    0    0 -0.45852903915E+01  0.26096276374E+02 -0.68829850559E+01  0.27375463683E+02  0.00000000000E+00 0. -1.
</event>
<event>
 7    1  0.2944263E-013  0.7246161E+02  0.7816164E-02  0.1226708E+00
        -11   -1    0    0    0    0  0.00000000000E+00  0.00000000000E+00  0.45593999997E+02  0.45594000000E+02  0.51100000000E-03 0.  1.
         11   -1    0    0    0    0 -0.00000000000E+00 -0.00000000000E+00 -0.45593999997E+02  0.45594000000E+02  0.51100000000E-03 0. -1.
    9900012    2    1    2    0    0 -0.14118498071E+02  0.12301788034E+02 -0.10775812890E+00  0.72461612510E+02  0.70000054993E+02 0.  0.
         12    1    1    2    0    0  0.14118498071E+02 -0.12301788034E+02  0.10775812890E+00  0.18726387490E+02  0.00000000000E+00 0. -1.
         11    1    3    3    0    0 -0.67041269161E+01 -0.14853801714E+02 -0.60073016778E+01  0.17368604341E+02  0.51100000000E-03 0. -1.
        -11    1    3    3    0    0 -0.10586833118E+02  0.17278826781E+02  0.25706902647E+02  0.32733526152E+02  0.51100000000E-03 0.  1.
         12    1    3    3    0    0  0.31724619623E+01  0.98767629670E+01 -0.19807359098E+02  0.22359482016E+02  0.00000000000E+00 0. -1.
</event>
<event>
 7    1  0.2944263E-013  0.7246158E+02  0.7816164E-02  0.1226708E+00
        -11   -1    0    0    0    0  0.00000000000E+00  0.00000000000E+00  0.45593999997E+02  0.45594000000E+02  0.51100000000E-03 0.  1.
         11   -1    0    0    0    0 -0.00000000000E+00 -0.00000000000E+00 -0.45593999997E+02  0.45594000000E+02  0.51100000000E-03 0. -1.
    9900012    2    1    2    0    0  0.27988493056E+01 -0.10302184837E+02  0.15385392088E+02  0.72461578570E+02  0.70000010781E+02 0.  0.
         12    1    1    2    0    0 -0.27988493056E+01  0.10302184837E+02 -0.15385392088E+02  0.18726421430E+02  0.00000000000E+00 0. -1.
         11    1    3    3    0    0  0.41603768470E+01 -0.19856328458E+02 -0.54141050526E+01  0.20997501021E+02  0.51100000000E-03 0. -1.
        -11    1    3    3    0    0  0.41100088032E+01 -0.14640411137E+02  0.21868199288E+02  0.26635539247E+02  0.51100000000E-03 0.  1.
         12    1    3    3    0    0 -0.54715363445E+01  0.24194554759E+02 -0.10687021467E+01  0.24828538302E+02  0.00000000000E+00 0. -1.
</event>
<event>
 7    1  0.2944263E-013  0.7246162E+02  0.7816164E-02  0.1226708E+00
        -11   -1    0    0    0    0  0.00000000000E+00  0.00000000000E+00  0.45593999997E+02  0.45594000000E+02  0.51100000000E-03 0. -1.
         11   -1    0    0    0    0 -0.00000000000E+00 -0.00000000000E+00 -0.45593999997E+02  0.45594000000E+02  0.51100000000E-03 0.  1.
    9900012    2    1    2    0    0 -0.12545193913E+02  0.11694428318E+02 -0.75190192422E+01  0.72461623031E+02  0.70000068700E+02 0.  0.
         12    1    1    2    0    0  0.12545193913E+02 -0.11694428318E+02  0.75190192422E+01  0.18726376969E+02  0.00000000000E+00 0. -1.
         11    1    3    3    0    0 -0.26800481286E+02 -0.12059079231E+02  0.89299145214E+01  0.30715314790E+02  0.51100000000E-03 0. -1.
        -11    1    3    3    0    0 -0.73514919854E+01  0.39902000269E+01 -0.44558584860E+00  0.83764358575E+01  0.51100000000E-03 0.  1.
        -12    1    3    3    0    0  0.21606779357E+02  0.19763307522E+02 -0.16003347915E+02  0.33369872384E+02  0.00000000000E+00 0.  1.
</event>
<event>
 7    1  0.2944263E-013  0.7246117E+02  0.7816164E-02  0.1226709E+00
        -11   -1    0    0    0    0  0.00000000000E+00  0.00000000000E+00  0.45593999997E+02  0.45594000000E+02  0.51100000000E-03 0.  1.
         11   -1    0    0    0    0 -0.00000000000E+00 -0.00000000000E+00 -0.45593999997E+02  0.45594000000E+02  0.51100000000E-03 0. -1.
    9900012    2    1    2    0    0  0.13182531897E+02  0.11817613277E+02  0.61040251702E+01  0.72461167539E+02  0.69999475334E+02 0.  0.
         12    1    1    2    0    0 -0.13182531897E+02 -0.11817613277E+02 -0.61040251702E+01  0.18726832461E+02  0.00000000000E+00 0. -1.
         11    1    3    3    0    0 -0.59453651728E+01  0.73505963706E+01  0.32373559369E+00  0.94595686496E+01  0.51100000000E-03 0.  1.
        -11    1    3    3    0    0 -0.19143120846E+02 -0.10162358986E+02  0.39082729135E+00  0.21676839301E+02  0.51100000000E-03 0. -1.
        -12    1    3    3    0    0  0.38271017915E+02  0.14629375892E+02  0.53894622851E+01  0.41324759587E+02  0.00000000000E+00 0.  1.
</event>
<event>
 7    1  0.2944263E-013  0.7246128E+02  0.7816164E-02  0.1226709E+00
        -11   -1    0    0    0    0  0.00000000000E+00  0.00000000000E+00  0.45593999997E+02  0.45594000000E+02  0.51100000000E-03 0.  1.
         11   -1    0    0    0    0 -0.00000000000E+00 -0.00000000000E+00 -0.45593999997E+02  0.45594000000E+02  0.51100000000E-03 0. -1.
    9900012    2    1    2    0    0  0.75357541545E+01  0.89106469716E+01  0.14645913039E+02  0.72461281417E+02  0.69999623683E+02 0.  0.
         12    1    1    2    0    0 -0.75357541545E+01 -0.89106469716E+01 -0.14645913039E+02  0.18726718583E+02  0.00000000000E+00 0. -1.
         11    1    3    3    0    0 -0.74116644573E+01 -0.23665906436E+02 -0.65753847132E+01  0.25656258142E+02  0.51100000000E-03 0. -1.
        -11    1    3    3    0    0 -0.17162880072E+01  0.82608738766E+01 -0.26824909291E+01  0.88534422444E+01  0.51100000000E-03 0.  1.
        -12    1    3    3    0    0  0.16663706619E+02  0.24315679531E+02  0.23903788682E+02  0.37951581030E+02  0.00000000000E+00 0.  1.
</event>
<event>
 7    1  0.2944263E-013  0.7246149E+02  0.7816164E-02  0.1226708E+00
        -11   -1    0    0    0    0  0.00000000000E+00  0.00000000000E+00  0.45593999997E+02  0.45594000000E+02  0.51100000000E-03 0.  1.
         11   -1    0    0    0    0 -0.00000000000E+00 -0.00000000000E+00 -0.45593999997E+02  0.45594000000E+02  0.51100000000E-03 0. -1.
    9900012    2    1    2    0    0  0.43177310807E+01 -0.15404310847E+02  0.97337888818E+01  0.72461488302E+02  0.69999893190E+02 0.  0.
         12    1    1    2    0    0 -0.43177310807E+01  0.15404310847E+02 -0.97337888818E+01  0.18726511698E+02  0.00000000000E+00 0. -1.
         11    1    3    3    0    0  0.11833965495E+02  0.14222395638E+02 -0.56891803782E+01  0.19356808897E+02  0.51100000000E-03 0. -1.
        -11    1    3    3    0    0  0.14486864797E+02 -0.10331815142E+02 -0.36620590727E+01  0.18166626893E+02  0.51100000000E-03 0.  1.
        -12    1    3    3    0    0 -0.22003099212E+02 -0.19294891344E+02  0.19085028333E+02  0.34938052512E+02  0.00000000000E+00 0.  1.
</event>
<event>
 7    1  0.2944263E-013  0.7246156E+02  0.7816164E-02  0.1226708E+00
        -11   -1    0    0    0    0  0.00000000000E+00  0.00000000000E+00  0.45593999997E+02  0.45594000000E+02  0.51100000000E-03 0.  1.
         11   -1    0    0    0    0 -0.00000000000E+00 -0.00000000000E+00 -0.45593999997E+02  0.45594000000E+02  0.51100000000E-03 0. -1.
    9900012    2    1    2    0    0 -0.58842416160E+01  0.16342958878E+02 -0.69973490482E+01  0.72461561524E+02  0.69999988575E+02 0.  0.
         12    1    1    2    0    0  0.58842416160E+01 -0.16342958878E+02  0.69973490482E+01  0.18726438476E+02  0.00000000000E+00 0. -1.
         11    1    3    3    0    0 -0.58196269627E+01  0.99454174380E+01 -0.11679591822E+02  0.16407079307E+02  0.51100000000E-03 0. -1.
        -11    1    3    3    0    0 -0.26363586095E+02  0.27587604642E+01  0.11104080961E+02  0.28739346640E+02  0.51100000000E-03 0.  1.
         12    1    3    3    0    0  0.26298971441E+02  0.36387809761E+01 -0.64218381864E+01  0.27315135576E+02  0.00000000000E+00 0. -1.
</event>
<event>
 7    1  0.2944263E-013  0.7246177E+02  0.7816164E-02  0.1226707E+00
        -11   -1    0    0    0    0  0.00000000000E+00  0.00000000000E+00  0.45593999997E+02  0.45594000000E+02  0.51100000000E-03 0.  1.
         11   -1    0    0    0    0 -0.00000000000E+00 -0.00000000000E+00 -0.45593999997E+02  0.45594000000E+02  0.51100000000E-03 0. -1.
    9900012    2    1    2    0    0  0.16790616890E+02  0.56490146901E+00  0.82721164136E+01  0.72461766018E+02  0.70000254965E+02 0.  0.
         12    1    1    2    0    0 -0.16790616890E+02 -0.56490146901E+00 -0.82721164136E+01  0.18726233982E+02  0.00000000000E+00 0. -1.
         11    1    3    3    0    0 -0.17424432800E+02 -0.89498176342E+01 -0.95532038798E+00  0.19611800819E+02  0.51100000000E-03 0. -1.
        -11    1    3    3    0    0  0.69853563340E+01 -0.10791959654E+02 -0.76089579527E+01  0.14938468384E+02  0.51100000000E-03 0.  1.
        -12    1    3    3    0    0  0.27229693355E+02  0.20306678757E+02  0.16836394754E+02  0.37911496814E+02  0.00000000000E+00 0.  1.
</event>
<event>
 7    1  0.2944263E-013  0.7246156E+02  0.7816164E-02  0.1226708E+00
        -11   -1    0    0    0    0  0.00000000000E+00  0.00000000000E+00  0.45593999997E+02  0.45594000000E+02  0.51100000000E-03 0.  1.
         11   -1    0    0    0    0 -0.00000000000E+00 -0.00000000000E+00 -0.45593999997E+02  0.45594000000E+02  0.51100000000E-03 0. -1.
    9900012    2    1    2    0    0  0.11267608396E+02  0.58655739946E+01  0.13759201300E+02  0.72461559396E+02  0.69999985803E+02 0.  0.
         12    1    1    2    0    0 -0.11267608396E+02 -0.58655739946E+01 -0.13759201300E+02  0.18726440604E+02  0.00000000000E+00 0. -1.
         11    1    3    3    0    0 -0.18452085418E+02 -0.10889991239E+02  0.37381382138E+01  0.21749598687E+02  0.51100000000E-03 0. -1.
        -11    1    3    3    0    0 -0.45584194319E+01 -0.23735173650E+01 -0.63597753998E+01  0.81767668303E+01  0.51100000000E-03 0.  1.
        -12    1    3    3    0    0  0.34278113247E+02  0.19129082599E+02  0.16380838486E+02  0.42535193879E+02  0.00000000000E+00 0.  1.
</event>
<event>
 7    1  0.2944263E-013  0.7246149E+02  0.7816164E-02  0.1226708E+00
        -11   -1    0    0    0    0  0.00000000000E+00  0.00000000000E+00  0.45593999997E+02  0.45594000000E+02  0.51100000000E-03 0. -1.
         11   -1    0    0    0    0 -0.00000000000E+00 -0.00000000000E+00 -0.45593999997E+02  0.45594000000E+02  0.51100000000E-03 0.  1.
    9900012    2    1    2    0    0 -0.64628997972E+01 -0.41252631192E+01 -0.17084944954E+02  0.72461489015E+02  0.69999894119E+02 0.  0.
         12    1    1    2    0    0  0.64628997972E+01  0.41252631192E+01  0.17084944954E+02  0.18726510985E+02  0.00000000000E+00 0. -1.
         11    1    3    3    0    0 -0.20881167978E+02  0.97423044492E+01 -0.23147472471E+02  0.32661003570E+02  0.51100000000E-03 0. -1.
        -11    1    3    3    0    0 -0.95765755996E+01  0.25958795759E+01  0.37565291499E+01  0.10609472301E+02  0.51100000000E-03 0.  1.
        -12    1    3    3    0    0  0.23994843781E+02 -0.16463447144E+02  0.23059983672E+01  0.29191013144E+02  0.00000000000E+00 0.  1.
</event>
<event>
 7    1  0.2944263E-013  0.7246158E+02  0.7816164E-02  0.1226708E+00
        -11   -1    0    0    0    0  0.00000000000E+00  0.00000000000E+00  0.45593999997E+02  0.45594000000E+02  0.51100000000E-03 0.  1.
         11   -1    0    0    0    0 -0.00000000000E+00 -0.00000000000E+00 -0.45593999997E+02  0.45594000000E+02  0.51100000000E-03 0. -1.
    9900012    2    1    2    0    0  0.73928896955E+01  0.91555657080E+01  0.14567076336E+02  0.72461577104E+02  0.70000008871E+02 0.  0.
         12    1    1    2    0    0 -0.73928896955E+01 -0.91555657080E+01 -0.14567076336E+02  0.18726422896E+02  0.00000000000E+00 0. -1.
         11    1    3    3    0    0  0.41863699611E+00  0.20445258647E+02 -0.17087237358E+02  0.26648781189E+02  0.51100000000E-03 0. -1.
        -11    1    3    3    0    0 -0.60932427830E+01  0.74888338865E+01  0.13552483541E+02  0.16639713068E+02  0.51100000000E-03 0.  1.
         12    1    3    3    0    0  0.13067495482E+02 -0.18778526825E+02  0.18101830153E+02  0.29173082847E+02  0.00000000000E+00 0. -1.
</event>
<event>
 7    1  0.2944263E-013  0.7246157E+02  0.7816164E-02  0.1226708E+00
        -11   -1    0    0    0    0  0.00000000000E+00  0.00000000000E+00  0.45593999997E+02  0.45594000000E+02  0.51100000000E-03 0. -1.
         11   -1    0    0    0    0 -0.00000000000E+00 -0.00000000000E+00 -0.45593999997E+02  0.45594000000E+02  0.51100000000E-03 0.  1.
    9900012    2    1    2    0    0  0.88299599066E+01  0.33875548996E+01 -0.16162774387E+02  0.72461574926E+02  0.70000006034E+02 0.  0.
         12    1    1    2    0    0 -0.88299599066E+01 -0.33875548996E+01  0.16162774387E+02  0.18726425074E+02  0.00000000000E+00 0. -1.
         11    1    3    3    0    0 -0.12156312349E+02  0.17474878530E+02  0.27872796335E+01  0.21468959863E+02  0.51100000000E-03 0. -1.
        -11    1    3    3    0    0  0.12665554719E+02  0.13508501212E+02 -0.73267211436E+01  0.19914234214E+02  0.51100000000E-03 0.  1.
         12    1    3    3    0    0  0.83207175368E+01 -0.27595824843E+02 -0.11623332877E+02  0.31078380850E+02  0.00000000000E+00 0. -1.
</event>
<event>
 7    1  0.2944263E-013  0.7246152E+02  0.7816164E-02  0.1226708E+00
        -11   -1    0    0    0    0  0.00000000000E+00  0.00000000000E+00  0.45593999997E+02  0.45594000000E+02  0.51100000000E-03 0.  1.
         11   -1    0    0    0    0 -0.00000000000E+00 -0.00000000000E+00 -0.45593999997E+02  0.45594000000E+02  0.51100000000E-03 0. -1.
    9900012    2    1    2    0    0  0.15272577373E+02  0.10127715645E+02  0.38547077901E+01  0.72461520994E+02  0.69999935777E+02 0.  0.
         12    1    1    2    0    0 -0.15272577373E+02 -0.10127715645E+02 -0.38547077901E+01  0.18726479006E+02  0.00000000000E+00 0. -1.
         11    1    3    3    0    0 -0.16218805288E+01 -0.71707267672E+00  0.19590599491E+02  0.19670695930E+02  0.51100000000E-03 0. -1.
        -11    1    3    3    0    0  0.90454752835E+01 -0.10483507243E+02  0.11012114656E+02  0.17691557780E+02  0.51100000000E-03 0.  1.
        -12    1    3    3    0    0  0.78489826188E+01  0.21328295564E+02 -0.26748006357E+02  0.35099267285E+02  0.00000000000E+00 0.  1.
</event>
<event>
 7    1  0.2944263E-013  0.7246158E+02  0.7816164E-02  0.1226708E+00
        -11   -1    0    0    0    0  0.00000000000E+00  0.00000000000E+00  0.45593999997E+02  0.45594000000E+02  0.51100000000E-03 0. -1.
         11   -1    0    0    0    0 -0.00000000000E+00 -0.00000000000E+00 -0.45593999997E+02  0.45594000000E+02  0.51100000000E-03 0.  1.
    9900012    2    1    2    0    0  0.12541745341E+02 -0.32667179911E+01 -0.13517104140E+02  0.72461576770E+02  0.70000008436E+02 0.  0.
         12    1    1    2    0    0 -0.12541745341E+02  0.32667179911E+01  0.13517104140E+02  0.18726423230E+02  0.00000000000E+00 0. -1.
         11    1    3    3    0    0  0.92771553103E+00  0.19886460785E+02 -0.24710660619E+01  0.20060861059E+02  0.51100000000E-03 0. -1.
        -11    1    3    3    0    0 -0.15411942172E+02  0.12398811398E+00 -0.15514766905E+01  0.15490332945E+02  0.51100000000E-03 0.  1.
         12    1    3    3    0    0  0.27025971983E+02 -0.23277166890E+02 -0.94945613876E+01  0.36910382767E+02  0.00000000000E+00 0. -1.
</event>
<event>
 7    1  0.2944263E-013  0.7246159E+02  0.7816164E-02  0.1226708E+00
        -11   -1    0    0    0    0  0.00000000000E+00  0.00000000000E+00  0.45593999997E+02  0.45594000000E+02  0.51100000000E-03 0. -1.
         11   -1    0    0    0    0 -0.00000000000E+00 -0.00000000000E+00 -0.45593999997E+02  0.45594000000E+02  0.51100000000E-03 0.  1.
    9900012    2    1    2    0    0  0.13683355670E+02  0.95711365514E+01 -0.84756946210E+01  0.72461594136E+02  0.70000031058E+02 0.  0.
         12    1    1    2    0    0 -0.13683355670E+02 -0.95711365514E+01  0.84756946210E+01  0.18726405864E+02  0.00000000000E+00 0. -1.
         11    1    3    3    0    0 -0.90470269458E+01 -0.85992616176E+01  0.17863529888E+02  0.21792239381E+02  0.51100000000E-03 0. -1.
        -11    1    3    3    0    0  0.52321481591E-01 -0.65267413596E+01  0.19370414792E+01  0.68083199297E+01  0.51100000000E-03 0.  1.
        -12    1    3    3    0    0  0.22678061134E+02  0.24697139529E+02 -0.28276265988E+02  0.43861034825E+02  0.00000000000E+00 0.  1.
</event>
<event>
 7    1  0.2944263E-013  0.7246155E+02  0.7816164E-02  0.1226708E+00
        -11   -1    0    0    0    0  0.00000000000E+00  0.00000000000E+00  0.45593999997E+02  0.45594000000E+02  0.51100000000E-03 0.  1.
         11   -1    0    0    0    0 -0.00000000000E+00 -0.00000000000E+00 -0.45593999997E+02  0.45594000000E+02  0.51100000000E-03 0. -1.
    9900012    2    1    2    0    0  0.17028808838E+02  0.77298761766E+01 -0.97389329845E+00  0.72461553879E+02  0.69999978617E+02 0.  0.
         12    1    1    2    0    0 -0.17028808838E+02 -0.77298761766E+01  0.97389329845E+00  0.18726446121E+02  0.00000000000E+00 0. -1.
         11    1    3    3    0    0  0.74883149392E+01 -0.75789268860E+01  0.12257571964E+02  0.16240783974E+02  0.51100000000E-03 0. -1.
        -11    1    3    3    0    0  0.18495304267E+02  0.26148485766E+02  0.58097287385E+01  0.32551075805E+02  0.51100000000E-03 0.  1.
         12    1    3    3    0    0 -0.89548103680E+01 -0.10839682704E+02 -0.19041194001E+02  0.23669694101E+02  0.00000000000E+00 0. -1.
</event>
<event>
 7    1  0.2944263E-013  0.7246139E+02  0.7816164E-02  0.1226709E+00
        -11   -1    0    0    0    0  0.00000000000E+00  0.00000000000E+00  0.45593999997E+02  0.45594000000E+02  0.51100000000E-03 0.  1.
         11   -1    0    0    0    0 -0.00000000000E+00 -0.00000000000E+00 -0.45593999997E+02  0.45594000000E+02  0.51100000000E-03 0. -1.
    9900012    2    1    2    0    0  0.59047327947E+01  0.16882196720E+02  0.55508214550E+01  0.72461386470E+02  0.69999760534E+02 0.  0.
         12    1    1    2    0    0 -0.59047327947E+01 -0.16882196720E+02 -0.55508214550E+01  0.18726613530E+02  0.00000000000E+00 0. -1.
         11    1    3    3    0    0 -0.78575840751E+01  0.10617564899E+02 -0.27584523902E+02  0.30583987167E+02  0.51100000000E-03 0. -1.
        -11    1    3    3    0    0  0.14200639204E+02 -0.35124485358E+01  0.13353071846E+02  0.19806563975E+02  0.51100000000E-03 0.  1.
        -12    1    3    3    0    0 -0.43832233463E+00  0.97770803574E+01  0.19782273511E+02  0.22070835328E+02  0.00000000000E+00 0.  1.
</event>
<event>
 7    1  0.2944263E-013  0.7246156E+02  0.7816164E-02  0.1226708E+00
        -11   -1    0    0    0    0  0.00000000000E+00  0.00000000000E+00  0.45593999997E+02  0.45594000000E+02  0.51100000000E-03 0. -1.
         11   -1    0    0    0    0 -0.00000000000E+00 -0.00000000000E+00 -0.45593999997E+02  0.45594000000E+02  0.51100000000E-03 0.  1.
    9900012    2    1    2    0    0  0.13469284156E+02  0.25360306381E+01 -0.12760346679E+02  0.72461561084E+02  0.69999988002E+02 0.  0.
         12    1    1    2    0    0 -0.13469284156E+02 -0.25360306381E+01  0.12760346679E+02  0.18726438916E+02  0.00000000000E+00 0. -1.
         11    1    3    3    0    0  0.19721512496E+02 -0.22252324817E+02 -0.14572374249E+02  0.33112808796E+02  0.51100000000E-03 0. -1.
        -11    1    3    3    0    0 -0.10707884290E+01  0.44482974262E+01 -0.12919251819E+02  0.13705510048E+02  0.51100000000E-03 0.  1.
         12    1    3    3    0    0 -0.51814399102E+01  0.20340058029E+02  0.14731279389E+02  0.25643242240E+02  0.00000000000E+00 0. -1.
</event>
<event>
 7    1  0.2944263E-013  0.7246154E+02  0.7816164E-02  0.1226708E+00
        -11   -1    0    0    0    0  0.00000000000E+00  0.00000000000E+00  0.45593999997E+02  0.45594000000E+02  0.51100000000E-03 0.  1.
         11   -1    0    0    0    0 -0.00000000000E+00 -0.00000000000E+00 -0.45593999997E+02  0.45594000000E+02  0.51100000000E-03 0. -1.
    9900012    2    1    2    0    0 -0.15283480364E+02 -0.65597670213E+01  0.86060939291E+01  0.72461543631E+02  0.69999965267E+02 0.  0.
         12    1    1    2    0    0  0.15283480364E+02  0.65597670213E+01 -0.86060939291E+01  0.18726456369E+02  0.00000000000E+00 0. -1.
         11    1    3    3    0    0 -0.25963554738E+02 -0.11026588511E+02  0.62933286035E+01  0.28901519233E+02  0.51100000000E-03 0. -1.
        -11    1    3    3    0    0 -0.13892574328E+02 -0.28777236498E+01 -0.75631014414E+01  0.16077481723E+02  0.51100000000E-03 0.  1.
        -12    1    3    3    0    0  0.24572648702E+02  0.73445451396E+01  0.98758667670E+01  0.27482542676E+02  0.00000000000E+00 0.  1.
</event>
<event>
 7    1  0.2944263E-013  0.7246154E+02  0.7816164E-02  0.1226708E+00
        -11   -1    0    0    0    0  0.00000000000E+00  0.00000000000E+00  0.45593999997E+02  0.45594000000E+02  0.51100000000E-03 0.  1.
         11   -1    0    0    0    0 -0.00000000000E+00 -0.00000000000E+00 -0.45593999997E+02  0.45594000000E+02  0.51100000000E-03 0. -1.
    9900012    2    1    2    0    0 -0.72224082071E+01  0.85922346911E+01  0.14989679445E+02  0.72461543657E+02  0.69999965301E+02 0.  0.
         12    1    1    2    0    0  0.72224082071E+01 -0.85922346911E+01 -0.14989679445E+02  0.18726456343E+02  0.00000000000E+00 0. -1.
         11    1    3    3    0    0 -0.56564837253E+00 -0.12042720752E+02 -0.12109820081E+02  0.17087856034E+02  0.51100000000E-03 0. -1.
        -11    1    3    3    0    0  0.13228242310E+02  0.15381799501E+02 -0.12767382479E+01  0.20327720269E+02  0.51100000000E-03 0.  1.
        -12    1    3    3    0    0 -0.19885002145E+02  0.52531559421E+01  0.28376237774E+02  0.35045967355E+02  0.00000000000E+00 0.  1.
</event>
<event>
 7    1  0.2944263E-013  0.7246179E+02  0.7816164E-02  0.1226707E+00
        -11   -1    0    0    0    0  0.00000000000E+00  0.00000000000E+00  0.45593999997E+02  0.45594000000E+02  0.51100000000E-03 0.  1.
         11   -1    0    0    0    0 -0.00000000000E+00 -0.00000000000E+00 -0.45593999997E+02  0.45594000000E+02  0.51100000000E-03 0. -1.
    9900012    2    1    2    0    0 -0.57269622883E+01  0.11385920141E+02  0.13719822056E+02  0.72461793984E+02  0.70000291397E+02 0.  0.
         12    1    1    2    0    0  0.57269622883E+01 -0.11385920141E+02 -0.13719822056E+02  0.18726206016E+02  0.00000000000E+00 0. -1.
         11    1    3    3    0    0  0.77003030212E+01 -0.10519923116E+02 -0.84643590611E+01  0.15543771214E+02  0.51100000000E-03 0. -1.
        -11    1    3    3    0    0 -0.18030541584E+02 -0.19962907649E+01  0.26582449242E+02  0.32182483039E+02  0.51100000000E-03 0.  1.
         12    1    3    3    0    0  0.46032762746E+01  0.23902134022E+02 -0.43982681248E+01  0.24735539730E+02  0.00000000000E+00 0. -1.
</event>
<event>
 7    1  0.2944263E-013  0.7246158E+02  0.7816164E-02  0.1226708E+00
        -11   -1    0    0    0    0  0.00000000000E+00  0.00000000000E+00  0.45593999997E+02  0.45594000000E+02  0.51100000000E-03 0.  1.
         11   -1    0    0    0    0 -0.00000000000E+00 -0.00000000000E+00 -0.45593999997E+02  0.45594000000E+02  0.51100000000E-03 0. -1.
    9900012    2    1    2    0    0 -0.87217337946E+01 -0.85718481226E+01  0.14182154181E+02  0.72461582354E+02  0.70000015710E+02 0.  0.
         12    1    1    2    0    0  0.87217337946E+01  0.85718481226E+01 -0.14182154181E+02  0.18726417646E+02  0.00000000000E+00 0. -1.
         11    1    3    3    0    0 -0.15304746289E+02  0.29291821717E+01 -0.12402608828E+02  0.19915824692E+02  0.51100000000E-03 0. -1.
        -11    1    3    3    0    0 -0.15197896340E+02 -0.15061474630E+02  0.56592723940E+01  0.22132587636E+02  0.51100000000E-03 0.  1.
        -12    1    3    3    0    0  0.21780908835E+02  0.35604443352E+01  0.20925490615E+02  0.30413170026E+02  0.00000000000E+00 0.  1.
</event>
<event>
 7    1  0.2944263E-013  0.7246157E+02  0.7816164E-02  0.1226708E+00
        -11   -1    0    0    0    0  0.00000000000E+00  0.00000000000E+00  0.45593999997E+02  0.45594000000E+02  0.51100000000E-03 0. -1.
         11   -1    0    0    0    0 -0.00000000000E+00 -0.00000000000E+00 -0.45593999997E+02  0.45594000000E+02  0.51100000000E-03 0.  1.
    9900012    2    1    2    0    0 -0.81793738974E+01  0.16640210168E+02 -0.26230865316E+01  0.72461565883E+02  0.69999994253E+02 0.  0.
         12    1    1    2    0    0  0.81793738974E+01 -0.16640210168E+02  0.26230865316E+01  0.18726434117E+02  0.00000000000E+00 0. -1.
         11    1    3    3    0    0  0.92145306541E+01  0.16726236509E+02  0.15177888063E+02  0.24393500143E+02  0.51100000000E-03 0. -1.
        -11    1    3    3    0    0  0.72637351631E+01  0.63285875758E+01 -0.20297407355E+02  0.22467701592E+02  0.51100000000E-03 0.  1.
         12    1    3    3    0    0 -0.24657639715E+02 -0.64146139164E+01  0.24964327605E+01  0.25600364148E+02  0.00000000000E+00 0. -1.
</event>
<event>
 7    1  0.2944263E-013  0.7246157E+02  0.7816164E-02  0.1226708E+00
        -11   -1    0    0    0    0  0.00000000000E+00  0.00000000000E+00  0.45593999997E+02  0.45594000000E+02  0.51100000000E-03 0.  1.
         11   -1    0    0    0    0 -0.00000000000E+00 -0.00000000000E+00 -0.45593999997E+02  0.45594000000E+02  0.51100000000E-03 0. -1.
    9900012    2    1    2    0    0 -0.14385865011E+02 -0.96692732412E+00  0.11949531288E+02  0.72461565247E+02  0.69999993424E+02 0.  0.
         12    1    1    2    0    0  0.14385865011E+02  0.96692732412E+00 -0.11949531288E+02  0.18726434753E+02  0.00000000000E+00 0. -1.
         11    1    3    3    0    0  0.98329142890E+01 -0.65690465102E+01  0.12421002932E+02  0.17149923894E+02  0.51100000000E-03 0. -1.
        -11    1    3    3    0    0 -0.21998338984E+01  0.20651153378E+02  0.13924506674E+02  0.25004025504E+02  0.51100000000E-03 0.  1.
        -12    1    3    3    0    0 -0.22018945402E+02 -0.15049034192E+02 -0.14395978318E+02  0.30307615849E+02  0.00000000000E+00 0.  1.
</event>
<event>
 7    1  0.2944263E-013  0.7246149E+02  0.7816164E-02  0.1226708E+00
        -11   -1    0    0    0    0  0.00000000000E+00  0.00000000000E+00  0.45593999997E+02  0.45594000000E+02  0.51100000000E-03 0. -1.
         11   -1    0    0    0    0 -0.00000000000E+00 -0.00000000000E+00 -0.45593999997E+02  0.45594000000E+02  0.51100000000E-03 0.  1.
    9900012    2    1    2    0    0  0.15960682032E+02 -0.93588383503E+01 -0.28898321990E+01  0.72461485206E+02  0.69999889156E+02 0.  0.
         12    1    1    2    0    0 -0.15960682032E+02  0.93588383503E+01  0.28898321990E+01  0.18726514794E+02  0.00000000000E+00 0. -1.
         11    1    3    3    0    0 -0.20172848246E+02  0.19656324417E+01 -0.90513474130E+01  0.22197621664E+02  0.51100000000E-03 0. -1.
        -11    1    3    3    0    0 -0.22509744781E+01 -0.94091920313E+01  0.68015456097E+01  0.11826275987E+02  0.51100000000E-03 0.  1.
        -12    1    3    3    0    0  0.38384504757E+02 -0.19152787606E+01 -0.64003039572E+00  0.38437587555E+02  0.00000000000E+00 0.  1.
</event>
<event>
 7    1  0.2944263E-013  0.7246153E+02  0.7816164E-02  0.1226708E+00
        -11   -1    0    0    0    0  0.00000000000E+00  0.00000000000E+00  0.45593999997E+02  0.45594000000E+02  0.51100000000E-03 0.  1.
         11   -1    0    0    0    0 -0.00000000000E+00 -0.00000000000E+00 -0.45593999997E+02  0.45594000000E+02  0.51100000000E-03 0. -1.
    9900012    2    1    2    0    0  0.18237892191E+02  0.16342137149E+01 -0.39229372410E+01  0.72461526690E+02  0.69999943197E+02 0.  0.
         12    1    1    2    0    0 -0.18237892191E+02 -0.16342137149E+01  0.39229372410E+01  0.18726473310E+02  0.00000000000E+00 0. -1.
         11    1    3    3    0    0 -0.12027920729E+02  0.96662581620E+01 -0.23271913351E+02  0.27922918458E+02  0.51100000000E-03 0. -1.
        -11    1    3    3    0    0  0.88056305959E+00 -0.87972467938E+00  0.13719656558E+02  0.13776003889E+02  0.51100000000E-03 0.  1.
        -12    1    3    3    0    0  0.29385249860E+02 -0.71523197677E+01  0.56293195523E+01  0.30762604344E+02  0.00000000000E+00 0.  1.
</event>
<event>
 7    1  0.2944263E-013  0.7246163E+02  0.7816164E-02  0.1226708E+00
        -11   -1    0    0    0    0  0.00000000000E+00  0.00000000000E+00  0.45593999997E+02  0.45594000000E+02  0.51100000000E-03 0.  1.
         11   -1    0    0    0    0 -0.00000000000E+00 -0.00000000000E+00 -0.45593999997E+02  0.45594000000E+02  0.51100000000E-03 0. -1.
    9900012    2    1    2    0    0 -0.18343904955E+02 -0.34166080731E+01  0.15827094711E+01  0.72461627447E+02  0.70000074451E+02 0.  0.
         12    1    1    2    0    0  0.18343904955E+02  0.34166080731E+01 -0.15827094711E+01  0.18726372553E+02  0.00000000000E+00 0. -1.
         11    1    3    3    0    0 -0.74018839905E+01  0.24028477225E+02  0.11778154039E+02  0.27764735136E+02  0.51100000000E-03 0. -1.
        -11    1    3    3    0    0 -0.17149499946E+02 -0.19570146911E+01 -0.33109574431E+01  0.17575485608E+02  0.51100000000E-03 0.  1.
        -12    1    3    3    0    0  0.62074789811E+01 -0.25488070607E+02 -0.68844871252E+01  0.27121406703E+02  0.00000000000E+00 0.  1.
</event>
<event>
 7    1  0.2944263E-013  0.7246157E+02  0.7816164E-02  0.1226708E+00
        -11   -1    0    0    0    0  0.00000000000E+00  0.00000000000E+00  0.45593999997E+02  0.45594000000E+02  0.51100000000E-03 0.  1.
         11   -1    0    0    0    0 -0.00000000000E+00 -0.00000000000E+00 -0.45593999997E+02  0.45594000000E+02  0.51100000000E-03 0. -1.
    9900012    2    1    2    0    0  0.12677489770E+02 -0.32648923598E+01  0.13390331751E+02  0.72461568055E+02  0.69999997082E+02 0.  0.
         12    1    1    2    0    0 -0.12677489770E+02  0.32648923598E+01 -0.13390331751E+02  0.18726431945E+02  0.00000000000E+00 0. -1.
         11    1    3    3    0    0  0.19546621538E+02 -0.91582514933E+01 -0.20495860763E+02  0.29766160193E+02  0.51100000000E-03 0. -1.
        -11    1    3    3    0    0  0.50403740887E+01 -0.47406591889E+01  0.22801018963E+01  0.72854708440E+01  0.51100000000E-03 0.  1.
        -12    1    3    3    0    0 -0.11909505857E+02  0.10634018322E+02  0.31606090618E+02  0.35409937018E+02  0.00000000000E+00 0.  1.
</event>
<event>
 7    1  0.2944263E-013  0.7246159E+02  0.7816164E-02  0.1226708E+00
        -11   -1    0    0    0    0  0.00000000000E+00  0.00000000000E+00  0.45593999997E+02  0.45594000000E+02  0.51100000000E-03 0.  1.
         11   -1    0    0    0    0 -0.00000000000E+00 -0.00000000000E+00 -0.45593999997E+02  0.45594000000E+02  0.51100000000E-03 0. -1.
    9900012    2    1    2    0    0  0.14758602692E+01  0.24581473558E+01  0.18505616161E+02  0.72461588666E+02  0.70000023933E+02 0.  0.
         12    1    1    2    0    0 -0.14758602692E+01 -0.24581473558E+01 -0.18505616161E+02  0.18726411334E+02  0.00000000000E+00 0. -1.
         11    1    3    3    0    0  0.17832454026E+02  0.11289987722E+02 -0.51894947944E+01  0.21734559941E+02  0.51100000000E-03 0. -1.
        -11    1    3    3    0    0  0.32433700321E+01  0.14225519651E+02  0.77332347898E+01  0.16513260704E+02  0.51100000000E-03 0.  1.
        -12    1    3    3    0    0 -0.19599963789E+02 -0.23057360016E+02  0.15961876165E+02  0.34213768021E+02  0.00000000000E+00 0.  1.
</event>
<event>
 7    1  0.2944263E-013  0.7246155E+02  0.7816164E-02  0.1226708E+00
        -11   -1    0    0    0    0  0.00000000000E+00  0.00000000000E+00  0.45593999997E+02  0.45594000000E+02  0.51100000000E-03 0. -1.
         11   -1    0    0    0    0 -0.00000000000E+00 -0.00000000000E+00 -0.45593999997E+02  0.45594000000E+02  0.51100000000E-03 0.  1.
    9900012    2    1    2    0    0  0.13439987284E+02 -0.24968385539E+01 -0.12798928462E+02  0.72461547300E+02  0.69999970045E+02 0.  0.
         12    1    1    2    0    0 -0.13439987284E+02  0.24968385539E+01  0.12798928462E+02  0.18726452700E+02  0.00000000000E+00 0. -1.
         11    1    3    3    0    0  0.77728815432E+01 -0.93193954776E+01  0.21292807968E+02  0.24508212725E+02  0.51100000000E-03 0. -1.
        -11    1    3    3    0    0 -0.68838768611E+01 -0.81331214984E+01 -0.27113264262E+01  0.10994849576E+02  0.51100000000E-03 0.  1.
         12    1    3    3    0    0  0.12550982602E+02  0.14955678422E+02 -0.31380410004E+02  0.36958484998E+02  0.00000000000E+00 0. -1.
</event>
<event>
 7    1  0.2944263E-013  0.7246154E+02  0.7816164E-02  0.1226708E+00
        -11   -1    0    0    0    0  0.00000000000E+00  0.00000000000E+00  0.45593999997E+02  0.45594000000E+02  0.51100000000E-03 0. -1.
         11   -1    0    0    0    0 -0.00000000000E+00 -0.00000000000E+00 -0.45593999997E+02  0.45594000000E+02  0.51100000000E-03 0.  1.
    9900012    2    1    2    0    0 -0.13256414210E+02  0.13215675030E+02 -0.54181500152E+00  0.72461544176E+02  0.69999965976E+02 0.  0.
         12    1    1    2    0    0  0.13256414210E+02 -0.13215675030E+02  0.54181500152E+00  0.18726455824E+02  0.00000000000E+00 0. -1.
         11    1    3    3    0    0 -0.67783930485E+01 -0.71083062794E+01  0.14428539773E+01  0.99275605433E+01  0.51100000000E-03 0. -1.
        -11    1    3    3    0    0  0.37482463569E+01 -0.20065010270E+02  0.27734774678E+01  0.20599664206E+02  0.51100000000E-03 0.  1.
         12    1    3    3    0    0 -0.10226267519E+02  0.40388991579E+02 -0.47581464466E+01  0.41934319427E+02  0.00000000000E+00 0. -1.
</event>
<event>
 7    1  0.2944263E-013  0.7246161E+02  0.7816164E-02  0.1226708E+00
        -11   -1    0    0    0    0  0.00000000000E+00  0.00000000000E+00  0.45593999997E+02  0.45594000000E+02  0.51100000000E-03 0.  1.
         11   -1    0    0    0    0 -0.00000000000E+00 -0.00000000000E+00 -0.45593999997E+02  0.45594000000E+02  0.51100000000E-03 0. -1.
    9900012    2    1    2    0    0 -0.51110028839E+01  0.17865407560E+02  0.23200319817E+01  0.72461609900E+02  0.70000051594E+02 0.  0.
         12    1    1    2    0    0  0.51110028839E+01 -0.17865407560E+02 -0.23200319817E+01  0.18726390100E+02  0.00000000000E+00 0. -1.
         11    1    3    3    0    0 -0.13247259891E+02 -0.22799644816E+01 -0.42799576414E+01  0.14106954680E+02  0.51100000000E-03 0. -1.
        -11    1    3    3    0    0  0.53065360586E+01  0.75068413907E+00  0.28479817937E+02  0.28979697748E+02  0.51100000000E-03 0.  1.
         12    1    3    3    0    0  0.28297209486E+01  0.19394687903E+02 -0.21879828313E+02  0.29374957473E+02  0.00000000000E+00 0. -1.
</event>
<event>
 7    1  0.2944263E-013  0.7246155E+02  0.7816164E-02  0.1226708E+00
        -11   -1    0    0    0    0  0.00000000000E+00  0.00000000000E+00  0.45593999997E+02  0.45594000000E+02  0.51100000000E-03 0.  1.
         11   -1    0    0    0    0 -0.00000000000E+00 -0.00000000000E+00 -0.45593999997E+02  0.45594000000E+02  0.51100000000E-03 0. -1.
    9900012    2    1    2    0    0  0.13438368123E+02  0.72524731146E+01  0.10839357489E+02  0.72461554132E+02  0.69999978945E+02 0.  0.
         12    1    1    2    0    0 -0.13438368123E+02 -0.72524731146E+01 -0.10839357489E+02  0.18726445868E+02  0.00000000000E+00 0. -1.
         11    1    3    3    0    0  0.28481251929E+01  0.93389062586E+01 -0.10851717814E+02  0.14597491805E+02  0.51100000000E-03 0. -1.
        -11    1    3    3    0    0 -0.19977310423E+02  0.34789592500E+01  0.55348502517E+00  0.20285522796E+02  0.51100000000E-03 0.  1.
        -12    1    3    3    0    0  0.30567553353E+02 -0.55653923940E+01  0.21137590278E+02  0.37578539530E+02  0.00000000000E+00 0.  1.
</event>
<event>
 7    1  0.2944263E-013  0.7246154E+02  0.7816164E-02  0.1226708E+00
        -11   -1    0    0    0    0  0.00000000000E+00  0.00000000000E+00  0.45593999997E+02  0.45594000000E+02  0.51100000000E-03 0.  1.
         11   -1    0    0    0    0 -0.00000000000E+00 -0.00000000000E+00 -0.45593999997E+02  0.45594000000E+02  0.51100000000E-03 0. -1.
    9900012    2    1    2    0    0  0.17467267969E+02 -0.57588912167E+01  0.35227615902E+01  0.72461544714E+02  0.69999966677E+02 0.  0.
         12    1    1    2    0    0 -0.17467267969E+02  0.57588912167E+01 -0.35227615902E+01  0.18726455286E+02  0.00000000000E+00 0. -1.
         11    1    3    3    0    0  0.13046431892E+02  0.12066204835E+02 -0.22482743387E+02  0.28657920976E+02  0.51100000000E-03 0. -1.
        -11    1    3    3    0    0  0.50220891538E+01 -0.16371723142E+02 -0.61594220841E+00  0.17135754526E+02  0.51100000000E-03 0.  1.
        -12    1    3    3    0    0 -0.60125307634E+00 -0.14533729093E+01  0.26621447185E+02  0.26667869212E+02  0.00000000000E+00 0.  1.
</event>
<event>
 7    1  0.2944263E-013  0.7246174E+02  0.7816164E-02  0.1226708E+00
        -11   -1    0    0    0    0  0.00000000000E+00  0.00000000000E+00  0.45593999997E+02  0.45594000000E+02  0.51100000000E-03 0. -1.
         11   -1    0    0    0    0 -0.00000000000E+00 -0.00000000000E+00 -0.45593999997E+02  0.45594000000E+02  0.51100000000E-03 0.  1.
    9900012    2    1    2    0    0 -0.15929328880E+02  0.26692701724E+00 -0.98416478317E+01  0.72461740345E+02  0.70000221523E+02 0.  0.
         12    1    1    2    0    0  0.15929328880E+02 -0.26692701724E+00  0.98416478317E+01  0.18726259655E+02  0.00000000000E+00 0. -1.
         11    1    3    3    0    0  0.88078272414E+01 -0.12870276699E+02 -0.19667199528E+02  0.25100210767E+02  0.51100000000E-03 0. -1.
        -11    1    3    3    0    0 -0.11464827180E+02  0.92278689333E+01 -0.13675378054E+02  0.20090091899E+02  0.51100000000E-03 0.  1.
        -12    1    3    3    0    0 -0.13272328942E+02  0.39093347830E+01  0.23500929750E+02  0.27271437679E+02  0.00000000000E+00 0.  1.
</event>
<event>
 7    1  0.2944263E-013  0.7246158E+02  0.7816164E-02  0.1226708E+00
        -11   -1    0    0    0    0  0.00000000000E+00  0.00000000000E+00  0.45593999997E+02  0.45594000000E+02  0.51100000000E-03 0.  1.
         11   -1    0    0    0    0 -0.00000000000E+00 -0.00000000000E+00 -0.45593999997E+02  0.45594000000E+02  0.51100000000E-03 0. -1.
    9900012    2    1    2    0    0 -0.16032028219E+02  0.67850955579E+01  0.69003947247E+01  0.72461577547E+02  0.70000009448E+02 0.  0.
         12    1    1    2    0    0  0.16032028219E+02 -0.67850955579E+01 -0.69003947247E+01  0.18726422453E+02  0.00000000000E+00 0. -1.
         11    1    3    3    0    0 -0.85460638506E+01  0.34722375332E+01 -0.11764533375E+02  0.14949778815E+02  0.51100000000E-03 0. -1.
        -11    1    3    3    0    0 -0.30875161410E+01 -0.18341257513E+02 -0.10158948257E+02  0.21192892984E+02  0.51100000000E-03 0.  1.
        -12    1    3    3    0    0 -0.43984482274E+01  0.21654115538E+02  0.28823876356E+02  0.36318905748E+02  0.00000000000E+00 0.  1.
</event>
<event>
 7    1  0.2944263E-013  0.7246159E+02  0.7816164E-02  0.1226708E+00
        -11   -1    0    0    0    0  0.00000000000E+00  0.00000000000E+00  0.45593999997E+02  0.45594000000E+02  0.51100000000E-03 0. -1.
         11   -1    0    0    0    0 -0.00000000000E+00 -0.00000000000E+00 -0.45593999997E+02  0.45594000000E+02  0.51100000000E-03 0.  1.
    9900012    2    1    2    0    0 -0.14435686087E+02 -0.28168255523E+00 -0.11925193171E+02  0.72461585233E+02  0.70000019460E+02 0.  0.
         12    1    1    2    0    0  0.14435686087E+02  0.28168255523E+00  0.11925193171E+02  0.18726414767E+02  0.00000000000E+00 0. -1.
         11    1    3    3    0    0 -0.31725605399E+02  0.12487048116E+02 -0.40971954604E+01  0.34339880889E+02  0.51100000000E-03 0.  1.
        -11    1    3    3    0    0  0.15798468268E+02 -0.87848993090E+01 -0.18965002865E+02  0.26199950179E+02  0.51100000000E-03 0. -1.
        -12    1    3    3    0    0  0.14914510440E+01 -0.39838313626E+01  0.11137005154E+02  0.11921754164E+02  0.00000000000E+00 0.  1.
</event>
<event>
 7    1  0.2944263E-013  0.7246153E+02  0.7816164E-02  0.1226708E+00
        -11   -1    0    0    0    0  0.00000000000E+00  0.00000000000E+00  0.45593999997E+02  0.45594000000E+02  0.51100000000E-03 0.  1.
         11   -1    0    0    0    0 -0.00000000000E+00 -0.00000000000E+00 -0.45593999997E+02  0.45594000000E+02  0.51100000000E-03 0. -1.
    9900012    2    1    2    0    0 -0.18710924066E+01  0.10627486193E+02  0.15304773151E+02  0.72461533949E+02  0.69999952653E+02 0.  0.
         12    1    1    2    0    0  0.18710924066E+01 -0.10627486193E+02 -0.15304773151E+02  0.18726466051E+02  0.00000000000E+00 0. -1.
         11    1    3    3    0    0 -0.33405034355E+01  0.35202052682E+01 -0.29190877799E+01  0.56632042221E+01  0.51100000000E-03 0. -1.
        -11    1    3    3    0    0  0.26235818695E+02 -0.15033412200E+02  0.34257780066E+01  0.30431194853E+02  0.51100000000E-03 0.  1.
         12    1    3    3    0    0 -0.24766407666E+02  0.22140693125E+02  0.14798082924E+02  0.36367134874E+02  0.00000000000E+00 0. -1.
</event>
<event>
 7    1  0.2944263E-013  0.7246157E+02  0.7816164E-02  0.1226708E+00
        -11   -1    0    0    0    0  0.00000000000E+00  0.00000000000E+00  0.45593999997E+02  0.45594000000E+02  0.51100000000E-03 0. -1.
         11   -1    0    0    0    0 -0.00000000000E+00 -0.00000000000E+00 -0.45593999997E+02  0.45594000000E+02  0.51100000000E-03 0.  1.
    9900012    2    1    2    0    0  0.13153766373E+02 -0.19931935285E+01  0.13178950962E+02  0.72461571117E+02  0.70000001072E+02 0.  0.
         12    1    1    2    0    0 -0.13153766373E+02  0.19931935285E+01 -0.13178950962E+02  0.18726428883E+02  0.00000000000E+00 0. -1.
         11    1    3    3    0    0  0.56487700067E+01  0.11564959586E+02 -0.89961640121E+01  0.15703116252E+02  0.51100000000E-03 0. -1.
        -11    1    3    3    0    0  0.11823470352E+02 -0.67800003236E-01 -0.13754248002E+02  0.18137761339E+02  0.51100000000E-03 0.  1.
        -12    1    3    3    0    0 -0.43184739853E+01 -0.13490353111E+02  0.35929362976E+02  0.38620693527E+02  0.00000000000E+00 0.  1.
</event>
<event>
 7    1  0.2944263E-013  0.7246152E+02  0.7816164E-02  0.1226708E+00
        -11   -1    0    0    0    0  0.00000000000E+00  0.00000000000E+00  0.45593999997E+02  0.45594000000E+02  0.51100000000E-03 0.  1.
         11   -1    0    0    0    0 -0.00000000000E+00 -0.00000000000E+00 -0.45593999997E+02  0.45594000000E+02  0.51100000000E-03 0. -1.
    9900012    2    1    2    0    0  0.38401685888E+01  0.26729744625E+01  0.18132551563E+02  0.72461518391E+02  0.69999932386E+02 0.  0.
         12    1    1    2    0    0 -0.38401685888E+01 -0.26729744625E+01 -0.18132551563E+02  0.18726481609E+02  0.00000000000E+00 0. -1.
         11    1    3    3    0    0 -0.23582481133E+01 -0.14868735807E+01 -0.31321986331E+01  0.41931844400E+01  0.51100000000E-03 0. -1.
        -11    1    3    3    0    0 -0.12080044135E+02  0.30244629947E+02  0.14773986080E+02  0.35762211507E+02  0.51100000000E-03 0.  1.
         12    1    3    3    0    0  0.18278460837E+02 -0.26084781904E+02  0.64907641155E+01  0.32506122444E+02  0.00000000000E+00 0. -1.
</event>
<event>
 7    1  0.2944263E-013  0.7246152E+02  0.7816164E-02  0.1226708E+00
        -11   -1    0    0    0    0  0.00000000000E+00  0.00000000000E+00  0.45593999997E+02  0.45594000000E+02  0.51100000000E-03 0.  1.
         11   -1    0    0    0    0 -0.00000000000E+00 -0.00000000000E+00 -0.45593999997E+02  0.45594000000E+02  0.51100000000E-03 0. -1.
    9900012    2    1    2    0    0 -0.23414187723E+01  0.16178192507E+02  0.91359185834E+01  0.72461517068E+02  0.69999930662E+02 0.  0.
         12    1    1    2    0    0  0.23414187723E+01 -0.16178192507E+02 -0.91359185834E+01  0.18726482932E+02  0.00000000000E+00 0. -1.
         11    1    3    3    0    0 -0.10754829163E+02  0.43699976184E+01 -0.15225183432E+00  0.11609754967E+02  0.51100000000E-03 0. -1.
        -11    1    3    3    0    0  0.15430582092E+02  0.33743193680E+02  0.60988727872E+01  0.37601891348E+02  0.51100000000E-03 0.  1.
         12    1    3    3    0    0 -0.70171717012E+01 -0.21934998791E+02  0.31892976306E+01  0.23249870753E+02  0.00000000000E+00 0. -1.
</event>
<event>
 7    1  0.2944263E-013  0.7246156E+02  0.7816164E-02  0.1226708E+00
        -11   -1    0    0    0    0  0.00000000000E+00  0.00000000000E+00  0.45593999997E+02  0.45594000000E+02  0.51100000000E-03 0.  1.
         11   -1    0    0    0    0 -0.00000000000E+00 -0.00000000000E+00 -0.45593999997E+02  0.45594000000E+02  0.51100000000E-03 0. -1.
    9900012    2    1    2    0    0 -0.12330515985E+02  0.62514335376E+01 -0.12631603266E+02  0.72461562891E+02  0.69999990356E+02 0.  0.
         12    1    1    2    0    0  0.12330515985E+02 -0.62514335376E+01  0.12631603266E+02  0.18726437109E+02  0.00000000000E+00 0. -1.
         11    1    3    3    0    0  0.49990316860E+01 -0.68956384155E+01  0.14400381086E+02  0.16730544600E+02  0.51100000000E-03 0. -1.
        -11    1    3    3    0    0 -0.12390475399E+01  0.24533850279E+02 -0.26325123760E+02  0.36006349295E+02  0.51100000000E-03 0.  1.
         12    1    3    3    0    0 -0.16090500131E+02 -0.11386778325E+02 -0.70686059106E+00  0.19724668996E+02  0.00000000000E+00 0. -1.
</event>
<event>
 7    1  0.2944263E-013  0.7246104E+02  0.7816164E-02  0.1226709E+00
        -11   -1    0    0    0    0  0.00000000000E+00  0.00000000000E+00  0.45593999997E+02  0.45594000000E+02  0.51100000000E-03 0. -1.
         11   -1    0    0    0    0 -0.00000000000E+00 -0.00000000000E+00 -0.45593999997E+02  0.45594000000E+02  0.51100000000E-03 0.  1.
    9900012    2    1    2    0    0 -0.17165362034E+01  0.12403941041E+02 -0.13924610932E+02  0.72461039769E+02  0.69999308888E+02 0.  0.
         12    1    1    2    0    0  0.17165362034E+01 -0.12403941041E+02  0.13924610932E+02  0.18726960231E+02  0.00000000000E+00 0. -1.
         11    1    3    3    0    0 -0.12970556398E+02  0.13736053930E+02  0.60512204813E+01  0.19837635454E+02  0.51100000000E-03 0. -1.
        -11    1    3    3    0    0 -0.84060743957E+00  0.75779242903E+01 -0.32303101582E+02  0.33190690404E+02  0.51100000000E-03 0.  1.
         12    1    3    3    0    0  0.12094627634E+02 -0.89100371787E+01  0.12327270168E+02  0.19432713911E+02  0.00000000000E+00 0. -1.
</event>
<event>
 7    1  0.2944263E-013  0.7246150E+02  0.7816164E-02  0.1226708E+00
        -11   -1    0    0    0    0  0.00000000000E+00  0.00000000000E+00  0.45593999997E+02  0.45594000000E+02  0.51100000000E-03 0.  1.
         11   -1    0    0    0    0 -0.00000000000E+00 -0.00000000000E+00 -0.45593999997E+02  0.45594000000E+02  0.51100000000E-03 0. -1.
    9900012    2    1    2    0    0  0.12551417715E+02 -0.87590194059E+00  0.13869981738E+02  0.72461503150E+02  0.69999912532E+02 0.  0.
         12    1    1    2    0    0 -0.12551417715E+02  0.87590194059E+00 -0.13869981738E+02  0.18726496850E+02  0.00000000000E+00 0. -1.
         11    1    3    3    0    0 -0.16280729870E+02  0.64312750112E+01  0.26104554190E+02  0.31430418595E+02  0.51100000000E-03 0. -1.
        -11    1    3    3    0    0 -0.10000088772E+01  0.62645386490E+01 -0.12561936427E+01  0.64670306145E+01  0.51100000000E-03 0.  1.
        -12    1    3    3    0    0  0.29832156462E+02 -0.13571715601E+02 -0.10978378809E+02  0.34564053940E+02  0.00000000000E+00 0.  1.
</event>
<event>
 7    1  0.2944263E-013  0.7246153E+02  0.7816164E-02  0.1226708E+00
        -11   -1    0    0    0    0  0.00000000000E+00  0.00000000000E+00  0.45593999997E+02  0.45594000000E+02  0.51100000000E-03 0.  1.
         11   -1    0    0    0    0 -0.00000000000E+00 -0.00000000000E+00 -0.45593999997E+02  0.45594000000E+02  0.51100000000E-03 0. -1.
    9900012    2    1    2    0    0 -0.70641574985E+01 -0.14568360999E+02 -0.94096256221E+01  0.72461534297E+02  0.69999953107E+02 0.  0.
         12    1    1    2    0    0  0.70641574985E+01  0.14568360999E+02  0.94096256221E+01  0.18726465703E+02  0.00000000000E+00 0. -1.
         11    1    3    3    0    0 -0.20564246934E+02  0.14834722248E+02 -0.19317875666E+02  0.31876912596E+02  0.51100000000E-03 0. -1.
        -11    1    3    3    0    0 -0.32407954721E+01  0.19690780335E+01  0.76361017745E+00  0.38682197919E+01  0.51100000000E-03 0.  1.
        -12    1    3    3    0    0  0.16740884908E+02 -0.31372161281E+02  0.91446398662E+01  0.36716401910E+02  0.00000000000E+00 0.  1.
</event>
<event>
 7    1  0.2944263E-013  0.7246163E+02  0.7816164E-02  0.1226708E+00
        -11   -1    0    0    0    0  0.00000000000E+00  0.00000000000E+00  0.45593999997E+02  0.45594000000E+02  0.51100000000E-03 0. -1.
         11   -1    0    0    0    0 -0.00000000000E+00 -0.00000000000E+00 -0.45593999997E+02  0.45594000000E+02  0.51100000000E-03 0.  1.
    9900012    2    1    2    0    0 -0.15709856690E+02  0.51161544351E+01  0.88148889385E+01  0.72461630880E+02  0.70000078924E+02 0.  0.
         12    1    1    2    0    0  0.15709856690E+02 -0.51161544351E+01 -0.88148889385E+01  0.18726369120E+02  0.00000000000E+00 0. -1.
         11    1    3    3    0    0 -0.68163650261E+00 -0.23441987462E+02 -0.58643990226E+01  0.24174006301E+02  0.51100000000E-03 0. -1.
        -11    1    3    3    0    0 -0.13762634200E+02  0.42953165499E+00 -0.41898847966E+01  0.14392697191E+02  0.51100000000E-03 0.  1.
        -12    1    3    3    0    0 -0.12655859874E+01  0.28128610242E+02  0.18869172758E+02  0.33894927387E+02  0.00000000000E+00 0.  1.
</event>
<event>
 7    1  0.2944263E-013  0.7246161E+02  0.7816164E-02  0.1226708E+00
        -11   -1    0    0    0    0  0.00000000000E+00  0.00000000000E+00  0.45593999997E+02  0.45594000000E+02  0.51100000000E-03 0. -1.
         11   -1    0    0    0    0 -0.00000000000E+00 -0.00000000000E+00 -0.45593999997E+02  0.45594000000E+02  0.51100000000E-03 0.  1.
    9900012    2    1    2    0    0 -0.15026137654E+00 -0.16732487836E+02  0.84070766087E+01  0.72461610472E+02  0.70000052338E+02 0.  0.
         12    1    1    2    0    0  0.15026137654E+00  0.16732487836E+02 -0.84070766087E+01  0.18726389528E+02  0.00000000000E+00 0. -1.
         11    1    3    3    0    0 -0.17566354240E+02  0.35435715121E+00  0.21811888047E+02  0.28008227911E+02  0.51100000000E-03 0. -1.
        -11    1    3    3    0    0 -0.38335931280E+01 -0.20465905839E+02 -0.76232320593E+01  0.22173484286E+02  0.51100000000E-03 0.  1.
        -12    1    3    3    0    0  0.21249685992E+02  0.33790608520E+01 -0.57815793795E+01  0.22279898274E+02  0.00000000000E+00 0.  1.
</event>
<event>
 7    1  0.3545276E-013  0.7246160E+02  0.7816164E-02  0.1226708E+00
        -11   -1    0    0    0    0  0.00000000000E+00  0.00000000000E+00  0.45593999997E+02  0.45594000000E+02  0.51100000000E-03 0. -1.
         11   -1    0    0    0    0 -0.00000000000E+00 -0.00000000000E+00 -0.45593999997E+02  0.45594000000E+02  0.51100000000E-03 0.  1.
    9900012    2    1    2    0    0 -0.49096653609E+01 -0.50128568040E+01 -0.17362161277E+02  0.72461596408E+02  0.70000034017E+02 0.  0.
         12    1    1    2    0    0  0.49096653609E+01  0.50128568040E+01  0.17362161277E+02  0.18726403592E+02  0.00000000000E+00 0. -1.
         11    1    3    3    0    0  0.11884034214E+02  0.92875084760E+01  0.30536536681E+01  0.15388725869E+02  0.51100000000E-03 0. -1.
        -11    1    3    3    0    0 -0.70993556729E+01 -0.20529223321E+01 -0.34958513923E+02  0.35731121407E+02  0.51100000000E-03 0.  1.
         12    1    3    3    0    0 -0.96943439016E+01 -0.12247442948E+02  0.14542698977E+02  0.21341749131E+02  0.00000000000E+00 0. -1.
</event>
<event>
 7    1  0.2944263E-013  0.7246183E+02  0.7816164E-02  0.1226707E+00
        -11   -1    0    0    0    0  0.00000000000E+00  0.00000000000E+00  0.45593999997E+02  0.45594000000E+02  0.51100000000E-03 0.  1.
         11   -1    0    0    0    0 -0.00000000000E+00 -0.00000000000E+00 -0.45593999997E+02  0.45594000000E+02  0.51100000000E-03 0. -1.
    9900012    2    1    2    0    0  0.15310619108E+02 -0.10722668030E+02  0.11307993816E+01  0.72461831829E+02  0.70000340696E+02 0.  0.
         12    1    1    2    0    0 -0.15310619108E+02  0.10722668030E+02 -0.11307993816E+01  0.18726168171E+02  0.00000000000E+00 0. -1.
         11    1    3    3    0    0  0.17605851852E+02  0.19755153579E+02 -0.63311021666E+01  0.27208729615E+02  0.51100000000E-03 0. -1.
        -11    1    3    3    0    0 -0.58710389905E+01  0.56538012771E+01 -0.16566553657E+00  0.81524237525E+01  0.51100000000E-03 0.  1.
        -12    1    3    3    0    0  0.35758062465E+01 -0.36131622885E+02  0.76275670848E+01  0.37100678461E+02  0.00000000000E+00 0.  1.
</event>
<event>
 7    1  0.2944263E-013  0.7246161E+02  0.7816164E-02  0.1226708E+00
        -11   -1    0    0    0    0  0.00000000000E+00  0.00000000000E+00  0.45593999997E+02  0.45594000000E+02  0.51100000000E-03 0.  1.
         11   -1    0    0    0    0 -0.00000000000E+00 -0.00000000000E+00 -0.45593999997E+02  0.45594000000E+02  0.51100000000E-03 0. -1.
    9900012    2    1    2    0    0  0.15916695172E+02  0.82178191706E+01  0.54592846276E+01  0.72461614183E+02  0.70000057174E+02 0.  0.
         12    1    1    2    0    0 -0.15916695172E+02 -0.82178191706E+01 -0.54592846276E+01  0.18726385817E+02  0.00000000000E+00 0. -1.
         11    1    3    3    0    0 -0.22117689998E+01  0.61521499711E+00 -0.38078509948E+00  0.23271031679E+01  0.51100000000E-03 0. -1.
        -11    1    3    3    0    0  0.13579101120E+02 -0.12400478359E+02  0.31989739448E+02  0.36898608117E+02  0.51100000000E-03 0.  1.
         12    1    3    3    0    0  0.45493630517E+01  0.20003082533E+02 -0.26149669721E+02  0.33235902899E+02  0.00000000000E+00 0. -1.
</event>
<event>
 7    1  0.2944263E-013  0.7246153E+02  0.7816164E-02  0.1226708E+00
        -11   -1    0    0    0    0  0.00000000000E+00  0.00000000000E+00  0.45593999997E+02  0.45594000000E+02  0.51100000000E-03 0. -1.
         11   -1    0    0    0    0 -0.00000000000E+00 -0.00000000000E+00 -0.45593999997E+02  0.45594000000E+02  0.51100000000E-03 0.  1.
    9900012    2    1    2    0    0 -0.24160594752E+00 -0.12513413570E+02 -0.13929707201E+02  0.72461531158E+02  0.69999949017E+02 0.  0.
         12    1    1    2    0    0  0.24160594752E+00  0.12513413570E+02  0.13929707201E+02  0.18726468842E+02  0.00000000000E+00 0. -1.
         11    1    3    3    0    0 -0.15146252533E+02 -0.79413891751E+01  0.58399070322E+01  0.18071500829E+02  0.51100000000E-03 0. -1.
        -11    1    3    3    0    0 -0.75703057162E+01 -0.11710281064E+02 -0.26432869844E+02  0.29885394755E+02  0.51100000000E-03 0.  1.
        -12    1    3    3    0    0  0.22474952302E+02  0.71382566688E+01  0.66632556111E+01  0.24504635573E+02  0.00000000000E+00 0.  1.
</event>
<event>
 7    1  0.2944263E-013  0.7246161E+02  0.7816164E-02  0.1226708E+00
        -11   -1    0    0    0    0  0.00000000000E+00  0.00000000000E+00  0.45593999997E+02  0.45594000000E+02  0.51100000000E-03 0.  1.
         11   -1    0    0    0    0 -0.00000000000E+00 -0.00000000000E+00 -0.45593999997E+02  0.45594000000E+02  0.51100000000E-03 0. -1.
    9900012    2    1    2    0    0  0.73736370018E+01 -0.28026304990E+01  0.16983888010E+02  0.72461609203E+02  0.70000050685E+02 0.  0.
         12    1    1    2    0    0 -0.73736370018E+01  0.28026304990E+01 -0.16983888010E+02  0.18726390797E+02  0.00000000000E+00 0. -1.
         11    1    3    3    0    0  0.35266669324E-01  0.63851681962E+01  0.99397930047E+00  0.64621677278E+01  0.51100000000E-03 0. -1.
        -11    1    3    3    0    0 -0.22327022828E+02  0.72200169899E+01  0.21293397132E+02  0.31686485374E+02  0.51100000000E-03 0.  1.
        -12    1    3    3    0    0  0.29665393160E+02 -0.16407815685E+02 -0.53034884223E+01  0.34312956101E+02  0.00000000000E+00 0.  1.
</event>
<event>
 7    1  0.2944263E-013  0.7246155E+02  0.7816164E-02  0.1226708E+00
        -11   -1    0    0    0    0  0.00000000000E+00  0.00000000000E+00  0.45593999997E+02  0.45594000000E+02  0.51100000000E-03 0.  1.
         11   -1    0    0    0    0 -0.00000000000E+00 -0.00000000000E+00 -0.45593999997E+02  0.45594000000E+02  0.51100000000E-03 0. -1.
    9900012    2    1    2    0    0  0.65629741555E+01  0.14404288952E+02  0.10006181682E+02  0.72461552343E+02  0.69999976615E+02 0.  0.
         12    1    1    2    0    0 -0.65629741555E+01 -0.14404288952E+02 -0.10006181682E+02  0.18726447657E+02  0.00000000000E+00 0. -1.
         11    1    3    3    0    0  0.13626879353E+02  0.11059881351E+02 -0.19028816945E+02  0.25886457675E+02  0.51100000000E-03 0. -1.
        -11    1    3    3    0    0  0.97989047449E+01 -0.82627759745E+01  0.24967755840E+01  0.13058556183E+02  0.51100000000E-03 0.  1.
        -12    1    3    3    0    0 -0.16862809943E+02  0.11607183576E+02  0.26538223043E+02  0.33516538485E+02  0.00000000000E+00 0.  1.
</event>
<event>
 7    1  0.2944263E-013  0.7246163E+02  0.7816164E-02  0.1226708E+00
        -11   -1    0    0    0    0  0.00000000000E+00  0.00000000000E+00  0.45593999997E+02  0.45594000000E+02  0.51100000000E-03 0. -1.
         11   -1    0    0    0    0 -0.00000000000E+00 -0.00000000000E+00 -0.45593999997E+02  0.45594000000E+02  0.51100000000E-03 0.  1.
    9900012    2    1    2    0    0  0.12095422633E+02 -0.78865159026E+01 -0.11923948310E+02  0.72461630222E+02  0.70000078067E+02 0.  0.
         12    1    1    2    0    0 -0.12095422633E+02  0.78865159026E+01  0.11923948310E+02  0.18726369778E+02  0.00000000000E+00 0. -1.
         11    1    3    3    0    0  0.33087055139E+02  0.32846201589E+01  0.55958584408E+00  0.33254399468E+02  0.51100000000E-03 0. -1.
        -11    1    3    3    0    0  0.38585908256E+01 -0.91767674156E+01  0.23083511362E+01  0.10219112906E+02  0.51100000000E-03 0.  1.
        -12    1    3    3    0    0 -0.24850223332E+02 -0.19943686459E+01 -0.14791885290E+02  0.28988117848E+02  0.00000000000E+00 0.  1.
</event>
<event>
 7    1  0.2944263E-013  0.7246163E+02  0.7816164E-02  0.1226708E+00
        -11   -1    0    0    0    0  0.00000000000E+00  0.00000000000E+00  0.45593999997E+02  0.45594000000E+02  0.51100000000E-03 0. -1.
         11   -1    0    0    0    0 -0.00000000000E+00 -0.00000000000E+00 -0.45593999997E+02  0.45594000000E+02  0.51100000000E-03 0.  1.
    9900012    2    1    2    0    0  0.17060570481E+02  0.62314662130E+01 -0.45588225208E+01  0.72461625576E+02  0.70000072015E+02 0.  0.
         12    1    1    2    0    0 -0.17060570481E+02 -0.62314662130E+01  0.45588225208E+01  0.18726374424E+02  0.00000000000E+00 0. -1.
         11    1    3    3    0    0 -0.62641258862E+00 -0.17954213053E+02  0.92062481361E+01  0.20186658072E+02  0.51100000000E-03 0. -1.
        -11    1    3    3    0    0 -0.33788444729E+01 -0.96819544756E+01 -0.51302800132E+01  0.11466324856E+02  0.51100000000E-03 0.  1.
        -12    1    3    3    0    0  0.21065827542E+02  0.33867633742E+02 -0.86347906438E+01  0.40808642648E+02  0.00000000000E+00 0.  1.
</event>
<event>
 7    1  0.2944263E-013  0.7246158E+02  0.7816164E-02  0.1226708E+00
        -11   -1    0    0    0    0  0.00000000000E+00  0.00000000000E+00  0.45593999997E+02  0.45594000000E+02  0.51100000000E-03 0.  1.
         11   -1    0    0    0    0 -0.00000000000E+00 -0.00000000000E+00 -0.45593999997E+02  0.45594000000E+02  0.51100000000E-03 0. -1.
    9900012    2    1    2    0    0 -0.35515896043E+01 -0.93863772186E+01  0.15810151868E+02  0.72461581013E+02  0.70000013963E+02 0.  0.
         12    1    1    2    0    0  0.35515896043E+01  0.93863772186E+01 -0.15810151868E+02  0.18726418987E+02  0.00000000000E+00 0. -1.
         11    1    3    3    0    0  0.27429249268E+01 -0.75486015794E+01 -0.11860238547E+02  0.14323766321E+02  0.51100000000E-03 0. -1.
        -11    1    3    3    0    0  0.22026749237E+02 -0.23704237560E+01  0.75977765288E+01  0.23420563596E+02  0.51100000000E-03 0.  1.
         12    1    3    3    0    0 -0.28321263768E+02  0.53264811678E+00  0.20072613886E+02  0.34717251096E+02  0.00000000000E+00 0. -1.
</event>
<event>
 7    1  0.2944263E-013  0.7246155E+02  0.7816164E-02  0.1226708E+00
        -11   -1    0    0    0    0  0.00000000000E+00  0.00000000000E+00  0.45593999997E+02  0.45594000000E+02  0.51100000000E-03 0. -1.
         11   -1    0    0    0    0 -0.00000000000E+00 -0.00000000000E+00 -0.45593999997E+02  0.45594000000E+02  0.51100000000E-03 0.  1.
    9900012    2    1    2    0    0 -0.68577655593E+00  0.20260180394E+01 -0.18603896919E+02  0.72461547609E+02  0.69999970448E+02 0.  0.
         12    1    1    2    0    0  0.68577655593E+00 -0.20260180394E+01  0.18603896919E+02  0.18726452391E+02  0.00000000000E+00 0. -1.
         11    1    3    3    0    0  0.51003422091E+01  0.35781015213E+01  0.34876354862E+01  0.71400211969E+01  0.51100000000E-03 0. -1.
        -11    1    3    3    0    0  0.26403795011E+01  0.28408958717E+02 -0.27172982586E+01  0.28660499811E+02  0.51100000000E-03 0.  1.
        -12    1    3    3    0    0 -0.84264982662E+01 -0.29961042199E+02 -0.19374234147E+02  0.36661026601E+02  0.00000000000E+00 0.  1.
</event>
<event>
 7    1  0.2944263E-013  0.7246157E+02  0.7816164E-02  0.1226708E+00
        -11   -1    0    0    0    0  0.00000000000E+00  0.00000000000E+00  0.45593999997E+02  0.45594000000E+02  0.51100000000E-03 0.  1.
         11   -1    0    0    0    0 -0.00000000000E+00 -0.00000000000E+00 -0.45593999997E+02  0.45594000000E+02  0.51100000000E-03 0. -1.
    9900012    2    1    2    0    0  0.54403524924E+01  0.87642591983E+01 -0.15629127782E+02  0.72461566550E+02  0.69999995122E+02 0.  0.
         12    1    1    2    0    0 -0.54403524924E+01 -0.87642591983E+01  0.15629127782E+02  0.18726433450E+02  0.00000000000E+00 0. -1.
         11    1    3    3    0    0  0.38321196167E+01 -0.37730622720E+01  0.11064476404E+02  0.12302185904E+02  0.51100000000E-03 0. -1.
        -11    1    3    3    0    0  0.40669114478E+01  0.78471151738E+01  0.15388135365E+02  0.17745751479E+02  0.51100000000E-03 0.  1.
         12    1    3    3    0    0 -0.24586785722E+01  0.46902062965E+01 -0.42081739551E+02  0.42413629167E+02  0.00000000000E+00 0. -1.
</event>
<event>
 7    1  0.2944263E-013  0.7246158E+02  0.7816164E-02  0.1226708E+00
        -11   -1    0    0    0    0  0.00000000000E+00  0.00000000000E+00  0.45593999997E+02  0.45594000000E+02  0.51100000000E-03 0.  1.
         11   -1    0    0    0    0 -0.00000000000E+00 -0.00000000000E+00 -0.45593999997E+02  0.45594000000E+02  0.51100000000E-03 0. -1.
    9900012    2    1    2    0    0 -0.48627047006E+01  0.13632644541E+02  0.11882085238E+02  0.72461578992E+02  0.70000011330E+02 0.  0.
         12    1    1    2    0    0  0.48627047006E+01 -0.13632644541E+02 -0.11882085238E+02  0.18726421008E+02  0.00000000000E+00 0. -1.
         11    1    3    3    0    0  0.13259089836E+02  0.23505800543E+02 -0.10681783941E+01  0.27008649129E+02  0.51100000000E-03 0. -1.
        -11    1    3    3    0    0 -0.41829036073E+01  0.14709703126E+02  0.39523882516E+01  0.15795360768E+02  0.51100000000E-03 0.  1.
         12    1    3    3    0    0 -0.13938890929E+02 -0.24582859128E+02  0.89978753801E+01  0.29657569095E+02  0.00000000000E+00 0. -1.
</event>
<event>
 7    1  0.2944263E-013  0.7246157E+02  0.7816164E-02  0.1226708E+00
        -11   -1    0    0    0    0  0.00000000000E+00  0.00000000000E+00  0.45593999997E+02  0.45594000000E+02  0.51100000000E-03 0. -1.
         11   -1    0    0    0    0 -0.00000000000E+00 -0.00000000000E+00 -0.45593999997E+02  0.45594000000E+02  0.51100000000E-03 0.  1.
    9900012    2    1    2    0    0 -0.10014028184E+02  0.10745535171E+02 -0.11616025315E+02  0.72461565991E+02  0.69999994394E+02 0.  0.
         12    1    1    2    0    0  0.10014028184E+02 -0.10745535171E+02  0.11616025315E+02  0.18726434009E+02  0.00000000000E+00 0. -1.
         11    1    3    3    0    0 -0.16994274275E+02  0.14767621074E+02 -0.26646908710E+02  0.34884749310E+02  0.51100000000E-03 0. -1.
        -11    1    3    3    0    0 -0.12803811852E+02 -0.37212805773E+01  0.11012893995E+01  0.13379027083E+02  0.51100000000E-03 0.  1.
        -12    1    3    3    0    0  0.19784057944E+02 -0.30080532546E+00  0.13929593996E+02  0.24197789598E+02  0.00000000000E+00 0.  1.
</event>
<event>
 7    1  0.2944263E-013  0.7246154E+02  0.7816164E-02  0.1226708E+00
        -11   -1    0    0    0    0  0.00000000000E+00  0.00000000000E+00  0.45593999997E+02  0.45594000000E+02  0.51100000000E-03 0.  1.
         11   -1    0    0    0    0 -0.00000000000E+00 -0.00000000000E+00 -0.45593999997E+02  0.45594000000E+02  0.51100000000E-03 0. -1.
    9900012    2    1    2    0    0  0.11637376414E+02 -0.58060806610E+01  0.13473726642E+02  0.72461537118E+02  0.69999956782E+02 0.  0.
         12    1    1    2    0    0 -0.11637376414E+02  0.58060806610E+01 -0.13473726642E+02  0.18726462882E+02  0.00000000000E+00 0. -1.
         11    1    3    3    0    0 -0.15616321120E+02  0.12074313151E+02  0.11428389282E+02  0.22809353459E+02  0.51100000000E-03 0. -1.
        -11    1    3    3    0    0 -0.64044346811E+01 -0.14314276369E+02  0.19751828862E+01  0.15805588861E+02  0.51100000000E-03 0.  1.
        -12    1    3    3    0    0  0.33658132215E+02 -0.35661174431E+01  0.70154474184E-01  0.33846594798E+02  0.00000000000E+00 0.  1.
</event>
<event>
 7    1  0.2944263E-013  0.7246156E+02  0.7816164E-02  0.1226708E+00
        -11   -1    0    0    0    0  0.00000000000E+00  0.00000000000E+00  0.45593999997E+02  0.45594000000E+02  0.51100000000E-03 0. -1.
         11   -1    0    0    0    0 -0.00000000000E+00 -0.00000000000E+00 -0.45593999997E+02  0.45594000000E+02  0.51100000000E-03 0.  1.
    9900012    2    1    2    0    0 -0.14715033733E+02  0.11469998818E+02  0.16082535160E+01  0.72461559601E+02  0.69999986070E+02 0.  0.
         12    1    1    2    0    0  0.14715033733E+02 -0.11469998818E+02 -0.16082535160E+01  0.18726440399E+02  0.00000000000E+00 0. -1.
         11    1    3    3    0    0 -0.12896654193E+02  0.26268083363E+02 -0.52621603870E+01  0.29732578515E+02  0.51100000000E-03 0.  1.
        -11    1    3    3    0    0  0.92026678010E+01  0.97720136224E+01  0.82660579598E+01  0.15764170113E+02  0.51100000000E-03 0. -1.
         12    1    3    3    0    0 -0.11021047342E+02 -0.24570098168E+02 -0.13956440568E+01  0.26964810973E+02  0.00000000000E+00 0. -1.
</event>
<event>
 7    1  0.2944263E-013  0.7246153E+02  0.7816164E-02  0.1226708E+00
        -11   -1    0    0    0    0  0.00000000000E+00  0.00000000000E+00  0.45593999997E+02  0.45594000000E+02  0.51100000000E-03 0.  1.
         11   -1    0    0    0    0 -0.00000000000E+00 -0.00000000000E+00 -0.45593999997E+02  0.45594000000E+02  0.51100000000E-03 0. -1.
    9900012    2    1    2    0    0  0.25689007597E+01 -0.18196683082E+02  0.36003143587E+01  0.72461527033E+02  0.69999943644E+02 0.  0.
         12    1    1    2    0    0 -0.25689007597E+01  0.18196683082E+02 -0.36003143587E+01  0.18726472967E+02  0.00000000000E+00 0. -1.
         11    1    3    3    0    0 -0.16873052192E+02 -0.26663413508E+02  0.11605264674E+02  0.33620227224E+02  0.51100000000E-03 0. -1.
        -11    1    3    3    0    0  0.93948677814E+01 -0.90409351922E+01  0.59189924952E+01  0.14319096417E+02  0.51100000000E-03 0.  1.
         12    1    3    3    0    0  0.10047085170E+02  0.17507665618E+02 -0.13923942810E+02  0.24522203392E+02  0.00000000000E+00 0. -1.
</event>
<event>
 7    1  0.2944263E-013  0.7246157E+02  0.7816164E-02  0.1226708E+00
        -11   -1    0    0    0    0  0.00000000000E+00  0.00000000000E+00  0.45593999997E+02  0.45594000000E+02  0.51100000000E-03 0. -1.
         11   -1    0    0    0    0 -0.00000000000E+00 -0.00000000000E+00 -0.45593999997E+02  0.45594000000E+02  0.51100000000E-03 0.  1.
    9900012    2    1    2    0    0  0.56250941762E+01 -0.15853244519E+02 -0.82287370789E+01  0.72461570544E+02  0.70000000325E+02 0.  0.
         12    1    1    2    0    0 -0.56250941762E+01  0.15853244519E+02  0.82287370789E+01  0.18726429456E+02  0.00000000000E+00 0. -1.
         11    1    3    3    0    0 -0.56921989467E+01  0.24952315069E+02 -0.64565812461E+01  0.26395200280E+02  0.51100000000E-03 0. -1.
        -11    1    3    3    0    0 -0.32394748467E+01 -0.72619144429E+01 -0.49434205005E+01  0.93630660131E+01  0.51100000000E-03 0.  1.
        -12    1    3    3    0    0  0.14556767970E+02 -0.33543645145E+02  0.31712646677E+01  0.36703304251E+02  0.00000000000E+00 0.  1.
</event>
<event>
 7    1  0.2944263E-013  0.7246155E+02  0.7816164E-02  0.1226708E+00
        -11   -1    0    0    0    0  0.00000000000E+00  0.00000000000E+00  0.45593999997E+02  0.45594000000E+02  0.51100000000E-03 0. -1.
         11   -1    0    0    0    0 -0.00000000000E+00 -0.00000000000E+00 -0.45593999997E+02  0.45594000000E+02  0.51100000000E-03 0.  1.
    9900012    2    1    2    0    0  0.65542803743E+01 -0.16626898221E+02  0.55917313268E+01  0.72461553596E+02  0.69999978247E+02 0.  0.
         12    1    1    2    0    0 -0.65542803743E+01  0.16626898221E+02 -0.55917313268E+01  0.18726446404E+02  0.00000000000E+00 0. -1.
         11    1    3    3    0    0  0.43124807889E+01  0.34954450087E+01  0.49614172930E+01  0.74452191491E+01  0.51100000000E-03 0. -1.
        -11    1    3    3    0    0 -0.12869898012E+02 -0.60704712605E+01  0.27603268500E+02  0.31055198088E+02  0.51100000000E-03 0.  1.
        -12    1    3    3    0    0  0.15111697597E+02 -0.14051871970E+02 -0.26972954466E+02  0.33961136359E+02  0.00000000000E+00 0.  1.
</event>
<event>
 7    1  0.2944263E-013  0.7246157E+02  0.7816164E-02  0.1226708E+00
        -11   -1    0    0    0    0  0.00000000000E+00  0.00000000000E+00  0.45593999997E+02  0.45594000000E+02  0.51100000000E-03 0.  1.
         11   -1    0    0    0    0 -0.00000000000E+00 -0.00000000000E+00 -0.45593999997E+02  0.45594000000E+02  0.51100000000E-03 0. -1.
    9900012    2    1    2    0    0 -0.40886130754E+01 -0.41662077291E+01  0.17793400195E+02  0.72461571237E+02  0.70000001228E+02 0.  0.
         12    1    1    2    0    0  0.40886130754E+01  0.41662077291E+01 -0.17793400195E+02  0.18726428763E+02  0.00000000000E+00 0. -1.
         11    1    3    3    0    0 -0.85447524009E+01 -0.14864612814E+02  0.15258412458E+02  0.22951877019E+02  0.51100000000E-03 0. -1.
        -11    1    3    3    0    0  0.10079680443E+02  0.34277639803E+01  0.23947626766E+02  0.26207601030E+02  0.51100000000E-03 0.  1.
         12    1    3    3    0    0 -0.56235411177E+01  0.72706411044E+01 -0.21412639029E+02  0.23302093188E+02  0.00000000000E+00 0. -1.
</event>
<event>
 7    1  0.2944263E-013  0.7246157E+02  0.7816164E-02  0.1226708E+00
        -11   -1    0    0    0    0  0.00000000000E+00  0.00000000000E+00  0.45593999997E+02  0.45594000000E+02  0.51100000000E-03 0. -1.
         11   -1    0    0    0    0 -0.00000000000E+00 -0.00000000000E+00 -0.45593999997E+02  0.45594000000E+02  0.51100000000E-03 0.  1.
    9900012    2    1    2    0    0 -0.11679162234E+02  0.14215156945E+02 -0.34936559081E+01  0.72461570841E+02  0.70000000712E+02 0.  0.
         12    1    1    2    0    0  0.11679162234E+02 -0.14215156945E+02  0.34936559081E+01  0.18726429159E+02  0.00000000000E+00 0. -1.
         11    1    3    3    0    0  0.24170456857E+01  0.47174276394E+01  0.20148123287E+02  0.20833701198E+02  0.51100000000E-03 0. -1.
        -11    1    3    3    0    0  0.13991608742E+02  0.10390205562E+02 -0.59247951713E+01  0.18407191119E+02  0.51100000000E-03 0.  1.
        -12    1    3    3    0    0 -0.28087816661E+02 -0.89247625646E+00 -0.17716984024E+02  0.33220678524E+02  0.00000000000E+00 0.  1.
</event>
<event>
 7    1  0.2944263E-013  0.7246154E+02  0.7816164E-02  0.1226708E+00
        -11   -1    0    0    0    0  0.00000000000E+00  0.00000000000E+00  0.45593999997E+02  0.45594000000E+02  0.51100000000E-03 0.  1.
         11   -1    0    0    0    0 -0.00000000000E+00 -0.00000000000E+00 -0.45593999997E+02  0.45594000000E+02  0.51100000000E-03 0. -1.
    9900012    2    1    2    0    0  0.43919519009E+01  0.70921173492E+01  0.16765825860E+02  0.72461540463E+02  0.69999961140E+02 0.  0.
         12    1    1    2    0    0 -0.43919519009E+01 -0.70921173492E+01 -0.16765825860E+02  0.18726459537E+02  0.00000000000E+00 0. -1.
         11    1    3    3    0    0 -0.69154397220E+01  0.11689456609E+02 -0.55797336709E+01  0.14683328317E+02  0.51100000000E-03 0. -1.
        -11    1    3    3    0    0  0.12048649206E+01  0.23404841077E+02  0.82993630998E+01  0.24861973242E+02  0.51100000000E-03 0.  1.
         12    1    3    3    0    0  0.10102526702E+02 -0.28002180338E+02  0.14046196432E+02  0.32916238905E+02  0.00000000000E+00 0. -1.
</event>
<event>
 7    1  0.2944263E-013  0.7246163E+02  0.7816164E-02  0.1226708E+00
        -11   -1    0    0    0    0  0.00000000000E+00  0.00000000000E+00  0.45593999997E+02  0.45594000000E+02  0.51100000000E-03 0.  1.
         11   -1    0    0    0    0 -0.00000000000E+00 -0.00000000000E+00 -0.45593999997E+02  0.45594000000E+02  0.51100000000E-03 0. -1.
    9900012    2    1    2    0    0 -0.75728816702E+01  0.45398174492E+01  0.16514187589E+02  0.72461631665E+02  0.70000079947E+02 0.  0.
         12    1    1    2    0    0  0.75728816702E+01 -0.45398174492E+01 -0.16514187589E+02  0.18726368335E+02  0.00000000000E+00 0. -1.
         11    1    3    3    0    0  0.52907155287E+01  0.94953096212E+01 -0.58817506601E+01  0.12359108653E+02  0.51100000000E-03 0. -1.
        -11    1    3    3    0    0  0.10767849368E+02 -0.42281279911E+01 -0.13085380482E+02  0.17465704364E+02  0.51100000000E-03 0.  1.
        -12    1    3    3    0    0 -0.23631446567E+02 -0.72736418097E+00  0.35481318732E+02  0.42636818648E+02  0.00000000000E+00 0.  1.
</event>
<event>
 7    1  0.2944263E-013  0.7246167E+02  0.7816164E-02  0.1226708E+00
        -11   -1    0    0    0    0  0.00000000000E+00  0.00000000000E+00  0.45593999997E+02  0.45594000000E+02  0.51100000000E-03 0. -1.
         11   -1    0    0    0    0 -0.00000000000E+00 -0.00000000000E+00 -0.45593999997E+02  0.45594000000E+02  0.51100000000E-03 0.  1.
    9900012    2    1    2    0    0 -0.38913096557E+01 -0.18140526595E+02 -0.25405354717E+01  0.72461673172E+02  0.70000134018E+02 0.  0.
         12    1    1    2    0    0  0.38913096557E+01  0.18140526595E+02  0.25405354717E+01  0.18726326828E+02  0.00000000000E+00 0. -1.
         11    1    3    3    0    0 -0.17199577790E+02  0.51508402174E+01 -0.95333551898E+01  0.20328342100E+02  0.51100000000E-03 0. -1.
        -11    1    3    3    0    0  0.96092077025E+01 -0.27431824914E+02  0.21791220502E+02  0.36327664142E+02  0.51100000000E-03 0.  1.
         12    1    3    3    0    0  0.36990604316E+01  0.41404581023E+01 -0.14798400783E+02  0.15805666931E+02  0.00000000000E+00 0. -1.
</event>
<event>
 7    1  0.2944263E-013  0.7246159E+02  0.7816164E-02  0.1226708E+00
        -11   -1    0    0    0    0  0.00000000000E+00  0.00000000000E+00  0.45593999997E+02  0.45594000000E+02  0.51100000000E-03 0.  1.
         11   -1    0    0    0    0 -0.00000000000E+00 -0.00000000000E+00 -0.45593999997E+02  0.45594000000E+02  0.51100000000E-03 0. -1.
    9900012    2    1    2    0    0  0.70828684479E+00 -0.14283091122E+02 -0.12090076048E+02  0.72461593482E+02  0.70000030206E+02 0.  0.
         12    1    1    2    0    0 -0.70828684479E+00  0.14283091122E+02  0.12090076048E+02  0.18726406518E+02  0.00000000000E+00 0. -1.
         11    1    3    3    0    0 -0.14066234819E+02 -0.61234135454E+01 -0.26925118390E+02  0.30988984430E+02  0.51100000000E-03 0. -1.
        -11    1    3    3    0    0  0.41367558524E+01 -0.31014290855E+00 -0.11380080395E+02  0.12112603670E+02  0.51100000000E-03 0.  1.
        -12    1    3    3    0    0  0.10637765811E+02 -0.78495346677E+01  0.26215122737E+02  0.29360005383E+02  0.00000000000E+00 0.  1.
</event>
<event>
 7    1  0.2944263E-013  0.7246156E+02  0.7816164E-02  0.1226708E+00
        -11   -1    0    0    0    0  0.00000000000E+00  0.00000000000E+00  0.45593999997E+02  0.45594000000E+02  0.51100000000E-03 0. -1.
         11   -1    0    0    0    0 -0.00000000000E+00 -0.00000000000E+00 -0.45593999997E+02  0.45594000000E+02  0.51100000000E-03 0.  1.
    9900012    2    1    2    0    0  0.12478883601E+02  0.92313885647E+01 -0.10475618645E+02  0.72461557285E+02  0.69999983053E+02 0.  0.
         12    1    1    2    0    0 -0.12478883601E+02 -0.92313885647E+01  0.10475618645E+02  0.18726442715E+02  0.00000000000E+00 0. -1.
         11    1    3    3    0    0  0.13955606769E+02 -0.12905008105E+02 -0.76836533995E+01  0.20502115118E+02  0.51100000000E-03 0. -1.
        -11    1    3    3    0    0  0.63997223877E+01  0.25316621474E+02 -0.19918228066E+02  0.32842405195E+02  0.51100000000E-03 0.  1.
        -12    1    3    3    0    0 -0.78764455553E+01 -0.31802248034E+01  0.17126262820E+02  0.19117036972E+02  0.00000000000E+00 0.  1.
</event>
<event>
 7    1  0.2944263E-013  0.7246159E+02  0.7816164E-02  0.1226708E+00
        -11   -1    0    0    0    0  0.00000000000E+00  0.00000000000E+00  0.45593999997E+02  0.45594000000E+02  0.51100000000E-03 0. -1.
         11   -1    0    0    0    0 -0.00000000000E+00 -0.00000000000E+00 -0.45593999997E+02  0.45594000000E+02  0.51100000000E-03 0.  1.
    9900012    2    1    2    0    0 -0.12023588239E+02 -0.60518436488E+01 -0.13018715557E+02  0.72461589760E+02  0.70000025358E+02 0.  0.
         12    1    1    2    0    0  0.12023588239E+02  0.60518436488E+01  0.13018715557E+02  0.18726410240E+02  0.00000000000E+00 0. -1.
         11    1    3    3    0    0 -0.19393769130E+02  0.18181530318E+02 -0.94821021012E+01  0.28224042699E+02  0.51100000000E-03 0. -1.
        -11    1    3    3    0    0 -0.25422465825E+01 -0.72749381922E+01 -0.18174189163E+02  0.19740539389E+02  0.51100000000E-03 0.  1.
        -12    1    3    3    0    0  0.99124274736E+01 -0.16958435774E+02  0.14637575706E+02  0.24497007672E+02  0.00000000000E+00 0.  1.
</event>
<event>
 7    1  0.2944263E-013  0.7246144E+02  0.7816164E-02  0.1226708E+00
        -11   -1    0    0    0    0  0.00000000000E+00  0.00000000000E+00  0.45593999997E+02  0.45594000000E+02  0.51100000000E-03 0.  1.
         11   -1    0    0    0    0 -0.00000000000E+00 -0.00000000000E+00 -0.45593999997E+02  0.45594000000E+02  0.51100000000E-03 0. -1.
    9900012    2    1    2    0    0 -0.48542033923E+01  0.10807724040E+02  0.14502207567E+02  0.72461435611E+02  0.69999824550E+02 0.  0.
         12    1    1    2    0    0  0.48542033923E+01 -0.10807724040E+02 -0.14502207567E+02  0.18726564389E+02  0.00000000000E+00 0. -1.
         11    1    3    3    0    0 -0.22165140388E+01 -0.44741641615E+01 -0.20175159924E+02  0.20783843669E+02  0.51100000000E-03 0. -1.
        -11    1    3    3    0    0 -0.56501802577E+01 -0.73562273980E+01 -0.98670089090E+00  0.93280328786E+01  0.51100000000E-03 0.  1.
        -12    1    3    3    0    0  0.30124909042E+01  0.22638115599E+02  0.35664068382E+02  0.42349559064E+02  0.00000000000E+00 0.  1.
</event>
<event>
 7    1  0.2944263E-013  0.7246156E+02  0.7816164E-02  0.1226708E+00
        -11   -1    0    0    0    0  0.00000000000E+00  0.00000000000E+00  0.45593999997E+02  0.45594000000E+02  0.51100000000E-03 0. -1.
         11   -1    0    0    0    0 -0.00000000000E+00 -0.00000000000E+00 -0.45593999997E+02  0.45594000000E+02  0.51100000000E-03 0.  1.
    9900012    2    1    2    0    0 -0.17047253928E+02 -0.72634460099E+01  0.27042646479E+01  0.72461559823E+02  0.69999986359E+02 0.  0.
         12    1    1    2    0    0  0.17047253928E+02  0.72634460099E+01 -0.27042646479E+01  0.18726440177E+02  0.00000000000E+00 0. -1.
         11    1    3    3    0    0 -0.43495270535E+01 -0.14592644101E+01  0.18496784538E+02  0.19057252601E+02  0.51100000000E-03 0. -1.
        -11    1    3    3    0    0 -0.19215758425E+01 -0.19635382881E+02 -0.26365215283E+02  0.32929702273E+02  0.51100000000E-03 0.  1.
         12    1    3    3    0    0 -0.10776151032E+02  0.13831201281E+02  0.10572695393E+02  0.20474604949E+02  0.00000000000E+00 0. -1.
</event>
<event>
 7    1  0.2944263E-013  0.7246165E+02  0.7816164E-02  0.1226708E+00
        -11   -1    0    0    0    0  0.00000000000E+00  0.00000000000E+00  0.45593999997E+02  0.45594000000E+02  0.51100000000E-03 0. -1.
         11   -1    0    0    0    0 -0.00000000000E+00 -0.00000000000E+00 -0.45593999997E+02  0.45594000000E+02  0.51100000000E-03 0.  1.
    9900012    2    1    2    0    0  0.22041300776E+00 -0.14796581942E+02 -0.11475574046E+02  0.72461649081E+02  0.70000102634E+02 0.  0.
         12    1    1    2    0    0 -0.22041300776E+00  0.14796581942E+02  0.11475574046E+02  0.18726350919E+02  0.00000000000E+00 0. -1.
         11    1    3    3    0    0  0.20576591316E+02 -0.76185291976E+01  0.56713506813E+00  0.21949025942E+02  0.51100000000E-03 0. -1.
        -11    1    3    3    0    0 -0.19333292760E+01  0.10621062823E+02 -0.20804793679E+02  0.23438945750E+02  0.51100000000E-03 0.  1.
         12    1    3    3    0    0 -0.18422849033E+02 -0.17799115567E+02  0.87620845655E+01  0.27073677389E+02  0.00000000000E+00 0. -1.
</event>
<event>
 7    1  0.2944263E-013  0.7246157E+02  0.7816164E-02  0.1226708E+00
        -11   -1    0    0    0    0  0.00000000000E+00  0.00000000000E+00  0.45593999997E+02  0.45594000000E+02  0.51100000000E-03 0.  1.
         11   -1    0    0    0    0 -0.00000000000E+00 -0.00000000000E+00 -0.45593999997E+02  0.45594000000E+02  0.51100000000E-03 0. -1.
    9900012    2    1    2    0    0  0.13356761979E+02  0.34798705779E+01  0.12655699169E+02  0.72461566510E+02  0.69999995070E+02 0.  0.
         12    1    1    2    0    0 -0.13356761979E+02 -0.34798705779E+01 -0.12655699169E+02  0.18726433490E+02  0.00000000000E+00 0. -1.
         11    1    3    3    0    0 -0.74383022073E+01  0.24655789089E+02 -0.50093778633E+01  0.26236046619E+02  0.51100000000E-03 0. -1.
        -11    1    3    3    0    0  0.11540642270E+02  0.66130868394E+01  0.38885661186E+01  0.13857860162E+02  0.51100000000E-03 0.  1.
         12    1    3    3    0    0  0.92544219161E+01 -0.27789005351E+02  0.13776510914E+02  0.32367659729E+02  0.00000000000E+00 0. -1.
</event>
<event>
 7    1  0.2944263E-013  0.7246155E+02  0.7816164E-02  0.1226708E+00
        -11   -1    0    0    0    0  0.00000000000E+00  0.00000000000E+00  0.45593999997E+02  0.45594000000E+02  0.51100000000E-03 0. -1.
         11   -1    0    0    0    0 -0.00000000000E+00 -0.00000000000E+00 -0.45593999997E+02  0.45594000000E+02  0.51100000000E-03 0.  1.
    9900012    2    1    2    0    0  0.40809843792E+00 -0.57501379784E+01 -0.17817107825E+02  0.72461549126E+02  0.69999972424E+02 0.  0.
         12    1    1    2    0    0 -0.40809843792E+00  0.57501379784E+01  0.17817107825E+02  0.18726450874E+02  0.00000000000E+00 0. -1.
         11    1    3    3    0    0  0.83532113235E+01  0.13803747976E+02 -0.10298394637E+02  0.19140964708E+02  0.51100000000E-03 0. -1.
        -11    1    3    3    0    0  0.16775158095E+02 -0.64630196880E+01 -0.16025598962E+02  0.24083113896E+02  0.51100000000E-03 0.  1.
        -12    1    3    3    0    0 -0.24720270980E+02 -0.13090866266E+02  0.85068857741E+01  0.29237470522E+02  0.00000000000E+00 0.  1.
</event>
<event>
 7    1  0.2944263E-013  0.7246156E+02  0.7816164E-02  0.1226708E+00
        -11   -1    0    0    0    0  0.00000000000E+00  0.00000000000E+00  0.45593999997E+02  0.45594000000E+02  0.51100000000E-03 0. -1.
         11   -1    0    0    0    0 -0.00000000000E+00 -0.00000000000E+00 -0.45593999997E+02  0.45594000000E+02  0.51100000000E-03 0.  1.
    9900012    2    1    2    0    0 -0.76221311687E+01 -0.16242720614E+02  0.53625343320E+01  0.72461557974E+02  0.69999983950E+02 0.  0.
         12    1    1    2    0    0  0.76221311687E+01  0.16242720614E+02 -0.53625343320E+01  0.18726442026E+02  0.00000000000E+00 0. -1.
         11    1    3    3    0    0 -0.97836150216E+01 -0.58833358220E+01  0.18448233315E+02  0.21694932035E+02  0.51100000000E-03 0. -1.
        -11    1    3    3    0    0 -0.10886379658E+02 -0.24175366902E+02 -0.16821634275E+02  0.31399506474E+02  0.51100000000E-03 0.  1.
        -12    1    3    3    0    0  0.13047863511E+02  0.13815982109E+02  0.37359352915E+01  0.19367119464E+02  0.00000000000E+00 0.  1.
</event>
<event>
 7    1  0.2944263E-013  0.7246158E+02  0.7816164E-02  0.1226708E+00
        -11   -1    0    0    0    0  0.00000000000E+00  0.00000000000E+00  0.45593999997E+02  0.45594000000E+02  0.51100000000E-03 0.  1.
         11   -1    0    0    0    0 -0.00000000000E+00 -0.00000000000E+00 -0.45593999997E+02  0.45594000000E+02  0.51100000000E-03 0. -1.
    9900012    2    1    2    0    0 -0.21224808784E+01  0.94680914013E+01  0.16016524974E+02  0.72461581440E+02  0.70000014519E+02 0.  0.
         12    1    1    2    0    0  0.21224808784E+01 -0.94680914013E+01 -0.16016524974E+02  0.18726418560E+02  0.00000000000E+00 0. -1.
         11    1    3    3    0    0 -0.15655465425E+02 -0.83838460319E+01 -0.14712937063E+02  0.23061938107E+02  0.51100000000E-03 0. -1.
        -11    1    3    3    0    0 -0.99617396264E+01  0.52702144312E+01  0.49122052160E+01  0.12293948791E+02  0.51100000000E-03 0.  1.
        -12    1    3    3    0    0  0.23494724173E+02  0.12581723002E+02  0.25817256821E+02  0.37105694542E+02  0.00000000000E+00 0.  1.
</event>
<event>
 7    1  0.2944263E-013  0.7246161E+02  0.7816164E-02  0.1226708E+00
        -11   -1    0    0    0    0  0.00000000000E+00  0.00000000000E+00  0.45593999997E+02  0.45594000000E+02  0.51100000000E-03 0. -1.
         11   -1    0    0    0    0 -0.00000000000E+00 -0.00000000000E+00 -0.45593999997E+02  0.45594000000E+02  0.51100000000E-03 0.  1.
    9900012    2    1    2    0    0 -0.63562128904E+01  0.25488003782E+01 -0.17429279328E+02  0.72461612106E+02  0.70000054467E+02 0.  0.
         12    1    1    2    0    0  0.63562128904E+01 -0.25488003782E+01  0.17429279328E+02  0.18726387894E+02  0.00000000000E+00 0. -1.
         11    1    3    3    0    0 -0.26513384885E+02 -0.10907520947E+02 -0.22529777685E+02  0.36462644913E+02  0.51100000000E-03 0. -1.
        -11    1    3    3    0    0  0.10094121361E+01  0.59460808406E+01  0.12710116376E+02  0.14068470023E+02  0.51100000000E-03 0.  1.
        -12    1    3    3    0    0  0.19147759858E+02  0.75102404845E+01 -0.76096180196E+01  0.21930497170E+02  0.00000000000E+00 0.  1.
</event>
<event>
 7    1  0.2944263E-013  0.7246156E+02  0.7816164E-02  0.1226708E+00
        -11   -1    0    0    0    0  0.00000000000E+00  0.00000000000E+00  0.45593999997E+02  0.45594000000E+02  0.51100000000E-03 0. -1.
         11   -1    0    0    0    0 -0.00000000000E+00 -0.00000000000E+00 -0.45593999997E+02  0.45594000000E+02  0.51100000000E-03 0.  1.
    9900012    2    1    2    0    0  0.13413596824E+02  0.11269699072E+02 -0.66142877749E+01  0.72461561479E+02  0.69999988516E+02 0.  0.
         12    1    1    2    0    0 -0.13413596824E+02 -0.11269699072E+02  0.66142877749E+01  0.18726438521E+02  0.00000000000E+00 0. -1.
         11    1    3    3    0    0 -0.19561055045E+01 -0.23056575430E+02  0.24944383599E+01  0.23273466487E+02  0.51100000000E-03 0. -1.
        -11    1    3    3    0    0  0.48323956064E+01 -0.53925993671E+01 -0.11544052790E+01  0.73324502753E+01  0.51100000000E-03 0.  1.
        -12    1    3    3    0    0  0.10537306722E+02  0.39718873869E+02 -0.79543208558E+01  0.41855644717E+02  0.00000000000E+00 0.  1.
</event>
<event>
 7    1  0.2944263E-013  0.7246157E+02  0.7816164E-02  0.1226708E+00
        -11   -1    0    0    0    0  0.00000000000E+00  0.00000000000E+00  0.45593999997E+02  0.45594000000E+02  0.51100000000E-03 0. -1.
         11   -1    0    0    0    0 -0.00000000000E+00 -0.00000000000E+00 -0.45593999997E+02  0.45594000000E+02  0.51100000000E-03 0.  1.
    9900012    2    1    2    0    0 -0.94382021408E+01 -0.16848773646E+01 -0.16086041583E+02  0.72461569342E+02  0.69999998759E+02 0.  0.
         12    1    1    2    0    0  0.94382021408E+01  0.16848773646E+01  0.16086041583E+02  0.18726430658E+02  0.00000000000E+00 0. -1.
         11    1    3    3    0    0  0.12957566224E+00 -0.64623927944E+00  0.14800558874E+02  0.14815227245E+02  0.51100000000E-03 0. -1.
        -11    1    3    3    0    0 -0.13409347566E+02  0.19529984721E+02 -0.47432104728E+01  0.24160483257E+02  0.51100000000E-03 0.  1.
        -12    1    3    3    0    0  0.38415697629E+01 -0.20568622806E+02 -0.26143389984E+02  0.33485858840E+02  0.00000000000E+00 0.  1.
</event>
<event>
 7    1  0.2944263E-013  0.7246158E+02  0.7816164E-02  0.1226708E+00
        -11   -1    0    0    0    0  0.00000000000E+00  0.00000000000E+00  0.45593999997E+02  0.45594000000E+02  0.51100000000E-03 0.  1.
         11   -1    0    0    0    0 -0.00000000000E+00 -0.00000000000E+00 -0.45593999997E+02  0.45594000000E+02  0.51100000000E-03 0. -1.
    9900012    2    1    2    0    0  0.13620784032E+02 -0.10981751653E+02  0.66749026309E+01  0.72461576098E+02  0.70000007561E+02 0.  0.
         12    1    1    2    0    0 -0.13620784032E+02  0.10981751653E+02 -0.66749026309E+01  0.18726423902E+02  0.00000000000E+00 0. -1.
         11    1    3    3    0    0  0.42116341043E+01  0.26128607074E+00  0.17011250732E+01  0.45497207623E+01  0.51100000000E-03 0. -1.
        -11    1    3    3    0    0 -0.39574663027E+01  0.60826350239E+01  0.32185281720E+02  0.32993216697E+02  0.51100000000E-03 0.  1.
         12    1    3    3    0    0  0.13366616230E+02 -0.17325672748E+02 -0.27211504162E+02  0.34918638639E+02  0.00000000000E+00 0. -1.
</event>
<event>
 7    1  0.2944263E-013  0.7246158E+02  0.7816164E-02  0.1226708E+00
        -11   -1    0    0    0    0  0.00000000000E+00  0.00000000000E+00  0.45593999997E+02  0.45594000000E+02  0.51100000000E-03 0.  1.
         11   -1    0    0    0    0 -0.00000000000E+00 -0.00000000000E+00 -0.45593999997E+02  0.45594000000E+02  0.51100000000E-03 0. -1.
    9900012    2    1    2    0    0 -0.21592092732E+00  0.17582377046E+02  0.64414476946E+01  0.72461578750E+02  0.70000011015E+02 0.  0.
         12    1    1    2    0    0  0.21592092732E+00 -0.17582377046E+02 -0.64414476946E+01  0.18726421250E+02  0.00000000000E+00 0. -1.
         11    1    3    3    0    0 -0.14949916739E+02  0.59751396090E+01 -0.24598809150E+02  0.29399042768E+02  0.51100000000E-03 0. -1.
        -11    1    3    3    0    0 -0.49249367008E+00 -0.35325965041E+01 -0.16667495803E+01  0.39369839345E+01  0.51100000000E-03 0.  1.
        -12    1    3    3    0    0  0.15226489482E+02  0.15139833941E+02  0.32707006425E+02  0.39125552047E+02  0.00000000000E+00 0.  1.
</event>
<event>
 7    1  0.2944263E-013  0.7246156E+02  0.7816164E-02  0.1226708E+00
        -11   -1    0    0    0    0  0.00000000000E+00  0.00000000000E+00  0.45593999997E+02  0.45594000000E+02  0.51100000000E-03 0.  1.
         11   -1    0    0    0    0 -0.00000000000E+00 -0.00000000000E+00 -0.45593999997E+02  0.45594000000E+02  0.51100000000E-03 0. -1.
    9900012    2    1    2    0    0  0.15788272043E+01  0.18491228748E+02  0.25022955038E+01  0.72461555630E+02  0.69999980897E+02 0.  0.
         12    1    1    2    0    0 -0.15788272043E+01 -0.18491228748E+02 -0.25022955038E+01  0.18726444370E+02  0.00000000000E+00 0. -1.
         11    1    3    3    0    0  0.45969680087E+01  0.21918521596E+01  0.36263236326E+01  0.62519240328E+01  0.51100000000E-03 0. -1.
        -11    1    3    3    0    0 -0.17771861303E+02 -0.22638565451E+00  0.25808582866E+02  0.31336452487E+02  0.51100000000E-03 0.  1.
         12    1    3    3    0    0  0.14753720499E+02  0.16525762243E+02 -0.26932610995E+02  0.34873179110E+02  0.00000000000E+00 0. -1.
</event>
<event>
 7    1  0.2944263E-013  0.7246151E+02  0.7816164E-02  0.1226708E+00
        -11   -1    0    0    0    0  0.00000000000E+00  0.00000000000E+00  0.45593999997E+02  0.45594000000E+02  0.51100000000E-03 0.  1.
         11   -1    0    0    0    0 -0.00000000000E+00 -0.00000000000E+00 -0.45593999997E+02  0.45594000000E+02  0.51100000000E-03 0. -1.
    9900012    2    1    2    0    0 -0.12078478435E+01 -0.15028258529E+02  0.11107387481E+02  0.72461507870E+02  0.69999918680E+02 0.  0.
         12    1    1    2    0    0  0.12078478435E+01  0.15028258529E+02 -0.11107387481E+02  0.18726492130E+02  0.00000000000E+00 0. -1.
         11    1    3    3    0    0  0.44427707235E+01  0.12313369831E+02  0.13311190929E+02  0.18669362402E+02  0.51100000000E-03 0. -1.
        -11    1    3    3    0    0 -0.15009597829E+02  0.43553413964E+01  0.10007917101E+02  0.18558432871E+02  0.51100000000E-03 0.  1.
         12    1    3    3    0    0  0.93589792621E+01 -0.31696969757E+02 -0.12211720548E+02  0.35233712597E+02  0.00000000000E+00 0. -1.
</event>
<event>
 7    1  0.2944263E-013  0.7246155E+02  0.7816164E-02  0.1226708E+00
        -11   -1    0    0    0    0  0.00000000000E+00  0.00000000000E+00  0.45593999997E+02  0.45594000000E+02  0.51100000000E-03 0. -1.
         11   -1    0    0    0    0 -0.00000000000E+00 -0.00000000000E+00 -0.45593999997E+02  0.45594000000E+02  0.51100000000E-03 0.  1.
    9900012    2    1    2    0    0 -0.26097584460E+01  0.17227397738E+02 -0.68619022607E+01  0.72461554139E+02  0.69999978954E+02 0.  0.
         12    1    1    2    0    0  0.26097584460E+01 -0.17227397738E+02  0.68619022607E+01  0.18726445861E+02  0.00000000000E+00 0. -1.
         11    1    3    3    0    0  0.67877284409E+01  0.18427109876E+02  0.76126328657E+01  0.21061429561E+02  0.51100000000E-03 0. -1.
        -11    1    3    3    0    0  0.12995172654E+02  0.93520203828E+01 -0.20413831511E+02  0.25943386725E+02  0.51100000000E-03 0.  1.
         12    1    3    3    0    0 -0.22392659541E+02 -0.10551732521E+02  0.59392963851E+01  0.25456737852E+02  0.00000000000E+00 0. -1.
</event>
<event>
 7    1  0.2944263E-013  0.7246153E+02  0.7816164E-02  0.1226708E+00
        -11   -1    0    0    0    0  0.00000000000E+00  0.00000000000E+00  0.45593999997E+02  0.45594000000E+02  0.51100000000E-03 0.  1.
         11   -1    0    0    0    0 -0.00000000000E+00 -0.00000000000E+00 -0.45593999997E+02  0.45594000000E+02  0.51100000000E-03 0. -1.
    9900012    2    1    2    0    0 -0.59267308851E+01 -0.11357751342E+01  0.17727505836E+02  0.72461532439E+02  0.69999950686E+02 0.  0.
         12    1    1    2    0    0  0.59267308851E+01  0.11357751342E+01 -0.17727505836E+02  0.18726467561E+02  0.00000000000E+00 0. -1.
         11    1    3    3    0    0 -0.28518917858E+02  0.11432854309E+02  0.70408149894E+01  0.31521610197E+02  0.51100000000E-03 0. -1.
        -11    1    3    3    0    0 -0.26147217887E+01 -0.46114564815E+01 -0.72605167393E+01  0.89898500820E+01  0.51100000000E-03 0.  1.
        -12    1    3    3    0    0  0.25206908762E+02 -0.79571729619E+01  0.17947207586E+02  0.31950072160E+02  0.00000000000E+00 0.  1.
</event>
<event>
 7    1  0.2944263E-013  0.7246160E+02  0.7816164E-02  0.1226708E+00
        -11   -1    0    0    0    0  0.00000000000E+00  0.00000000000E+00  0.45593999997E+02  0.45594000000E+02  0.51100000000E-03 0.  1.
         11   -1    0    0    0    0 -0.00000000000E+00 -0.00000000000E+00 -0.45593999997E+02  0.45594000000E+02  0.51100000000E-03 0. -1.
    9900012    2    1    2    0    0 -0.10672922987E+02 -0.60949908240E+00  0.15375154309E+02  0.72461597670E+02  0.70000035662E+02 0.  0.
         12    1    1    2    0    0  0.10672922987E+02  0.60949908240E+00 -0.15375154309E+02  0.18726402330E+02  0.00000000000E+00 0. -1.
         11    1    3    3    0    0 -0.12772670339E+02  0.72415387772E+01 -0.18241383920E+02  0.23416427546E+02  0.51100000000E-03 0. -1.
        -11    1    3    3    0    0 -0.34590283806E+01  0.48690160244E+01 -0.51385963800E+01  0.78789191773E+01  0.51100000000E-03 0.  1.
        -12    1    3    3    0    0  0.55587757328E+01 -0.12720053884E+02  0.38755134609E+02  0.41166250947E+02  0.00000000000E+00 0.  1.
</event>
<event>
 7    1  0.2944263E-013  0.7246161E+02  0.7816164E-02  0.1226708E+00
        -11   -1    0    0    0    0  0.00000000000E+00  0.00000000000E+00  0.45593999997E+02  0.45594000000E+02  0.51100000000E-03 0. -1.
         11   -1    0    0    0    0 -0.00000000000E+00 -0.00000000000E+00 -0.45593999997E+02  0.45594000000E+02  0.51100000000E-03 0.  1.
    9900012    2    1    2    0    0  0.99801438545E+01  0.14191000430E+02 -0.70491116313E+01  0.72461608480E+02  0.70000049744E+02 0.  0.
         12    1    1    2    0    0 -0.99801438545E+01 -0.14191000430E+02  0.70491116313E+01  0.18726391520E+02  0.00000000000E+00 0. -1.
         11    1    3    3    0    0 -0.33038431918E+01  0.10216482594E+02  0.10702445363E+02  0.15160284742E+02  0.51100000000E-03 0. -1.
        -11    1    3    3    0    0 -0.18899760785E+02  0.84673900217E+01 -0.13020612808E+02  0.24462910899E+02  0.51100000000E-03 0.  1.
         12    1    3    3    0    0  0.32183747831E+02 -0.44928721855E+01 -0.47309441870E+01  0.32838412840E+02  0.00000000000E+00 0. -1.
</event>
<event>
 7    1  0.2944263E-013  0.7246159E+02  0.7816164E-02  0.1226708E+00
        -11   -1    0    0    0    0  0.00000000000E+00  0.00000000000E+00  0.45593999997E+02  0.45594000000E+02  0.51100000000E-03 0. -1.
         11   -1    0    0    0    0 -0.00000000000E+00 -0.00000000000E+00 -0.45593999997E+02  0.45594000000E+02  0.51100000000E-03 0.  1.
    9900012    2    1    2    0    0  0.11389162136E+02  0.31426503479E+00 -0.14861585625E+02  0.72461588065E+02  0.70000023149E+02 0.  0.
         12    1    1    2    0    0 -0.11389162136E+02 -0.31426503479E+00  0.14861585625E+02  0.18726411935E+02  0.00000000000E+00 0. -1.
         11    1    3    3    0    0  0.12410886330E+02  0.63742768530E+01 -0.97996479631E+01  0.17049768484E+02  0.51100000000E-03 0. -1.
        -11    1    3    3    0    0 -0.26175374269E+02 -0.73877335193E+01 -0.11316382268E+02  0.29458264249E+02  0.51100000000E-03 0.  1.
         12    1    3    3    0    0  0.25153650075E+02  0.13277217011E+01  0.62544446060E+01  0.25953555332E+02  0.00000000000E+00 0. -1.
</event>
<event>
 7    1  0.2944263E-013  0.7246158E+02  0.7816164E-02  0.1226708E+00
        -11   -1    0    0    0    0  0.00000000000E+00  0.00000000000E+00  0.45593999997E+02  0.45594000000E+02  0.51100000000E-03 0.  1.
         11   -1    0    0    0    0 -0.00000000000E+00 -0.00000000000E+00 -0.45593999997E+02  0.45594000000E+02  0.51100000000E-03 0. -1.
    9900012    2    1    2    0    0 -0.56211765498E+01 -0.30828710485E+00  0.17860183917E+02  0.72461579191E+02  0.70000011590E+02 0.  0.
         12    1    1    2    0    0  0.56211765498E+01  0.30828710485E+00 -0.17860183917E+02  0.18726420809E+02  0.00000000000E+00 0. -1.
         11    1    3    3    0    0  0.68784424082E+00 -0.79658958696E+00 -0.74982915460E+00  0.12922572081E+01  0.51100000000E-03 0. -1.
        -11    1    3    3    0    0 -0.15359570862E+02 -0.21401693547E+02  0.33932938400E+02  0.42958040138E+02  0.51100000000E-03 0.  1.
         12    1    3    3    0    0  0.90505500710E+01  0.21889996029E+02 -0.15322925328E+02  0.28211281845E+02  0.00000000000E+00 0. -1.
</event>
<event>
 7    1  0.2944263E-013  0.7246144E+02  0.7816164E-02  0.1226708E+00
        -11   -1    0    0    0    0  0.00000000000E+00  0.00000000000E+00  0.45593999997E+02  0.45594000000E+02  0.51100000000E-03 0. -1.
         11   -1    0    0    0    0 -0.00000000000E+00 -0.00000000000E+00 -0.45593999997E+02  0.45594000000E+02  0.51100000000E-03 0.  1.
    9900012    2    1    2    0    0  0.36648543123E+01  0.18363609192E+02  0.17572704410E+00  0.72461436522E+02  0.69999825737E+02 0.  0.
         12    1    1    2    0    0 -0.36648543123E+01 -0.18363609192E+02 -0.17572704410E+00  0.18726563478E+02  0.00000000000E+00 0. -1.
         11    1    3    3    0    0 -0.15425824938E+02  0.91270608082E+01  0.26992857375E+02  0.32401754020E+02  0.51100000000E-03 0. -1.
        -11    1    3    3    0    0  0.32823303363E+01  0.11058800876E+02 -0.39351151518E+01  0.12188351027E+02  0.51100000000E-03 0.  1.
        -12    1    3    3    0    0  0.15808348914E+02 -0.18222524921E+01 -0.22882015179E+02  0.27871331475E+02  0.00000000000E+00 0.  1.
</event>
<event>
 7    1  0.2944263E-013  0.7246153E+02  0.7816164E-02  0.1226708E+00
        -11   -1    0    0    0    0  0.00000000000E+00  0.00000000000E+00  0.45593999997E+02  0.45594000000E+02  0.51100000000E-03 0.  1.
         11   -1    0    0    0    0 -0.00000000000E+00 -0.00000000000E+00 -0.45593999997E+02  0.45594000000E+02  0.51100000000E-03 0. -1.
    9900012    2    1    2    0    0  0.16711081766E+02  0.22939062071E+00  0.84479572776E+01  0.72461525265E+02  0.69999941341E+02 0.  0.
         12    1    1    2    0    0 -0.16711081766E+02 -0.22939062071E+00 -0.84479572776E+01  0.18726474735E+02  0.00000000000E+00 0. -1.
         11    1    3    3    0    0  0.11726327412E+01 -0.68133518259E+01 -0.53343205495E+01  0.87322280453E+01  0.51100000000E-03 0. -1.
        -11    1    3    3    0    0  0.33760785753E+02  0.20106334490E+02  0.12646209331E+02  0.41279316273E+02  0.51100000000E-03 0.  1.
         12    1    3    3    0    0 -0.18222336728E+02 -0.13063592043E+02  0.11360684961E+01  0.22449980947E+02  0.00000000000E+00 0. -1.
</event>
<event>
 7    1  0.2944263E-013  0.7246154E+02  0.7816164E-02  0.1226708E+00
        -11   -1    0    0    0    0  0.00000000000E+00  0.00000000000E+00  0.45593999997E+02  0.45594000000E+02  0.51100000000E-03 0.  1.
         11   -1    0    0    0    0 -0.00000000000E+00 -0.00000000000E+00 -0.45593999997E+02  0.45594000000E+02  0.51100000000E-03 0. -1.
    9900012    2    1    2    0    0  0.16629307010E+02 -0.85081896046E+01 -0.13256237352E+01  0.72461536899E+02  0.69999956497E+02 0.  0.
         12    1    1    2    0    0 -0.16629307010E+02  0.85081896046E+01  0.13256237352E+01  0.18726463101E+02  0.00000000000E+00 0. -1.
         11    1    3    3    0    0 -0.15515076368E+02 -0.25886530516E+01 -0.24286139052E+01  0.15915931801E+02  0.51100000000E-03 0.  1.
        -11    1    3    3    0    0  0.11650587819E+02  0.53326230447E+01  0.21822572727E+02  0.25306081201E+02  0.51100000000E-03 0. -1.
         12    1    3    3    0    0  0.20493795559E+02 -0.11252159598E+02 -0.20719582557E+02  0.31239523898E+02  0.00000000000E+00 0. -1.
</event>
<event>
 7    1  0.2944263E-013  0.7246143E+02  0.7816164E-02  0.1226708E+00
        -11   -1    0    0    0    0  0.00000000000E+00  0.00000000000E+00  0.45593999997E+02  0.45594000000E+02  0.51100000000E-03 0. -1.
         11   -1    0    0    0    0 -0.00000000000E+00 -0.00000000000E+00 -0.45593999997E+02  0.45594000000E+02  0.51100000000E-03 0.  1.
    9900012    2    1    2    0    0  0.16438835827E+02  0.82546138708E+01 -0.35086333841E+01  0.72461428458E+02  0.69999815231E+02 0.  0.
         12    1    1    2    0    0 -0.16438835827E+02 -0.82546138708E+01  0.35086333841E+01  0.18726571542E+02  0.00000000000E+00 0. -1.
         11    1    3    3    0    0 -0.47869478449E+01 -0.22464129675E+02  0.25088233144E+01  0.23105111695E+02  0.51100000000E-03 0. -1.
        -11    1    3    3    0    0  0.11888970481E+02 -0.30814555880E+01  0.39495979942E+01  0.12901252351E+02  0.51100000000E-03 0.  1.
        -12    1    3    3    0    0  0.93368131912E+01  0.33800199134E+02 -0.99670546928E+01  0.36455064412E+02  0.00000000000E+00 0.  1.
</event>
<event>
 7    1  0.2944263E-013  0.7246168E+02  0.7816164E-02  0.1226708E+00
        -11   -1    0    0    0    0  0.00000000000E+00  0.00000000000E+00  0.45593999997E+02  0.45594000000E+02  0.51100000000E-03 0. -1.
         11   -1    0    0    0    0 -0.00000000000E+00 -0.00000000000E+00 -0.45593999997E+02  0.45594000000E+02  0.51100000000E-03 0.  1.
    9900012    2    1    2    0    0 -0.12303999416E+02 -0.11302004463E+02 -0.84588108167E+01  0.72461676630E+02  0.70000138522E+02 0.  0.
         12    1    1    2    0    0  0.12303999416E+02  0.11302004463E+02  0.84588108167E+01  0.18726323370E+02  0.00000000000E+00 0. -1.
         11    1    3    3    0    0 -0.48959564363E+01  0.84750378343E+01  0.20538117602E+02  0.22751064384E+02  0.51100000000E-03 0. -1.
        -11    1    3    3    0    0  0.10342409071E+02 -0.11327058710E+02 -0.25478356643E+02  0.29739104592E+02  0.51100000000E-03 0.  1.
         12    1    3    3    0    0 -0.17750452051E+02 -0.84499835871E+01 -0.35185717757E+01  0.19971507654E+02  0.00000000000E+00 0. -1.
</event>
<event>
 7    1  0.2944263E-013  0.7246131E+02  0.7816164E-02  0.1226709E+00
        -11   -1    0    0    0    0  0.00000000000E+00  0.00000000000E+00  0.45593999997E+02  0.45594000000E+02  0.51100000000E-03 0. -1.
         11   -1    0    0    0    0 -0.00000000000E+00 -0.00000000000E+00 -0.45593999997E+02  0.45594000000E+02  0.51100000000E-03 0.  1.
    9900012    2    1    2    0    0 -0.17920604578E+02  0.38625422245E+01  0.38238433359E+01  0.72461305718E+02  0.69999655340E+02 0.  0.
         12    1    1    2    0    0  0.17920604578E+02 -0.38625422245E+01 -0.38238433359E+01  0.18726694282E+02  0.00000000000E+00 0. -1.
         11    1    3    3    0    0 -0.19986768446E+02 -0.35204786745E+01 -0.12788283941E+02  0.23987598659E+02  0.51100000000E-03 0. -1.
        -11    1    3    3    0    0 -0.77378815743E+01  0.24002371587E+02  0.14429240098E+02  0.29054975876E+02  0.51100000000E-03 0.  1.
         12    1    3    3    0    0  0.98040454422E+01 -0.16619350688E+02  0.21828871795E+01  0.19418731183E+02  0.00000000000E+00 0. -1.
</event>
<event>
 7    1  0.2944263E-013  0.7246156E+02  0.7816164E-02  0.1226708E+00
        -11   -1    0    0    0    0  0.00000000000E+00  0.00000000000E+00  0.45593999997E+02  0.45594000000E+02  0.51100000000E-03 0. -1.
         11   -1    0    0    0    0 -0.00000000000E+00 -0.00000000000E+00 -0.45593999997E+02  0.45594000000E+02  0.51100000000E-03 0.  1.
    9900012    2    1    2    0    0 -0.17199417992E+01  0.15489438021E+02 -0.10382620115E+02  0.72461556385E+02  0.69999981881E+02 0.  0.
         12    1    1    2    0    0  0.17199417992E+01 -0.15489438021E+02  0.10382620115E+02  0.18726443615E+02  0.00000000000E+00 0. -1.
         11    1    3    3    0    0  0.10842159065E+02  0.21947120788E+02  0.18217402176E+02  0.30513968381E+02  0.51100000000E-03 0. -1.
        -11    1    3    3    0    0 -0.29425751217E+00 -0.40112245055E+01  0.48114577431E+01  0.62710952306E+01  0.51100000000E-03 0.  1.
        -12    1    3    3    0    0 -0.12267843352E+02 -0.24464582611E+01 -0.33411480034E+02  0.35676492773E+02  0.00000000000E+00 0.  1.
</event>
<event>
 7    1  0.2944263E-013  0.7246157E+02  0.7816164E-02  0.1226708E+00
        -11   -1    0    0    0    0  0.00000000000E+00  0.00000000000E+00  0.45593999997E+02  0.45594000000E+02  0.51100000000E-03 0. -1.
         11   -1    0    0    0    0 -0.00000000000E+00 -0.00000000000E+00 -0.45593999997E+02  0.45594000000E+02  0.51100000000E-03 0.  1.
    9900012    2    1    2    0    0 -0.14453224280E+02 -0.11865157789E+02 -0.10007064256E+01  0.72461572823E+02  0.70000003294E+02 0.  0.
         12    1    1    2    0    0  0.14453224280E+02  0.11865157789E+02  0.10007064256E+01  0.18726427177E+02  0.00000000000E+00 0. -1.
         11    1    3    3    0    0  0.26180606917E+01 -0.67058936739E+01 -0.12969875077E+02  0.14833776038E+02  0.51100000000E-03 0. -1.
        -11    1    3    3    0    0 -0.29258995153E+02 -0.52282946539E+01 -0.10945254078E+02  0.31673687020E+02  0.51100000000E-03 0.  1.
         12    1    3    3    0    0  0.12187710182E+02  0.69030538541E-01  0.22914422729E+02  0.25954109765E+02  0.00000000000E+00 0. -1.
</event>
<event>
 7    1  0.2944263E-013  0.7246155E+02  0.7816164E-02  0.1226708E+00
        -11   -1    0    0    0    0  0.00000000000E+00  0.00000000000E+00  0.45593999997E+02  0.45594000000E+02  0.51100000000E-03 0. -1.
         11   -1    0    0    0    0 -0.00000000000E+00 -0.00000000000E+00 -0.45593999997E+02  0.45594000000E+02  0.51100000000E-03 0.  1.
    9900012    2    1    2    0    0  0.11460553593E+02 -0.23149054527E+01 -0.14627947187E+02  0.72461550395E+02  0.69999974077E+02 0.  0.
         12    1    1    2    0    0 -0.11460553593E+02  0.23149054527E+01  0.14627947187E+02  0.18726449605E+02  0.00000000000E+00 0. -1.
         11    1    3    3    0    0 -0.31118071944E+01 -0.18720205225E+02  0.12335281200E+02  0.22633793103E+02  0.51100000000E-03 0. -1.
        -11    1    3    3    0    0 -0.30896544525E+01 -0.87873138247E+01 -0.13118812675E+02  0.16089316181E+02  0.51100000000E-03 0.  1.
        -12    1    3    3    0    0  0.17662015240E+02  0.25192613597E+02 -0.13844415712E+02  0.33738441111E+02  0.00000000000E+00 0.  1.
</event>
<event>
 7    1  0.2944263E-013  0.7246153E+02  0.7816164E-02  0.1226708E+00
        -11   -1    0    0    0    0  0.00000000000E+00  0.00000000000E+00  0.45593999997E+02  0.45594000000E+02  0.51100000000E-03 0. -1.
         11   -1    0    0    0    0 -0.00000000000E+00 -0.00000000000E+00 -0.45593999997E+02  0.45594000000E+02  0.51100000000E-03 0.  1.
    9900012    2    1    2    0    0 -0.95820367564E+01 -0.76742510900E+01 -0.14141114384E+02  0.72461530119E+02  0.69999947664E+02 0.  0.
         12    1    1    2    0    0  0.95820367564E+01  0.76742510900E+01  0.14141114384E+02  0.18726469881E+02  0.00000000000E+00 0. -1.
         11    1    3    3    0    0  0.10644173754E+01  0.69916973956E+01 -0.11129591075E+02  0.13186531560E+02  0.51100000000E-03 0. -1.
        -11    1    3    3    0    0  0.13416902232E+02  0.14578790174E+02 -0.73991975536E+01  0.21149527492E+02  0.51100000000E-03 0.  1.
         12    1    3    3    0    0 -0.24063356364E+02 -0.29244738660E+02  0.43876742452E+01  0.38125471067E+02  0.00000000000E+00 0. -1.
</event>
<event>
 7    1  0.2944263E-013  0.7246156E+02  0.7816164E-02  0.1226708E+00
        -11   -1    0    0    0    0  0.00000000000E+00  0.00000000000E+00  0.45593999997E+02  0.45594000000E+02  0.51100000000E-03 0. -1.
         11   -1    0    0    0    0 -0.00000000000E+00 -0.00000000000E+00 -0.45593999997E+02  0.45594000000E+02  0.51100000000E-03 0.  1.
    9900012    2    1    2    0    0  0.12494396656E+02 -0.72527947010E+00  0.13929952793E+02  0.72461559791E+02  0.69999986317E+02 0.  0.
         12    1    1    2    0    0 -0.12494396656E+02  0.72527947010E+00 -0.13929952793E+02  0.18726440209E+02  0.00000000000E+00 0. -1.
         11    1    3    3    0    0  0.25788105467E+01  0.34193763308E+01  0.27192331422E+02  0.27527536881E+02  0.51100000000E-03 0. -1.
        -11    1    3    3    0    0 -0.10840925903E+02 -0.14896274899E+02 -0.79348065337E+00  0.18440561058E+02  0.51100000000E-03 0.  1.
        -12    1    3    3    0    0  0.20756512013E+02  0.10751619098E+02 -0.12468897976E+02  0.26493461852E+02  0.00000000000E+00 0.  1.
</event>
<event>
 7    1  0.2944263E-013  0.7246157E+02  0.7816164E-02  0.1226708E+00
        -11   -1    0    0    0    0  0.00000000000E+00  0.00000000000E+00  0.45593999997E+02  0.45594000000E+02  0.51100000000E-03 0.  1.
         11   -1    0    0    0    0 -0.00000000000E+00 -0.00000000000E+00 -0.45593999997E+02  0.45594000000E+02  0.51100000000E-03 0. -1.
    9900012    2    1    2    0    0  0.24614626758E+01  0.13523656677E+02  0.12717358492E+02  0.72461566932E+02  0.69999995620E+02 0.  0.
         12    1    1    2    0    0 -0.24614626758E+01 -0.13523656677E+02 -0.12717358492E+02  0.18726433068E+02  0.00000000000E+00 0. -1.
         11    1    3    3    0    0 -0.92361374666E+01  0.13296665097E+02 -0.10270382548E+02  0.19172592312E+02  0.51100000000E-03 0. -1.
        -11    1    3    3    0    0 -0.75916420892E+01  0.12130169250E+02  0.26726574984E+02  0.30316395668E+02  0.51100000000E-03 0.  1.
         12    1    3    3    0    0  0.19289242232E+02 -0.11903177670E+02 -0.37388339439E+01  0.22972578953E+02  0.00000000000E+00 0. -1.
</event>
<event>
 7    1  0.2944263E-013  0.7246154E+02  0.7816164E-02  0.1226708E+00
        -11   -1    0    0    0    0  0.00000000000E+00  0.00000000000E+00  0.45593999997E+02  0.45594000000E+02  0.51100000000E-03 0. -1.
         11   -1    0    0    0    0 -0.00000000000E+00 -0.00000000000E+00 -0.45593999997E+02  0.45594000000E+02  0.51100000000E-03 0.  1.
    9900012    2    1    2    0    0 -0.11062839168E+02  0.79634710607E+01 -0.12840438873E+02  0.72461544056E+02  0.69999965819E+02 0.  0.
         12    1    1    2    0    0  0.11062839168E+02 -0.79634710607E+01  0.12840438873E+02  0.18726455944E+02  0.00000000000E+00 0. -1.
         11    1    3    3    0    0 -0.12355937548E+02 -0.93272653503E+01 -0.12565061875E+02  0.19938602052E+02  0.51100000000E-03 0. -1.
        -11    1    3    3    0    0 -0.15110592748E+02 -0.47699484212E+00  0.17040746320E+02  0.22780354973E+02  0.51100000000E-03 0.  1.
        -12    1    3    3    0    0  0.16403691128E+02  0.17767731253E+02 -0.17316123318E+02  0.29742587031E+02  0.00000000000E+00 0.  1.
</event>
<event>
 7    1  0.2944263E-013  0.7246156E+02  0.7816164E-02  0.1226708E+00
        -11   -1    0    0    0    0  0.00000000000E+00  0.00000000000E+00  0.45593999997E+02  0.45594000000E+02  0.51100000000E-03 0.  1.
         11   -1    0    0    0    0 -0.00000000000E+00 -0.00000000000E+00 -0.45593999997E+02  0.45594000000E+02  0.51100000000E-03 0. -1.
    9900012    2    1    2    0    0 -0.54333357665E+01  0.77795194093E+01  0.16144276284E+02  0.72461555689E+02  0.69999980974E+02 0.  0.
         12    1    1    2    0    0  0.54333357665E+01 -0.77795194093E+01 -0.16144276284E+02  0.18726444311E+02  0.00000000000E+00 0. -1.
         11    1    3    3    0    0  0.16440940735E+02  0.34419930493E+01  0.14435206261E+02  0.22147844781E+02  0.51100000000E-03 0. -1.
        -11    1    3    3    0    0  0.56926888906E+01 -0.15113850506E+02  0.35087259044E+01  0.16527139549E+02  0.51100000000E-03 0.  1.
         12    1    3    3    0    0 -0.27566965392E+02  0.19451376866E+02 -0.17996558805E+01  0.33786571359E+02  0.00000000000E+00 0. -1.
</event>
<event>
 7    1  0.2944263E-013  0.7246155E+02  0.7816164E-02  0.1226708E+00
        -11   -1    0    0    0    0  0.00000000000E+00  0.00000000000E+00  0.45593999997E+02  0.45594000000E+02  0.51100000000E-03 0. -1.
         11   -1    0    0    0    0 -0.00000000000E+00 -0.00000000000E+00 -0.45593999997E+02  0.45594000000E+02  0.51100000000E-03 0.  1.
    9900012    2    1    2    0    0 -0.13461638607E+02  0.10788941686E+02 -0.72844227863E+01  0.72461553674E+02  0.69999978348E+02 0.  0.
         12    1    1    2    0    0  0.13461638607E+02 -0.10788941686E+02  0.72844227863E+01  0.18726446326E+02  0.00000000000E+00 0. -1.
         11    1    3    3    0    0 -0.17946336635E+02  0.21565168055E+01  0.16473483407E+02  0.24456026234E+02  0.51100000000E-03 0. -1.
        -11    1    3    3    0    0 -0.14521221057E+02  0.11681211216E+02 -0.16759715816E+01  0.18711639091E+02  0.51100000000E-03 0.  1.
        -12    1    3    3    0    0  0.19005919085E+02 -0.30487863360E+01 -0.22081934612E+02  0.29293888349E+02  0.00000000000E+00 0.  1.
</event>
<event>
 7    1  0.2944263E-013  0.7246147E+02  0.7816164E-02  0.1226708E+00
        -11   -1    0    0    0    0  0.00000000000E+00  0.00000000000E+00  0.45593999997E+02  0.45594000000E+02  0.51100000000E-03 0.  1.
         11   -1    0    0    0    0 -0.00000000000E+00 -0.00000000000E+00 -0.45593999997E+02  0.45594000000E+02  0.51100000000E-03 0. -1.
    9900012    2    1    2    0    0  0.14828353526E+02  0.25905405564E+01  0.11139650039E+02  0.72461474117E+02  0.69999874711E+02 0.  0.
         12    1    1    2    0    0 -0.14828353526E+02 -0.25905405564E+01 -0.11139650039E+02  0.18726525883E+02  0.00000000000E+00 0. -1.
         11    1    3    3    0    0 -0.92700440019E+01 -0.20978479985E+01 -0.13027138370E+02  0.16125787311E+02  0.51100000000E-03 0. -1.
        -11    1    3    3    0    0 -0.62986497676E+01 -0.19203947617E+01 -0.88121228771E+01  0.11000655199E+02  0.51100000000E-03 0.  1.
        -12    1    3    3    0    0  0.30397047296E+02  0.66087833167E+01  0.32978911286E+02  0.45335031607E+02  0.00000000000E+00 0.  1.
</event>
<event>
 7    1  0.2944263E-013  0.7246153E+02  0.7816164E-02  0.1226708E+00
        -11   -1    0    0    0    0  0.00000000000E+00  0.00000000000E+00  0.45593999997E+02  0.45594000000E+02  0.51100000000E-03 0. -1.
         11   -1    0    0    0    0 -0.00000000000E+00 -0.00000000000E+00 -0.45593999997E+02  0.45594000000E+02  0.51100000000E-03 0.  1.
    9900012    2    1    2    0    0  0.60309688511E+01 -0.14688362134E+02 -0.99277522622E+01  0.72461525894E+02  0.69999942161E+02 0.  0.
         12    1    1    2    0    0 -0.60309688511E+01  0.14688362134E+02  0.99277522622E+01  0.18726474106E+02  0.00000000000E+00 0. -1.
         11    1    3    3    0    0 -0.68109706456E+01  0.15087934080E+02 -0.30470929213E+01  0.16832107754E+02  0.51100000000E-03 0. -1.
        -11    1    3    3    0    0 -0.14946987148E+02 -0.93389216541E+01  0.62785411644E+01  0.18709568725E+02  0.51100000000E-03 0.  1.
         12    1    3    3    0    0  0.27788926644E+02 -0.20437374559E+02 -0.13159200505E+02  0.36919849415E+02  0.00000000000E+00 0. -1.
</event>
<event>
 7    1  0.2944263E-013  0.7246149E+02  0.7816164E-02  0.1226708E+00
        -11   -1    0    0    0    0  0.00000000000E+00  0.00000000000E+00  0.45593999997E+02  0.45594000000E+02  0.51100000000E-03 0.  1.
         11   -1    0    0    0    0 -0.00000000000E+00 -0.00000000000E+00 -0.45593999997E+02  0.45594000000E+02  0.51100000000E-03 0. -1.
    9900012    2    1    2    0    0  0.57508247329E+01 -0.83426815398E+01  0.15748333531E+02  0.72461485925E+02  0.69999890094E+02 0.  0.
         12    1    1    2    0    0 -0.57508247329E+01  0.83426815398E+01 -0.15748333531E+02  0.18726514075E+02  0.00000000000E+00 0. -1.
         11    1    3    3    0    0  0.40835747271E+01 -0.28347670310E+02 -0.13645893374E+01  0.28672776268E+02  0.51100000000E-03 0. -1.
        -11    1    3    3    0    0  0.71592323562E+01 -0.73479861779E+01 -0.13300364958E+01  0.10344878257E+02  0.51100000000E-03 0.  1.
        -12    1    3    3    0    0 -0.54919823505E+01  0.27352974948E+02  0.18442959364E+02  0.33443831401E+02  0.00000000000E+00 0.  1.
</event>
<event>
 7    1  0.2944263E-013  0.7246153E+02  0.7816164E-02  0.1226708E+00
        -11   -1    0    0    0    0  0.00000000000E+00  0.00000000000E+00  0.45593999997E+02  0.45594000000E+02  0.51100000000E-03 0.  1.
         11   -1    0    0    0    0 -0.00000000000E+00 -0.00000000000E+00 -0.45593999997E+02  0.45594000000E+02  0.51100000000E-03 0. -1.
    9900012    2    1    2    0    0 -0.11668452379E+02  0.13779860032E+02  0.49642205528E+01  0.72461526517E+02  0.69999942972E+02 0.  0.
         12    1    1    2    0    0  0.11668452379E+02 -0.13779860032E+02 -0.49642205528E+01  0.18726473483E+02  0.00000000000E+00 0. -1.
         11    1    3    3    0    0  0.29437420321E+01 -0.38898360512E+01 -0.11401423384E+01  0.50096273783E+01  0.51100000000E-03 0. -1.
        -11    1    3    3    0    0 -0.36956412325E+02  0.22117756596E+01  0.13310339176E+02  0.39342515079E+02  0.51100000000E-03 0.  1.
         12    1    3    3    0    0  0.22344217914E+02  0.15457920423E+02 -0.72059762850E+01  0.28109384060E+02  0.00000000000E+00 0. -1.
</event>
<event>
 7    1  0.2944263E-013  0.7246158E+02  0.7816164E-02  0.1226708E+00
        -11   -1    0    0    0    0  0.00000000000E+00  0.00000000000E+00  0.45593999997E+02  0.45594000000E+02  0.51100000000E-03 0.  1.
         11   -1    0    0    0    0 -0.00000000000E+00 -0.00000000000E+00 -0.45593999997E+02  0.45594000000E+02  0.51100000000E-03 0. -1.
    9900012    2    1    2    0    0 -0.21168576070E+01 -0.14028234704E+02  0.12223191833E+02  0.72461578195E+02  0.70000010292E+02 0.  0.
         12    1    1    2    0    0  0.21168576070E+01  0.14028234704E+02 -0.12223191833E+02  0.18726421805E+02  0.00000000000E+00 0. -1.
         11    1    3    3    0    0  0.86343929907E+01 -0.22702411296E+02  0.10203968418E+02  0.26345268887E+02  0.51100000000E-03 0.  1.
        -11    1    3    3    0    0  0.15559445271E+02  0.22612089846E+01 -0.74880778331E+01  0.17414956593E+02  0.51100000000E-03 0. -1.
        -12    1    3    3    0    0 -0.26310695869E+02  0.64129676078E+01  0.95073012483E+01  0.28701352715E+02  0.00000000000E+00 0.  1.
</event>
<event>
 7    1  0.2944263E-013  0.7246161E+02  0.7816164E-02  0.1226708E+00
        -11   -1    0    0    0    0  0.00000000000E+00  0.00000000000E+00  0.45593999997E+02  0.45594000000E+02  0.51100000000E-03 0. -1.
         11   -1    0    0    0    0 -0.00000000000E+00 -0.00000000000E+00 -0.45593999997E+02  0.45594000000E+02  0.51100000000E-03 0.  1.
    9900012    2    1    2    0    0  0.15729046824E+02 -0.88958339686E+01  0.49131473678E+01  0.72461607047E+02  0.70000047877E+02 0.  0.
         12    1    1    2    0    0 -0.15729046824E+02  0.88958339686E+01 -0.49131473678E+01  0.18726392953E+02  0.00000000000E+00 0. -1.
         11    1    3    3    0    0  0.16135853553E+01 -0.17354115919E+01  0.20097866397E+01  0.31071777694E+01  0.51100000000E-03 0. -1.
        -11    1    3    3    0    0  0.26442419194E+02 -0.28209135106E+02  0.15792821504E+02  0.41765656317E+02  0.51100000000E-03 0.  1.
         12    1    3    3    0    0 -0.12326957725E+02  0.21048712730E+02 -0.12889460776E+02  0.27588772960E+02  0.00000000000E+00 0. -1.
</event>
<event>
 7    1  0.2944263E-013  0.7246159E+02  0.7816164E-02  0.1226708E+00
        -11   -1    0    0    0    0  0.00000000000E+00  0.00000000000E+00  0.45593999997E+02  0.45594000000E+02  0.51100000000E-03 0.  1.
         11   -1    0    0    0    0 -0.00000000000E+00 -0.00000000000E+00 -0.45593999997E+02  0.45594000000E+02  0.51100000000E-03 0. -1.
    9900012    2    1    2    0    0 -0.13358912838E+02 -0.74640897996E+01  0.10793765321E+02  0.72461586607E+02  0.70000021251E+02 0.  0.
         12    1    1    2    0    0  0.13358912838E+02  0.74640897996E+01 -0.10793765321E+02  0.18726413393E+02  0.00000000000E+00 0. -1.
         11    1    3    3    0    0  0.11306824440E+02 -0.57338599638E+01 -0.15242468327E+00  0.12678511843E+02  0.51100000000E-03 0. -1.
        -11    1    3    3    0    0 -0.11262640386E+02  0.23935673953E+02  0.15213015556E+02  0.30515559942E+02  0.51100000000E-03 0.  1.
         12    1    3    3    0    0 -0.13403096892E+02 -0.25665903788E+02 -0.42668255519E+01  0.29267514822E+02  0.00000000000E+00 0. -1.
</event>
<event>
 7    1  0.2944263E-013  0.7246159E+02  0.7816164E-02  0.1226708E+00
        -11   -1    0    0    0    0  0.00000000000E+00  0.00000000000E+00  0.45593999997E+02  0.45594000000E+02  0.51100000000E-03 0.  1.
         11   -1    0    0    0    0 -0.00000000000E+00 -0.00000000000E+00 -0.45593999997E+02  0.45594000000E+02  0.51100000000E-03 0. -1.
    9900012    2    1    2    0    0 -0.68726471102E+01  0.45927275161E+01  0.16803327968E+02  0.72461594708E+02  0.70000031804E+02 0.  0.
         12    1    1    2    0    0  0.68726471102E+01 -0.45927275161E+01 -0.16803327968E+02  0.18726405292E+02  0.00000000000E+00 0. -1.
         11    1    3    3    0    0 -0.27569291275E+02  0.16636970330E+02  0.21976365670E+01  0.32275132996E+02  0.51100000000E-03 0. -1.
        -11    1    3    3    0    0  0.38712886037E+01  0.30046425064E+00  0.18547146947E+02  0.18949243107E+02  0.51100000000E-03 0.  1.
        -12    1    3    3    0    0  0.16825355561E+02 -0.12344707064E+02 -0.39414555455E+01  0.21237218605E+02  0.00000000000E+00 0.  1.
</event>
<event>
 7    1  0.2944263E-013  0.7246153E+02  0.7816164E-02  0.1226708E+00
        -11   -1    0    0    0    0  0.00000000000E+00  0.00000000000E+00  0.45593999997E+02  0.45594000000E+02  0.51100000000E-03 0. -1.
         11   -1    0    0    0    0 -0.00000000000E+00 -0.00000000000E+00 -0.45593999997E+02  0.45594000000E+02  0.51100000000E-03 0.  1.
    9900012    2    1    2    0    0 -0.10588858501E+02 -0.19203732643E+01 -0.15325434551E+02  0.72461529377E+02  0.69999946697E+02 0.  0.
         12    1    1    2    0    0  0.10588858501E+02  0.19203732643E+01  0.15325434551E+02  0.18726470623E+02  0.00000000000E+00 0. -1.
         11    1    3    3    0    0 -0.76395100204E+01  0.76919688501E+00 -0.77148716220E+01  0.10884531299E+02  0.51100000000E-03 0. -1.
        -11    1    3    3    0    0 -0.25745702156E+02  0.58687176552E+01  0.13222083293E+02  0.29531449563E+02  0.51100000000E-03 0.  1.
         12    1    3    3    0    0  0.22796353675E+02 -0.85582878045E+01 -0.20832646222E+02  0.32045548515E+02  0.00000000000E+00 0. -1.
</event>
<event>
 7    1  0.2944263E-013  0.7246161E+02  0.7816164E-02  0.1226708E+00
        -11   -1    0    0    0    0  0.00000000000E+00  0.00000000000E+00  0.45593999997E+02  0.45594000000E+02  0.51100000000E-03 0. -1.
         11   -1    0    0    0    0 -0.00000000000E+00 -0.00000000000E+00 -0.45593999997E+02  0.45594000000E+02  0.51100000000E-03 0.  1.
    9900012    2    1    2    0    0 -0.18154580092E+02  0.45828144538E+01  0.29476575314E+00  0.72461605433E+02  0.70000045774E+02 0.  0.
         12    1    1    2    0    0  0.18154580092E+02 -0.45828144538E+01 -0.29476575314E+00  0.18726394567E+02  0.00000000000E+00 0. -1.
         11    1    3    3    0    0 -0.18547746074E+02  0.27739116351E+02  0.29246802630E+01  0.33496734397E+02  0.51100000000E-03 0.  1.
        -11    1    3    3    0    0  0.94296081694E+00  0.16613615898E+01  0.10644638033E+02  0.10814694473E+02  0.51100000000E-03 0. -1.
         12    1    3    3    0    0 -0.54979483474E+00 -0.24817663487E+02 -0.13274552543E+02  0.28150176563E+02  0.00000000000E+00 0. -1.
</event>
<event>
 7    1  0.2944263E-013  0.7246154E+02  0.7816164E-02  0.1226708E+00
        -11   -1    0    0    0    0  0.00000000000E+00  0.00000000000E+00  0.45593999997E+02  0.45594000000E+02  0.51100000000E-03 0.  1.
         11   -1    0    0    0    0 -0.00000000000E+00 -0.00000000000E+00 -0.45593999997E+02  0.45594000000E+02  0.51100000000E-03 0. -1.
    9900012    2    1    2    0    0  0.40116269004E+01 -0.12503988374E+02  0.13350562379E+02  0.72461537667E+02  0.69999957497E+02 0.  0.
         12    1    1    2    0    0 -0.40116269004E+01  0.12503988374E+02 -0.13350562379E+02  0.18726462333E+02  0.00000000000E+00 0. -1.
         11    1    3    3    0    0  0.30128937077E-01  0.98802608752E+01 -0.21454198241E+02  0.23619972166E+02  0.51100000000E-03 0. -1.
        -11    1    3    3    0    0  0.14364213885E+01 -0.90227915834E+01 -0.22158990439E+01  0.94012915707E+01  0.51100000000E-03 0.  1.
        -12    1    3    3    0    0  0.25450765747E+01 -0.13361457666E+02  0.37020659664E+02  0.39440273930E+02  0.00000000000E+00 0.  1.
</event>
<event>
 7    1  0.2944263E-013  0.7246145E+02  0.7816164E-02  0.1226708E+00
        -11   -1    0    0    0    0  0.00000000000E+00  0.00000000000E+00  0.45593999997E+02  0.45594000000E+02  0.51100000000E-03 0.  1.
         11   -1    0    0    0    0 -0.00000000000E+00 -0.00000000000E+00 -0.45593999997E+02  0.45594000000E+02  0.51100000000E-03 0. -1.
    9900012    2    1    2    0    0  0.16451184299E+02  0.58132746742E+01  0.68005791300E+01  0.72461454569E+02  0.69999849246E+02 0.  0.
         12    1    1    2    0    0 -0.16451184299E+02 -0.58132746742E+01 -0.68005791300E+01  0.18726545431E+02  0.00000000000E+00 0. -1.
         11    1    3    3    0    0  0.83791194433E+01 -0.29163878597E+01 -0.13624066674E+01  0.89761413192E+01  0.51100000000E-03 0. -1.
        -11    1    3    3    0    0  0.14255787746E+02 -0.76707153060E+01  0.30836180226E+02  0.34827250376E+02  0.51100000000E-03 0.  1.
         12    1    3    3    0    0 -0.61837228909E+01  0.16400377840E+02 -0.22673194429E+02  0.28658062874E+02  0.00000000000E+00 0. -1.
</event>
<event>
 7    1  0.2944263E-013  0.7246152E+02  0.7816164E-02  0.1226708E+00
        -11   -1    0    0    0    0  0.00000000000E+00  0.00000000000E+00  0.45593999997E+02  0.45594000000E+02  0.51100000000E-03 0.  1.
         11   -1    0    0    0    0 -0.00000000000E+00 -0.00000000000E+00 -0.45593999997E+02  0.45594000000E+02  0.51100000000E-03 0. -1.
    9900012    2    1    2    0    0  0.18120851821E+01 -0.79135050590E+01  0.16875247256E+02  0.72461516481E+02  0.69999929898E+02 0.  0.
         12    1    1    2    0    0 -0.18120851821E+01  0.79135050590E+01 -0.16875247256E+02  0.18726483519E+02  0.00000000000E+00 0. -1.
         11    1    3    3    0    0  0.98155280583E+01 -0.84858493088E+01 -0.22165720802E+01  0.13163108356E+02  0.51100000000E-03 0. -1.
        -11    1    3    3    0    0  0.67093598312E+01 -0.24300534748E+02  0.10526168101E+01  0.25231716168E+02  0.51100000000E-03 0.  1.
        -12    1    3    3    0    0 -0.14712802707E+02  0.24872878997E+02  0.18039202526E+02  0.34066691957E+02  0.00000000000E+00 0.  1.
</event>
<event>
 7    1  0.2944263E-013  0.7246157E+02  0.7816164E-02  0.1226708E+00
        -11   -1    0    0    0    0  0.00000000000E+00  0.00000000000E+00  0.45593999997E+02  0.45594000000E+02  0.51100000000E-03 0.  1.
         11   -1    0    0    0    0 -0.00000000000E+00 -0.00000000000E+00 -0.45593999997E+02  0.45594000000E+02  0.51100000000E-03 0. -1.
    9900012    2    1    2    0    0  0.13928113741E+02  0.12132379011E+02 -0.30809513714E+01  0.72461568567E+02  0.69999997750E+02 0.  0.
         12    1    1    2    0    0 -0.13928113741E+02 -0.12132379011E+02  0.30809513714E+01  0.18726431433E+02  0.00000000000E+00 0. -1.
         11    1    3    3    0    0 -0.16969687724E+02  0.12082210896E+02 -0.15184734443E+02  0.25778407282E+02  0.51100000000E-03 0. -1.
        -11    1    3    3    0    0 -0.23497031001E+01  0.98434690728E+01  0.49964193803E+00  0.10132355618E+02  0.51100000000E-03 0.  1.
        -12    1    3    3    0    0  0.33247504566E+02 -0.97933009583E+01  0.11604141134E+02  0.36550805668E+02  0.00000000000E+00 0.  1.
</event>
<event>
 7    1  0.2944263E-013  0.7246162E+02  0.7816164E-02  0.1226708E+00
        -11   -1    0    0    0    0  0.00000000000E+00  0.00000000000E+00  0.45593999997E+02  0.45594000000E+02  0.51100000000E-03 0.  1.
         11   -1    0    0    0    0 -0.00000000000E+00 -0.00000000000E+00 -0.45593999997E+02  0.45594000000E+02  0.51100000000E-03 0. -1.
    9900012    2    1    2    0    0 -0.21274923322E+00 -0.18722221797E+02 -0.33228067997E+00  0.72461621234E+02  0.70000066358E+02 0.  0.
         12    1    1    2    0    0  0.21274923322E+00  0.18722221797E+02  0.33228067997E+00  0.18726378766E+02  0.00000000000E+00 0. -1.
         11    1    3    3    0    0 -0.72304572160E+01 -0.18623781838E+02 -0.99776992903E+01  0.22331127264E+02  0.51100000000E-03 0. -1.
        -11    1    3    3    0    0 -0.16739942170E+02  0.13729797927E+02  0.54228148722E+01  0.22319048733E+02  0.51100000000E-03 0.  1.
         12    1    3    3    0    0  0.23757650153E+02 -0.13828237885E+02  0.42226037381E+01  0.27811445236E+02  0.00000000000E+00 0. -1.
</event>
<event>
 7    1  0.2944263E-013  0.7246155E+02  0.7816164E-02  0.1226708E+00
        -11   -1    0    0    0    0  0.00000000000E+00  0.00000000000E+00  0.45593999997E+02  0.45594000000E+02  0.51100000000E-03 0.  1.
         11   -1    0    0    0    0 -0.00000000000E+00 -0.00000000000E+00 -0.45593999997E+02  0.45594000000E+02  0.51100000000E-03 0. -1.
    9900012    2    1    2    0    0 -0.56255290909E+01 -0.40892913096E+01  0.17387089629E+02  0.72461554348E+02  0.69999979227E+02 0.  0.
         12    1    1    2    0    0  0.56255290909E+01  0.40892913096E+01 -0.17387089629E+02  0.18726445652E+02  0.00000000000E+00 0. -1.
         11    1    3    3    0    0  0.73272175515E+01 -0.30619866840E+01  0.10674307948E+01  0.80126954431E+01  0.51100000000E-03 0. -1.
        -11    1    3    3    0    0 -0.26502907541E+02 -0.19064065402E+02 -0.54493072049E+01  0.33098907037E+02  0.51100000000E-03 0.  1.
         12    1    3    3    0    0  0.13550160899E+02  0.18036760777E+02  0.21768966040E+02  0.31349951868E+02  0.00000000000E+00 0. -1.
</event>
<event>
 7    1  0.2944263E-013  0.7246124E+02  0.7816164E-02  0.1226709E+00
        -11   -1    0    0    0    0  0.00000000000E+00  0.00000000000E+00  0.45593999997E+02  0.45594000000E+02  0.51100000000E-03 0.  1.
         11   -1    0    0    0    0 -0.00000000000E+00 -0.00000000000E+00 -0.45593999997E+02  0.45594000000E+02  0.51100000000E-03 0. -1.
    9900012    2    1    2    0    0 -0.14432184882E+01  0.31417916385E+01  0.18404834396E+02  0.72461236707E+02  0.69999565439E+02 0.  0.
         12    1    1    2    0    0  0.14432184882E+01 -0.31417916385E+01 -0.18404834396E+02  0.18726763293E+02  0.00000000000E+00 0. -1.
         11    1    3    3    0    0 -0.23694765154E+02 -0.17032324931E+02 -0.11456226586E+01  0.29203671683E+02  0.51100000000E-03 0. -1.
        -11    1    3    3    0    0  0.36565021314E+01 -0.42953746470E+01 -0.17016569309E+01  0.58920189890E+01  0.51100000000E-03 0.  1.
        -12    1    3    3    0    0  0.18595044534E+02  0.24469491216E+02  0.21252113985E+02  0.37365546035E+02  0.00000000000E+00 0.  1.
</event>
<event>
 7    1  0.3102476E-013  0.7246159E+02  0.7816164E-02  0.1226708E+00
        -11   -1    0    0    0    0  0.00000000000E+00  0.00000000000E+00  0.45593999997E+02  0.45594000000E+02  0.51100000000E-03 0. -1.
         11   -1    0    0    0    0 -0.00000000000E+00 -0.00000000000E+00 -0.45593999997E+02  0.45594000000E+02  0.51100000000E-03 0.  1.
    9900012    2    1    2    0    0  0.47755126751E+01 -0.42413531416E+01 -0.17603519018E+02  0.72461588716E+02  0.70000023997E+02 0.  0.
         12    1    1    2    0    0 -0.47755126751E+01  0.42413531416E+01  0.17603519018E+02  0.18726411284E+02  0.00000000000E+00 0. -1.
         11    1    3    3    0    0  0.13511988593E+02  0.29673780525E+01 -0.18943674170E+02  0.23457236828E+02  0.51100000000E-03 0. -1.
        -11    1    3    3    0    0 -0.10549542123E+02 -0.15402634799E+02 -0.19221817135E+02  0.26795750633E+02  0.51100000000E-03 0.  1.
         12    1    3    3    0    0  0.18130662047E+01  0.81939036044E+01  0.20561972288E+02  0.22208601255E+02  0.00000000000E+00 0. -1.
</event>
<event>
 7    1  0.2944263E-013  0.7246211E+02  0.7816164E-02  0.1226707E+00
        -11   -1    0    0    0    0  0.00000000000E+00  0.00000000000E+00  0.45593999997E+02  0.45594000000E+02  0.51100000000E-03 0. -1.
         11   -1    0    0    0    0 -0.00000000000E+00 -0.00000000000E+00 -0.45593999997E+02  0.45594000000E+02  0.51100000000E-03 0.  1.
    9900012    2    1    2    0    0 -0.65302105210E+01 -0.14137259429E+02 -0.10399665914E+02  0.72462114046E+02  0.70000708334E+02 0.  0.
         12    1    1    2    0    0  0.65302105210E+01  0.14137259429E+02  0.10399665914E+02  0.18725885954E+02  0.00000000000E+00 0. -1.
         11    1    3    3    0    0  0.51401736896E+00  0.12467225797E+01  0.19215375483E+02  0.19262637054E+02  0.51100000000E-03 0. -1.
        -11    1    3    3    0    0 -0.21342811979E+02  0.22781811418E+01 -0.14814004160E+02  0.26079885966E+02  0.51100000000E-03 0.  1.
        -12    1    3    3    0    0  0.14298584089E+02 -0.17662163151E+02 -0.14801037238E+02  0.27119591026E+02  0.00000000000E+00 0.  1.
</event>
<event>
 7    1  0.2944263E-013  0.7246144E+02  0.7816164E-02  0.1226708E+00
        -11   -1    0    0    0    0  0.00000000000E+00  0.00000000000E+00  0.45593999997E+02  0.45594000000E+02  0.51100000000E-03 0.  1.
         11   -1    0    0    0    0 -0.00000000000E+00 -0.00000000000E+00 -0.45593999997E+02  0.45594000000E+02  0.51100000000E-03 0. -1.
    9900012    2    1    2    0    0  0.11023013796E+02 -0.39658197509E+01  0.14609912096E+02  0.72461438893E+02  0.69999828826E+02 0.  0.
         12    1    1    2    0    0 -0.11023013796E+02  0.39658197509E+01 -0.14609912096E+02  0.18726561107E+02  0.00000000000E+00 0. -1.
         11    1    3    3    0    0  0.33896272262E+01  0.16570155259E+02  0.73957625848E+00  0.16929459275E+02  0.51100000000E-03 0. -1.
        -11    1    3    3    0    0 -0.16615749179E+02  0.35993556420E+01  0.12837144003E+02  0.21303303693E+02  0.51100000000E-03 0.  1.
         12    1    3    3    0    0  0.24249135748E+02 -0.24135330652E+02  0.10331918342E+01  0.34228675925E+02  0.00000000000E+00 0. -1.
</event>
<event>
 7    1  0.2944263E-013  0.7246159E+02  0.7816164E-02  0.1226708E+00
        -11   -1    0    0    0    0  0.00000000000E+00  0.00000000000E+00  0.45593999997E+02  0.45594000000E+02  0.51100000000E-03 0.  1.
         11   -1    0    0    0    0 -0.00000000000E+00 -0.00000000000E+00 -0.45593999997E+02  0.45594000000E+02  0.51100000000E-03 0. -1.
    9900012    2    1    2    0    0  0.16989257904E+02  0.78767043331E+01 -0.34884217051E-01  0.72461586243E+02  0.70000020776E+02 0.  0.
         12    1    1    2    0    0 -0.16989257904E+02 -0.78767043331E+01  0.34884217051E-01  0.18726413757E+02  0.00000000000E+00 0. -1.
         11    1    3    3    0    0  0.21772353662E+02  0.30567564859E+02  0.98972218098E+01  0.38811936376E+02  0.51100000000E-03 0. -1.
        -11    1    3    3    0    0 -0.63290792486E+01 -0.40799315807E+01 -0.12705983726E+02  0.14769736238E+02  0.51100000000E-03 0.  1.
        -12    1    3    3    0    0  0.15459834905E+01 -0.18610928945E+02  0.27738776993E+01  0.18879913629E+02  0.00000000000E+00 0.  1.
</event>
<event>
 7    1  0.2944263E-013  0.7246154E+02  0.7816164E-02  0.1226708E+00
        -11   -1    0    0    0    0  0.00000000000E+00  0.00000000000E+00  0.45593999997E+02  0.45594000000E+02  0.51100000000E-03 0. -1.
         11   -1    0    0    0    0 -0.00000000000E+00 -0.00000000000E+00 -0.45593999997E+02  0.45594000000E+02  0.51100000000E-03 0.  1.
    9900012    2    1    2    0    0 -0.55705697125E+01 -0.12651702713E+02 -0.12632629043E+02  0.72461544249E+02  0.69999966071E+02 0.  0.
         12    1    1    2    0    0  0.55705697125E+01  0.12651702713E+02  0.12632629043E+02  0.18726455751E+02  0.00000000000E+00 0. -1.
         11    1    3    3    0    0 -0.16782888282E+02 -0.53570609835E+01 -0.27128131964E+01  0.17824780424E+02  0.51100000000E-03 0. -1.
        -11    1    3    3    0    0 -0.15492247681E+02 -0.59515680368E+01 -0.20064432491E+02  0.26038670314E+02  0.51100000000E-03 0.  1.
         12    1    3    3    0    0  0.26704566250E+02 -0.13430736929E+01  0.10144616644E+02  0.28598093510E+02  0.00000000000E+00 0. -1.
</event>
<event>
 7    1  0.2944263E-013  0.7246149E+02  0.7816164E-02  0.1226708E+00
        -11   -1    0    0    0    0  0.00000000000E+00  0.00000000000E+00  0.45593999997E+02  0.45594000000E+02  0.51100000000E-03 0. -1.
         11   -1    0    0    0    0 -0.00000000000E+00 -0.00000000000E+00 -0.45593999997E+02  0.45594000000E+02  0.51100000000E-03 0.  1.
    9900012    2    1    2    0    0 -0.55281719663E+01 -0.15601133513E+02 -0.87593478988E+01  0.72461488638E+02  0.69999893627E+02 0.  0.
         12    1    1    2    0    0  0.55281719663E+01  0.15601133513E+02  0.87593478988E+01  0.18726511362E+02  0.00000000000E+00 0. -1.
         11    1    3    3    0    0 -0.19311271685E+01  0.19460176225E+02 -0.73259840049E+01  0.20882953640E+02  0.51100000000E-03 0. -1.
        -11    1    3    3    0    0 -0.86023419190E+01  0.45833520008E+01  0.52389914479E+01  0.11065913144E+02  0.51100000000E-03 0.  1.
        -12    1    3    3    0    0  0.50052971212E+01 -0.39644661739E+02 -0.66723553418E+01  0.40512621854E+02  0.00000000000E+00 0.  1.
</event>
<event>
 7    1  0.2944263E-013  0.7246166E+02  0.7816164E-02  0.1226708E+00
        -11   -1    0    0    0    0  0.00000000000E+00  0.00000000000E+00  0.45593999997E+02  0.45594000000E+02  0.51100000000E-03 0.  1.
         11   -1    0    0    0    0 -0.00000000000E+00 -0.00000000000E+00 -0.45593999997E+02  0.45594000000E+02  0.51100000000E-03 0. -1.
    9900012    2    1    2    0    0  0.61427190001E+01  0.17663514771E+02 -0.97117615229E+00  0.72461656686E+02  0.70000112542E+02 0.  0.
         12    1    1    2    0    0 -0.61427190001E+01 -0.17663514771E+02  0.97117615229E+00  0.18726343314E+02  0.00000000000E+00 0. -1.
         11    1    3    3    0    0  0.12800977937E+02 -0.15065034572E+01 -0.87146946902E+01  0.15558936102E+02  0.51100000000E-03 0. -1.
        -11    1    3    3    0    0  0.72059028887E+01 -0.16553327300E+02  0.25642226834E+01  0.18234936780E+02  0.51100000000E-03 0.  1.
         12    1    3    3    0    0 -0.13864161826E+02  0.35723345528E+02  0.51792958545E+01  0.38667783805E+02  0.00000000000E+00 0. -1.
</event>
<event>
 7    1  0.2944263E-013  0.7246156E+02  0.7816164E-02  0.1226708E+00
        -11   -1    0    0    0    0  0.00000000000E+00  0.00000000000E+00  0.45593999997E+02  0.45594000000E+02  0.51100000000E-03 0. -1.
         11   -1    0    0    0    0 -0.00000000000E+00 -0.00000000000E+00 -0.45593999997E+02  0.45594000000E+02  0.51100000000E-03 0.  1.
    9900012    2    1    2    0    0 -0.11498655783E+02  0.65915031863E+01  0.13229229042E+02  0.72461561468E+02  0.69999988502E+02 0.  0.
         12    1    1    2    0    0  0.11498655783E+02 -0.65915031863E+01 -0.13229229042E+02  0.18726438532E+02  0.00000000000E+00 0. -1.
         11    1    3    3    0    0 -0.26588472334E+01 -0.23451942715E+02 -0.30110296738E+01  0.23793473595E+02  0.51100000000E-03 0. -1.
        -11    1    3    3    0    0  0.28030336318E+01 -0.57062295766E+01  0.79282569312E+01  0.10162446150E+02  0.51100000000E-03 0.  1.
        -12    1    3    3    0    0 -0.11642842181E+02  0.35749675478E+02  0.83120017843E+01  0.38505641723E+02  0.00000000000E+00 0.  1.
</event>
<event>
 7    1  0.2944263E-013  0.7246157E+02  0.7816164E-02  0.1226708E+00
        -11   -1    0    0    0    0  0.00000000000E+00  0.00000000000E+00  0.45593999997E+02  0.45594000000E+02  0.51100000000E-03 0.  1.
         11   -1    0    0    0    0 -0.00000000000E+00 -0.00000000000E+00 -0.45593999997E+02  0.45594000000E+02  0.51100000000E-03 0. -1.
    9900012    2    1    2    0    0  0.90019993502E+01 -0.11848551535E+02  0.11369036898E+02  0.72461570395E+02  0.70000000131E+02 0.  0.
         12    1    1    2    0    0 -0.90019993502E+01  0.11848551535E+02 -0.11369036898E+02  0.18726429605E+02  0.00000000000E+00 0. -1.
         11    1    3    3    0    0  0.86312667957E+01 -0.56244687441E+01 -0.81141913693E+00  0.10334012601E+02  0.51100000000E-03 0. -1.
        -11    1    3    3    0    0  0.25626735541E+02  0.99062153054E+01 -0.44839860946E+01  0.27838261578E+02  0.51100000000E-03 0.  1.
         12    1    3    3    0    0 -0.25256002986E+02 -0.16130298096E+02  0.16664442129E+02  0.34289296216E+02  0.00000000000E+00 0. -1.
</event>
<event>
 7    1  0.2944263E-013  0.7246169E+02  0.7816164E-02  0.1226708E+00
        -11   -1    0    0    0    0  0.00000000000E+00  0.00000000000E+00  0.45593999997E+02  0.45594000000E+02  0.51100000000E-03 0. -1.
         11   -1    0    0    0    0 -0.00000000000E+00 -0.00000000000E+00 -0.45593999997E+02  0.45594000000E+02  0.51100000000E-03 0.  1.
    9900012    2    1    2    0    0  0.10959125531E+02 -0.13669509318E+02 -0.66118631183E+01  0.72461690932E+02  0.70000157153E+02 0.  0.
         12    1    1    2    0    0 -0.10959125531E+02  0.13669509318E+02  0.66118631183E+01  0.18726309068E+02  0.00000000000E+00 0. -1.
         11    1    3    3    0    0 -0.21695921944E+02  0.76777592080E+01  0.10628101121E+02  0.25349902350E+02  0.51100000000E-03 0. -1.
        -11    1    3    3    0    0 -0.21467722967E+00 -0.24159876501E+01 -0.75952749149E+01  0.79731602225E+01  0.51100000000E-03 0.  1.
        -12    1    3    3    0    0  0.32869724704E+02 -0.18931280876E+02 -0.96446893243E+01  0.39138628360E+02  0.00000000000E+00 0.  1.
</event>
<event>
 7    1  0.2944263E-013  0.7246162E+02  0.7816164E-02  0.1226708E+00
        -11   -1    0    0    0    0  0.00000000000E+00  0.00000000000E+00  0.45593999997E+02  0.45594000000E+02  0.51100000000E-03 0.  1.
         11   -1    0    0    0    0 -0.00000000000E+00 -0.00000000000E+00 -0.45593999997E+02  0.45594000000E+02  0.51100000000E-03 0. -1.
    9900012    2    1    2    0    0  0.16716546389E+02 -0.74784368912E+01  0.39124803554E+01  0.72461616365E+02  0.70000060016E+02 0.  0.
         12    1    1    2    0    0 -0.16716546389E+02  0.74784368912E+01 -0.39124803554E+01  0.18726383635E+02  0.00000000000E+00 0. -1.
         11    1    3    3    0    0  0.26027826727E+02  0.80823219882E+01  0.28165063076E+01  0.27398985399E+02  0.51100000000E-03 0. -1.
        -11    1    3    3    0    0 -0.87928529937E+01  0.11446425060E+02  0.88857713925E+01  0.16949685658E+02  0.51100000000E-03 0.  1.
         12    1    3    3    0    0 -0.51842734447E+00 -0.27007183939E+02 -0.77897973447E+01  0.28112945308E+02  0.00000000000E+00 0. -1.
</event>
<event>
 7    1  0.2944263E-013  0.7246158E+02  0.7816164E-02  0.1226708E+00
        -11   -1    0    0    0    0  0.00000000000E+00  0.00000000000E+00  0.45593999997E+02  0.45594000000E+02  0.51100000000E-03 0. -1.
         11   -1    0    0    0    0 -0.00000000000E+00 -0.00000000000E+00 -0.45593999997E+02  0.45594000000E+02  0.51100000000E-03 0.  1.
    9900012    2    1    2    0    0  0.18676637117E+02 -0.12033991158E+01 -0.64319769158E+00  0.72461584254E+02  0.70000018185E+02 0.  0.
         12    1    1    2    0    0 -0.18676637117E+02  0.12033991158E+01  0.64319769158E+00  0.18726415746E+02  0.00000000000E+00 0. -1.
         11    1    3    3    0    0  0.10891601356E+02  0.72523543097E+00  0.15102228286E+01  0.11019696901E+02  0.51100000000E-03 0. -1.
        -11    1    3    3    0    0  0.11546789502E+02 -0.55395048302E+00 -0.30602060835E+02  0.32712709098E+02  0.51100000000E-03 0.  1.
         12    1    3    3    0    0 -0.37617537416E+01 -0.13746840638E+01  0.28448640314E+02  0.28729178255E+02  0.00000000000E+00 0. -1.
</event>
<event>
 7    1  0.2944263E-013  0.7246161E+02  0.7816164E-02  0.1226708E+00
        -11   -1    0    0    0    0  0.00000000000E+00  0.00000000000E+00  0.45593999997E+02  0.45594000000E+02  0.51100000000E-03 0. -1.
         11   -1    0    0    0    0 -0.00000000000E+00 -0.00000000000E+00 -0.45593999997E+02  0.45594000000E+02  0.51100000000E-03 0.  1.
    9900012    2    1    2    0    0  0.11344462635E+02 -0.19362667534E+01 -0.14772667987E+02  0.72461610042E+02  0.70000051779E+02 0.  0.
         12    1    1    2    0    0 -0.11344462635E+02  0.19362667534E+01  0.14772667987E+02  0.18726389958E+02  0.00000000000E+00 0. -1.
         11    1    3    3    0    0 -0.45386108350E+01 -0.15377748140E+02 -0.66353764361E+01  0.17352300911E+02  0.51100000000E-03 0. -1.
        -11    1    3    3    0    0 -0.13935432660E+02  0.18675185204E+02 -0.85822515472E+01  0.24831710930E+02  0.51100000000E-03 0.  1.
         12    1    3    3    0    0  0.29818506130E+02 -0.52337038167E+01  0.44495999625E+00  0.30277598202E+02  0.00000000000E+00 0. -1.
</event>
<event>
 7    1  0.2944263E-013  0.7246157E+02  0.7816164E-02  0.1226708E+00
        -11   -1    0    0    0    0  0.00000000000E+00  0.00000000000E+00  0.45593999997E+02  0.45594000000E+02  0.51100000000E-03 0.  1.
         11   -1    0    0    0    0 -0.00000000000E+00 -0.00000000000E+00 -0.45593999997E+02  0.45594000000E+02  0.51100000000E-03 0. -1.
    9900012    2    1    2    0    0 -0.11529468980E+01  0.66763576843E+01  0.17457835834E+02  0.72461572939E+02  0.70000003445E+02 0.  0.
         12    1    1    2    0    0  0.11529468980E+01 -0.66763576843E+01 -0.17457835834E+02  0.18726427061E+02  0.00000000000E+00 0. -1.
         11    1    3    3    0    0  0.35021927139E+01  0.15299045485E+02  0.10440788323E+01  0.15729470666E+02  0.51100000000E-03 0. -1.
        -11    1    3    3    0    0  0.71380990034E+01 -0.27180208489E+01 -0.18174693702E+02  0.19714451201E+02  0.51100000000E-03 0.  1.
        -12    1    3    3    0    0 -0.11793238615E+02 -0.59046669516E+01  0.34588450704E+02  0.37017651073E+02  0.00000000000E+00 0.  1.
</event>
<event>
 7    1  0.2944263E-013  0.7246155E+02  0.7816164E-02  0.1226708E+00
        -11   -1    0    0    0    0  0.00000000000E+00  0.00000000000E+00  0.45593999997E+02  0.45594000000E+02  0.51100000000E-03 0. -1.
         11   -1    0    0    0    0 -0.00000000000E+00 -0.00000000000E+00 -0.45593999997E+02  0.45594000000E+02  0.51100000000E-03 0.  1.
    9900012    2    1    2    0    0  0.18178684634E+01  0.12740040080E+02 -0.13603921830E+02  0.72461549291E+02  0.69999972639E+02 0.  0.
         12    1    1    2    0    0 -0.18178684634E+01 -0.12740040080E+02  0.13603921830E+02  0.18726450709E+02  0.00000000000E+00 0. -1.
         11    1    3    3    0    0 -0.25969010112E+01  0.19757368295E+02  0.88996802424E-01  0.19927504046E+02  0.51100000000E-03 0. -1.
        -11    1    3    3    0    0  0.20842550647E+02  0.12982845530E+02 -0.39093443263E+01  0.24864616805E+02  0.51100000000E-03 0.  1.
        -12    1    3    3    0    0 -0.16427781172E+02 -0.20000173744E+02 -0.97835743059E+01  0.27669428441E+02  0.00000000000E+00 0.  1.
</event>
<event>
 7    1  0.2944263E-013  0.7246128E+02  0.7816164E-02  0.1226709E+00
        -11   -1    0    0    0    0  0.00000000000E+00  0.00000000000E+00  0.45593999997E+02  0.45594000000E+02  0.51100000000E-03 0.  1.
         11   -1    0    0    0    0 -0.00000000000E+00 -0.00000000000E+00 -0.45593999997E+02  0.45594000000E+02  0.51100000000E-03 0. -1.
    9900012    2    1    2    0    0  0.56184167775E+01  0.14623297707E+02  0.10260723055E+02  0.72461284310E+02  0.69999627451E+02 0.  0.
         12    1    1    2    0    0 -0.56184167775E+01 -0.14623297707E+02 -0.10260723055E+02  0.18726715690E+02  0.00000000000E+00 0. -1.
         11    1    3    3    0    0 -0.97344995566E+00  0.16948748118E+02  0.15647055453E+01  0.17048635467E+02  0.51100000000E-03 0. -1.
        -11    1    3    3    0    0  0.26900891316E+02 -0.20685424920E+01  0.18645249045E+02  0.32796068878E+02  0.51100000000E-03 0.  1.
         12    1    3    3    0    0 -0.20309024583E+02 -0.25690791864E+00 -0.99492315347E+01  0.22616579965E+02  0.00000000000E+00 0. -1.
</event>
<event>
 7    1  0.2944263E-013  0.7246146E+02  0.7816164E-02  0.1226708E+00
        -11   -1    0    0    0    0  0.00000000000E+00  0.00000000000E+00  0.45593999997E+02  0.45594000000E+02  0.51100000000E-03 0.  1.
         11   -1    0    0    0    0 -0.00000000000E+00 -0.00000000000E+00 -0.45593999997E+02  0.45594000000E+02  0.51100000000E-03 0. -1.
    9900012    2    1    2    0    0 -0.73463281078E+01  0.34563144036E+00  0.17221940194E+02  0.72461462097E+02  0.69999859053E+02 0.  0.
         12    1    1    2    0    0  0.73463281078E+01 -0.34563144036E+00 -0.17221940194E+02  0.18726537903E+02  0.00000000000E+00 0. -1.
         11    1    3    3    0    0 -0.20004804725E+02  0.14218750869E+01 -0.10153941037E+00  0.20055529197E+02  0.51100000000E-03 0. -1.
        -11    1    3    3    0    0  0.14622038894E+01 -0.20012337772E+02  0.22146716247E+02  0.29884925031E+02  0.51100000000E-03 0.  1.
         12    1    3    3    0    0  0.11196272728E+02  0.18936094126E+02 -0.48232366422E+01  0.22521007869E+02  0.00000000000E+00 0. -1.
</event>
<event>
 7    1  0.2944263E-013  0.7246160E+02  0.7816164E-02  0.1226708E+00
        -11   -1    0    0    0    0  0.00000000000E+00  0.00000000000E+00  0.45593999997E+02  0.45594000000E+02  0.51100000000E-03 0.  1.
         11   -1    0    0    0    0 -0.00000000000E+00 -0.00000000000E+00 -0.45593999997E+02  0.45594000000E+02  0.51100000000E-03 0. -1.
    9900012    2    1    2    0    0  0.90839854061E+01 -0.79741841241E+01  0.14302859970E+02  0.72461596004E+02  0.70000033492E+02 0.  0.
         12    1    1    2    0    0 -0.90839854061E+01  0.79741841241E+01 -0.14302859970E+02  0.18726403996E+02  0.00000000000E+00 0. -1.
         11    1    3    3    0    0  0.10365892323E+01  0.13052415567E+02 -0.22323660319E+01  0.13282451872E+02  0.51100000000E-03 0. -1.
        -11    1    3    3    0    0 -0.16414091197E+02 -0.23825781970E+02 -0.10034973332E+01  0.28949909904E+02  0.51100000000E-03 0.  1.
        -12    1    3    3    0    0  0.24461487370E+02  0.27991822781E+01  0.17538723335E+02  0.30229234228E+02  0.00000000000E+00 0.  1.
</event>
<event>
 7    1  0.2944263E-013  0.7246171E+02  0.7816164E-02  0.1226708E+00
        -11   -1    0    0    0    0  0.00000000000E+00  0.00000000000E+00  0.45593999997E+02  0.45594000000E+02  0.51100000000E-03 0.  1.
         11   -1    0    0    0    0 -0.00000000000E+00 -0.00000000000E+00 -0.45593999997E+02  0.45594000000E+02  0.51100000000E-03 0. -1.
    9900012    2    1    2    0    0 -0.47489191091E+01  0.15599750881E+02  0.92070419103E+01  0.72461706160E+02  0.70000176990E+02 0.  0.
         12    1    1    2    0    0  0.47489191091E+01 -0.15599750881E+02 -0.92070419103E+01  0.18726293840E+02  0.00000000000E+00 0. -1.
         11    1    3    3    0    0 -0.15261518270E+02  0.42643472881E+01 -0.23008325767E+01  0.16012258695E+02  0.51100000000E-03 0. -1.
        -11    1    3    3    0    0 -0.10363120836E+02  0.20607234152E+01  0.26902439503E+02  0.28902977458E+02  0.51100000000E-03 0.  1.
        -12    1    3    3    0    0  0.20875719997E+02  0.92746801778E+01 -0.15394565016E+02  0.27546470007E+02  0.00000000000E+00 0.  1.
</event>
<event>
 7    1  0.2944263E-013  0.7246155E+02  0.7816164E-02  0.1226708E+00
        -11   -1    0    0    0    0  0.00000000000E+00  0.00000000000E+00  0.45593999997E+02  0.45594000000E+02  0.51100000000E-03 0. -1.
         11   -1    0    0    0    0 -0.00000000000E+00 -0.00000000000E+00 -0.45593999997E+02  0.45594000000E+02  0.51100000000E-03 0.  1.
    9900012    2    1    2    0    0  0.50028268850E+01  0.57997316755E+01  0.17088439314E+02  0.72461550189E+02  0.69999973809E+02 0.  0.
         12    1    1    2    0    0 -0.50028268850E+01 -0.57997316755E+01 -0.17088439314E+02  0.18726449811E+02  0.00000000000E+00 0. -1.
         11    1    3    3    0    0  0.34830491268E+01 -0.33146767063E+01  0.13201693138E+02  0.14050032557E+02  0.51100000000E-03 0. -1.
        -11    1    3    3    0    0 -0.16883485425E+02 -0.15482043813E+02  0.13038557532E+02  0.26358105840E+02  0.51100000000E-03 0.  1.
        -12    1    3    3    0    0  0.18403263184E+02  0.24596452194E+02 -0.91518113561E+01  0.32053411791E+02  0.00000000000E+00 0.  1.
</event>
<event>
 7    1  0.2944263E-013  0.7246159E+02  0.7816164E-02  0.1226708E+00
        -11   -1    0    0    0    0  0.00000000000E+00  0.00000000000E+00  0.45593999997E+02  0.45594000000E+02  0.51100000000E-03 0.  1.
         11   -1    0    0    0    0 -0.00000000000E+00 -0.00000000000E+00 -0.45593999997E+02  0.45594000000E+02  0.51100000000E-03 0. -1.
    9900012    2    1    2    0    0  0.15492069385E+02 -0.10303103875E+02 -0.21261265487E+01  0.72461586104E+02  0.70000020595E+02 0.  0.
         12    1    1    2    0    0 -0.15492069385E+02  0.10303103875E+02  0.21261265487E+01  0.18726413896E+02  0.00000000000E+00 0. -1.
         11    1    3    3    0    0  0.73496071476E+01  0.41026704080E+01 -0.19391605534E+02  0.21139607261E+02  0.51100000000E-03 0. -1.
        -11    1    3    3    0    0  0.61337729189E+01  0.10797413978E+02 -0.86364942126E+01  0.15126015714E+02  0.51100000000E-03 0.  1.
        -12    1    3    3    0    0  0.20086893190E+01 -0.25203188261E+02  0.25901973198E+02  0.36195963129E+02  0.00000000000E+00 0.  1.
</event>
<event>
 7    1  0.2944263E-013  0.7246167E+02  0.7816164E-02  0.1226708E+00
        -11   -1    0    0    0    0  0.00000000000E+00  0.00000000000E+00  0.45593999997E+02  0.45594000000E+02  0.51100000000E-03 0. -1.
         11   -1    0    0    0    0 -0.00000000000E+00 -0.00000000000E+00 -0.45593999997E+02  0.45594000000E+02  0.51100000000E-03 0.  1.
    9900012    2    1    2    0    0  0.13470505315E+02 -0.59445844643E+01 -0.11570773225E+02  0.72461671184E+02  0.70000131428E+02 0.  0.
         12    1    1    2    0    0 -0.13470505315E+02  0.59445844643E+01  0.11570773225E+02  0.18726328816E+02  0.00000000000E+00 0. -1.
         11    1    3    3    0    0 -0.71716611234E+01  0.21186160901E+02 -0.20336922578E+01  0.22459341964E+02  0.51100000000E-03 0. -1.
        -11    1    3    3    0    0 -0.63350215882E+01  0.79657430074E+00 -0.91669630544E+01  0.11171402823E+02  0.51100000000E-03 0.  1.
        -12    1    3    3    0    0  0.26977188027E+02 -0.27927319666E+02 -0.37011791288E+00  0.38830926397E+02  0.00000000000E+00 0.  1.
</event>
<event>
 7    1  0.2944263E-013  0.7246164E+02  0.7816164E-02  0.1226708E+00
        -11   -1    0    0    0    0  0.00000000000E+00  0.00000000000E+00  0.45593999997E+02  0.45594000000E+02  0.51100000000E-03 0.  1.
         11   -1    0    0    0    0 -0.00000000000E+00 -0.00000000000E+00 -0.45593999997E+02  0.45594000000E+02  0.51100000000E-03 0. -1.
    9900012    2    1    2    0    0 -0.11864273627E+02  0.36947891777E+01  0.14009430759E+02  0.72461638742E+02  0.70000089166E+02 0.  0.
         12    1    1    2    0    0  0.11864273627E+02 -0.36947891777E+01 -0.14009430759E+02  0.18726361258E+02  0.00000000000E+00 0. -1.
         11    1    3    3    0    0 -0.81221722632E+00 -0.82286563725E+01  0.10883938245E+02  0.13668598849E+02  0.51100000000E-03 0. -1.
        -11    1    3    3    0    0 -0.97830568634E+01 -0.14622205826E+02  0.20520952672E+02  0.27030105505E+02  0.51100000000E-03 0.  1.
         12    1    3    3    0    0 -0.12689995374E+01  0.26545651376E+02 -0.17395460158E+02  0.31762934388E+02  0.00000000000E+00 0. -1.
</event>
<event>
 7    1  0.2944263E-013  0.7246156E+02  0.7816164E-02  0.1226708E+00
        -11   -1    0    0    0    0  0.00000000000E+00  0.00000000000E+00  0.45593999997E+02  0.45594000000E+02  0.51100000000E-03 0.  1.
         11   -1    0    0    0    0 -0.00000000000E+00 -0.00000000000E+00 -0.45593999997E+02  0.45594000000E+02  0.51100000000E-03 0. -1.
    9900012    2    1    2    0    0 -0.13790416938E+02 -0.11936555931E+02  0.42452904627E+01  0.72461562594E+02  0.69999989969E+02 0.  0.
         12    1    1    2    0    0  0.13790416938E+02  0.11936555931E+02 -0.42452904627E+01  0.18726437406E+02  0.00000000000E+00 0. -1.
         11    1    3    3    0    0 -0.57046908178E+01  0.10369091170E+02  0.27734431174E+01  0.12155391232E+02  0.51100000000E-03 0. -1.
        -11    1    3    3    0    0 -0.19552749412E+02  0.65690699570E+01  0.15907150811E+02  0.26048035182E+02  0.51100000000E-03 0.  1.
        -12    1    3    3    0    0  0.11467023292E+02 -0.28874717058E+02 -0.14435303466E+02  0.34258136180E+02  0.00000000000E+00 0.  1.
</event>
<event>
 7    1  0.2944263E-013  0.7246156E+02  0.7816164E-02  0.1226708E+00
        -11   -1    0    0    0    0  0.00000000000E+00  0.00000000000E+00  0.45593999997E+02  0.45594000000E+02  0.51100000000E-03 0. -1.
         11   -1    0    0    0    0 -0.00000000000E+00 -0.00000000000E+00 -0.45593999997E+02  0.45594000000E+02  0.51100000000E-03 0.  1.
    9900012    2    1    2    0    0  0.72617930406E+01 -0.30935713672E+01 -0.16981629058E+02  0.72461560204E+02  0.69999986855E+02 0.  0.
         12    1    1    2    0    0 -0.72617930406E+01  0.30935713672E+01  0.16981629058E+02  0.18726439796E+02  0.00000000000E+00 0. -1.
         11    1    3    3    0    0  0.42780008852E+01 -0.74347905227E+01  0.43303465607E+01  0.96088138335E+01  0.51100000000E-03 0. -1.
        -11    1    3    3    0    0  0.20123597587E+02  0.48037635804E+01  0.13042689073E+02  0.24457045261E+02  0.51100000000E-03 0.  1.
         12    1    3    3    0    0 -0.17139805432E+02 -0.46254442490E+00 -0.34354664692E+02  0.38395701109E+02  0.00000000000E+00 0. -1.
</event>
<event>
 7    1  0.2944263E-013  0.7246152E+02  0.7816164E-02  0.1226708E+00
        -11   -1    0    0    0    0  0.00000000000E+00  0.00000000000E+00  0.45593999997E+02  0.45594000000E+02  0.51100000000E-03 0. -1.
         11   -1    0    0    0    0 -0.00000000000E+00 -0.00000000000E+00 -0.45593999997E+02  0.45594000000E+02  0.51100000000E-03 0.  1.
    9900012    2    1    2    0    0 -0.15274195739E+02  0.69386931203E+01  0.83207332933E+01  0.72461518210E+02  0.69999932151E+02 0.  0.
         12    1    1    2    0    0  0.15274195739E+02 -0.69386931203E+01 -0.83207332933E+01  0.18726481790E+02  0.00000000000E+00 0. -1.
         11    1    3    3    0    0 -0.26008209825E+02  0.15961404753E+02  0.10231981071E+02  0.32185196238E+02  0.51100000000E-03 0. -1.
        -11    1    3    3    0    0 -0.14031415293E+02 -0.60441942322E+01 -0.30817380989E+00  0.15280964316E+02  0.51100000000E-03 0.  1.
         12    1    3    3    0    0  0.24765429379E+02 -0.29785174003E+01 -0.16030739683E+01  0.24995357657E+02  0.00000000000E+00 0. -1.
</event>
<event>
 7    1  0.2944263E-013  0.7246159E+02  0.7816164E-02  0.1226708E+00
        -11   -1    0    0    0    0  0.00000000000E+00  0.00000000000E+00  0.45593999997E+02  0.45594000000E+02  0.51100000000E-03 0.  1.
         11   -1    0    0    0    0 -0.00000000000E+00 -0.00000000000E+00 -0.45593999997E+02  0.45594000000E+02  0.51100000000E-03 0. -1.
    9900012    2    1    2    0    0  0.85464143284E+01 -0.35367797168E+01  0.16282768079E+02  0.72461586970E+02  0.70000021723E+02 0.  0.
         12    1    1    2    0    0 -0.85464143284E+01  0.35367797168E+01 -0.16282768079E+02  0.18726413030E+02  0.00000000000E+00 0. -1.
         11    1    3    3    0    0  0.59941379484E+01 -0.70153521126E+01 -0.21971574706E+02  0.23830546581E+02  0.51100000000E-03 0. -1.
        -11    1    3    3    0    0 -0.14381175121E+01 -0.12992590235E+02  0.17172013400E+02  0.21581325896E+02  0.51100000000E-03 0.  1.
        -12    1    3    3    0    0  0.39903938922E+01  0.16471162631E+02  0.21082329386E+02  0.27049714493E+02  0.00000000000E+00 0.  1.
</event>
<event>
 7    1  0.2944263E-013  0.7246153E+02  0.7816164E-02  0.1226708E+00
        -11   -1    0    0    0    0  0.00000000000E+00  0.00000000000E+00  0.45593999997E+02  0.45594000000E+02  0.51100000000E-03 0.  1.
         11   -1    0    0    0    0 -0.00000000000E+00 -0.00000000000E+00 -0.45593999997E+02  0.45594000000E+02  0.51100000000E-03 0. -1.
    9900012    2    1    2    0    0 -0.12571276994E+01  0.94636145914E+01  0.16110256801E+02  0.72461528219E+02  0.69999945189E+02 0.  0.
         12    1    1    2    0    0  0.12571276994E+01 -0.94636145914E+01 -0.16110256801E+02  0.18726471781E+02  0.00000000000E+00 0. -1.
         11    1    3    3    0    0 -0.24649567390E+02 -0.42064974954E+01  0.69347973042E+01  0.25949705347E+02  0.51100000000E-03 0. -1.
        -11    1    3    3    0    0  0.47393345184E+00  0.99617965733E+01  0.18877167998E+02  0.21349694981E+02  0.51100000000E-03 0.  1.
         12    1    3    3    0    0  0.22918506238E+02  0.37083155134E+01 -0.97017085016E+01  0.25162127891E+02  0.00000000000E+00 0. -1.
</event>
<event>
 7    1  0.2944263E-013  0.7246157E+02  0.7816164E-02  0.1226708E+00
        -11   -1    0    0    0    0  0.00000000000E+00  0.00000000000E+00  0.45593999997E+02  0.45594000000E+02  0.51100000000E-03 0.  1.
         11   -1    0    0    0    0 -0.00000000000E+00 -0.00000000000E+00 -0.45593999997E+02  0.45594000000E+02  0.51100000000E-03 0. -1.
    9900012    2    1    2    0    0 -0.94480369672E+01 -0.14926753710E+02 -0.62133712000E+01  0.72461565195E+02  0.69999993357E+02 0.  0.
         12    1    1    2    0    0  0.94480369672E+01  0.14926753710E+02  0.62133712000E+01  0.18726434805E+02  0.00000000000E+00 0. -1.
         11    1    3    3    0    0  0.19212140517E+02  0.99272412991E+01 -0.47229492901E+01  0.22135101385E+02  0.51100000000E-03 0. -1.
        -11    1    3    3    0    0  0.51695039485E+01 -0.30450054199E+01 -0.75275714602E+01  0.96260148260E+01  0.51100000000E-03 0.  1.
        -12    1    3    3    0    0 -0.33829681433E+02 -0.21808989589E+02  0.60371495503E+01  0.40700448984E+02  0.00000000000E+00 0.  1.
</event>
<event>
 7    1  0.2944263E-013  0.7246151E+02  0.7816164E-02  0.1226708E+00
        -11   -1    0    0    0    0  0.00000000000E+00  0.00000000000E+00  0.45593999997E+02  0.45594000000E+02  0.51100000000E-03 0. -1.
         11   -1    0    0    0    0 -0.00000000000E+00 -0.00000000000E+00 -0.45593999997E+02  0.45594000000E+02  0.51100000000E-03 0.  1.
    9900012    2    1    2    0    0 -0.10455226720E+02  0.59262865429E+00 -0.15524767249E+02  0.72461511471E+02  0.69999923371E+02 0.  0.
         12    1    1    2    0    0  0.10455226720E+02 -0.59262865429E+00  0.15524767249E+02  0.18726488529E+02  0.00000000000E+00 0. -1.
         11    1    3    3    0    0 -0.67541435409E+01 -0.27354134770E+02  0.63678992305E+01  0.28886281949E+02  0.51100000000E-03 0. -1.
        -11    1    3    3    0    0  0.60118952577E+00 -0.72073283072E+00 -0.13309713068E+02  0.13342763839E+02  0.51100000000E-03 0.  1.
        -12    1    3    3    0    0 -0.43022727051E+01  0.28667496255E+02 -0.85829534117E+01  0.30232465682E+02  0.00000000000E+00 0.  1.
</event>
<event>
 7    1  0.2944263E-013  0.7246156E+02  0.7816164E-02  0.1226708E+00
        -11   -1    0    0    0    0  0.00000000000E+00  0.00000000000E+00  0.45593999997E+02  0.45594000000E+02  0.51100000000E-03 0.  1.
         11   -1    0    0    0    0 -0.00000000000E+00 -0.00000000000E+00 -0.45593999997E+02  0.45594000000E+02  0.51100000000E-03 0. -1.
    9900012    2    1    2    0    0 -0.11530663500E+02 -0.36144970756E+01  0.14305901891E+02  0.72461558300E+02  0.69999984374E+02 0.  0.
         12    1    1    2    0    0  0.11530663500E+02  0.36144970756E+01 -0.14305901891E+02  0.18726441700E+02  0.00000000000E+00 0. -1.
         11    1    3    3    0    0  0.92665062054E+00 -0.19599278157E+02 -0.10325775285E+02  0.22172325569E+02  0.51100000000E-03 0. -1.
        -11    1    3    3    0    0  0.43075801878E+01 -0.10338603297E+02  0.12556847237E+02  0.16826062463E+02  0.51100000000E-03 0.  1.
        -12    1    3    3    0    0 -0.16764894308E+02  0.26323384378E+02  0.12074829939E+02  0.33463170267E+02  0.00000000000E+00 0.  1.
</event>
<event>
 7    1  0.2944263E-013  0.7246153E+02  0.7816164E-02  0.1226708E+00
        -11   -1    0    0    0    0  0.00000000000E+00  0.00000000000E+00  0.45593999997E+02  0.45594000000E+02  0.51100000000E-03 0.  1.
         11   -1    0    0    0    0 -0.00000000000E+00 -0.00000000000E+00 -0.45593999997E+02  0.45594000000E+02  0.51100000000E-03 0. -1.
    9900012    2    1    2    0    0 -0.86488430018E+00 -0.74912527858E+00  0.18691484416E+02  0.72461526675E+02  0.69999943177E+02 0.  0.
         12    1    1    2    0    0  0.86488430018E+00  0.74912527858E+00 -0.18691484416E+02  0.18726473325E+02  0.00000000000E+00 0. -1.
         11    1    3    3    0    0 -0.16405589948E+02  0.44693685676E+01  0.78462504752E+01  0.18726512856E+02  0.51100000000E-03 0.  1.
        -11    1    3    3    0    0  0.14691489306E+01 -0.24488502772E+02 -0.50731975628E+01  0.25051596763E+02  0.51100000000E-03 0. -1.
         12    1    3    3    0    0  0.14071556718E+02  0.19270008926E+02  0.15918431503E+02  0.28683417056E+02  0.00000000000E+00 0. -1.
</event>
<event>
 7    1  0.2944263E-013  0.7246156E+02  0.7816164E-02  0.1226708E+00
        -11   -1    0    0    0    0  0.00000000000E+00  0.00000000000E+00  0.45593999997E+02  0.45594000000E+02  0.51100000000E-03 0. -1.
         11   -1    0    0    0    0 -0.00000000000E+00 -0.00000000000E+00 -0.45593999997E+02  0.45594000000E+02  0.51100000000E-03 0.  1.
    9900012    2    1    2    0    0 -0.50429862027E+01 -0.10625170205E+02 -0.14572351876E+02  0.72461564383E+02  0.69999992299E+02 0.  0.
         12    1    1    2    0    0  0.50429862027E+01  0.10625170205E+02  0.14572351876E+02  0.18726435617E+02  0.00000000000E+00 0. -1.
         11    1    3    3    0    0 -0.75520301080E+01  0.31870432214E+01  0.54344900836E+01  0.98348404145E+01  0.51100000000E-03 0. -1.
        -11    1    3    3    0    0 -0.11798949909E+02 -0.75552792054E+01  0.17253817583E+02  0.22225923699E+02  0.51100000000E-03 0.  1.
        -12    1    3    3    0    0  0.14307993814E+02 -0.62569342208E+01 -0.37260659543E+02  0.40400800269E+02  0.00000000000E+00 0.  1.
</event>
<event>
 7    1  0.2944263E-013  0.7246166E+02  0.7816164E-02  0.1226708E+00
        -11   -1    0    0    0    0  0.00000000000E+00  0.00000000000E+00  0.45593999997E+02  0.45594000000E+02  0.51100000000E-03 0.  1.
         11   -1    0    0    0    0 -0.00000000000E+00 -0.00000000000E+00 -0.45593999997E+02  0.45594000000E+02  0.51100000000E-03 0. -1.
    9900012    2    1    2    0    0  0.29565582164E+01  0.16841778884E+02  0.76347298647E+01  0.72461658858E+02  0.70000115370E+02 0.  0.
         12    1    1    2    0    0 -0.29565582164E+01 -0.16841778884E+02 -0.76347298647E+01  0.18726341142E+02  0.00000000000E+00 0. -1.
         11    1    3    3    0    0 -0.34063762953E+01 -0.74125847249E+01 -0.14673354634E+02  0.16788601736E+02  0.51100000000E-03 0. -1.
        -11    1    3    3    0    0  0.21004596296E+02  0.18657068149E+02 -0.37998252885E+00  0.28096683870E+02  0.51100000000E-03 0.  1.
        -12    1    3    3    0    0 -0.14641661784E+02  0.55972954599E+01  0.22688067028E+02  0.27576373252E+02  0.00000000000E+00 0.  1.
</event>
<event>
 7    1  0.2944263E-013  0.7246156E+02  0.7816164E-02  0.1226708E+00
        -11   -1    0    0    0    0  0.00000000000E+00  0.00000000000E+00  0.45593999997E+02  0.45594000000E+02  0.51100000000E-03 0.  1.
         11   -1    0    0    0    0 -0.00000000000E+00 -0.00000000000E+00 -0.45593999997E+02  0.45594000000E+02  0.51100000000E-03 0. -1.
    9900012    2    1    2    0    0 -0.69112925495E+01  0.16370575623E+02  0.59091222296E+01  0.72461563167E+02  0.69999990716E+02 0.  0.
         12    1    1    2    0    0  0.69112925495E+01 -0.16370575623E+02 -0.59091222296E+01  0.18726436833E+02  0.00000000000E+00 0. -1.
         11    1    3    3    0    0 -0.11389152398E+01 -0.19396955105E+01 -0.15667134816E+02  0.15827781279E+02  0.51100000000E-03 0. -1.
        -11    1    3    3    0    0  0.18573701486E+02  0.13824355161E+02 -0.93581677060E+00  0.23172633338E+02  0.51100000000E-03 0.  1.
        -12    1    3    3    0    0 -0.24346078796E+02  0.44859159718E+01  0.22512073816E+02  0.33461148551E+02  0.00000000000E+00 0.  1.
</event>
<event>
 7    1  0.2944263E-013  0.7246158E+02  0.7816164E-02  0.1226708E+00
        -11   -1    0    0    0    0  0.00000000000E+00  0.00000000000E+00  0.45593999997E+02  0.45594000000E+02  0.51100000000E-03 0. -1.
         11   -1    0    0    0    0 -0.00000000000E+00 -0.00000000000E+00 -0.45593999997E+02  0.45594000000E+02  0.51100000000E-03 0.  1.
    9900012    2    1    2    0    0 -0.70668684604E+01 -0.10393561174E+01 -0.17310625355E+02  0.72461584402E+02  0.70000018378E+02 0.  0.
         12    1    1    2    0    0  0.70668684604E+01  0.10393561174E+01  0.17310625355E+02  0.18726415598E+02  0.00000000000E+00 0. -1.
         11    1    3    3    0    0 -0.12314188230E+02 -0.17892334820E+02  0.11274970786E+02  0.24472430275E+02  0.51100000000E-03 0. -1.
        -11    1    3    3    0    0 -0.33594267524E+01  0.12898230584E+02  0.41110887412E+01  0.13948159420E+02  0.51100000000E-03 0.  1.
        -12    1    3    3    0    0  0.86067465223E+01  0.39547481186E+01 -0.32696684881E+02  0.34040994707E+02  0.00000000000E+00 0.  1.
</event>
<event>
 7    1  0.2944263E-013  0.7246161E+02  0.7816164E-02  0.1226708E+00
        -11   -1    0    0    0    0  0.00000000000E+00  0.00000000000E+00  0.45593999997E+02  0.45594000000E+02  0.51100000000E-03 0.  1.
         11   -1    0    0    0    0 -0.00000000000E+00 -0.00000000000E+00 -0.45593999997E+02  0.45594000000E+02  0.51100000000E-03 0. -1.
    9900012    2    1    2    0    0 -0.12895717572E+02  0.63148490217E+01  0.12020847799E+02  0.72461611355E+02  0.70000053489E+02 0.  0.
         12    1    1    2    0    0  0.12895717572E+02 -0.63148490217E+01 -0.12020847799E+02  0.18726388645E+02  0.00000000000E+00 0. -1.
         11    1    3    3    0    0 -0.25884320650E+02  0.81421098281E+01  0.24274974366E+02  0.36408328562E+02  0.51100000000E-03 0. -1.
        -11    1    3    3    0    0  0.76250949728E+01 -0.56323223343E+01  0.94436384500E+01  0.13380860797E+02  0.51100000000E-03 0.  1.
        -12    1    3    3    0    0  0.53635081048E+01  0.38050615279E+01 -0.21697765018E+02  0.22672421996E+02  0.00000000000E+00 0.  1.
</event>
<event>
 7    1  0.2944263E-013  0.7246132E+02  0.7816164E-02  0.1226709E+00
        -11   -1    0    0    0    0  0.00000000000E+00  0.00000000000E+00  0.45593999997E+02  0.45594000000E+02  0.51100000000E-03 0.  1.
         11   -1    0    0    0    0 -0.00000000000E+00 -0.00000000000E+00 -0.45593999997E+02  0.45594000000E+02  0.51100000000E-03 0. -1.
    9900012    2    1    2    0    0  0.72211206436E+01 -0.13152488715E+02  0.11205174939E+02  0.72461321486E+02  0.69999675880E+02 0.  0.
         12    1    1    2    0    0 -0.72211206436E+01  0.13152488715E+02 -0.11205174939E+02  0.18726678514E+02  0.00000000000E+00 0. -1.
         11    1    3    3    0    0  0.58791697020E+01 -0.33417897020E+02 -0.57479815884E+01  0.34414528476E+02  0.51100000000E-03 0. -1.
        -11    1    3    3    0    0 -0.28795590648E+01  0.35008075427E+01 -0.71010664716E+01  0.84245272362E+01  0.51100000000E-03 0.  1.
        -12    1    3    3    0    0  0.42215100064E+01  0.16764600762E+02  0.24054222999E+02  0.29622265773E+02  0.00000000000E+00 0.  1.
</event>
<event>
 7    1  0.2944263E-013  0.7246150E+02  0.7816164E-02  0.1226708E+00
        -11   -1    0    0    0    0  0.00000000000E+00  0.00000000000E+00  0.45593999997E+02  0.45594000000E+02  0.51100000000E-03 0. -1.
         11   -1    0    0    0    0 -0.00000000000E+00 -0.00000000000E+00 -0.45593999997E+02  0.45594000000E+02  0.51100000000E-03 0.  1.
    9900012    2    1    2    0    0  0.88853705159E+01 -0.16414085396E+02 -0.15197844834E+01  0.72461501303E+02  0.69999910126E+02 0.  0.
         12    1    1    2    0    0 -0.88853705159E+01  0.16414085396E+02  0.15197844834E+01  0.18726498697E+02  0.00000000000E+00 0. -1.
         11    1    3    3    0    0 -0.21836201527E+02 -0.19771301795E+01  0.49107315907E+01  0.22468734408E+02  0.51100000000E-03 0. -1.
        -11    1    3    3    0    0 -0.26127070352E+01 -0.11986329590E+02 -0.10723555325E+02  0.16293955141E+02  0.51100000000E-03 0.  1.
         12    1    3    3    0    0  0.33334279078E+02 -0.24506256260E+01  0.42930392504E+01  0.33698811754E+02  0.00000000000E+00 0. -1.
</event>
<event>
 7    1  0.2944263E-013  0.7246158E+02  0.7816164E-02  0.1226708E+00
        -11   -1    0    0    0    0  0.00000000000E+00  0.00000000000E+00  0.45593999997E+02  0.45594000000E+02  0.51100000000E-03 0. -1.
         11   -1    0    0    0    0 -0.00000000000E+00 -0.00000000000E+00 -0.45593999997E+02  0.45594000000E+02  0.51100000000E-03 0.  1.
    9900012    2    1    2    0    0  0.14364721900E+01  0.17858251938E+02  0.54495902845E+01  0.72461584195E+02  0.70000018108E+02 0.  0.
         12    1    1    2    0    0 -0.14364721900E+01 -0.17858251938E+02 -0.54495902845E+01  0.18726415805E+02  0.00000000000E+00 0. -1.
         11    1    3    3    0    0 -0.62922101171E+01 -0.46986539623E+01  0.13858414878E+02  0.15928745098E+02  0.51100000000E-03 0. -1.
        -11    1    3    3    0    0 -0.74097235286E+01  0.62600495355E+01  0.18940706673E+02  0.21280098507E+02  0.51100000000E-03 0.  1.
        -12    1    3    3    0    0  0.15138405836E+02  0.16296856365E+02 -0.27349531266E+02  0.35252740590E+02  0.00000000000E+00 0.  1.
</event>
<event>
 7    1  0.2944263E-013  0.7246158E+02  0.7816164E-02  0.1226708E+00
        -11   -1    0    0    0    0  0.00000000000E+00  0.00000000000E+00  0.45593999997E+02  0.45594000000E+02  0.51100000000E-03 0.  1.
         11   -1    0    0    0    0 -0.00000000000E+00 -0.00000000000E+00 -0.45593999997E+02  0.45594000000E+02  0.51100000000E-03 0. -1.
    9900012    2    1    2    0    0 -0.12186447774E+02  0.56374788652E+01  0.13053285547E+02  0.72461576399E+02  0.70000007952E+02 0.  0.
         12    1    1    2    0    0  0.12186447774E+02 -0.56374788652E+01 -0.13053285547E+02  0.18726423601E+02  0.00000000000E+00 0. -1.
         11    1    3    3    0    0 -0.30094262627E+02 -0.37042299678E+00 -0.88506009202E+01  0.31370925921E+02  0.51100000000E-03 0. -1.
        -11    1    3    3    0    0 -0.23949030685E+01  0.44790061204E-01 -0.57737296654E+01  0.62508816472E+01  0.51100000000E-03 0.  1.
        -12    1    3    3    0    0  0.20302717921E+02  0.59631118007E+01  0.27677616133E+02  0.34839768830E+02  0.00000000000E+00 0.  1.
</event>
<event>
 7    1  0.2944263E-013  0.7246151E+02  0.7816164E-02  0.1226708E+00
        -11   -1    0    0    0    0  0.00000000000E+00  0.00000000000E+00  0.45593999997E+02  0.45594000000E+02  0.51100000000E-03 0. -1.
         11   -1    0    0    0    0 -0.00000000000E+00 -0.00000000000E+00 -0.45593999997E+02  0.45594000000E+02  0.51100000000E-03 0.  1.
    9900012    2    1    2    0    0 -0.11684434075E+01  0.13579418515E+02 -0.12841949872E+02  0.72461506903E+02  0.69999917421E+02 0.  0.
         12    1    1    2    0    0  0.11684434075E+01 -0.13579418515E+02  0.12841949872E+02  0.18726493097E+02  0.00000000000E+00 0. -1.
         11    1    3    3    0    0  0.97964337926E+01  0.21925807590E+02 -0.11444877905E+01  0.24042067426E+02  0.51100000000E-03 0. -1.
        -11    1    3    3    0    0 -0.14635206959E+02  0.16389364893E+02 -0.58548551180E+01  0.22739390780E+02  0.51100000000E-03 0.  1.
         12    1    3    3    0    0  0.36703297591E+01 -0.24735753969E+02 -0.58426069635E+01  0.25680048697E+02  0.00000000000E+00 0. -1.
</event>
<event>
 7    1  0.2944263E-013  0.7246158E+02  0.7816164E-02  0.1226708E+00
        -11   -1    0    0    0    0  0.00000000000E+00  0.00000000000E+00  0.45593999997E+02  0.45594000000E+02  0.51100000000E-03 0. -1.
         11   -1    0    0    0    0 -0.00000000000E+00 -0.00000000000E+00 -0.45593999997E+02  0.45594000000E+02  0.51100000000E-03 0.  1.
    9900012    2    1    2    0    0  0.12511295022E+02  0.10458375411E+02 -0.92069849961E+01  0.72461583042E+02  0.70000016606E+02 0.  0.
         12    1    1    2    0    0 -0.12511295022E+02 -0.10458375411E+02  0.92069849961E+01  0.18726416958E+02  0.00000000000E+00 0. -1.
         11    1    3    3    0    0  0.23741055416E+02  0.55218986852E+01  0.13180021855E+02  0.27709963077E+02  0.51100000000E-03 0. -1.
        -11    1    3    3    0    0  0.94793774527E+01  0.10343126459E+02 -0.18137606653E+02  0.22930583011E+02  0.51100000000E-03 0.  1.
        -12    1    3    3    0    0 -0.20709137847E+02 -0.54066497327E+01 -0.42494001983E+01  0.21821036954E+02  0.00000000000E+00 0.  1.
</event>
<event>
 7    1  0.2944263E-013  0.7246159E+02  0.7816164E-02  0.1226708E+00
        -11   -1    0    0    0    0  0.00000000000E+00  0.00000000000E+00  0.45593999997E+02  0.45594000000E+02  0.51100000000E-03 0. -1.
         11   -1    0    0    0    0 -0.00000000000E+00 -0.00000000000E+00 -0.45593999997E+02  0.45594000000E+02  0.51100000000E-03 0.  1.
    9900012    2    1    2    0    0 -0.73611149410E+01  0.57692707401E+01 -0.16223687139E+02  0.72461587572E+02  0.70000022507E+02 0.  0.
         12    1    1    2    0    0  0.73611149410E+01 -0.57692707401E+01  0.16223687139E+02  0.18726412428E+02  0.00000000000E+00 0. -1.
         11    1    3    3    0    0  0.68958857569E+00 -0.28011353817E+02 -0.79677087261E+01  0.29130668678E+02  0.51100000000E-03 0. -1.
        -11    1    3    3    0    0  0.42403660048E+01 -0.19961265457E+01 -0.48408941000E+00  0.47116417371E+01  0.51100000000E-03 0.  1.
         12    1    3    3    0    0 -0.12291069521E+02  0.35776751102E+02 -0.77718890028E+01  0.38619277157E+02  0.00000000000E+00 0. -1.
</event>
<event>
 7    1  0.2944263E-013  0.7246158E+02  0.7816164E-02  0.1226708E+00
        -11   -1    0    0    0    0  0.00000000000E+00  0.00000000000E+00  0.45593999997E+02  0.45594000000E+02  0.51100000000E-03 0. -1.
         11   -1    0    0    0    0 -0.00000000000E+00 -0.00000000000E+00 -0.45593999997E+02  0.45594000000E+02  0.51100000000E-03 0.  1.
    9900012    2    1    2    0    0 -0.10354437632E+02 -0.53151090927E+01 -0.14670178375E+02  0.72461577573E+02  0.70000009482E+02 0.  0.
         12    1    1    2    0    0  0.10354437632E+02  0.53151090927E+01  0.14670178375E+02  0.18726422427E+02  0.00000000000E+00 0. -1.
         11    1    3    3    0    0 -0.15727776747E+01 -0.34869985957E+01  0.15880262341E+02  0.16334488700E+02  0.51100000000E-03 0. -1.
        -11    1    3    3    0    0  0.65973949689E+01  0.10864053435E+02  0.63314408049E+01  0.14200014801E+02  0.51100000000E-03 0.  1.
        -12    1    3    3    0    0 -0.15379054927E+02 -0.12692163932E+02 -0.36881881521E+02  0.41927074072E+02  0.00000000000E+00 0.  1.
</event>
<event>
 7    1  0.2944263E-013  0.7246155E+02  0.7816164E-02  0.1226708E+00
        -11   -1    0    0    0    0  0.00000000000E+00  0.00000000000E+00  0.45593999997E+02  0.45594000000E+02  0.51100000000E-03 0.  1.
         11   -1    0    0    0    0 -0.00000000000E+00 -0.00000000000E+00 -0.45593999997E+02  0.45594000000E+02  0.51100000000E-03 0. -1.
    9900012    2    1    2    0    0  0.10880037436E+02  0.14669105095E+02 -0.41378806505E+01  0.72461550385E+02  0.69999974064E+02 0.  0.
         12    1    1    2    0    0 -0.10880037436E+02 -0.14669105095E+02  0.41378806505E+01  0.18726449615E+02  0.00000000000E+00 0. -1.
         11    1    3    3    0    0 -0.10486343886E+02 -0.14505907864E+02 -0.69007091984E+01  0.19183444913E+02  0.51100000000E-03 0. -1.
        -11    1    3    3    0    0 -0.84494227349E+01 -0.13678439479E+01 -0.49736223968E+01  0.98995283537E+01  0.51100000000E-03 0.  1.
        -12    1    3    3    0    0  0.29815804056E+02  0.30542856907E+02  0.77364509447E+01  0.43378577118E+02  0.00000000000E+00 0.  1.
</event>
<event>
 7    1  0.2944263E-013  0.7246171E+02  0.7816164E-02  0.1226708E+00
        -11   -1    0    0    0    0  0.00000000000E+00  0.00000000000E+00  0.45593999997E+02  0.45594000000E+02  0.51100000000E-03 0. -1.
         11   -1    0    0    0    0 -0.00000000000E+00 -0.00000000000E+00 -0.45593999997E+02  0.45594000000E+02  0.51100000000E-03 0.  1.
    9900012    2    1    2    0    0 -0.22232659005E+01 -0.86876056690E+01 -0.16439483702E+02  0.72461707577E+02  0.70000178836E+02 0.  0.
         12    1    1    2    0    0  0.22232659005E+01  0.86876056690E+01  0.16439483702E+02  0.18726292423E+02  0.00000000000E+00 0. -1.
         11    1    3    3    0    0 -0.17920675096E+02  0.26067027092E+01 -0.86298697655E+01  0.20060412442E+02  0.51100000000E-03 0. -1.
        -11    1    3    3    0    0  0.11225858399E+01 -0.28361491934E+02  0.71659724870E+00  0.28392744417E+02  0.51100000000E-03 0.  1.
        -12    1    3    3    0    0  0.14574823356E+02  0.17067183555E+02 -0.85262111852E+01  0.24008550717E+02  0.00000000000E+00 0.  1.
</event>
<event>
 7    1  0.2944263E-013  0.7246157E+02  0.7816164E-02  0.1226708E+00
        -11   -1    0    0    0    0  0.00000000000E+00  0.00000000000E+00  0.45593999997E+02  0.45594000000E+02  0.51100000000E-03 0.  1.
         11   -1    0    0    0    0 -0.00000000000E+00 -0.00000000000E+00 -0.45593999997E+02  0.45594000000E+02  0.51100000000E-03 0. -1.
    9900012    2    1    2    0    0  0.64200861652E+01  0.17123670862E+02  0.40301000187E+01  0.72461566374E+02  0.69999994893E+02 0.  0.
         12    1    1    2    0    0 -0.64200861652E+01 -0.17123670862E+02 -0.40301000187E+01  0.18726433626E+02  0.00000000000E+00 0. -1.
         11    1    3    3    0    0  0.23706092785E+00  0.20559228667E+02  0.80800631837E+01  0.22091299251E+02  0.51100000000E-03 0. -1.
        -11    1    3    3    0    0  0.27831277475E+02 -0.36874692464E+01  0.11746295218E+01  0.28099060307E+02  0.51100000000E-03 0.  1.
         12    1    3    3    0    0 -0.21648252238E+02  0.25191144155E+00 -0.52245926867E+01  0.22271206817E+02  0.00000000000E+00 0. -1.
</event>
<event>
 7    1  0.2944263E-013  0.7246154E+02  0.7816164E-02  0.1226708E+00
        -11   -1    0    0    0    0  0.00000000000E+00  0.00000000000E+00  0.45593999997E+02  0.45594000000E+02  0.51100000000E-03 0. -1.
         11   -1    0    0    0    0 -0.00000000000E+00 -0.00000000000E+00 -0.45593999997E+02  0.45594000000E+02  0.51100000000E-03 0.  1.
    9900012    2    1    2    0    0  0.65921775586E+01 -0.17310217242E+02 -0.27531273642E+01  0.72461544483E+02  0.69999966376E+02 0.  0.
         12    1    1    2    0    0 -0.65921775586E+01  0.17310217242E+02  0.27531273642E+01  0.18726455517E+02  0.00000000000E+00 0. -1.
         11    1    3    3    0    0 -0.74670617168E+01  0.14750969442E+02 -0.31953355900E+01  0.16839188815E+02  0.51100000000E-03 0. -1.
        -11    1    3    3    0    0 -0.14722752749E+02 -0.56438655768E+01 -0.40994191839E+01  0.16291651391E+02  0.51100000000E-03 0.  1.
        -12    1    3    3    0    0  0.28781992024E+02 -0.26417321107E+02  0.45416274098E+01  0.39330704277E+02  0.00000000000E+00 0.  1.
</event>
<event>
 7    1  0.2944263E-013  0.7246167E+02  0.7816164E-02  0.1226708E+00
        -11   -1    0    0    0    0  0.00000000000E+00  0.00000000000E+00  0.45593999997E+02  0.45594000000E+02  0.51100000000E-03 0.  1.
         11   -1    0    0    0    0 -0.00000000000E+00 -0.00000000000E+00 -0.45593999997E+02  0.45594000000E+02  0.51100000000E-03 0. -1.
    9900012    2    1    2    0    0 -0.62211824503E+01 -0.13344893373E+02  0.11570924568E+02  0.72461665987E+02  0.70000124657E+02 0.  0.
         12    1    1    2    0    0  0.62211824503E+01  0.13344893373E+02 -0.11570924568E+02  0.18726334013E+02  0.00000000000E+00 0. -1.
         11    1    3    3    0    0  0.72020503495E+01 -0.43122301331E+01  0.23076564901E+02  0.24555909795E+02  0.51100000000E-03 0. -1.
        -11    1    3    3    0    0 -0.10777716481E+02  0.48828807925E+01  0.14243914792E+02  0.18517310988E+02  0.51100000000E-03 0.  1.
         12    1    3    3    0    0 -0.26455163190E+01 -0.13915544033E+02 -0.25749555125E+02  0.29388445203E+02  0.00000000000E+00 0. -1.
</event>
<event>
 7    1  0.2944263E-013  0.7246156E+02  0.7816164E-02  0.1226708E+00
        -11   -1    0    0    0    0  0.00000000000E+00  0.00000000000E+00  0.45593999997E+02  0.45594000000E+02  0.51100000000E-03 0.  1.
         11   -1    0    0    0    0 -0.00000000000E+00 -0.00000000000E+00 -0.45593999997E+02  0.45594000000E+02  0.51100000000E-03 0. -1.
    9900012    2    1    2    0    0 -0.15487478487E+02  0.10397396902E+02 -0.16467690757E+01  0.72461556114E+02  0.69999981527E+02 0.  0.
         12    1    1    2    0    0  0.15487478487E+02 -0.10397396902E+02  0.16467690757E+01  0.18726443886E+02  0.00000000000E+00 0. -1.
         11    1    3    3    0    0  0.51624750990E+01 -0.10165821883E+02  0.19934597032E+02  0.22964826208E+02  0.51100000000E-03 0. -1.
        -11    1    3    3    0    0  0.15261715950E+01 -0.81256006723E+01 -0.34994924312E+01  0.89778078372E+01  0.51100000000E-03 0.  1.
        -12    1    3    3    0    0 -0.22176125181E+02  0.28688819458E+02 -0.18081873676E+02  0.40518922068E+02  0.00000000000E+00 0.  1.
</event>
<event>
 7    1  0.2944263E-013  0.7246089E+02  0.7816164E-02  0.1226710E+00
        -11   -1    0    0    0    0  0.00000000000E+00  0.00000000000E+00  0.45593999997E+02  0.45594000000E+02  0.51100000000E-03 0.  1.
         11   -1    0    0    0    0 -0.00000000000E+00 -0.00000000000E+00 -0.45593999997E+02  0.45594000000E+02  0.51100000000E-03 0. -1.
    9900012    2    1    2    0    0 -0.11568989804E+02  0.14424906164E+02  0.29639807476E+01  0.72460890645E+02  0.69999114624E+02 0.  0.
         12    1    1    2    0    0  0.11568989804E+02 -0.14424906164E+02 -0.29639807476E+01  0.18727109355E+02  0.00000000000E+00 0. -1.
         11    1    3    3    0    0  0.34740725046E+01 -0.38606626215E+01 -0.54382379110E+01  0.75198621983E+01  0.51100000000E-03 0. -1.
        -11    1    3    3    0    0  0.14027009607E+02  0.26728913268E+02 -0.69846285177E+01  0.30983493005E+02  0.51100000000E-03 0.  1.
        -12    1    3    3    0    0 -0.29070071915E+02 -0.84433444826E+01  0.15386847176E+02  0.33957535441E+02  0.00000000000E+00 0.  1.
</event>
<event>
 7    1  0.2944263E-013  0.7246157E+02  0.7816164E-02  0.1226708E+00
        -11   -1    0    0    0    0  0.00000000000E+00  0.00000000000E+00  0.45593999997E+02  0.45594000000E+02  0.51100000000E-03 0.  1.
         11   -1    0    0    0    0 -0.00000000000E+00 -0.00000000000E+00 -0.45593999997E+02  0.45594000000E+02  0.51100000000E-03 0. -1.
    9900012    2    1    2    0    0 -0.84677307088E+01 -0.10843461086E+02  0.12704175003E+02  0.72461570170E+02  0.69999999838E+02 0.  0.
         12    1    1    2    0    0  0.84677307088E+01  0.10843461086E+02 -0.12704175003E+02  0.18726429830E+02  0.00000000000E+00 0. -1.
         11    1    3    3    0    0  0.13557138528E+01  0.20618661786E+02 -0.62078357813E-01  0.20663277278E+02  0.51100000000E-03 0. -1.
        -11    1    3    3    0    0  0.47478295490E+01  0.65324795914E+01  0.70227565901E+01  0.10702069212E+02  0.51100000000E-03 0.  1.
         12    1    3    3    0    0 -0.14571274111E+02 -0.37994602464E+02  0.57434967702E+01  0.41096223680E+02  0.00000000000E+00 0. -1.
</event>
<event>
 7    1  0.2944263E-013  0.7246158E+02  0.7816164E-02  0.1226708E+00
        -11   -1    0    0    0    0  0.00000000000E+00  0.00000000000E+00  0.45593999997E+02  0.45594000000E+02  0.51100000000E-03 0. -1.
         11   -1    0    0    0    0 -0.00000000000E+00 -0.00000000000E+00 -0.45593999997E+02  0.45594000000E+02  0.51100000000E-03 0.  1.
    9900012    2    1    2    0    0  0.56439659059E+01  0.25060553563E+01 -0.17678917424E+02  0.72461580538E+02  0.70000013344E+02 0.  0.
         12    1    1    2    0    0 -0.56439659059E+01 -0.25060553563E+01  0.17678917424E+02  0.18726419462E+02  0.00000000000E+00 0. -1.
         11    1    3    3    0    0 -0.46287741238E+01 -0.22097614612E+02  0.10372726418E+02  0.24845997164E+02  0.51100000000E-03 0. -1.
        -11    1    3    3    0    0  0.38420665277E+01 -0.33598920174E+01  0.25162660750E+01  0.56905135790E+01  0.51100000000E-03 0.  1.
        -12    1    3    3    0    0  0.64306735021E+01  0.27963561986E+02 -0.30567909917E+02  0.41925069795E+02  0.00000000000E+00 0.  1.
</event>
<event>
 7    1  0.2944263E-013  0.7246157E+02  0.7816164E-02  0.1226708E+00
        -11   -1    0    0    0    0  0.00000000000E+00  0.00000000000E+00  0.45593999997E+02  0.45594000000E+02  0.51100000000E-03 0.  1.
         11   -1    0    0    0    0 -0.00000000000E+00 -0.00000000000E+00 -0.45593999997E+02  0.45594000000E+02  0.51100000000E-03 0. -1.
    9900012    2    1    2    0    0  0.41294139641E+01  0.46075581271E+01  0.17674772926E+02  0.72461568157E+02  0.69999997216E+02 0.  0.
         12    1    1    2    0    0 -0.41294139641E+01 -0.46075581271E+01 -0.17674772926E+02  0.18726431843E+02  0.00000000000E+00 0. -1.
         11    1    3    3    0    0 -0.62550574994E+00 -0.17372768596E+02 -0.17273808487E+01  0.17469636258E+02  0.51100000000E-03 0. -1.
        -11    1    3    3    0    0  0.19553257112E+02  0.13578786467E+02 -0.58754494972E+01  0.24520077746E+02  0.51100000000E-03 0.  1.
        -12    1    3    3    0    0 -0.14798337398E+02  0.84015402561E+01  0.25277603272E+02  0.30471854154E+02  0.00000000000E+00 0.  1.
</event>
<event>
 7    1  0.2944263E-013  0.7246154E+02  0.7816164E-02  0.1226708E+00
        -11   -1    0    0    0    0  0.00000000000E+00  0.00000000000E+00  0.45593999997E+02  0.45594000000E+02  0.51100000000E-03 0.  1.
         11   -1    0    0    0    0 -0.00000000000E+00 -0.00000000000E+00 -0.45593999997E+02  0.45594000000E+02  0.51100000000E-03 0. -1.
    9900012    2    1    2    0    0 -0.76040165282E+00  0.91375901288E+01  0.16328088573E+02  0.72461541699E+02  0.69999962750E+02 0.  0.
         12    1    1    2    0    0  0.76040165282E+00 -0.91375901288E+01 -0.16328088573E+02  0.18726458301E+02  0.00000000000E+00 0. -1.
         11    1    3    3    0    0  0.14926020702E+00  0.26958705190E+01 -0.72210752495E+01  0.77093400810E+01  0.51100000000E-03 0. -1.
        -11    1    3    3    0    0 -0.79460640159E+01  0.16052813902E+02 -0.15648511416E+02  0.23784631116E+02  0.51100000000E-03 0.  1.
        -12    1    3    3    0    0  0.70364021561E+01 -0.96110942925E+01  0.39197675238E+02  0.40967570503E+02  0.00000000000E+00 0.  1.
</event>
<event>
 7    1  0.2944263E-013  0.7246170E+02  0.7816164E-02  0.1226708E+00
        -11   -1    0    0    0    0  0.00000000000E+00  0.00000000000E+00  0.45593999997E+02  0.45594000000E+02  0.51100000000E-03 0.  1.
         11   -1    0    0    0    0 -0.00000000000E+00 -0.00000000000E+00 -0.45593999997E+02  0.45594000000E+02  0.51100000000E-03 0. -1.
    9900012    2    1    2    0    0  0.32296200054E+01  0.18382565034E+02  0.15248000782E+01  0.72461704107E+02  0.70000174315E+02 0.  0.
         12    1    1    2    0    0 -0.32296200054E+01 -0.18382565034E+02 -0.15248000782E+01  0.18726295893E+02  0.00000000000E+00 0. -1.
         11    1    3    3    0    0  0.20571622556E+02  0.55223100774E+01  0.92384603619E+01  0.23217164196E+02  0.51100000000E-03 0. -1.
        -11    1    3    3    0    0 -0.12683408364E+02  0.10745725805E+02  0.17135651313E+02  0.23874044839E+02  0.51100000000E-03 0.  1.
        -12    1    3    3    0    0 -0.46585941869E+01  0.21145291514E+01 -0.24849311597E+02  0.25370495071E+02  0.00000000000E+00 0.  1.
</event>
<event>
 7    1  0.2944263E-013  0.7246151E+02  0.7816164E-02  0.1226708E+00
        -11   -1    0    0    0    0  0.00000000000E+00  0.00000000000E+00  0.45593999997E+02  0.45594000000E+02  0.51100000000E-03 0. -1.
         11   -1    0    0    0    0 -0.00000000000E+00 -0.00000000000E+00 -0.45593999997E+02  0.45594000000E+02  0.51100000000E-03 0.  1.
    9900012    2    1    2    0    0  0.14048200540E+02 -0.33116271359E+01 -0.11931572828E+02  0.72461514937E+02  0.69999927886E+02 0.  0.
         12    1    1    2    0    0 -0.14048200540E+02  0.33116271359E+01  0.11931572828E+02  0.18726485063E+02  0.00000000000E+00 0. -1.
         11    1    3    3    0    0 -0.11207711730E+02 -0.16987354727E+02  0.69976894064E+01  0.21520935856E+02  0.51100000000E-03 0. -1.
        -11    1    3    3    0    0  0.32028888283E+01 -0.15267560973E+01  0.10537725016E+02  0.11119043565E+02  0.51100000000E-03 0.  1.
        -12    1    3    3    0    0  0.22053023441E+02  0.15202483688E+02 -0.29466987250E+02  0.39821535515E+02  0.00000000000E+00 0.  1.
</event>
<event>
 7    1  0.2944263E-013  0.7246158E+02  0.7816164E-02  0.1226708E+00
        -11   -1    0    0    0    0  0.00000000000E+00  0.00000000000E+00  0.45593999997E+02  0.45594000000E+02  0.51100000000E-03 0. -1.
         11   -1    0    0    0    0 -0.00000000000E+00 -0.00000000000E+00 -0.45593999997E+02  0.45594000000E+02  0.51100000000E-03 0.  1.
    9900012    2    1    2    0    0  0.64288306292E+01  0.16734050314E+02  0.54148300096E+01  0.72461583173E+02  0.70000016776E+02 0.  0.
         12    1    1    2    0    0 -0.64288306292E+01 -0.16734050314E+02 -0.54148300096E+01  0.18726416827E+02  0.00000000000E+00 0. -1.
         11    1    3    3    0    0  0.43026815289E+01 -0.61557031484E+01  0.17003157483E+02  0.18587983060E+02  0.51100000000E-03 0. -1.
        -11    1    3    3    0    0  0.46975241971E+01  0.33244451245E+02  0.52069261088E+01  0.33976055567E+02  0.51100000000E-03 0.  1.
        -12    1    3    3    0    0 -0.25713750968E+01 -0.10354697783E+02 -0.16795253582E+02  0.19897544546E+02  0.00000000000E+00 0.  1.
</event>
<event>
 7    1  0.2944263E-013  0.7246154E+02  0.7816164E-02  0.1226708E+00
        -11   -1    0    0    0    0  0.00000000000E+00  0.00000000000E+00  0.45593999997E+02  0.45594000000E+02  0.51100000000E-03 0. -1.
         11   -1    0    0    0    0 -0.00000000000E+00 -0.00000000000E+00 -0.45593999997E+02  0.45594000000E+02  0.51100000000E-03 0.  1.
    9900012    2    1    2    0    0 -0.35586348514E+01 -0.37251005924E+01 -0.18003893702E+02  0.72461536243E+02  0.69999955642E+02 0.  0.
         12    1    1    2    0    0  0.35586348514E+01  0.37251005924E+01  0.18003893702E+02  0.18726463757E+02  0.00000000000E+00 0. -1.
         11    1    3    3    0    0  0.76640122634E+01 -0.38942473541E+01 -0.13437044165E+02  0.15951689647E+02  0.51100000000E-03 0. -1.
        -11    1    3    3    0    0 -0.63794773195E+01 -0.25598616084E+02  0.78143189658E+01  0.27514549922E+02  0.51100000000E-03 0.  1.
         12    1    3    3    0    0 -0.48431697953E+01  0.25767762845E+02 -0.12381168502E+02  0.28995296674E+02  0.00000000000E+00 0. -1.
</event>
<event>
 7    1  0.2944263E-013  0.7246153E+02  0.7816164E-02  0.1226708E+00
        -11   -1    0    0    0    0  0.00000000000E+00  0.00000000000E+00  0.45593999997E+02  0.45594000000E+02  0.51100000000E-03 0.  1.
         11   -1    0    0    0    0 -0.00000000000E+00 -0.00000000000E+00 -0.45593999997E+02  0.45594000000E+02  0.51100000000E-03 0. -1.
    9900012    2    1    2    0    0  0.19767102784E+01 -0.16570380512E+02 -0.84968142311E+01  0.72461528204E+02  0.69999945170E+02 0.  0.
         12    1    1    2    0    0 -0.19767102784E+01  0.16570380512E+02  0.84968142311E+01  0.18726471796E+02  0.00000000000E+00 0. -1.
         11    1    3    3    0    0 -0.16640551944E+02 -0.14285503534E+02 -0.22111767680E+02  0.31143439926E+02  0.51100000000E-03 0. -1.
        -11    1    3    3    0    0  0.21455120306E+00 -0.14415429523E+02 -0.16440909941E+01  0.14510467809E+02  0.51100000000E-03 0.  1.
        -12    1    3    3    0    0  0.18402711020E+02  0.12130552546E+02  0.15259044443E+02  0.26807620470E+02  0.00000000000E+00 0.  1.
</event>
<event>
 7    1  0.2944263E-013  0.7246157E+02  0.7816164E-02  0.1226708E+00
        -11   -1    0    0    0    0  0.00000000000E+00  0.00000000000E+00  0.45593999997E+02  0.45594000000E+02  0.51100000000E-03 0.  1.
         11   -1    0    0    0    0 -0.00000000000E+00 -0.00000000000E+00 -0.45593999997E+02  0.45594000000E+02  0.51100000000E-03 0. -1.
    9900012    2    1    2    0    0 -0.11693418739E+02 -0.10859167299E+02 -0.97990710826E+01  0.72461565467E+02  0.69999993712E+02 0.  0.
         12    1    1    2    0    0  0.11693418739E+02  0.10859167299E+02  0.97990710826E+01  0.18726434533E+02  0.00000000000E+00 0. -1.
         11    1    3    3    0    0 -0.28393496009E+02  0.91125082642E+01 -0.11340507434E+01  0.29841489470E+02  0.51100000000E-03 0. -1.
        -11    1    3    3    0    0  0.74010385015E+01 -0.14181977591E+02  0.11479641335E+02  0.19689744151E+02  0.51100000000E-03 0.  1.
        -12    1    3    3    0    0  0.92990387679E+01 -0.57896979721E+01 -0.20144661674E+02  0.22930331846E+02  0.00000000000E+00 0.  1.
</event>
<event>
 7    1  0.2944263E-013  0.7246167E+02  0.7816164E-02  0.1226708E+00
        -11   -1    0    0    0    0  0.00000000000E+00  0.00000000000E+00  0.45593999997E+02  0.45594000000E+02  0.51100000000E-03 0.  1.
         11   -1    0    0    0    0 -0.00000000000E+00 -0.00000000000E+00 -0.45593999997E+02  0.45594000000E+02  0.51100000000E-03 0. -1.
    9900012    2    1    2    0    0 -0.68964915308E+01  0.19924426161E+01  0.17295775035E+02  0.72461674758E+02  0.70000136083E+02 0.  0.
         12    1    1    2    0    0  0.68964915308E+01 -0.19924426161E+01 -0.17295775035E+02  0.18726325242E+02  0.00000000000E+00 0. -1.
         11    1    3    3    0    0 -0.14320255486E+02 -0.40372856767E+01 -0.13607666970E+02  0.20162787343E+02  0.51100000000E-03 0. -1.
        -11    1    3    3    0    0 -0.16192887834E+01  0.22002018897E+01 -0.99311352935E+01  0.10300021019E+02  0.51100000000E-03 0.  1.
        -12    1    3    3    0    0  0.90430527391E+01  0.38295264032E+01  0.40834577299E+02  0.41998866395E+02  0.00000000000E+00 0.  1.
</event>
<event>
 7    1  0.2944263E-013  0.7246156E+02  0.7816164E-02  0.1226708E+00
        -11   -1    0    0    0    0  0.00000000000E+00  0.00000000000E+00  0.45593999997E+02  0.45594000000E+02  0.51100000000E-03 0.  1.
         11   -1    0    0    0    0 -0.00000000000E+00 -0.00000000000E+00 -0.45593999997E+02  0.45594000000E+02  0.51100000000E-03 0. -1.
    9900012    2    1    2    0    0 -0.31616778069E+01 -0.10684669735E+02  0.15050625453E+02  0.72461556119E+02  0.69999981534E+02 0.  0.
         12    1    1    2    0    0  0.31616778069E+01  0.10684669735E+02 -0.15050625453E+02  0.18726443881E+02  0.00000000000E+00 0. -1.
         11    1    3    3    0    0 -0.82010994307E+01  0.21218166463E+02  0.11621595253E+02  0.25544668649E+02  0.51100000000E-03 0. -1.
        -11    1    3    3    0    0 -0.10820514799E+02 -0.50638024359E+01  0.93675544927E+01  0.15181459517E+02  0.51100000000E-03 0.  1.
        -12    1    3    3    0    0  0.15859936422E+02 -0.26839033762E+02 -0.59385242921E+01  0.31735427953E+02  0.00000000000E+00 0.  1.
</event>
<event>
 7    1  0.2944263E-013  0.7246164E+02  0.7816164E-02  0.1226708E+00
        -11   -1    0    0    0    0  0.00000000000E+00  0.00000000000E+00  0.45593999997E+02  0.45594000000E+02  0.51100000000E-03 0. -1.
         11   -1    0    0    0    0 -0.00000000000E+00 -0.00000000000E+00 -0.45593999997E+02  0.45594000000E+02  0.51100000000E-03 0.  1.
    9900012    2    1    2    0    0 -0.62455516449E+01  0.13905775145E+02 -0.10876536334E+02  0.72461640494E+02  0.70000091448E+02 0.  0.
         12    1    1    2    0    0  0.62455516449E+01 -0.13905775145E+02  0.10876536334E+02  0.18726359506E+02  0.00000000000E+00 0. -1.
         11    1    3    3    0    0  0.11719372536E+02 -0.90738050347E+00  0.18822679042E+02  0.22191446068E+02  0.51100000000E-03 0. -1.
        -11    1    3    3    0    0 -0.89532462392E+00  0.10689311650E+02  0.46508904164E+01  0.11691611166E+02  0.51100000000E-03 0.  1.
        -12    1    3    3    0    0 -0.17069599557E+02  0.41238439987E+01 -0.34350105792E+02  0.38578583259E+02  0.00000000000E+00 0.  1.
</event>
<event>
 7    1  0.2944263E-013  0.7246155E+02  0.7816164E-02  0.1226708E+00
        -11   -1    0    0    0    0  0.00000000000E+00  0.00000000000E+00  0.45593999997E+02  0.45594000000E+02  0.51100000000E-03 0. -1.
         11   -1    0    0    0    0 -0.00000000000E+00 -0.00000000000E+00 -0.45593999997E+02  0.45594000000E+02  0.51100000000E-03 0.  1.
    9900012    2    1    2    0    0 -0.49109212653E+01 -0.15444586541E+02  0.93823045006E+01  0.72461547083E+02  0.69999969763E+02 0.  0.
         12    1    1    2    0    0  0.49109212653E+01  0.15444586541E+02 -0.93823045006E+01  0.18726452917E+02  0.00000000000E+00 0. -1.
         11    1    3    3    0    0 -0.47904633473E+01  0.11370022739E+02  0.13637398649E+02  0.18390339811E+02  0.51100000000E-03 0. -1.
        -11    1    3    3    0    0 -0.20413888937E+02 -0.84541775665E+01  0.87587121105E+01  0.23767940970E+02  0.51100000000E-03 0.  1.
         12    1    3    3    0    0  0.20293431019E+02 -0.18360431713E+02 -0.13013806259E+02  0.30303266302E+02  0.00000000000E+00 0. -1.
</event>
<event>
 7    1  0.2944263E-013  0.7246158E+02  0.7816164E-02  0.1226708E+00
        -11   -1    0    0    0    0  0.00000000000E+00  0.00000000000E+00  0.45593999997E+02  0.45594000000E+02  0.51100000000E-03 0. -1.
         11   -1    0    0    0    0 -0.00000000000E+00 -0.00000000000E+00 -0.45593999997E+02  0.45594000000E+02  0.51100000000E-03 0.  1.
    9900012    2    1    2    0    0  0.11624909700E+02  0.59393319842E+01 -0.13426261555E+02  0.72461583117E+02  0.70000016703E+02 0.  0.
         12    1    1    2    0    0 -0.11624909700E+02 -0.59393319842E+01  0.13426261555E+02  0.18726416883E+02  0.00000000000E+00 0. -1.
         11    1    3    3    0    0 -0.71161656709E+01  0.39952662594E+01  0.47825120294E+01  0.94590902264E+01  0.51100000000E-03 0. -1.
        -11    1    3    3    0    0  0.24139732620E+01 -0.55322249903E+01 -0.36719709654E+02  0.37212495987E+02  0.51100000000E-03 0.  1.
         12    1    3    3    0    0  0.16327102109E+02  0.74762907151E+01  0.18510936069E+02  0.25789996903E+02  0.00000000000E+00 0. -1.
</event>
<event>
 7    1  0.2944263E-013  0.7246149E+02  0.7816164E-02  0.1226708E+00
        -11   -1    0    0    0    0  0.00000000000E+00  0.00000000000E+00  0.45593999997E+02  0.45594000000E+02  0.51100000000E-03 0.  1.
         11   -1    0    0    0    0 -0.00000000000E+00 -0.00000000000E+00 -0.45593999997E+02  0.45594000000E+02  0.51100000000E-03 0. -1.
    9900012    2    1    2    0    0 -0.18206355882E+02  0.21778880628E+01  0.38036114728E+01  0.72461493354E+02  0.69999899771E+02 0.  0.
         12    1    1    2    0    0  0.18206355882E+02 -0.21778880628E+01 -0.38036114728E+01  0.18726506646E+02  0.00000000000E+00 0. -1.
         11    1    3    3    0    0  0.10151936167E+02 -0.22449540032E+01 -0.41438358618E+01  0.11192542264E+02  0.51100000000E-03 0. -1.
        -11    1    3    3    0    0 -0.71186729317E+01 -0.23362513145E+02 -0.30367774967E+01  0.24611065450E+02  0.51100000000E-03 0.  1.
        -12    1    3    3    0    0 -0.21239619118E+02  0.27785355211E+02  0.10984224831E+02  0.36657885640E+02  0.00000000000E+00 0.  1.
</event>
<event>
 7    1  0.2944263E-013  0.7246159E+02  0.7816164E-02  0.1226708E+00
        -11   -1    0    0    0    0  0.00000000000E+00  0.00000000000E+00  0.45593999997E+02  0.45594000000E+02  0.51100000000E-03 0.  1.
         11   -1    0    0    0    0 -0.00000000000E+00 -0.00000000000E+00 -0.45593999997E+02  0.45594000000E+02  0.51100000000E-03 0. -1.
    9900012    2    1    2    0    0  0.13330172599E+02 -0.54213894570E+00 -0.13141189153E+02  0.72461594352E+02  0.70000031339E+02 0.  0.
         12    1    1    2    0    0 -0.13330172599E+02  0.54213894570E+00  0.13141189153E+02  0.18726405648E+02  0.00000000000E+00 0. -1.
         11    1    3    3    0    0 -0.45686382088E+01 -0.64625344291E+01  0.40346210652E+01  0.88834100283E+01  0.51100000000E-03 0. -1.
        -11    1    3    3    0    0  0.46781156877E+01  0.13520236858E+02  0.19310791101E+02  0.24033065229E+02  0.51100000000E-03 0.  1.
         12    1    3    3    0    0  0.13220695120E+02 -0.75998413745E+01 -0.36486601319E+02  0.39545119094E+02  0.00000000000E+00 0. -1.
</event>
<event>
 7    1  0.2944263E-013  0.7246161E+02  0.7816164E-02  0.1226708E+00
        -11   -1    0    0    0    0  0.00000000000E+00  0.00000000000E+00  0.45593999997E+02  0.45594000000E+02  0.51100000000E-03 0.  1.
         11   -1    0    0    0    0 -0.00000000000E+00 -0.00000000000E+00 -0.45593999997E+02  0.45594000000E+02  0.51100000000E-03 0. -1.
    9900012    2    1    2    0    0  0.12066888569E+00 -0.12565383919E+02  0.13884314015E+02  0.72461611942E+02  0.70000054254E+02 0.  0.
         12    1    1    2    0    0 -0.12066888569E+00  0.12565383919E+02 -0.13884314015E+02  0.18726388058E+02  0.00000000000E+00 0. -1.
         11    1    3    3    0    0  0.15593532298E+02 -0.18238476999E+01  0.69114848963E+01  0.17153812804E+02  0.51100000000E-03 0. -1.
        -11    1    3    3    0    0  0.49776202414E+01 -0.37829329237E+01 -0.19882651609E+02  0.20842435559E+02  0.51100000000E-03 0.  1.
        -12    1    3    3    0    0 -0.20450483654E+02 -0.69586032952E+01  0.26855480728E+02  0.34465363579E+02  0.00000000000E+00 0.  1.
</event>
<event>
 7    1  0.2944263E-013  0.7246100E+02  0.7816164E-02  0.1226710E+00
        -11   -1    0    0    0    0  0.00000000000E+00  0.00000000000E+00  0.45593999997E+02  0.45594000000E+02  0.51100000000E-03 0.  1.
         11   -1    0    0    0    0 -0.00000000000E+00 -0.00000000000E+00 -0.45593999997E+02  0.45594000000E+02  0.51100000000E-03 0. -1.
    9900012    2    1    2    0    0 -0.54203140452E+01 -0.10142766844E+02  0.14779888356E+02  0.72460997479E+02  0.69999253798E+02 0.  0.
         12    1    1    2    0    0  0.54203140452E+01  0.10142766844E+02 -0.14779888356E+02  0.18727002521E+02  0.00000000000E+00 0. -1.
         11    1    3    3    0    0  0.73602330288E+01  0.23847966273E+02 -0.69085418478E+01  0.25896456830E+02  0.51100000000E-03 0. -1.
        -11    1    3    3    0    0 -0.73610288677E+01 -0.19992036353E+01  0.16856363620E+00  0.76295461940E+01  0.51100000000E-03 0.  1.
        -12    1    3    3    0    0 -0.54195182063E+01 -0.31991529482E+02  0.21519866568E+02  0.38934994456E+02  0.00000000000E+00 0.  1.
</event>
<event>
 7    1  0.2944263E-013  0.7246156E+02  0.7816164E-02  0.1226708E+00
        -11   -1    0    0    0    0  0.00000000000E+00  0.00000000000E+00  0.45593999997E+02  0.45594000000E+02  0.51100000000E-03 0. -1.
         11   -1    0    0    0    0 -0.00000000000E+00 -0.00000000000E+00 -0.45593999997E+02  0.45594000000E+02  0.51100000000E-03 0.  1.
    9900012    2    1    2    0    0 -0.12335805604E+02  0.75132404918E+01 -0.11918829274E+02  0.72461564838E+02  0.69999992893E+02 0.  0.
         12    1    1    2    0    0  0.12335805604E+02 -0.75132404918E+01  0.11918829274E+02  0.18726435162E+02  0.00000000000E+00 0. -1.
         11    1    3    3    0    0  0.52671100536E+01  0.13608025967E+02  0.90604143052E+01  0.17175911233E+02  0.51100000000E-03 0. -1.
        -11    1    3    3    0    0 -0.19830962452E+02 -0.21065031359E+02  0.58878177930E+00  0.28936988132E+02  0.51100000000E-03 0.  1.
         12    1    3    3    0    0  0.22280467948E+01  0.14970245883E+02 -0.21568025359E+02  0.26348665473E+02  0.00000000000E+00 0. -1.
</event>
<event>
 7    1  0.2944263E-013  0.7246157E+02  0.7816164E-02  0.1226708E+00
        -11   -1    0    0    0    0  0.00000000000E+00  0.00000000000E+00  0.45593999997E+02  0.45594000000E+02  0.51100000000E-03 0. -1.
         11   -1    0    0    0    0 -0.00000000000E+00 -0.00000000000E+00 -0.45593999997E+02  0.45594000000E+02  0.51100000000E-03 0.  1.
    9900012    2    1    2    0    0 -0.12921931979E+02 -0.12784205056E+02 -0.45018971834E+01  0.72461566724E+02  0.69999995349E+02 0.  0.
         12    1    1    2    0    0  0.12921931979E+02  0.12784205056E+02  0.45018971834E+01  0.18726433276E+02  0.00000000000E+00 0. -1.
         11    1    3    3    0    0 -0.32227082026E+02  0.12779645563E+02  0.30575004954E+01  0.34803052540E+02  0.51100000000E-03 0. -1.
        -11    1    3    3    0    0  0.58660879925E+01  0.20233120237E+01 -0.12153337792E+01  0.63231176121E+01  0.51100000000E-03 0.  1.
        -12    1    3    3    0    0  0.13439062054E+02 -0.27587162642E+02 -0.63440638996E+01  0.31335396572E+02  0.00000000000E+00 0.  1.
</event>
<event>
 7    1  0.2944263E-013  0.7246158E+02  0.7816164E-02  0.1226708E+00
        -11   -1    0    0    0    0  0.00000000000E+00  0.00000000000E+00  0.45593999997E+02  0.45594000000E+02  0.51100000000E-03 0.  1.
         11   -1    0    0    0    0 -0.00000000000E+00 -0.00000000000E+00 -0.45593999997E+02  0.45594000000E+02  0.51100000000E-03 0. -1.
    9900012    2    1    2    0    0 -0.18180147532E+02  0.38268890791E+01  0.23486130290E+01  0.72461579427E+02  0.70000011897E+02 0.  0.
         12    1    1    2    0    0  0.18180147532E+02 -0.38268890791E+01 -0.23486130290E+01  0.18726420573E+02  0.00000000000E+00 0. -1.
         11    1    3    3    0    0 -0.45727617834E+01  0.97373069604E+01  0.29545239763E+01  0.11155918131E+02  0.51100000000E-03 0. -1.
        -11    1    3    3    0    0  0.51991090049E+01  0.24225270074E+02 -0.56883183616E+01  0.25421475383E+02  0.51100000000E-03 0.  1.
        -12    1    3    3    0    0 -0.18806494753E+02 -0.30135687956E+02  0.50824074143E+01  0.35884185912E+02  0.00000000000E+00 0.  1.
</event>
<event>
 7    1  0.2944263E-013  0.7246153E+02  0.7816164E-02  0.1226708E+00
        -11   -1    0    0    0    0  0.00000000000E+00  0.00000000000E+00  0.45593999997E+02  0.45594000000E+02  0.51100000000E-03 0.  1.
         11   -1    0    0    0    0 -0.00000000000E+00 -0.00000000000E+00 -0.45593999997E+02  0.45594000000E+02  0.51100000000E-03 0. -1.
    9900012    2    1    2    0    0  0.14284003225E+02  0.10915249428E+02 -0.52445396657E+01  0.72461531713E+02  0.69999949740E+02 0.  0.
         12    1    1    2    0    0 -0.14284003225E+02 -0.10915249428E+02  0.52445396657E+01  0.18726468287E+02  0.00000000000E+00 0. -1.
         11    1    3    3    0    0 -0.10737666663E+01  0.16000290875E+02  0.16131021826E+02  0.22745816063E+02  0.51100000000E-03 0. -1.
        -11    1    3    3    0    0  0.98231555996E+01 -0.50759249838E+01  0.11747946990E+02  0.16132999074E+02  0.51100000000E-03 0.  1.
        -12    1    3    3    0    0  0.55346142913E+01 -0.91164632437E-02 -0.33123508482E+02  0.33582716576E+02  0.00000000000E+00 0.  1.
</event>
<event>
 7    1  0.2944263E-013  0.7246153E+02  0.7816164E-02  0.1226708E+00
        -11   -1    0    0    0    0  0.00000000000E+00  0.00000000000E+00  0.45593999997E+02  0.45594000000E+02  0.51100000000E-03 0. -1.
         11   -1    0    0    0    0 -0.00000000000E+00 -0.00000000000E+00 -0.45593999997E+02  0.45594000000E+02  0.51100000000E-03 0.  1.
    9900012    2    1    2    0    0  0.22025843600E+01  0.12955331540E+01 -0.18551302176E+02  0.72461532195E+02  0.69999950369E+02 0.  0.
         12    1    1    2    0    0 -0.22025843600E+01 -0.12955331540E+01  0.18551302176E+02  0.18726467805E+02  0.00000000000E+00 0. -1.
         11    1    3    3    0    0  0.11654718619E+02 -0.11762067473E+02  0.14964052094E+02  0.22318188830E+02  0.51100000000E-03 0. -1.
        -11    1    3    3    0    0 -0.10550918679E+02 -0.65662462023E+00  0.31098562300E+01  0.11019267076E+02  0.51100000000E-03 0.  1.
        -12    1    3    3    0    0  0.10987844193E+01  0.13714225247E+02 -0.36625210500E+02  0.39124076289E+02  0.00000000000E+00 0.  1.
</event>
<event>
 7    1  0.2944263E-013  0.7246154E+02  0.7816164E-02  0.1226708E+00
        -11   -1    0    0    0    0  0.00000000000E+00  0.00000000000E+00  0.45593999997E+02  0.45594000000E+02  0.51100000000E-03 0.  1.
         11   -1    0    0    0    0 -0.00000000000E+00 -0.00000000000E+00 -0.45593999997E+02  0.45594000000E+02  0.51100000000E-03 0. -1.
    9900012    2    1    2    0    0  0.11950372276E+02 -0.14397987904E+02 -0.75299309696E+00  0.72461536057E+02  0.69999955399E+02 0.  0.
         12    1    1    2    0    0 -0.11950372276E+02  0.14397987904E+02  0.75299309696E+00  0.18726463943E+02  0.00000000000E+00 0. -1.
         11    1    3    3    0    0  0.83435375619E+00  0.57567733715E+01 -0.12676528224E+01  0.59534468823E+01  0.51100000000E-03 0. -1.
        -11    1    3    3    0    0 -0.20580323543E+02  0.93102417122E+01 -0.42007898830E+01  0.22975572980E+02  0.51100000000E-03 0.  1.
         12    1    3    3    0    0  0.31696342063E+02 -0.29465002987E+02  0.47154496084E+01  0.43532516194E+02  0.00000000000E+00 0. -1.
</event>
<event>
 7    1  0.2944263E-013  0.7246156E+02  0.7816164E-02  0.1226708E+00
        -11   -1    0    0    0    0  0.00000000000E+00  0.00000000000E+00  0.45593999997E+02  0.45594000000E+02  0.51100000000E-03 0.  1.
         11   -1    0    0    0    0 -0.00000000000E+00 -0.00000000000E+00 -0.45593999997E+02  0.45594000000E+02  0.51100000000E-03 0. -1.
    9900012    2    1    2    0    0 -0.17934477670E+02 -0.31898433751E+01  0.43427111638E+01  0.72461555321E+02  0.69999980495E+02 0.  0.
         12    1    1    2    0    0  0.17934477670E+02  0.31898433751E+01 -0.43427111638E+01  0.18726444679E+02  0.00000000000E+00 0. -1.
         11    1    3    3    0    0 -0.22488621202E+02 -0.46473261822E+01  0.41997213104E+01  0.23344664991E+02  0.51100000000E-03 0. -1.
        -11    1    3    3    0    0 -0.13259037753E+02  0.34745858950E+01 -0.18649715674E+02  0.23144907091E+02  0.51100000000E-03 0.  1.
        -12    1    3    3    0    0  0.17813181285E+02 -0.20171030880E+01  0.18792705527E+02  0.25971983239E+02  0.00000000000E+00 0.  1.
</event>
<event>
 7    1  0.2944263E-013  0.7246154E+02  0.7816164E-02  0.1226708E+00
        -11   -1    0    0    0    0  0.00000000000E+00  0.00000000000E+00  0.45593999997E+02  0.45594000000E+02  0.51100000000E-03 0. -1.
         11   -1    0    0    0    0 -0.00000000000E+00 -0.00000000000E+00 -0.45593999997E+02  0.45594000000E+02  0.51100000000E-03 0.  1.
    9900012    2    1    2    0    0 -0.76048696047E+01  0.18661910133E+00 -0.17111733273E+02  0.72461540537E+02  0.69999961236E+02 0.  0.
         12    1    1    2    0    0  0.76048696047E+01 -0.18661910133E+00  0.17111733273E+02  0.18726459463E+02  0.00000000000E+00 0. -1.
         11    1    3    3    0    0  0.96941504270E+01 -0.56878004173E+01  0.15353368443E+01  0.11343936071E+02  0.51100000000E-03 0. -1.
        -11    1    3    3    0    0 -0.13264745233E+02 -0.24247176172E+02 -0.65214691211E+01  0.28397333997E+02  0.51100000000E-03 0.  1.
        -12    1    3    3    0    0 -0.40342747992E+01  0.30121595690E+02 -0.12125600996E+02  0.32720270470E+02  0.00000000000E+00 0.  1.
</event>
<event>
 7    1  0.2944263E-013  0.7246152E+02  0.7816164E-02  0.1226708E+00
        -11   -1    0    0    0    0  0.00000000000E+00  0.00000000000E+00  0.45593999997E+02  0.45594000000E+02  0.51100000000E-03 0. -1.
         11   -1    0    0    0    0 -0.00000000000E+00 -0.00000000000E+00 -0.45593999997E+02  0.45594000000E+02  0.51100000000E-03 0.  1.
    9900012    2    1    2    0    0  0.90680207269E+01  0.13471189249E+02 -0.93262624297E+01  0.72461518467E+02  0.69999932486E+02 0.  0.
         12    1    1    2    0    0 -0.90680207269E+01 -0.13471189249E+02  0.93262624297E+01  0.18726481533E+02  0.00000000000E+00 0. -1.
         11    1    3    3    0    0  0.17496506143E+02  0.29366040178E+02  0.17753259522E+02  0.38518440608E+02  0.51100000000E-03 0. -1.
        -11    1    3    3    0    0  0.22288279387E+01 -0.29715961543E+01 -0.48942465632E+01  0.61442418058E+01  0.51100000000E-03 0.  1.
        -12    1    3    3    0    0 -0.10657313355E+02 -0.12923254774E+02 -0.22185275388E+02  0.27798836054E+02  0.00000000000E+00 0.  1.
</event>
<event>
 7    1  0.2944263E-013  0.7246171E+02  0.7816164E-02  0.1226708E+00
        -11   -1    0    0    0    0  0.00000000000E+00  0.00000000000E+00  0.45593999997E+02  0.45594000000E+02  0.51100000000E-03 0. -1.
         11   -1    0    0    0    0 -0.00000000000E+00 -0.00000000000E+00 -0.45593999997E+02  0.45594000000E+02  0.51100000000E-03 0.  1.
    9900012    2    1    2    0    0 -0.21778356009E+01 -0.75307020151E+00 -0.18583972458E+02  0.72461705253E+02  0.70000175808E+02 0.  0.
         12    1    1    2    0    0  0.21778356009E+01  0.75307020151E+00  0.18583972458E+02  0.18726294747E+02  0.00000000000E+00 0. -1.
         11    1    3    3    0    0 -0.83520884068E+01 -0.48119682838E+01  0.87139784814E+01  0.12994069445E+02  0.51100000000E-03 0. -1.
        -11    1    3    3    0    0  0.24596243720E+02 -0.11834454602E+02 -0.80895895412E+01  0.28468772015E+02  0.51100000000E-03 0.  1.
         12    1    3    3    0    0 -0.18421990914E+02  0.15893352684E+02 -0.19208361399E+02  0.30998863792E+02  0.00000000000E+00 0. -1.
</event>
<event>
 7    1  0.2944263E-013  0.7246163E+02  0.7816164E-02  0.1226708E+00
        -11   -1    0    0    0    0  0.00000000000E+00  0.00000000000E+00  0.45593999997E+02  0.45594000000E+02  0.51100000000E-03 0. -1.
         11   -1    0    0    0    0 -0.00000000000E+00 -0.00000000000E+00 -0.45593999997E+02  0.45594000000E+02  0.51100000000E-03 0.  1.
    9900012    2    1    2    0    0 -0.11142999760E+02  0.43578398925E+01 -0.14405545192E+02  0.72461629704E+02  0.70000077392E+02 0.  0.
         12    1    1    2    0    0  0.11142999760E+02 -0.43578398925E+01  0.14405545192E+02  0.18726370296E+02  0.00000000000E+00 0. -1.
         11    1    3    3    0    0 -0.20975304802E+02 -0.12936379366E+02 -0.34620735526E+02  0.42495983943E+02  0.51100000000E-03 0.  1.
        -11    1    3    3    0    0  0.10228801929E+01  0.63573271719E+01  0.12201995492E+02  0.13796760015E+02  0.51100000000E-03 0. -1.
        -12    1    3    3    0    0  0.88094248495E+01  0.10936892087E+02  0.80131948417E+01  0.16168885746E+02  0.00000000000E+00 0.  1.
</event>
<event>
 7    1  0.2944263E-013  0.7246155E+02  0.7816164E-02  0.1226708E+00
        -11   -1    0    0    0    0  0.00000000000E+00  0.00000000000E+00  0.45593999997E+02  0.45594000000E+02  0.51100000000E-03 0. -1.
         11   -1    0    0    0    0 -0.00000000000E+00 -0.00000000000E+00 -0.45593999997E+02  0.45594000000E+02  0.51100000000E-03 0.  1.
    9900012    2    1    2    0    0 -0.93057985064E+01 -0.10624782497E+01 -0.16215830603E+02  0.72461550576E+02  0.69999974313E+02 0.  0.
         12    1    1    2    0    0  0.93057985064E+01  0.10624782497E+01  0.16215830603E+02  0.18726449424E+02  0.00000000000E+00 0. -1.
         11    1    3    3    0    0 -0.14002305456E+02  0.13271671165E+02 -0.12319338335E+02  0.22890345364E+02  0.51100000000E-03 0.  1.
        -11    1    3    3    0    0  0.16934936592E+02 -0.26392118261E+02  0.19611731927E+01  0.31419455505E+02  0.51100000000E-03 0. -1.
         12    1    3    3    0    0 -0.12238429641E+02  0.12057968846E+02 -0.58576654614E+01  0.18151749708E+02  0.00000000000E+00 0. -1.
</event>
<event>
 7    1  0.2944263E-013  0.7246154E+02  0.7816164E-02  0.1226708E+00
        -11   -1    0    0    0    0  0.00000000000E+00  0.00000000000E+00  0.45593999997E+02  0.45594000000E+02  0.51100000000E-03 0.  1.
         11   -1    0    0    0    0 -0.00000000000E+00 -0.00000000000E+00 -0.45593999997E+02  0.45594000000E+02  0.51100000000E-03 0. -1.
    9900012    2    1    2    0    0  0.14963545650E+02 -0.10992570419E+02 -0.24363527116E+01  0.72461544986E+02  0.69999967032E+02 0.  0.
         12    1    1    2    0    0 -0.14963545650E+02  0.10992570419E+02  0.24363527116E+01  0.18726455014E+02  0.00000000000E+00 0. -1.
         11    1    3    3    0    0  0.53629742958E+01 -0.46356017269E-01  0.29377131296E+01  0.61150470866E+01  0.51100000000E-03 0. -1.
        -11    1    3    3    0    0  0.25042259532E+02 -0.25862046915E+02  0.12810651921E+02  0.38210902057E+02  0.51100000000E-03 0.  1.
         12    1    3    3    0    0 -0.15441688178E+02  0.14915832513E+02 -0.18184717762E+02  0.28135595843E+02  0.00000000000E+00 0. -1.
</event>
<event>
 7    1  0.2944263E-013  0.7246166E+02  0.7816164E-02  0.1226708E+00
        -11   -1    0    0    0    0  0.00000000000E+00  0.00000000000E+00  0.45593999997E+02  0.45594000000E+02  0.51100000000E-03 0. -1.
         11   -1    0    0    0    0 -0.00000000000E+00 -0.00000000000E+00 -0.45593999997E+02  0.45594000000E+02  0.51100000000E-03 0.  1.
    9900012    2    1    2    0    0 -0.11507722414E+02 -0.12046950931E+02  0.85509750913E+01  0.72461658208E+02  0.70000114524E+02 0.  0.
         12    1    1    2    0    0  0.11507722414E+02  0.12046950931E+02 -0.85509750913E+01  0.18726341792E+02  0.00000000000E+00 0. -1.
         11    1    3    3    0    0 -0.41252474026E+01 -0.20745719222E+02 -0.11468605537E+02  0.24060994273E+02  0.51100000000E-03 0. -1.
        -11    1    3    3    0    0 -0.19025645306E+00  0.19513780896E+02 -0.50577405441E+01  0.20159478715E+02  0.51100000000E-03 0.  1.
         12    1    3    3    0    0 -0.71922185582E+01 -0.10815012605E+02  0.25077321173E+02  0.28241185220E+02  0.00000000000E+00 0. -1.
</event>
<event>
 7    1  0.2944263E-013  0.7246160E+02  0.7816164E-02  0.1226708E+00
        -11   -1    0    0    0    0  0.00000000000E+00  0.00000000000E+00  0.45593999997E+02  0.45594000000E+02  0.51100000000E-03 0.  1.
         11   -1    0    0    0    0 -0.00000000000E+00 -0.00000000000E+00 -0.45593999997E+02  0.45594000000E+02  0.51100000000E-03 0. -1.
    9900012    2    1    2    0    0 -0.35939597610E+01 -0.18370546096E+02  0.53357089335E+00  0.72461595954E+02  0.70000033426E+02 0.  0.
         12    1    1    2    0    0  0.35939597610E+01  0.18370546096E+02 -0.53357089335E+00  0.18726404046E+02  0.00000000000E+00 0. -1.
         11    1    3    3    0    0 -0.22491861405E+02  0.21050769099E+00 -0.19109362385E+02  0.29514333365E+02  0.51100000000E-03 0. -1.
        -11    1    3    3    0    0  0.12756330018E+02  0.20328003600E+01 -0.12292523903E+01  0.12975642355E+02  0.51100000000E-03 0.  1.
        -12    1    3    3    0    0  0.61415716259E+01 -0.20613854147E+02  0.20872185669E+02  0.29971620233E+02  0.00000000000E+00 0.  1.
</event>
<event>
 7    1  0.2944263E-013  0.7246155E+02  0.7816164E-02  0.1226708E+00
        -11   -1    0    0    0    0  0.00000000000E+00  0.00000000000E+00  0.45593999997E+02  0.45594000000E+02  0.51100000000E-03 0. -1.
         11   -1    0    0    0    0 -0.00000000000E+00 -0.00000000000E+00 -0.45593999997E+02  0.45594000000E+02  0.51100000000E-03 0.  1.
    9900012    2    1    2    0    0  0.16828861645E+02  0.75339029283E+01  0.32725801409E+01  0.72461546562E+02  0.69999969084E+02 0.  0.
         12    1    1    2    0    0 -0.16828861645E+02 -0.75339029283E+01 -0.32725801409E+01  0.18726453438E+02  0.00000000000E+00 0. -1.
         11    1    3    3    0    0  0.64756359589E+01 -0.18431317758E+02 -0.11453075370E+02  0.22645535345E+02  0.51100000000E-03 0. -1.
        -11    1    3    3    0    0 -0.55911486239E+01 -0.80350509105E+01  0.10283081620E+01  0.98427843625E+01  0.51100000000E-03 0.  1.
         12    1    3    3    0    0  0.15944374310E+02  0.34000271596E+02  0.13697347349E+02  0.39973226855E+02  0.00000000000E+00 0. -1.
</event>
<event>
 7    1  0.2944263E-013  0.7246228E+02  0.7816164E-02  0.1226706E+00
        -11   -1    0    0    0    0  0.00000000000E+00  0.00000000000E+00  0.45593999997E+02  0.45594000000E+02  0.51100000000E-03 0. -1.
         11   -1    0    0    0    0 -0.00000000000E+00 -0.00000000000E+00 -0.45593999997E+02  0.45594000000E+02  0.51100000000E-03 0.  1.
    9900012    2    1    2    0    0 -0.13321163519E+02  0.11723374052E+02 -0.59801037773E+01  0.72462281380E+02  0.70000926315E+02 0.  0.
         12    1    1    2    0    0  0.13321163519E+02 -0.11723374052E+02  0.59801037773E+01  0.18725718620E+02  0.00000000000E+00 0. -1.
         11    1    3    3    0    0 -0.11504940540E+02 -0.14641679311E+02  0.86173258718E+01  0.20518302447E+02  0.51100000000E-03 0. -1.
        -11    1    3    3    0    0  0.56824684633E+01  0.10459150770E+02  0.13997743206E+02  0.18374468640E+02  0.51100000000E-03 0.  1.
        -12    1    3    3    0    0 -0.74986914419E+01  0.15905902593E+02 -0.28595172856E+02  0.33569510293E+02  0.00000000000E+00 0.  1.
</event>
<event>
 7    1  0.2944263E-013  0.7246150E+02  0.7816164E-02  0.1226708E+00
        -11   -1    0    0    0    0  0.00000000000E+00  0.00000000000E+00  0.45593999997E+02  0.45594000000E+02  0.51100000000E-03 0.  1.
         11   -1    0    0    0    0 -0.00000000000E+00 -0.00000000000E+00 -0.45593999997E+02  0.45594000000E+02  0.51100000000E-03 0. -1.
    9900012    2    1    2    0    0  0.16711972014E+02 -0.84003352302E+01 -0.90897185532E+00  0.72461498180E+02  0.69999906058E+02 0.  0.
         12    1    1    2    0    0 -0.16711972014E+02  0.84003352302E+01  0.90897185532E+00  0.18726501820E+02  0.00000000000E+00 0. -1.
         11    1    3    3    0    0  0.73571731322E+01 -0.11960204633E+02  0.16866188156E+01  0.14142813534E+02  0.51100000000E-03 0. -1.
        -11    1    3    3    0    0  0.95408460939E+01  0.29137622507E+02  0.61803962354E+01  0.31276606073E+02  0.51100000000E-03 0.  1.
         12    1    3    3    0    0 -0.18604721241E+00 -0.25577753104E+02 -0.87759869064E+01  0.27042078574E+02  0.00000000000E+00 0. -1.
</event>
<event>
 7    1  0.2944263E-013  0.7246164E+02  0.7816164E-02  0.1226708E+00
        -11   -1    0    0    0    0  0.00000000000E+00  0.00000000000E+00  0.45593999997E+02  0.45594000000E+02  0.51100000000E-03 0. -1.
         11   -1    0    0    0    0 -0.00000000000E+00 -0.00000000000E+00 -0.45593999997E+02  0.45594000000E+02  0.51100000000E-03 0.  1.
    9900012    2    1    2    0    0 -0.47252825303E+01  0.15422489903E+02 -0.95128930244E+01  0.72461638274E+02  0.70000088556E+02 0.  0.
         12    1    1    2    0    0  0.47252825303E+01 -0.15422489903E+02  0.95128930244E+01  0.18726361726E+02  0.00000000000E+00 0. -1.
         11    1    3    3    0    0 -0.62828289800E+01 -0.16200822226E+02  0.14129952694E+02  0.22396342205E+02  0.51100000000E-03 0. -1.
        -11    1    3    3    0    0 -0.68532690833E+01 -0.34403702498E+01 -0.16977480879E+01  0.78540303930E+01  0.51100000000E-03 0.  1.
        -12    1    3    3    0    0  0.84108155329E+01  0.35063682379E+02 -0.21945097631E+02  0.42211265675E+02  0.00000000000E+00 0.  1.
</event>
<event>
 7    1  0.2944263E-013  0.7246152E+02  0.7816164E-02  0.1226708E+00
        -11   -1    0    0    0    0  0.00000000000E+00  0.00000000000E+00  0.45593999997E+02  0.45594000000E+02  0.51100000000E-03 0.  1.
         11   -1    0    0    0    0 -0.00000000000E+00 -0.00000000000E+00 -0.45593999997E+02  0.45594000000E+02  0.51100000000E-03 0. -1.
    9900012    2    1    2    0    0 -0.55240795021E+01  0.47003367612E+01  0.17264779634E+02  0.72461515123E+02  0.69999928129E+02 0.  0.
         12    1    1    2    0    0  0.55240795021E+01 -0.47003367612E+01 -0.17264779634E+02  0.18726484877E+02  0.00000000000E+00 0. -1.
         11    1    3    3    0    0  0.31644605343E+01  0.41786219246E+01 -0.19337571371E+02  0.20035377672E+02  0.51100000000E-03 0. -1.
        -11    1    3    3    0    0  0.10532813932E+02  0.66801094361E+01  0.27675871719E+02  0.30356513421E+02  0.51100000000E-03 0.  1.
         12    1    3    3    0    0 -0.19221353968E+02 -0.61583945995E+01  0.89264792860E+01  0.22069624030E+02  0.00000000000E+00 0. -1.
</event>
<event>
 7    1  0.2944263E-013  0.7246122E+02  0.7816164E-02  0.1226709E+00
        -11   -1    0    0    0    0  0.00000000000E+00  0.00000000000E+00  0.45593999997E+02  0.45594000000E+02  0.51100000000E-03 0. -1.
         11   -1    0    0    0    0 -0.00000000000E+00 -0.00000000000E+00 -0.45593999997E+02  0.45594000000E+02  0.51100000000E-03 0.  1.
    9900012    2    1    2    0    0  0.15565809660E+02 -0.98547627958E+01 -0.33588030751E+01  0.72461218690E+02  0.69999541969E+02 0.  0.
         12    1    1    2    0    0 -0.15565809660E+02  0.98547627958E+01  0.33588030751E+01  0.18726781310E+02  0.00000000000E+00 0. -1.
         11    1    3    3    0    0 -0.19128047812E+02  0.18563484516E+01 -0.54925254111E+01  0.19987397988E+02  0.51100000000E-03 0. -1.
        -11    1    3    3    0    0  0.94436158863E+01 -0.39177537082E+01  0.18680389742E+02  0.21295249149E+02  0.51100000000E-03 0.  1.
        -12    1    3    3    0    0  0.25250241585E+02 -0.77933575393E+01 -0.16546667406E+02  0.31178571553E+02  0.00000000000E+00 0.  1.
</event>
<event>
 7    1  0.2944263E-013  0.7246158E+02  0.7816164E-02  0.1226708E+00
        -11   -1    0    0    0    0  0.00000000000E+00  0.00000000000E+00  0.45593999997E+02  0.45594000000E+02  0.51100000000E-03 0.  1.
         11   -1    0    0    0    0 -0.00000000000E+00 -0.00000000000E+00 -0.45593999997E+02  0.45594000000E+02  0.51100000000E-03 0. -1.
    9900012    2    1    2    0    0  0.89431841227E+00 -0.16133958916E+02 -0.94643753824E+01  0.72461579170E+02  0.70000011563E+02 0.  0.
         12    1    1    2    0    0 -0.89431841227E+00  0.16133958916E+02  0.94643753824E+01  0.18726420830E+02  0.00000000000E+00 0. -1.
         11    1    3    3    0    0  0.12869999123E+02  0.85903135283E+01 -0.92492978280E+01  0.18027198188E+02  0.51100000000E-03 0. -1.
        -11    1    3    3    0    0  0.27647137418E+01  0.11180135133E+02  0.89130064071E+01  0.14562992383E+02  0.51100000000E-03 0.  1.
        -12    1    3    3    0    0 -0.14740394452E+02 -0.35904407577E+02 -0.91280839615E+01  0.39871388600E+02  0.00000000000E+00 0.  1.
</event>
<event>
 7    1  0.2944263E-013  0.7246155E+02  0.7816164E-02  0.1226708E+00
        -11   -1    0    0    0    0  0.00000000000E+00  0.00000000000E+00  0.45593999997E+02  0.45594000000E+02  0.51100000000E-03 0.  1.
         11   -1    0    0    0    0 -0.00000000000E+00 -0.00000000000E+00 -0.45593999997E+02  0.45594000000E+02  0.51100000000E-03 0. -1.
    9900012    2    1    2    0    0  0.12997469263E+02  0.73618170228E+01  0.11293767962E+02  0.72461554744E+02  0.69999979743E+02 0.  0.
         12    1    1    2    0    0 -0.12997469263E+02 -0.73618170228E+01 -0.11293767962E+02  0.18726445256E+02  0.00000000000E+00 0. -1.
         11    1    3    3    0    0 -0.50597590180E+01 -0.23945856782E+02  0.66580786284E+01  0.25364053888E+02  0.51100000000E-03 0. -1.
        -11    1    3    3    0    0  0.16778534961E+02  0.87553253404E+01 -0.87395926974E+01  0.20845993333E+02  0.51100000000E-03 0.  1.
        -12    1    3    3    0    0  0.12786933205E+01  0.22552348464E+02  0.13375282031E+02  0.26251507524E+02  0.00000000000E+00 0.  1.
</event>
<event>
 7    1  0.2944263E-013  0.7246159E+02  0.7816164E-02  0.1226708E+00
        -11   -1    0    0    0    0  0.00000000000E+00  0.00000000000E+00  0.45593999997E+02  0.45594000000E+02  0.51100000000E-03 0. -1.
         11   -1    0    0    0    0 -0.00000000000E+00 -0.00000000000E+00 -0.45593999997E+02  0.45594000000E+02  0.51100000000E-03 0.  1.
    9900012    2    1    2    0    0  0.12931315649E+02 -0.11702829295E+02 -0.68193311631E+01  0.72461590429E+02  0.70000026229E+02 0.  0.
         12    1    1    2    0    0 -0.12931315649E+02  0.11702829295E+02  0.68193311631E+01  0.18726409571E+02  0.00000000000E+00 0. -1.
         11    1    3    3    0    0  0.50839987637E+01  0.17220672499E+02 -0.93912790717E+00  0.17980004622E+02  0.51100000000E-03 0. -1.
        -11    1    3    3    0    0  0.17347885842E+02  0.26451151132E+01  0.72616313334E+01  0.18991499862E+02  0.51100000000E-03 0.  1.
        -12    1    3    3    0    0 -0.95005689565E+01 -0.31568616907E+02 -0.13141834589E+02  0.35490085944E+02  0.00000000000E+00 0.  1.
</event>
<event>
 7    1  0.2944263E-013  0.7246159E+02  0.7816164E-02  0.1226708E+00
        -11   -1    0    0    0    0  0.00000000000E+00  0.00000000000E+00  0.45593999997E+02  0.45594000000E+02  0.51100000000E-03 0. -1.
         11   -1    0    0    0    0 -0.00000000000E+00 -0.00000000000E+00 -0.45593999997E+02  0.45594000000E+02  0.51100000000E-03 0.  1.
    9900012    2    1    2    0    0  0.14061377577E+02  0.11808950769E+02 -0.36748981783E+01  0.72461587256E+02  0.70000022096E+02 0.  0.
         12    1    1    2    0    0 -0.14061377577E+02 -0.11808950769E+02  0.36748981783E+01  0.18726412744E+02  0.00000000000E+00 0. -1.
         11    1    3    3    0    0  0.16436920529E+02  0.25286833540E+02 -0.53027247894E+01  0.30622135742E+02  0.51100000000E-03 0. -1.
        -11    1    3    3    0    0 -0.12668245444E+02  0.66768304061E+01 -0.89203019673E+01  0.16871167545E+02  0.51100000000E-03 0.  1.
        -12    1    3    3    0    0  0.10292702492E+02 -0.20154713177E+02  0.10548128578E+02  0.24968283969E+02  0.00000000000E+00 0.  1.
</event>
<event>
 7    1  0.2944263E-013  0.7246155E+02  0.7816164E-02  0.1226708E+00
        -11   -1    0    0    0    0  0.00000000000E+00  0.00000000000E+00  0.45593999997E+02  0.45594000000E+02  0.51100000000E-03 0. -1.
         11   -1    0    0    0    0 -0.00000000000E+00 -0.00000000000E+00 -0.45593999997E+02  0.45594000000E+02  0.51100000000E-03 0.  1.
    9900012    2    1    2    0    0  0.22355803757E+01 -0.14564513963E+02 -0.11556694082E+02  0.72461546393E+02  0.69999968864E+02 0.  0.
         12    1    1    2    0    0 -0.22355803757E+01  0.14564513963E+02  0.11556694082E+02  0.18726453607E+02  0.00000000000E+00 0. -1.
         11    1    3    3    0    0 -0.73812244661E+01  0.28946256841E+01  0.54952203046E+01  0.96466978250E+01  0.51100000000E-03 0. -1.
        -11    1    3    3    0    0 -0.89969774720E+01 -0.56415321677E+01  0.18295821251E+02  0.21154421863E+02  0.51100000000E-03 0.  1.
        -12    1    3    3    0    0  0.18613782314E+02 -0.11817607480E+02 -0.35347735637E+02  0.41660426705E+02  0.00000000000E+00 0.  1.
</event>
<event>
 7    1  0.2944263E-013  0.7246160E+02  0.7816164E-02  0.1226708E+00
        -11   -1    0    0    0    0  0.00000000000E+00  0.00000000000E+00  0.45593999997E+02  0.45594000000E+02  0.51100000000E-03 0. -1.
         11   -1    0    0    0    0 -0.00000000000E+00 -0.00000000000E+00 -0.45593999997E+02  0.45594000000E+02  0.51100000000E-03 0.  1.
    9900012    2    1    2    0    0  0.17124762041E+02  0.34716741277E+01 -0.67355705979E+01  0.72461603991E+02  0.70000043896E+02 0.  0.
         12    1    1    2    0    0 -0.17124762041E+02 -0.34716741277E+01  0.67355705979E+01  0.18726396009E+02  0.00000000000E+00 0. -1.
         11    1    3    3    0    0  0.27400296150E+02  0.14951394890E+02 -0.82907413690E+01  0.32296390371E+02  0.51100000000E-03 0. -1.
        -11    1    3    3    0    0 -0.11878533417E+02  0.82879992804E+01 -0.96325001576E+01  0.17394698841E+02  0.51100000000E-03 0.  1.
         12    1    3    3    0    0  0.16029993080E+01 -0.19767720043E+02  0.11187670929E+02  0.22770514779E+02  0.00000000000E+00 0. -1.
</event>
<event>
 7    1  0.2944263E-013  0.7246156E+02  0.7816164E-02  0.1226708E+00
        -11   -1    0    0    0    0  0.00000000000E+00  0.00000000000E+00  0.45593999997E+02  0.45594000000E+02  0.51100000000E-03 0.  1.
         11   -1    0    0    0    0 -0.00000000000E+00 -0.00000000000E+00 -0.45593999997E+02  0.45594000000E+02  0.51100000000E-03 0. -1.
    9900012    2    1    2    0    0  0.14332514593E+02 -0.12030201520E+02 -0.72995434286E+00  0.72461559962E+02  0.69999986540E+02 0.  0.
         12    1    1    2    0    0 -0.14332514593E+02  0.12030201520E+02  0.72995434286E+00  0.18726440038E+02  0.00000000000E+00 0. -1.
         11    1    3    3    0    0 -0.17216611112E+02  0.68261051379E+01  0.10672621436E+02  0.21375506032E+02  0.51100000000E-03 0. -1.
        -11    1    3    3    0    0  0.24231660395E+02 -0.10435288159E+02  0.89638447539E+01  0.27864298259E+02  0.51100000000E-03 0.  1.
        -12    1    3    3    0    0  0.73174653102E+01 -0.84210184984E+01 -0.20366420532E+02  0.23221755671E+02  0.00000000000E+00 0.  1.
</event>
<event>
 7    1  0.2944263E-013  0.7246156E+02  0.7816164E-02  0.1226708E+00
        -11   -1    0    0    0    0  0.00000000000E+00  0.00000000000E+00  0.45593999997E+02  0.45594000000E+02  0.51100000000E-03 0.  1.
         11   -1    0    0    0    0 -0.00000000000E+00 -0.00000000000E+00 -0.45593999997E+02  0.45594000000E+02  0.51100000000E-03 0. -1.
    9900012    2    1    2    0    0 -0.13181513255E+02 -0.80951036390E+01  0.10554455155E+02  0.72461560984E+02  0.69999987871E+02 0.  0.
         12    1    1    2    0    0  0.13181513255E+02  0.80951036390E+01 -0.10554455155E+02  0.18726439016E+02  0.00000000000E+00 0. -1.
         11    1    3    3    0    0 -0.98590392882E+01 -0.16680988823E+01 -0.13528828958E+02  0.16822973066E+02  0.51100000000E-03 0. -1.
        -11    1    3    3    0    0 -0.16576727410E+01 -0.18789630746E+02 -0.85444187539E+01  0.20707611996E+02  0.51100000000E-03 0.  1.
        -12    1    3    3    0    0 -0.16648012258E+01  0.12362625989E+02  0.32627702866E+02  0.34930975921E+02  0.00000000000E+00 0.  1.
</event>
<event>
 7    1  0.2944263E-013  0.7246157E+02  0.7816164E-02  0.1226708E+00
        -11   -1    0    0    0    0  0.00000000000E+00  0.00000000000E+00  0.45593999997E+02  0.45594000000E+02  0.51100000000E-03 0. -1.
         11   -1    0    0    0    0 -0.00000000000E+00 -0.00000000000E+00 -0.45593999997E+02  0.45594000000E+02  0.51100000000E-03 0.  1.
    9900012    2    1    2    0    0  0.51824704410E+01  0.10107195859E+02 -0.14888439947E+02  0.72461573430E+02  0.70000004085E+02 0.  0.
         12    1    1    2    0    0 -0.51824704410E+01 -0.10107195859E+02  0.14888439947E+02  0.18726426570E+02  0.00000000000E+00 0. -1.
         11    1    3    3    0    0  0.23778107102E+01  0.10059761249E+02  0.76182584195E+01  0.12840975109E+02  0.51100000000E-03 0. -1.
        -11    1    3    3    0    0  0.15071026148E+02 -0.23833953031E+02 -0.92419859412E+01  0.29675030761E+02  0.51100000000E-03 0.  1.
         12    1    3    3    0    0 -0.12266366417E+02  0.23881387642E+02 -0.13264712425E+02  0.29945567560E+02  0.00000000000E+00 0. -1.
</event>
<event>
 7    1  0.2944263E-013  0.7246152E+02  0.7816164E-02  0.1226708E+00
        -11   -1    0    0    0    0  0.00000000000E+00  0.00000000000E+00  0.45593999997E+02  0.45594000000E+02  0.51100000000E-03 0.  1.
         11   -1    0    0    0    0 -0.00000000000E+00 -0.00000000000E+00 -0.45593999997E+02  0.45594000000E+02  0.51100000000E-03 0. -1.
    9900012    2    1    2    0    0  0.79538792860E+01  0.69226558984E+01  0.15475585846E+02  0.72461518279E+02  0.69999932240E+02 0.  0.
         12    1    1    2    0    0 -0.79538792860E+01 -0.69226558984E+01 -0.15475585846E+02  0.18726481721E+02  0.00000000000E+00 0. -1.
         11    1    3    3    0    0 -0.87182661236E+01 -0.17481711503E+02  0.21812930320E+01  0.19656460537E+02  0.51100000000E-03 0. -1.
        -11    1    3    3    0    0 -0.10368650327E+02  0.14705041723E+02  0.15830456598E+02  0.23965611155E+02  0.51100000000E-03 0.  1.
        -12    1    3    3    0    0  0.27040795737E+02  0.96993256779E+01 -0.25361637836E+01  0.28839446587E+02  0.00000000000E+00 0.  1.
</event>
<event>
 7    1  0.2944263E-013  0.7246155E+02  0.7816164E-02  0.1226708E+00
        -11   -1    0    0    0    0  0.00000000000E+00  0.00000000000E+00  0.45593999997E+02  0.45594000000E+02  0.51100000000E-03 0.  1.
         11   -1    0    0    0    0 -0.00000000000E+00 -0.00000000000E+00 -0.45593999997E+02  0.45594000000E+02  0.51100000000E-03 0. -1.
    9900012    2    1    2    0    0 -0.10365132543E+02  0.14957729363E+02  0.44170446615E+01  0.72461550153E+02  0.69999973762E+02 0.  0.
         12    1    1    2    0    0  0.10365132543E+02 -0.14957729363E+02 -0.44170446615E+01  0.18726449847E+02  0.00000000000E+00 0. -1.
         11    1    3    3    0    0 -0.65641906849E+01  0.35933706678E+02  0.72748508403E+01  0.37245715592E+02  0.51100000000E-03 0. -1.
        -11    1    3    3    0    0 -0.13107690772E+02 -0.11569020482E+01 -0.20491266238E+00  0.13160241988E+02  0.51100000000E-03 0.  1.
         12    1    3    3    0    0  0.93067489134E+01 -0.19819075266E+02 -0.26528935164E+01  0.22055592573E+02  0.00000000000E+00 0. -1.
</event>
<event>
 7    1  0.2944263E-013  0.7246160E+02  0.7816164E-02  0.1226708E+00
        -11   -1    0    0    0    0  0.00000000000E+00  0.00000000000E+00  0.45593999997E+02  0.45594000000E+02  0.51100000000E-03 0.  1.
         11   -1    0    0    0    0 -0.00000000000E+00 -0.00000000000E+00 -0.45593999997E+02  0.45594000000E+02  0.51100000000E-03 0. -1.
    9900012    2    1    2    0    0 -0.17422047022E+02  0.48898603719E+01  0.48207462560E+01  0.72461600149E+02  0.70000038892E+02 0.  0.
         12    1    1    2    0    0  0.17422047022E+02 -0.48898603719E+01 -0.48207462560E+01  0.18726399851E+02  0.00000000000E+00 0. -1.
         11    1    3    3    0    0 -0.45431215453E+01 -0.12402288251E+02  0.18070118322E+02  0.22382713948E+02  0.51100000000E-03 0. -1.
        -11    1    3    3    0    0 -0.19413078397E+02 -0.87746150333E+01 -0.41313725271E+01  0.21700915213E+02  0.51100000000E-03 0.  1.
         12    1    3    3    0    0  0.65341529203E+01  0.26066763656E+02 -0.91179995388E+01  0.28377970989E+02  0.00000000000E+00 0. -1.
</event>
<event>
 7    1  0.2944263E-013  0.7246158E+02  0.7816164E-02  0.1226708E+00
        -11   -1    0    0    0    0  0.00000000000E+00  0.00000000000E+00  0.45593999997E+02  0.45594000000E+02  0.51100000000E-03 0. -1.
         11   -1    0    0    0    0 -0.00000000000E+00 -0.00000000000E+00 -0.45593999997E+02  0.45594000000E+02  0.51100000000E-03 0.  1.
    9900012    2    1    2    0    0 -0.13711346741E+02  0.12586956448E+02  0.20606798707E+01  0.72461577394E+02  0.70000009249E+02 0.  0.
         12    1    1    2    0    0  0.13711346741E+02 -0.12586956448E+02 -0.20606798707E+01  0.18726422606E+02  0.00000000000E+00 0. -1.
         11    1    3    3    0    0 -0.15471318424E+02  0.18504776881E+02  0.18768708005E+02  0.30562278411E+02  0.51100000000E-03 0. -1.
        -11    1    3    3    0    0  0.83730812869E+01  0.88320490302E+01  0.63597295619E+01  0.13731705672E+02  0.51100000000E-03 0.  1.
        -12    1    3    3    0    0 -0.66131096038E+01 -0.14749869463E+02 -0.23067757696E+02  0.28167593311E+02  0.00000000000E+00 0.  1.
</event>
<event>
 7    1  0.2944263E-013  0.7246157E+02  0.7816164E-02  0.1226708E+00
        -11   -1    0    0    0    0  0.00000000000E+00  0.00000000000E+00  0.45593999997E+02  0.45594000000E+02  0.51100000000E-03 0.  1.
         11   -1    0    0    0    0 -0.00000000000E+00 -0.00000000000E+00 -0.45593999997E+02  0.45594000000E+02  0.51100000000E-03 0. -1.
    9900012    2    1    2    0    0 -0.50993844376E+01 -0.17754325972E+02  0.30755825602E+01  0.72461574274E+02  0.70000005185E+02 0.  0.
         12    1    1    2    0    0  0.50993844376E+01  0.17754325972E+02 -0.30755825602E+01  0.18726425726E+02  0.00000000000E+00 0. -1.
         11    1    3    3    0    0  0.89191746216E+01  0.27279486703E+01  0.19958577311E+01  0.95381774056E+01  0.51100000000E-03 0.  1.
        -11    1    3    3    0    0  0.21997589520E+02 -0.81844621346E+01 -0.59698796089E+01  0.24218150795E+02  0.51100000000E-03 0. -1.
        -12    1    3    3    0    0 -0.36016148579E+02 -0.12297812508E+02  0.70496044380E+01  0.38705246074E+02  0.00000000000E+00 0.  1.
</event>
<event>
 7    1  0.2944263E-013  0.7246149E+02  0.7816164E-02  0.1226708E+00
        -11   -1    0    0    0    0  0.00000000000E+00  0.00000000000E+00  0.45593999997E+02  0.45594000000E+02  0.51100000000E-03 0. -1.
         11   -1    0    0    0    0 -0.00000000000E+00 -0.00000000000E+00 -0.45593999997E+02  0.45594000000E+02  0.51100000000E-03 0.  1.
    9900012    2    1    2    0    0 -0.60079812811E+01 -0.16755653040E+02  0.58167492922E+01  0.72461486171E+02  0.69999890413E+02 0.  0.
         12    1    1    2    0    0  0.60079812811E+01  0.16755653040E+02 -0.58167492922E+01  0.18726513829E+02  0.00000000000E+00 0. -1.
         11    1    3    3    0    0 -0.44656340989E+00 -0.21450589167E+02  0.47065562448E+01  0.21965401577E+02  0.51100000000E-03 0. -1.
        -11    1    3    3    0    0 -0.41413860707E+01 -0.20060641750E+02 -0.10611193891E+02  0.23068980516E+02  0.51100000000E-03 0.  1.
        -12    1    3    3    0    0 -0.14200318004E+01  0.24755577877E+02  0.11721386938E+02  0.27427104078E+02  0.00000000000E+00 0.  1.
</event>
<event>
 7    1  0.2944263E-013  0.7246089E+02  0.7816164E-02  0.1226710E+00
        -11   -1    0    0    0    0  0.00000000000E+00  0.00000000000E+00  0.45593999997E+02  0.45594000000E+02  0.51100000000E-03 0. -1.
         11   -1    0    0    0    0 -0.00000000000E+00 -0.00000000000E+00 -0.45593999997E+02  0.45594000000E+02  0.51100000000E-03 0.  1.
    9900012    2    1    2    0    0  0.13479561067E+02 -0.36472160701E+01 -0.12478138369E+02  0.72460888937E+02  0.69999112400E+02 0.  0.
         12    1    1    2    0    0 -0.13479561067E+02  0.36472160701E+01  0.12478138369E+02  0.18727111063E+02  0.00000000000E+00 0. -1.
         11    1    3    3    0    0 -0.10055694619E+00  0.11148293053E+01 -0.33107565020E+01  0.34948626520E+01  0.51100000000E-03 0. -1.
        -11    1    3    3    0    0 -0.18459708782E+02 -0.23530425846E+02 -0.10801065465E+02  0.31797874210E+02  0.51100000000E-03 0.  1.
        -12    1    3    3    0    0  0.32039826795E+02  0.18768380471E+02  0.16336835982E+01  0.37168152075E+02  0.00000000000E+00 0.  1.
</event>
<event>
 7    1  0.2944263E-013  0.7246168E+02  0.7816164E-02  0.1226708E+00
        -11   -1    0    0    0    0  0.00000000000E+00  0.00000000000E+00  0.45593999997E+02  0.45594000000E+02  0.51100000000E-03 0. -1.
         11   -1    0    0    0    0 -0.00000000000E+00 -0.00000000000E+00 -0.45593999997E+02  0.45594000000E+02  0.51100000000E-03 0.  1.
    9900012    2    1    2    0    0 -0.10519334959E+02  0.36148891164E+01 -0.15064899399E+02  0.72461680949E+02  0.70000144148E+02 0.  0.
         12    1    1    2    0    0  0.10519334959E+02 -0.36148891164E+01  0.15064899399E+02  0.18726319051E+02  0.00000000000E+00 0. -1.
         11    1    3    3    0    0 -0.13551120292E+02  0.16257457617E+02  0.43808236923E+01  0.21613176671E+02  0.51100000000E-03 0. -1.
        -11    1    3    3    0    0 -0.11709200787E+02  0.11087631306E+02 -0.15972960991E+02  0.22697498412E+02  0.51100000000E-03 0.  1.
         12    1    3    3    0    0  0.14740986120E+02 -0.23730199807E+02 -0.34727620997E+01  0.28151005866E+02  0.00000000000E+00 0. -1.
</event>
<event>
 7    1  0.2944263E-013  0.7246158E+02  0.7816164E-02  0.1226708E+00
        -11   -1    0    0    0    0  0.00000000000E+00  0.00000000000E+00  0.45593999997E+02  0.45594000000E+02  0.51100000000E-03 0.  1.
         11   -1    0    0    0    0 -0.00000000000E+00 -0.00000000000E+00 -0.45593999997E+02  0.45594000000E+02  0.51100000000E-03 0. -1.
    9900012    2    1    2    0    0  0.98606883613E+01  0.13084314977E+01  0.15866117034E+02  0.72461579155E+02  0.70000011543E+02 0.  0.
         12    1    1    2    0    0 -0.98606883613E+01 -0.13084314977E+01 -0.15866117034E+02  0.18726420845E+02  0.00000000000E+00 0. -1.
         11    1    3    3    0    0 -0.19652597262E+02 -0.15391865919E+02  0.80405595980E+01  0.26225649936E+02  0.51100000000E-03 0. -1.
        -11    1    3    3    0    0 -0.34781556949E+01 -0.10474857323E+01  0.79860437668E+01  0.87733510532E+01  0.51100000000E-03 0.  1.
        -12    1    3    3    0    0  0.32991441319E+02  0.17747783149E+02 -0.16048633117E+00  0.37462578166E+02  0.00000000000E+00 0.  1.
</event>
<event>
 7    1  0.2944263E-013  0.7246156E+02  0.7816164E-02  0.1226708E+00
        -11   -1    0    0    0    0  0.00000000000E+00  0.00000000000E+00  0.45593999997E+02  0.45594000000E+02  0.51100000000E-03 0. -1.
         11   -1    0    0    0    0 -0.00000000000E+00 -0.00000000000E+00 -0.45593999997E+02  0.45594000000E+02  0.51100000000E-03 0.  1.
    9900012    2    1    2    0    0 -0.11543958981E+02 -0.94507935878E+01  0.11318078645E+02  0.72461564338E+02  0.69999992241E+02 0.  0.
         12    1    1    2    0    0  0.11543958981E+02  0.94507935878E+01 -0.11318078645E+02  0.18726435662E+02  0.00000000000E+00 0. -1.
         11    1    3    3    0    0  0.20401824441E+02  0.68185560333E+00  0.30570909416E+01  0.20640861728E+02  0.51100000000E-03 0. -1.
        -11    1    3    3    0    0 -0.13113200329E+02 -0.21927441487E+02  0.13633392972E+02  0.28959249252E+02  0.51100000000E-03 0.  1.
         12    1    3    3    0    0 -0.18832583093E+02  0.11794792296E+02 -0.53724052691E+01  0.22861453358E+02  0.00000000000E+00 0. -1.
</event>
<event>
 7    1  0.2944263E-013  0.7246189E+02  0.7816164E-02  0.1226707E+00
        -11   -1    0    0    0    0  0.00000000000E+00  0.00000000000E+00  0.45593999997E+02  0.45594000000E+02  0.51100000000E-03 0.  1.
         11   -1    0    0    0    0 -0.00000000000E+00 -0.00000000000E+00 -0.45593999997E+02  0.45594000000E+02  0.51100000000E-03 0. -1.
    9900012    2    1    2    0    0  0.79728551362E+01 -0.16617015505E+02 -0.33129386871E+01  0.72461890258E+02  0.70000416811E+02 0.  0.
         12    1    1    2    0    0 -0.79728551362E+01  0.16617015505E+02  0.33129386871E+01  0.18726109742E+02  0.00000000000E+00 0. -1.
         11    1    3    3    0    0 -0.55639667390E+01  0.42703507102E+01  0.15421312225E+01  0.71813501536E+01  0.51100000000E-03 0. -1.
        -11    1    3    3    0    0 -0.14881243625E+02 -0.10153625764E+02  0.19350519363E+02  0.26438421433E+02  0.51100000000E-03 0.  1.
         12    1    3    3    0    0  0.28418065500E+02 -0.10733740452E+02 -0.24205589273E+02  0.38842118672E+02  0.00000000000E+00 0. -1.
</event>
<event>
 7    1  0.3733399E-013  0.7246166E+02  0.7816164E-02  0.1226708E+00
        -11   -1    0    0    0    0  0.00000000000E+00  0.00000000000E+00  0.45593999997E+02  0.45594000000E+02  0.51100000000E-03 0. -1.
         11   -1    0    0    0    0 -0.00000000000E+00 -0.00000000000E+00 -0.45593999997E+02  0.45594000000E+02  0.51100000000E-03 0.  1.
    9900012    2    1    2    0    0  0.45198122719E+01  0.13569518419E+02 -0.12087813336E+02  0.72461661214E+02  0.70000118440E+02 0.  0.
         12    1    1    2    0    0 -0.45198122719E+01 -0.13569518419E+02  0.12087813336E+02  0.18726338786E+02  0.00000000000E+00 0. -1.
         11    1    3    3    0    0  0.38337026421E+01  0.21625522160E+02 -0.49505489847E+01  0.22513738476E+02  0.51100000000E-03 0. -1.
        -11    1    3    3    0    0  0.19333254953E+02  0.29951509381E+00 -0.18335654854E+02  0.26646964097E+02  0.51100000000E-03 0.  1.
         12    1    3    3    0    0 -0.18647145324E+02 -0.83555188354E+01  0.11198390504E+02  0.23300958641E+02  0.00000000000E+00 0. -1.
</event>
<event>
 7    1  0.2944263E-013  0.7246159E+02  0.7816164E-02  0.1226708E+00
        -11   -1    0    0    0    0  0.00000000000E+00  0.00000000000E+00  0.45593999997E+02  0.45594000000E+02  0.51100000000E-03 0.  1.
         11   -1    0    0    0    0 -0.00000000000E+00 -0.00000000000E+00 -0.45593999997E+02  0.45594000000E+02  0.51100000000E-03 0. -1.
    9900012    2    1    2    0    0  0.11908020513E+02 -0.74761850080E+01  0.12368668446E+02  0.72461594740E+02  0.70000031845E+02 0.  0.
         12    1    1    2    0    0 -0.11908020513E+02  0.74761850080E+01 -0.12368668446E+02  0.18726405260E+02  0.00000000000E+00 0. -1.
         11    1    3    3    0    0 -0.26749621771E+00 -0.10869832516E+02 -0.17404689766E+02  0.20521891708E+02  0.51100000000E-03 0. -1.
        -11    1    3    3    0    0 -0.65002939178E+01 -0.75887521334E+01 -0.48417386204E+01  0.11103396466E+02  0.51100000000E-03 0.  1.
         12    1    3    3    0    0  0.18675810649E+02  0.10982399641E+02  0.34615096832E+02  0.40836306566E+02  0.00000000000E+00 0. -1.
</event>
<event>
 7    1  0.2944263E-013  0.7246157E+02  0.7816164E-02  0.1226708E+00
        -11   -1    0    0    0    0  0.00000000000E+00  0.00000000000E+00  0.45593999997E+02  0.45594000000E+02  0.51100000000E-03 0.  1.
         11   -1    0    0    0    0 -0.00000000000E+00 -0.00000000000E+00 -0.45593999997E+02  0.45594000000E+02  0.51100000000E-03 0. -1.
    9900012    2    1    2    0    0  0.79899331993E+01  0.16914188188E+02 -0.86616095012E+00  0.72461574036E+02  0.70000004874E+02 0.  0.
         12    1    1    2    0    0 -0.79899331993E+01 -0.16914188188E+02  0.86616095012E+00  0.18726425964E+02  0.00000000000E+00 0. -1.
         11    1    3    3    0    0  0.12637547981E+02  0.19978938294E+02 -0.33864701066E+00  0.23642763721E+02  0.51100000000E-03 0. -1.
        -11    1    3    3    0    0  0.13213831488E+02  0.10535159675E+02  0.14112608406E+02  0.22017280673E+02  0.51100000000E-03 0.  1.
        -12    1    3    3    0    0 -0.17861446269E+02 -0.13599909781E+02 -0.14640122345E+02  0.26801529642E+02  0.00000000000E+00 0.  1.
</event>
<event>
 7    1  0.2944263E-013  0.7246156E+02  0.7816164E-02  0.1226708E+00
        -11   -1    0    0    0    0  0.00000000000E+00  0.00000000000E+00  0.45593999997E+02  0.45594000000E+02  0.51100000000E-03 0.  1.
         11   -1    0    0    0    0 -0.00000000000E+00 -0.00000000000E+00 -0.45593999997E+02  0.45594000000E+02  0.51100000000E-03 0. -1.
    9900012    2    1    2    0    0 -0.18423098007E+02 -0.18089394936E+01  0.28278446237E+01  0.72461561271E+02  0.69999988245E+02 0.  0.
         12    1    1    2    0    0  0.18423098007E+02  0.18089394936E+01 -0.28278446237E+01  0.18726438729E+02  0.00000000000E+00 0. -1.
         11    1    3    3    0    0 -0.49261594232E+01 -0.14031785627E+01 -0.49010120732E+01  0.70891379126E+01  0.51100000000E-03 0. -1.
        -11    1    3    3    0    0 -0.12302495453E+02 -0.30353900636E+02  0.12434680284E+02  0.35033297764E+02  0.51100000000E-03 0.  1.
         12    1    3    3    0    0 -0.11944431306E+01  0.29948139705E+02 -0.47058235870E+01  0.30339125594E+02  0.00000000000E+00 0. -1.
</event>
<event>
 7    1  0.2944263E-013  0.7246127E+02  0.7816164E-02  0.1226709E+00
        -11   -1    0    0    0    0  0.00000000000E+00  0.00000000000E+00  0.45593999997E+02  0.45594000000E+02  0.51100000000E-03 0.  1.
         11   -1    0    0    0    0 -0.00000000000E+00 -0.00000000000E+00 -0.45593999997E+02  0.45594000000E+02  0.51100000000E-03 0. -1.
    9900012    2    1    2    0    0  0.86238362555E+01  0.24310454180E+01  0.16444147501E+02  0.72461267220E+02  0.69999605189E+02 0.  0.
         12    1    1    2    0    0 -0.86238362555E+01 -0.24310454180E+01 -0.16444147501E+02  0.18726732780E+02  0.00000000000E+00 0. -1.
         11    1    3    3    0    0  0.84228275027E+01 -0.26988643632E+02  0.10081771308E+02  0.30016212639E+02  0.51100000000E-03 0. -1.
        -11    1    3    3    0    0  0.60568460233E+01  0.49551428451E+01  0.14100250608E+02  0.16126248536E+02  0.51100000000E-03 0.  1.
        -12    1    3    3    0    0 -0.58558372705E+01  0.24464546205E+02 -0.77378744156E+01  0.26318806045E+02  0.00000000000E+00 0.  1.
</event>
<event>
 7    1  0.2944263E-013  0.7246157E+02  0.7816164E-02  0.1226708E+00
        -11   -1    0    0    0    0  0.00000000000E+00  0.00000000000E+00  0.45593999997E+02  0.45594000000E+02  0.51100000000E-03 0.  1.
         11   -1    0    0    0    0 -0.00000000000E+00 -0.00000000000E+00 -0.45593999997E+02  0.45594000000E+02  0.51100000000E-03 0. -1.
    9900012    2    1    2    0    0 -0.81100725523E+01 -0.85687662528E+01 -0.14542424866E+02  0.72461570738E+02  0.70000000578E+02 0.  0.
         12    1    1    2    0    0  0.81100725523E+01  0.85687662528E+01  0.14542424866E+02  0.18726429262E+02  0.00000000000E+00 0. -1.
         11    1    3    3    0    0  0.19807540699E+01  0.13980482723E+02 -0.16939308228E+02  0.22052606362E+02  0.51100000000E-03 0. -1.
        -11    1    3    3    0    0 -0.20170665547E+01  0.11272851143E+02  0.95465499463E+01  0.14909136344E+02  0.51100000000E-03 0.  1.
         12    1    3    3    0    0 -0.80737600675E+01 -0.33822100119E+02 -0.71496665846E+01  0.35499828033E+02  0.00000000000E+00 0. -1.
</event>
<event>
 7    1  0.2944263E-013  0.7246162E+02  0.7816164E-02  0.1226708E+00
        -11   -1    0    0    0    0  0.00000000000E+00  0.00000000000E+00  0.45593999997E+02  0.45594000000E+02  0.51100000000E-03 0. -1.
         11   -1    0    0    0    0 -0.00000000000E+00 -0.00000000000E+00 -0.45593999997E+02  0.45594000000E+02  0.51100000000E-03 0.  1.
    9900012    2    1    2    0    0  0.11751165329E+02 -0.14459552823E+02  0.18732037451E+01  0.72461616294E+02  0.70000059924E+02 0.  0.
         12    1    1    2    0    0 -0.11751165329E+02  0.14459552823E+02 -0.18732037451E+01  0.18726383706E+02  0.00000000000E+00 0. -1.
         11    1    3    3    0    0 -0.15541003884E+01 -0.71334471711E+01  0.54795953142E+01  0.91283767248E+01  0.51100000000E-03 0. -1.
        -11    1    3    3    0    0 -0.19917621321E+02  0.73823329761E+01 -0.14123543344E+02  0.25508527125E+02  0.51100000000E-03 0.  1.
         12    1    3    3    0    0  0.33222887038E+02 -0.14708438628E+02  0.10517151775E+02  0.37824712444E+02  0.00000000000E+00 0. -1.
</event>
<event>
 7    1  0.2944263E-013  0.7246159E+02  0.7816164E-02  0.1226708E+00
        -11   -1    0    0    0    0  0.00000000000E+00  0.00000000000E+00  0.45593999997E+02  0.45594000000E+02  0.51100000000E-03 0.  1.
         11   -1    0    0    0    0 -0.00000000000E+00 -0.00000000000E+00 -0.45593999997E+02  0.45594000000E+02  0.51100000000E-03 0. -1.
    9900012    2    1    2    0    0  0.13613741211E+02  0.82079423436E+01  0.98981905720E+01  0.72461589669E+02  0.70000025239E+02 0.  0.
         12    1    1    2    0    0 -0.13613741211E+02 -0.82079423436E+01 -0.98981905720E+01  0.18726410331E+02  0.00000000000E+00 0. -1.
         11    1    3    3    0    0  0.38935687719E+01 -0.18566057331E+02  0.86575820810E+01  0.20852148339E+02  0.51100000000E-03 0. -1.
        -11    1    3    3    0    0  0.11539629288E+02 -0.96868090437E+01  0.10467662233E+01  0.15102749198E+02  0.51100000000E-03 0.  1.
         12    1    3    3    0    0 -0.18194568480E+01  0.36460808718E+02  0.19384226768E+00  0.36506692132E+02  0.00000000000E+00 0. -1.
</event>
<event>
 7    1  0.2944263E-013  0.7246157E+02  0.7816164E-02  0.1226708E+00
        -11   -1    0    0    0    0  0.00000000000E+00  0.00000000000E+00  0.45593999997E+02  0.45594000000E+02  0.51100000000E-03 0.  1.
         11   -1    0    0    0    0 -0.00000000000E+00 -0.00000000000E+00 -0.45593999997E+02  0.45594000000E+02  0.51100000000E-03 0. -1.
    9900012    2    1    2    0    0  0.26960899578E+01 -0.35233925325E+01  0.18193293910E+02  0.72461571101E+02  0.70000001051E+02 0.  0.
         12    1    1    2    0    0 -0.26960899578E+01  0.35233925325E+01 -0.18193293910E+02  0.18726428899E+02  0.00000000000E+00 0. -1.
         11    1    3    3    0    0 -0.15367118440E+02  0.10254440090E+01  0.21561592582E+02  0.26497210032E+02  0.51100000000E-03 0. -1.
        -11    1    3    3    0    0  0.30118107819E+02  0.88196991788E+00  0.46701656292E+01  0.30490797575E+02  0.51100000000E-03 0.  1.
         12    1    3    3    0    0 -0.12054899421E+02 -0.54308064594E+01 -0.80384643011E+01  0.15473563493E+02  0.00000000000E+00 0. -1.
</event>
<event>
 7    1  0.2944263E-013  0.7246158E+02  0.7816164E-02  0.1226708E+00
        -11   -1    0    0    0    0  0.00000000000E+00  0.00000000000E+00  0.45593999997E+02  0.45594000000E+02  0.51100000000E-03 0.  1.
         11   -1    0    0    0    0 -0.00000000000E+00 -0.00000000000E+00 -0.45593999997E+02  0.45594000000E+02  0.51100000000E-03 0. -1.
    9900012    2    1    2    0    0 -0.11037352298E+02 -0.73944129545E+01  0.13197665827E+02  0.72461578239E+02  0.70000010350E+02 0.  0.
         12    1    1    2    0    0  0.11037352298E+02  0.73944129545E+01 -0.13197665827E+02  0.18726421761E+02  0.00000000000E+00 0. -1.
         11    1    3    3    0    0  0.20992853368E+01 -0.20055829654E+02  0.18715483018E+02  0.27512044760E+02  0.51100000000E-03 0. -1.
        -11    1    3    3    0    0  0.71472651775E+01 -0.11201317376E+02 -0.18999092615E+01  0.13422464973E+02  0.51100000000E-03 0.  1.
        -12    1    3    3    0    0 -0.20283902812E+02  0.23862734075E+02 -0.36179079297E+01  0.31527068507E+02  0.00000000000E+00 0.  1.
</event>
<event>
 7    1  0.2944263E-013  0.7246152E+02  0.7816164E-02  0.1226708E+00
        -11   -1    0    0    0    0  0.00000000000E+00  0.00000000000E+00  0.45593999997E+02  0.45594000000E+02  0.51100000000E-03 0.  1.
         11   -1    0    0    0    0 -0.00000000000E+00 -0.00000000000E+00 -0.45593999997E+02  0.45594000000E+02  0.51100000000E-03 0. -1.
    9900012    2    1    2    0    0  0.68353748798E+01  0.15930073132E+02 -0.70845920760E+01  0.72461520763E+02  0.69999935476E+02 0.  0.
         12    1    1    2    0    0 -0.68353748798E+01 -0.15930073132E+02  0.70845920760E+01  0.18726479237E+02  0.00000000000E+00 0. -1.
         11    1    3    3    0    0 -0.11503869549E+01 -0.45959993962E+01  0.96135064959E+01  0.10717560730E+02  0.51100000000E-03 0. -1.
        -11    1    3    3    0    0 -0.91502082838E+01  0.31416317975E+02  0.37403110769E+01  0.32934803385E+02  0.51100000000E-03 0.  1.
         12    1    3    3    0    0  0.17135970119E+02 -0.10890245448E+02 -0.20438409649E+02  0.28809156648E+02  0.00000000000E+00 0. -1.
</event>
<event>
 7    1  0.2944263E-013  0.7246156E+02  0.7816164E-02  0.1226708E+00
        -11   -1    0    0    0    0  0.00000000000E+00  0.00000000000E+00  0.45593999997E+02  0.45594000000E+02  0.51100000000E-03 0. -1.
         11   -1    0    0    0    0 -0.00000000000E+00 -0.00000000000E+00 -0.45593999997E+02  0.45594000000E+02  0.51100000000E-03 0.  1.
    9900012    2    1    2    0    0  0.16952219627E+00 -0.18707537953E+02 -0.82389516310E+00  0.72461561009E+02  0.69999987904E+02 0.  0.
         12    1    1    2    0    0 -0.16952219627E+00  0.18707537953E+02  0.82389516310E+00  0.18726438991E+02  0.00000000000E+00 0. -1.
         11    1    3    3    0    0  0.34393185596E+01 -0.18023626740E+00  0.35326208494E+01  0.49336403997E+01  0.51100000000E-03 0. -1.
        -11    1    3    3    0    0 -0.85696293758E+01  0.21818343293E+02 -0.11667468465E+02  0.26184126342E+02  0.51100000000E-03 0.  1.
         12    1    3    3    0    0  0.52998330125E+01 -0.40345644978E+02  0.73109524521E+01  0.41343794267E+02  0.00000000000E+00 0. -1.
</event>
<event>
 7    1  0.2944263E-013  0.7246169E+02  0.7816164E-02  0.1226708E+00
        -11   -1    0    0    0    0  0.00000000000E+00  0.00000000000E+00  0.45593999997E+02  0.45594000000E+02  0.51100000000E-03 0.  1.
         11   -1    0    0    0    0 -0.00000000000E+00 -0.00000000000E+00 -0.45593999997E+02  0.45594000000E+02  0.51100000000E-03 0. -1.
    9900012    2    1    2    0    0 -0.37703370928E+01 -0.18337152945E+02 -0.45604710332E+00  0.72461692332E+02  0.70000158976E+02 0.  0.
         12    1    1    2    0    0  0.37703370928E+01  0.18337152945E+02  0.45604710332E+00  0.18726307668E+02  0.00000000000E+00 0. -1.
         11    1    3    3    0    0 -0.18619151801E+02 -0.21648174154E+02 -0.12633696534E+01  0.28581678767E+02  0.51100000000E-03 0. -1.
        -11    1    3    3    0    0 -0.87321072553E+01 -0.34689449465E+01  0.13349029780E+02  0.16324211237E+02  0.51100000000E-03 0.  1.
        -12    1    3    3    0    0  0.23580921964E+02  0.67799661555E+01 -0.12541707230E+02  0.27555802329E+02  0.00000000000E+00 0.  1.
</event>
<event>
 7    1  0.2944263E-013  0.7246156E+02  0.7816164E-02  0.1226708E+00
        -11   -1    0    0    0    0  0.00000000000E+00  0.00000000000E+00  0.45593999997E+02  0.45594000000E+02  0.51100000000E-03 0. -1.
         11   -1    0    0    0    0 -0.00000000000E+00 -0.00000000000E+00 -0.45593999997E+02  0.45594000000E+02  0.51100000000E-03 0.  1.
    9900012    2    1    2    0    0 -0.90914199900E+01  0.16036784414E+02 -0.32934884172E+01  0.72461563133E+02  0.69999990671E+02 0.  0.
         12    1    1    2    0    0  0.90914199900E+01 -0.16036784414E+02  0.32934884172E+01  0.18726436867E+02  0.00000000000E+00 0. -1.
         11    1    3    3    0    0 -0.14249741224E+02  0.94225124531E+01 -0.15281995140E+02  0.22921130897E+02  0.51100000000E-03 0. -1.
        -11    1    3    3    0    0 -0.48084574019E+01  0.10019217224E+02 -0.16088097943E+02  0.19553334040E+02  0.51100000000E-03 0.  1.
         12    1    3    3    0    0  0.99667786360E+01 -0.34049452632E+01  0.28076604666E+02  0.29987098196E+02  0.00000000000E+00 0. -1.
</event>
<event>
 7    1  0.2944263E-013  0.7246155E+02  0.7816164E-02  0.1226708E+00
        -11   -1    0    0    0    0  0.00000000000E+00  0.00000000000E+00  0.45593999997E+02  0.45594000000E+02  0.51100000000E-03 0. -1.
         11   -1    0    0    0    0 -0.00000000000E+00 -0.00000000000E+00 -0.45593999997E+02  0.45594000000E+02  0.51100000000E-03 0.  1.
    9900012    2    1    2    0    0 -0.98674959756E+00 -0.23982294111E+01 -0.18546014465E+02  0.72461552616E+02  0.69999976971E+02 0.  0.
         12    1    1    2    0    0  0.98674959756E+00  0.23982294111E+01  0.18546014465E+02  0.18726447384E+02  0.00000000000E+00 0. -1.
         11    1    3    3    0    0  0.10864605470E+02  0.49917478216E+01  0.42309691278E+00  0.11963954597E+02  0.51100000000E-03 0. -1.
        -11    1    3    3    0    0  0.25165039439E+01 -0.18874695785E+02 -0.32496937738E+02  0.37664809779E+02  0.51100000000E-03 0.  1.
         12    1    3    3    0    0 -0.14367859012E+02  0.11484718552E+02  0.13527826360E+02  0.22832788240E+02  0.00000000000E+00 0. -1.
</event>
<event>
 7    1  0.2944263E-013  0.7246168E+02  0.7816164E-02  0.1226708E+00
        -11   -1    0    0    0    0  0.00000000000E+00  0.00000000000E+00  0.45593999997E+02  0.45594000000E+02  0.51100000000E-03 0. -1.
         11   -1    0    0    0    0 -0.00000000000E+00 -0.00000000000E+00 -0.45593999997E+02  0.45594000000E+02  0.51100000000E-03 0.  1.
    9900012    2    1    2    0    0  0.80898076924E+01 -0.60768073847E+01 -0.15757620006E+02  0.72461677223E+02  0.70000139294E+02 0.  0.
         12    1    1    2    0    0 -0.80898076924E+01  0.60768073847E+01  0.15757620006E+02  0.18726322777E+02  0.00000000000E+00 0. -1.
         11    1    3    3    0    0 -0.29556732110E+01 -0.15282682922E+02  0.18054731581E+02  0.23838408800E+02  0.51100000000E-03 0. -1.
        -11    1    3    3    0    0  0.19030834541E+02  0.68535174667E+01 -0.84352896166E+01  0.21915690182E+02  0.51100000000E-03 0.  1.
        -12    1    3    3    0    0 -0.79853536371E+01  0.23523580703E+01 -0.25377061971E+02  0.26707578240E+02  0.00000000000E+00 0.  1.
</event>
<event>
 7    1  0.2944263E-013  0.7246160E+02  0.7816164E-02  0.1226708E+00
        -11   -1    0    0    0    0  0.00000000000E+00  0.00000000000E+00  0.45593999997E+02  0.45594000000E+02  0.51100000000E-03 0.  1.
         11   -1    0    0    0    0 -0.00000000000E+00 -0.00000000000E+00 -0.45593999997E+02  0.45594000000E+02  0.51100000000E-03 0. -1.
    9900012    2    1    2    0    0  0.52185190057E+01  0.11365656089E+02  0.13937962809E+02  0.72461604559E+02  0.70000044637E+02 0.  0.
         12    1    1    2    0    0 -0.52185190057E+01 -0.11365656089E+02 -0.13937962809E+02  0.18726395441E+02  0.00000000000E+00 0. -1.
         11    1    3    3    0    0  0.67444797890E+01  0.11431958402E+02 -0.11003218307E+02  0.17240895971E+02  0.51100000000E-03 0. -1.
        -11    1    3    3    0    0 -0.11737154862E+02  0.21972524859E+02  0.14066017819E+02  0.28607787584E+02  0.51100000000E-03 0.  1.
        -12    1    3    3    0    0  0.10211194079E+02 -0.22038827172E+02  0.10875163297E+02  0.26612921004E+02  0.00000000000E+00 0.  1.
</event>
<event>
 7    1  0.2944263E-013  0.7246158E+02  0.7816164E-02  0.1226708E+00
        -11   -1    0    0    0    0  0.00000000000E+00  0.00000000000E+00  0.45593999997E+02  0.45594000000E+02  0.51100000000E-03 0. -1.
         11   -1    0    0    0    0 -0.00000000000E+00 -0.00000000000E+00 -0.45593999997E+02  0.45594000000E+02  0.51100000000E-03 0.  1.
    9900012    2    1    2    0    0  0.18585498171E+02 -0.18512768025E+01  0.13530990621E+01  0.72461578955E+02  0.70000011282E+02 0.  0.
         12    1    1    2    0    0 -0.18585498171E+02  0.18512768025E+01 -0.13530990621E+01  0.18726421045E+02  0.00000000000E+00 0. -1.
         11    1    3    3    0    0 -0.42570613451E+01  0.96697411889E+01  0.19826302502E+02  0.22465723605E+02  0.51100000000E-03 0. -1.
        -11    1    3    3    0    0 -0.77945599241E+01 -0.48605531862E+01  0.53397907469E+01  0.10625135631E+02  0.51100000000E-03 0.  1.
        -12    1    3    3    0    0  0.30637119441E+02 -0.66604648052E+01 -0.23812994187E+02  0.39370719719E+02  0.00000000000E+00 0.  1.
</event>
<event>
 7    1  0.2944263E-013  0.7246154E+02  0.7816164E-02  0.1226708E+00
        -11   -1    0    0    0    0  0.00000000000E+00  0.00000000000E+00  0.45593999997E+02  0.45594000000E+02  0.51100000000E-03 0. -1.
         11   -1    0    0    0    0 -0.00000000000E+00 -0.00000000000E+00 -0.45593999997E+02  0.45594000000E+02  0.51100000000E-03 0.  1.
    9900012    2    1    2    0    0 -0.10129153419E+02  0.11903260094E+01 -0.15705531545E+02  0.72461538880E+02  0.69999959076E+02 0.  0.
         12    1    1    2    0    0  0.10129153419E+02 -0.11903260094E+01  0.15705531545E+02  0.18726461120E+02  0.00000000000E+00 0. -1.
         11    1    3    3    0    0  0.19257954852E+01 -0.25613735792E+02 -0.66381412694E+01  0.26529927803E+02  0.51100000000E-03 0. -1.
        -11    1    3    3    0    0  0.11757096148E+02  0.10713863966E+02 -0.61163186892E+01  0.17041876231E+02  0.51100000000E-03 0.  1.
        -12    1    3    3    0    0 -0.23812045051E+02  0.16090197835E+02 -0.29510715862E+01  0.28889734845E+02  0.00000000000E+00 0.  1.
</event>
<event>
 7    1  0.2944263E-013  0.7246156E+02  0.7816164E-02  0.1226708E+00
        -11   -1    0    0    0    0  0.00000000000E+00  0.00000000000E+00  0.45593999997E+02  0.45594000000E+02  0.51100000000E-03 0. -1.
         11   -1    0    0    0    0 -0.00000000000E+00 -0.00000000000E+00 -0.45593999997E+02  0.45594000000E+02  0.51100000000E-03 0.  1.
    9900012    2    1    2    0    0  0.58200461416E+01 -0.17792217475E+02 -0.49348107329E+00  0.72461562449E+02  0.69999989780E+02 0.  0.
         12    1    1    2    0    0 -0.58200461416E+01  0.17792217475E+02  0.49348107329E+00  0.18726437551E+02  0.00000000000E+00 0. -1.
         11    1    3    3    0    0  0.25490757875E+02 -0.13614800445E+02 -0.30444825010E+01  0.29058740547E+02  0.51100000000E-03 0. -1.
        -11    1    3    3    0    0 -0.27718061786E+01 -0.19337222562E+02 -0.36409826292E+01  0.19871281807E+02  0.51100000000E-03 0.  1.
         12    1    3    3    0    0 -0.16898905555E+02  0.15159805531E+02  0.61919840569E+01  0.23531540095E+02  0.00000000000E+00 0. -1.
</event>
<event>
 7    1  0.2944263E-013  0.7246153E+02  0.7816164E-02  0.1226708E+00
        -11   -1    0    0    0    0  0.00000000000E+00  0.00000000000E+00  0.45593999997E+02  0.45594000000E+02  0.51100000000E-03 0.  1.
         11   -1    0    0    0    0 -0.00000000000E+00 -0.00000000000E+00 -0.45593999997E+02  0.45594000000E+02  0.51100000000E-03 0. -1.
    9900012    2    1    2    0    0  0.16684190854E+00  0.18449377169E+02 -0.32051921565E+01  0.72461531809E+02  0.69999949866E+02 0.  0.
         12    1    1    2    0    0 -0.16684190854E+00 -0.18449377169E+02  0.32051921565E+01  0.18726468191E+02  0.00000000000E+00 0. -1.
         11    1    3    3    0    0  0.48889432862E+01  0.25278708498E+02  0.56113768134E+01  0.26351516461E+02  0.51100000000E-03 0. -1.
        -11    1    3    3    0    0 -0.28308317921E+01  0.17834209027E+01  0.17778817642E+02  0.18090897041E+02  0.51100000000E-03 0.  1.
         12    1    3    3    0    0 -0.18912695856E+01 -0.86127522322E+01 -0.26595386612E+02  0.28019118307E+02  0.00000000000E+00 0. -1.
</event>
<event>
 7    1  0.2944263E-013  0.7246162E+02  0.7816164E-02  0.1226708E+00
        -11   -1    0    0    0    0  0.00000000000E+00  0.00000000000E+00  0.45593999997E+02  0.45594000000E+02  0.51100000000E-03 0. -1.
         11   -1    0    0    0    0 -0.00000000000E+00 -0.00000000000E+00 -0.45593999997E+02  0.45594000000E+02  0.51100000000E-03 0.  1.
    9900012    2    1    2    0    0  0.13140051162E+02  0.12125937220E+02  0.55657884570E+01  0.72461620234E+02  0.70000065055E+02 0.  0.
         12    1    1    2    0    0 -0.13140051162E+02 -0.12125937220E+02 -0.55657884570E+01  0.18726379766E+02  0.00000000000E+00 0. -1.
         11    1    3    3    0    0 -0.13111568406E+02 -0.11326277472E+01  0.21411907865E+02  0.25132963820E+02  0.51100000000E-03 0. -1.
        -11    1    3    3    0    0  0.13783288215E+02  0.53975178890E+01  0.97972434427E+01  0.17751005964E+02  0.51100000000E-03 0.  1.
        -12    1    3    3    0    0  0.12468331353E+02  0.78610470782E+01 -0.25643362850E+02  0.29577650450E+02  0.00000000000E+00 0.  1.
</event>
<event>
 7    1  0.2944263E-013  0.7246155E+02  0.7816164E-02  0.1226708E+00
        -11   -1    0    0    0    0  0.00000000000E+00  0.00000000000E+00  0.45593999997E+02  0.45594000000E+02  0.51100000000E-03 0.  1.
         11   -1    0    0    0    0 -0.00000000000E+00 -0.00000000000E+00 -0.45593999997E+02  0.45594000000E+02  0.51100000000E-03 0. -1.
    9900012    2    1    2    0    0  0.14184434488E+02 -0.11172493412E+02  0.49655854510E+01  0.72461552669E+02  0.69999977040E+02 0.  0.
         12    1    1    2    0    0 -0.14184434488E+02  0.11172493412E+02 -0.49655854510E+01  0.18726447331E+02  0.00000000000E+00 0. -1.
         11    1    3    3    0    0  0.20129329202E+02  0.18741250493E+01  0.10785576405E+01  0.20245135852E+02  0.51100000000E-03 0. -1.
        -11    1    3    3    0    0  0.69235771548E+01  0.13682828595E+02  0.14109943793E+02  0.20838575601E+02  0.51100000000E-03 0.  1.
         12    1    3    3    0    0 -0.12868471869E+02 -0.26729447056E+02 -0.10222915983E+02  0.31377841216E+02  0.00000000000E+00 0. -1.
</event>
<event>
 7    1  0.2944263E-013  0.7246160E+02  0.7816164E-02  0.1226708E+00
        -11   -1    0    0    0    0  0.00000000000E+00  0.00000000000E+00  0.45593999997E+02  0.45594000000E+02  0.51100000000E-03 0. -1.
         11   -1    0    0    0    0 -0.00000000000E+00 -0.00000000000E+00 -0.45593999997E+02  0.45594000000E+02  0.51100000000E-03 0.  1.
    9900012    2    1    2    0    0 -0.93563004736E+01  0.13618100709E+02 -0.88139175003E+01  0.72461597057E+02  0.70000034863E+02 0.  0.
         12    1    1    2    0    0  0.93563004736E+01 -0.13618100709E+02  0.88139175003E+01  0.18726402943E+02  0.00000000000E+00 0. -1.
         11    1    3    3    0    0 -0.49220327696E+01  0.23230665083E+01 -0.18964964347E+02  0.19730507280E+02  0.51100000000E-03 0. -1.
        -11    1    3    3    0    0 -0.25848473088E+02 -0.62555948494E+00 -0.84266856986E+00  0.25869769543E+02  0.51100000000E-03 0.  1.
         12    1    3    3    0    0  0.21414205384E+02  0.11920593686E+02  0.10993715417E+02  0.26861320234E+02  0.00000000000E+00 0. -1.
</event>
<event>
 7    1  0.2944263E-013  0.7246158E+02  0.7816164E-02  0.1226708E+00
        -11   -1    0    0    0    0  0.00000000000E+00  0.00000000000E+00  0.45593999997E+02  0.45594000000E+02  0.51100000000E-03 0. -1.
         11   -1    0    0    0    0 -0.00000000000E+00 -0.00000000000E+00 -0.45593999997E+02  0.45594000000E+02  0.51100000000E-03 0.  1.
    9900012    2    1    2    0    0  0.10659054842E+02  0.12916118124E+02 -0.83807739602E+01  0.72461576698E+02  0.70000008342E+02 0.  0.
         12    1    1    2    0    0 -0.10659054842E+02 -0.12916118124E+02  0.83807739602E+01  0.18726423302E+02  0.00000000000E+00 0. -1.
         11    1    3    3    0    0  0.10811393289E+02 -0.21753207130E+01 -0.21805816412E+02  0.24435872702E+02  0.51100000000E-03 0.  1.
        -11    1    3    3    0    0  0.14717943687E+02  0.24392066163E+02  0.69012163160E+01  0.29312412814E+02  0.51100000000E-03 0. -1.
        -12    1    3    3    0    0 -0.14870282134E+02 -0.93006273259E+01  0.65238261361E+01  0.18713291182E+02  0.00000000000E+00 0.  1.
</event>
<event>
 7    1  0.2944263E-013  0.7246158E+02  0.7816164E-02  0.1226708E+00
        -11   -1    0    0    0    0  0.00000000000E+00  0.00000000000E+00  0.45593999997E+02  0.45594000000E+02  0.51100000000E-03 0.  1.
         11   -1    0    0    0    0 -0.00000000000E+00 -0.00000000000E+00 -0.45593999997E+02  0.45594000000E+02  0.51100000000E-03 0. -1.
    9900012    2    1    2    0    0 -0.12033768771E+02 -0.12478938372E+02 -0.70811882430E+01  0.72461582279E+02  0.70000015612E+02 0.  0.
         12    1    1    2    0    0  0.12033768771E+02  0.12478938372E+02  0.70811882430E+01  0.18726417721E+02  0.00000000000E+00 0. -1.
         11    1    3    3    0    0  0.89519075160E+01 -0.71578702692E+01 -0.20462864693E+02  0.23454223217E+02  0.51100000000E-03 0. -1.
        -11    1    3    3    0    0 -0.29795334842E+02 -0.88984174823E+01 -0.17404336104E+01  0.31144388281E+02  0.51100000000E-03 0.  1.
         12    1    3    3    0    0  0.88096585544E+01  0.35773493795E+01  0.15122110061E+02  0.17862970781E+02  0.00000000000E+00 0. -1.
</event>
<event>
 7    1  0.2944263E-013  0.7246157E+02  0.7816164E-02  0.1226708E+00
        -11   -1    0    0    0    0  0.00000000000E+00  0.00000000000E+00  0.45593999997E+02  0.45594000000E+02  0.51100000000E-03 0. -1.
         11   -1    0    0    0    0 -0.00000000000E+00 -0.00000000000E+00 -0.45593999997E+02  0.45594000000E+02  0.51100000000E-03 0.  1.
    9900012    2    1    2    0    0 -0.11423850665E+02  0.10530410324E+02 -0.10453955095E+02  0.72461572611E+02  0.70000003018E+02 0.  0.
         12    1    1    2    0    0  0.11423850665E+02 -0.10530410324E+02  0.10453955095E+02  0.18726427389E+02  0.00000000000E+00 0. -1.
         11    1    3    3    0    0  0.22164423699E+02 -0.79948221361E+01 -0.26499245216E+01  0.23710777278E+02  0.51100000000E-03 0. -1.
        -11    1    3    3    0    0  0.40802835935E+01  0.19964487551E+01 -0.60665017693E+01  0.75787179531E+01  0.51100000000E-03 0.  1.
         12    1    3    3    0    0 -0.37668557958E+02  0.16528783705E+02 -0.17375288042E+01  0.41172077380E+02  0.00000000000E+00 0. -1.
</event>
<event>
 7    1  0.2944263E-013  0.7246158E+02  0.7816164E-02  0.1226708E+00
        -11   -1    0    0    0    0  0.00000000000E+00  0.00000000000E+00  0.45593999997E+02  0.45594000000E+02  0.51100000000E-03 0.  1.
         11   -1    0    0    0    0 -0.00000000000E+00 -0.00000000000E+00 -0.45593999997E+02  0.45594000000E+02  0.51100000000E-03 0. -1.
    9900012    2    1    2    0    0  0.95777791326E+01  0.13020903665E+02  0.94552206349E+01  0.72461575285E+02  0.70000006501E+02 0.  0.
         12    1    1    2    0    0 -0.95777791326E+01 -0.13020903665E+02 -0.94552206349E+01  0.18726424715E+02  0.00000000000E+00 0. -1.
         11    1    3    3    0    0  0.11555438258E+02 -0.29055569172E+01  0.31825696809E+01  0.12332848996E+02  0.51100000000E-03 0. -1.
        -11    1    3    3    0    0  0.21613171645E+01  0.16253296079E+02  0.30992595016E+02  0.35062542284E+02  0.51100000000E-03 0.  1.
         12    1    3    3    0    0 -0.41389762897E+01 -0.32683549710E+00 -0.24719944062E+02  0.25066184005E+02  0.00000000000E+00 0. -1.
</event>
<event>
 7    1  0.2944263E-013  0.7246180E+02  0.7816164E-02  0.1226707E+00
        -11   -1    0    0    0    0  0.00000000000E+00  0.00000000000E+00  0.45593999997E+02  0.45594000000E+02  0.51100000000E-03 0.  1.
         11   -1    0    0    0    0 -0.00000000000E+00 -0.00000000000E+00 -0.45593999997E+02  0.45594000000E+02  0.51100000000E-03 0. -1.
    9900012    2    1    2    0    0  0.21863181989E+01  0.11255250843E+02 -0.14805740428E+02  0.72461798879E+02  0.70000297773E+02 0.  0.
         12    1    1    2    0    0 -0.21863181989E+01 -0.11255250843E+02  0.14805740428E+02  0.18726201121E+02  0.00000000000E+00 0. -1.
         11    1    3    3    0    0 -0.21424285456E+02  0.27782798969E+01 -0.19679773924E+02  0.29223489669E+02  0.51100000000E-03 0. -1.
        -11    1    3    3    0    0  0.23419384717E+02  0.10341135233E+02 -0.10558255326E+02  0.27692659933E+02  0.51100000000E-03 0.  1.
        -12    1    3    3    0    0  0.19121893812E+00 -0.18641642861E+01  0.15432288822E+02  0.15545649277E+02  0.00000000000E+00 0.  1.
</event>
<event>
 7    1  0.2944263E-013  0.7246155E+02  0.7816164E-02  0.1226708E+00
        -11   -1    0    0    0    0  0.00000000000E+00  0.00000000000E+00  0.45593999997E+02  0.45594000000E+02  0.51100000000E-03 0. -1.
         11   -1    0    0    0    0 -0.00000000000E+00 -0.00000000000E+00 -0.45593999997E+02  0.45594000000E+02  0.51100000000E-03 0.  1.
    9900012    2    1    2    0    0 -0.13629934081E+02 -0.12690262937E+02 -0.19651658617E+01  0.72461554706E+02  0.69999979694E+02 0.  0.
         12    1    1    2    0    0  0.13629934081E+02  0.12690262937E+02  0.19651658617E+01  0.18726445294E+02  0.00000000000E+00 0. -1.
         11    1    3    3    0    0 -0.89027332956E+01 -0.12883112894E+02  0.24603837327E+02  0.29164740175E+02  0.51100000000E-03 0. -1.
        -11    1    3    3    0    0  0.47429305719E+01 -0.95366201231E+01  0.27382206692E+01  0.10997289051E+02  0.51100000000E-03 0.  1.
        -12    1    3    3    0    0 -0.94701313577E+01  0.97294700802E+01 -0.29307223858E+02  0.32299525480E+02  0.00000000000E+00 0.  1.
</event>
<event>
 7    1  0.2944263E-013  0.7246162E+02  0.7816164E-02  0.1226708E+00
        -11   -1    0    0    0    0  0.00000000000E+00  0.00000000000E+00  0.45593999997E+02  0.45594000000E+02  0.51100000000E-03 0. -1.
         11   -1    0    0    0    0 -0.00000000000E+00 -0.00000000000E+00 -0.45593999997E+02  0.45594000000E+02  0.51100000000E-03 0.  1.
    9900012    2    1    2    0    0  0.17889881197E+02 -0.53193340061E+01 -0.15277803190E+01  0.72461620846E+02  0.70000065853E+02 0.  0.
         12    1    1    2    0    0 -0.17889881197E+02  0.53193340061E+01  0.15277803190E+01  0.18726379154E+02  0.00000000000E+00 0. -1.
         11    1    3    3    0    0 -0.89890679235E+01 -0.11767292052E+02  0.10488195301E+02  0.18145929166E+02  0.51100000000E-03 0. -1.
        -11    1    3    3    0    0 -0.17367966685E+01  0.15408398432E+02  0.87847891086E+01  0.17821552257E+02  0.51100000000E-03 0.  1.
         12    1    3    3    0    0  0.28615745789E+02 -0.89604403858E+01 -0.20800764728E+02  0.36494139424E+02  0.00000000000E+00 0. -1.
</event>
<event>
 7    1  0.2944263E-013  0.7246156E+02  0.7816164E-02  0.1226708E+00
        -11   -1    0    0    0    0  0.00000000000E+00  0.00000000000E+00  0.45593999997E+02  0.45594000000E+02  0.51100000000E-03 0. -1.
         11   -1    0    0    0    0 -0.00000000000E+00 -0.00000000000E+00 -0.45593999997E+02  0.45594000000E+02  0.51100000000E-03 0.  1.
    9900012    2    1    2    0    0  0.17426153288E+02  0.50200360492E+01 -0.46698932452E+01  0.72461561917E+02  0.69999989087E+02 0.  0.
         12    1    1    2    0    0 -0.17426153288E+02 -0.50200360492E+01  0.46698932452E+01  0.18726438083E+02  0.00000000000E+00 0. -1.
         11    1    3    3    0    0  0.27822666565E+01  0.12026662734E+01 -0.91144547759E+00  0.31651456574E+01  0.51100000000E-03 0. -1.
        -11    1    3    3    0    0  0.10507101967E+02  0.29446474021E+02  0.17422196216E+02  0.35791436759E+02  0.51100000000E-03 0.  1.
         12    1    3    3    0    0  0.41367846646E+01 -0.25629104245E+02 -0.21180643983E+02  0.33504979501E+02  0.00000000000E+00 0. -1.
</event>
<event>
 7    1  0.2944263E-013  0.7246143E+02  0.7816164E-02  0.1226708E+00
        -11   -1    0    0    0    0  0.00000000000E+00  0.00000000000E+00  0.45593999997E+02  0.45594000000E+02  0.51100000000E-03 0.  1.
         11   -1    0    0    0    0 -0.00000000000E+00 -0.00000000000E+00 -0.45593999997E+02  0.45594000000E+02  0.51100000000E-03 0. -1.
    9900012    2    1    2    0    0  0.10828417271E+02  0.27312813123E+01  0.15032301598E+02  0.72461425045E+02  0.69999810786E+02 0.  0.
         12    1    1    2    0    0 -0.10828417271E+02 -0.27312813123E+01 -0.15032301598E+02  0.18726574955E+02  0.00000000000E+00 0. -1.
         11    1    3    3    0    0  0.11034971392E+02  0.11418170959E+02  0.46046742449E+01  0.16533246712E+02  0.51100000000E-03 0. -1.
        -11    1    3    3    0    0 -0.13051905544E+02  0.11637668890E+02  0.22923125734E+02  0.28831532551E+02  0.51100000000E-03 0.  1.
         12    1    3    3    0    0  0.12845351423E+02 -0.20324558537E+02 -0.12495498381E+02  0.27096645783E+02  0.00000000000E+00 0. -1.
</event>
<event>
 7    1  0.2944263E-013  0.7246163E+02  0.7816164E-02  0.1226708E+00
        -11   -1    0    0    0    0  0.00000000000E+00  0.00000000000E+00  0.45593999997E+02  0.45594000000E+02  0.51100000000E-03 0. -1.
         11   -1    0    0    0    0 -0.00000000000E+00 -0.00000000000E+00 -0.45593999997E+02  0.45594000000E+02  0.51100000000E-03 0.  1.
    9900012    2    1    2    0    0  0.15539427766E+01 -0.43411458035E+01 -0.18149840062E+02  0.72461628773E+02  0.70000076179E+02 0.  0.
         12    1    1    2    0    0 -0.15539427766E+01  0.43411458035E+01  0.18149840062E+02  0.18726371227E+02  0.00000000000E+00 0. -1.
         11    1    3    3    0    0  0.29661433925E+02 -0.17681800108E+00  0.46882193808E+01  0.30030173631E+02  0.51100000000E-03 0. -1.
        -11    1    3    3    0    0 -0.64563862267E-01  0.41054058570E+01 -0.93931661012E+01  0.10251346029E+02  0.51100000000E-03 0.  1.
        -12    1    3    3    0    0 -0.28042927286E+02 -0.82697336594E+01 -0.13444893342E+02  0.32180109113E+02  0.00000000000E+00 0.  1.
</event>
<event>
 7    1  0.2944263E-013  0.7246166E+02  0.7816164E-02  0.1226708E+00
        -11   -1    0    0    0    0  0.00000000000E+00  0.00000000000E+00  0.45593999997E+02  0.45594000000E+02  0.51100000000E-03 0.  1.
         11   -1    0    0    0    0 -0.00000000000E+00 -0.00000000000E+00 -0.45593999997E+02  0.45594000000E+02  0.51100000000E-03 0. -1.
    9900012    2    1    2    0    0 -0.34214161695E+01  0.18205008295E+02 -0.27472796195E+01  0.72461655965E+02  0.70000111602E+02 0.  0.
         12    1    1    2    0    0  0.34214161695E+01 -0.18205008295E+02  0.27472796195E+01  0.18726344035E+02  0.00000000000E+00 0. -1.
         11    1    3    3    0    0 -0.12737375825E+01 -0.79888522701E+01 -0.11762277596E+02  0.14275690615E+02  0.51100000000E-03 0. -1.
        -11    1    3    3    0    0  0.17723777831E+02 -0.46592086088E+01  0.11104744333E+02  0.21427922728E+02  0.51100000000E-03 0.  1.
        -12    1    3    3    0    0 -0.19871456418E+02  0.30853069173E+02 -0.20897463561E+01  0.36758042622E+02  0.00000000000E+00 0.  1.
</event>
<event>
 7    1  0.2944263E-013  0.7246162E+02  0.7816164E-02  0.1226708E+00
        -11   -1    0    0    0    0  0.00000000000E+00  0.00000000000E+00  0.45593999997E+02  0.45594000000E+02  0.51100000000E-03 0.  1.
         11   -1    0    0    0    0 -0.00000000000E+00 -0.00000000000E+00 -0.45593999997E+02  0.45594000000E+02  0.51100000000E-03 0. -1.
    9900012    2    1    2    0    0 -0.57527366864E+00 -0.16272363789E+02  0.92496855714E+01  0.72461616306E+02  0.70000059939E+02 0.  0.
         12    1    1    2    0    0  0.57527366864E+00  0.16272363789E+02 -0.92496855714E+01  0.18726383694E+02  0.00000000000E+00 0. -1.
         11    1    3    3    0    0  0.27051108038E+02  0.74037967330E+01  0.12728570429E+02  0.30799272030E+02  0.51100000000E-03 0. -1.
        -11    1    3    3    0    0  0.19933617361E+01 -0.47082936201E+01  0.29561559855E+01  0.59059612508E+01  0.51100000000E-03 0.  1.
         12    1    3    3    0    0 -0.29619743443E+02 -0.18967866902E+02 -0.64350408430E+01  0.35756383026E+02  0.00000000000E+00 0. -1.
</event>
<event>
 7    1  0.2944263E-013  0.7246164E+02  0.7816164E-02  0.1226708E+00
        -11   -1    0    0    0    0  0.00000000000E+00  0.00000000000E+00  0.45593999997E+02  0.45594000000E+02  0.51100000000E-03 0. -1.
         11   -1    0    0    0    0 -0.00000000000E+00 -0.00000000000E+00 -0.45593999997E+02  0.45594000000E+02  0.51100000000E-03 0.  1.
    9900012    2    1    2    0    0 -0.71757036762E+01 -0.14949443176E+02 -0.87005710662E+01  0.72461641267E+02  0.70000092455E+02 0.  0.
         12    1    1    2    0    0  0.71757036762E+01  0.14949443176E+02  0.87005710662E+01  0.18726358733E+02  0.00000000000E+00 0. -1.
         11    1    3    3    0    0 -0.26260127445E+01 -0.19029716507E+02 -0.46496045390E+01  0.19764738195E+02  0.51100000000E-03 0. -1.
        -11    1    3    3    0    0  0.16400400994E+02 -0.16281496734E+02  0.58144223936E+00  0.23117057858E+02  0.51100000000E-03 0.  1.
         12    1    3    3    0    0 -0.20950091926E+02  0.20361770065E+02 -0.46324087665E+01  0.29579845214E+02  0.00000000000E+00 0. -1.
</event>
<event>
 7    1  0.2944263E-013  0.7246154E+02  0.7816164E-02  0.1226708E+00
        -11   -1    0    0    0    0  0.00000000000E+00  0.00000000000E+00  0.45593999997E+02  0.45594000000E+02  0.51100000000E-03 0. -1.
         11   -1    0    0    0    0 -0.00000000000E+00 -0.00000000000E+00 -0.45593999997E+02  0.45594000000E+02  0.51100000000E-03 0.  1.
    9900012    2    1    2    0    0  0.19543502405E+01  0.15278014617E+02 -0.10650970251E+02  0.72461537900E+02  0.69999957800E+02 0.  0.
         12    1    1    2    0    0 -0.19543502405E+01 -0.15278014617E+02  0.10650970251E+02  0.18726462100E+02  0.00000000000E+00 0. -1.
         11    1    3    3    0    0  0.28144999030E+02  0.11872931808E+02 -0.17888849641E+02  0.35399412733E+02  0.51100000000E-03 0. -1.
        -11    1    3    3    0    0 -0.60899438013E+01  0.69726664512E+01 -0.74743250869E+01  0.11898362438E+02  0.51100000000E-03 0.  1.
        -12    1    3    3    0    0 -0.20100704988E+02 -0.35675836424E+01  0.14712204478E+02  0.25163762728E+02  0.00000000000E+00 0.  1.
</event>
<event>
 7    1  0.2944263E-013  0.7246154E+02  0.7816164E-02  0.1226708E+00
        -11   -1    0    0    0    0  0.00000000000E+00  0.00000000000E+00  0.45593999997E+02  0.45594000000E+02  0.51100000000E-03 0.  1.
         11   -1    0    0    0    0 -0.00000000000E+00 -0.00000000000E+00 -0.45593999997E+02  0.45594000000E+02  0.51100000000E-03 0. -1.
    9900012    2    1    2    0    0  0.12008307772E+02 -0.50868867610E+01  0.13438909611E+02  0.72461543742E+02  0.69999965410E+02 0.  0.
         12    1    1    2    0    0 -0.12008307772E+02  0.50868867610E+01 -0.13438909611E+02  0.18726456258E+02  0.00000000000E+00 0. -1.
         11    1    3    3    0    0 -0.13491842181E+01 -0.10185359082E+02  0.20243256753E+02  0.22701349782E+02  0.51100000000E-03 0. -1.
        -11    1    3    3    0    0  0.84692146028E+01  0.20411038738E+02  0.11899398579E+02  0.25098481730E+02  0.51100000000E-03 0.  1.
         12    1    3    3    0    0  0.48882773872E+01 -0.15312566417E+02 -0.18703745721E+02  0.24661712230E+02  0.00000000000E+00 0. -1.
</event>
<event>
 7    1  0.2944263E-013  0.7246147E+02  0.7816164E-02  0.1226708E+00
        -11   -1    0    0    0    0  0.00000000000E+00  0.00000000000E+00  0.45593999997E+02  0.45594000000E+02  0.51100000000E-03 0. -1.
         11   -1    0    0    0    0 -0.00000000000E+00 -0.00000000000E+00 -0.45593999997E+02  0.45594000000E+02  0.51100000000E-03 0.  1.
    9900012    2    1    2    0    0  0.17782963986E+02 -0.58471277395E+01  0.51026840009E+00  0.72461465757E+02  0.69999863820E+02 0.  0.
         12    1    1    2    0    0 -0.17782963986E+02  0.58471277395E+01 -0.51026840009E+00  0.18726534243E+02  0.00000000000E+00 0. -1.
         11    1    3    3    0    0  0.23760432809E+01  0.70745825890E+01  0.22811259275E+02  0.24001017696E+02  0.51100000000E-03 0. -1.
        -11    1    3    3    0    0  0.22575310325E+02 -0.10454266615E+02  0.29182324173E-01  0.24878448075E+02  0.51100000000E-03 0.  1.
        -12    1    3    3    0    0 -0.71683896202E+01 -0.24674437136E+01 -0.22330173199E+02  0.23581999986E+02  0.00000000000E+00 0.  1.
</event>
<event>
 7    1  0.2944263E-013  0.7246158E+02  0.7816164E-02  0.1226708E+00
        -11   -1    0    0    0    0  0.00000000000E+00  0.00000000000E+00  0.45593999997E+02  0.45594000000E+02  0.51100000000E-03 0.  1.
         11   -1    0    0    0    0 -0.00000000000E+00 -0.00000000000E+00 -0.45593999997E+02  0.45594000000E+02  0.51100000000E-03 0. -1.
    9900012    2    1    2    0    0 -0.57369126348E+01  0.17821821293E+02 -0.38620823991E+00  0.72461584497E+02  0.70000018501E+02 0.  0.
         12    1    1    2    0    0  0.57369126348E+01 -0.17821821293E+02  0.38620823991E+00  0.18726415503E+02  0.00000000000E+00 0. -1.
         11    1    3    3    0    0  0.85081467414E+01  0.12417890026E+02 -0.19202378843E+02  0.24399260381E+02  0.51100000000E-03 0. -1.
        -11    1    3    3    0    0  0.90211744949E+01  0.15537559560E+02  0.31548676901E+01  0.18241451059E+02  0.51100000000E-03 0.  1.
         12    1    3    3    0    0 -0.23266233871E+02 -0.10133628292E+02  0.15661302913E+02  0.29820873056E+02  0.00000000000E+00 0. -1.
</event>
<event>
 7    1  0.2944263E-013  0.7246166E+02  0.7816164E-02  0.1226708E+00
        -11   -1    0    0    0    0  0.00000000000E+00  0.00000000000E+00  0.45593999997E+02  0.45594000000E+02  0.51100000000E-03 0. -1.
         11   -1    0    0    0    0 -0.00000000000E+00 -0.00000000000E+00 -0.45593999997E+02  0.45594000000E+02  0.51100000000E-03 0.  1.
    9900012    2    1    2    0    0  0.16086224378E+02  0.59060726928E+01 -0.75516674074E+01  0.72461655188E+02  0.70000110590E+02 0.  0.
         12    1    1    2    0    0 -0.16086224378E+02 -0.59060726928E+01  0.75516674074E+01  0.18726344812E+02  0.00000000000E+00 0. -1.
         11    1    3    3    0    0 -0.87337014279E+01  0.12956187413E+01  0.71165981189E+01  0.11340288250E+02  0.51100000000E-03 0. -1.
        -11    1    3    3    0    0  0.35988367600E+01  0.40267668227E+01  0.19864264493E+02  0.20585321984E+02  0.51100000000E-03 0.  1.
        -12    1    3    3    0    0  0.21221089046E+02  0.58368712876E+00 -0.34532530019E+02  0.40536044954E+02  0.00000000000E+00 0.  1.
</event>
<event>
 7    1  0.2944263E-013  0.7246132E+02  0.7816164E-02  0.1226709E+00
        -11   -1    0    0    0    0  0.00000000000E+00  0.00000000000E+00  0.45593999997E+02  0.45594000000E+02  0.51100000000E-03 0.  1.
         11   -1    0    0    0    0 -0.00000000000E+00 -0.00000000000E+00 -0.45593999997E+02  0.45594000000E+02  0.51100000000E-03 0. -1.
    9900012    2    1    2    0    0 -0.17311668603E+02 -0.25858245797E+01  0.66564445179E+01  0.72461318174E+02  0.69999671566E+02 0.  0.
         12    1    1    2    0    0  0.17311668603E+02  0.25858245797E+01 -0.66564445179E+01  0.18726681826E+02  0.00000000000E+00 0. -1.
         11    1    3    3    0    0  0.96475009080E+01  0.20337341177E+02  0.21095132531E+02  0.30849413879E+02  0.51100000000E-03 0. -1.
        -11    1    3    3    0    0 -0.41474892416E+01  0.23790041392E+01 -0.51442073756E+00  0.48089454831E+01  0.51100000000E-03 0.  1.
        -12    1    3    3    0    0 -0.22811680270E+02 -0.25302169896E+02 -0.13924267275E+02  0.36802958812E+02  0.00000000000E+00 0.  1.
</event>
<event>
 7    1  0.2944263E-013  0.7246154E+02  0.7816164E-02  0.1226708E+00
        -11   -1    0    0    0    0  0.00000000000E+00  0.00000000000E+00  0.45593999997E+02  0.45594000000E+02  0.51100000000E-03 0. -1.
         11   -1    0    0    0    0 -0.00000000000E+00 -0.00000000000E+00 -0.45593999997E+02  0.45594000000E+02  0.51100000000E-03 0.  1.
    9900012    2    1    2    0    0 -0.66327828505E+01  0.15737628934E+02 -0.76820364801E+01  0.72461535910E+02  0.69999955209E+02 0.  0.
         12    1    1    2    0    0  0.66327828505E+01 -0.15737628934E+02  0.76820364801E+01  0.18726464090E+02  0.00000000000E+00 0. -1.
         11    1    3    3    0    0  0.42728981515E+01 -0.72415348219E+01 -0.10860103800E+02  0.13734603744E+02  0.51100000000E-03 0. -1.
        -11    1    3    3    0    0  0.45628033442E+01  0.23159221743E+02 -0.19947553761E+02  0.30904265522E+02  0.51100000000E-03 0.  1.
         12    1    3    3    0    0 -0.15468484346E+02 -0.18005798688E+00  0.23125621081E+02  0.27822666645E+02  0.00000000000E+00 0. -1.
</event>
<event>
 7    1  0.2944263E-013  0.7246166E+02  0.7816164E-02  0.1226708E+00
        -11   -1    0    0    0    0  0.00000000000E+00  0.00000000000E+00  0.45593999997E+02  0.45594000000E+02  0.51100000000E-03 0. -1.
         11   -1    0    0    0    0 -0.00000000000E+00 -0.00000000000E+00 -0.45593999997E+02  0.45594000000E+02  0.51100000000E-03 0.  1.
    9900012    2    1    2    0    0  0.10786863816E+02 -0.14430863920E+00 -0.15306811440E+02  0.72461662066E+02  0.70000119549E+02 0.  0.
         12    1    1    2    0    0 -0.10786863816E+02  0.14430863920E+00  0.15306811440E+02  0.18726337934E+02  0.00000000000E+00 0. -1.
         11    1    3    3    0    0  0.27044090039E+01 -0.16202807919E+02  0.14360207542E+02  0.21818807791E+02  0.51100000000E-03 0. -1.
        -11    1    3    3    0    0 -0.13801803031E+01  0.24540820013E+02 -0.86016723661E+01  0.26041227166E+02  0.51100000000E-03 0.  1.
        -12    1    3    3    0    0  0.94626351147E+01 -0.84823207324E+01 -0.21065346616E+02  0.24601627108E+02  0.00000000000E+00 0.  1.
</event>
<event>
 7    1  0.2944263E-013  0.7246158E+02  0.7816164E-02  0.1226708E+00
        -11   -1    0    0    0    0  0.00000000000E+00  0.00000000000E+00  0.45593999997E+02  0.45594000000E+02  0.51100000000E-03 0.  1.
         11   -1    0    0    0    0 -0.00000000000E+00 -0.00000000000E+00 -0.45593999997E+02  0.45594000000E+02  0.51100000000E-03 0. -1.
    9900012    2    1    2    0    0  0.16419858341E+01 -0.18636271441E+02  0.81975926557E+00  0.72461581871E+02  0.70000015081E+02 0.  0.
         12    1    1    2    0    0 -0.16419858341E+01  0.18636271441E+02 -0.81975926557E+00  0.18726418129E+02  0.00000000000E+00 0. -1.
         11    1    3    3    0    0 -0.14675367050E+02  0.17075210446E+02  0.15691530107E+01  0.22569702065E+02  0.51100000000E-03 0. -1.
        -11    1    3    3    0    0 -0.16071286399E+01 -0.26382991216E+02  0.83661527233E+01  0.27724314231E+02  0.51100000000E-03 0.  1.
        -12    1    3    3    0    0  0.17924481524E+02 -0.93284906714E+01 -0.91155464684E+01  0.22167565575E+02  0.00000000000E+00 0.  1.
</event>
<event>
 7    1  0.2944263E-013  0.7246162E+02  0.7816164E-02  0.1226708E+00
        -11   -1    0    0    0    0  0.00000000000E+00  0.00000000000E+00  0.45593999997E+02  0.45594000000E+02  0.51100000000E-03 0. -1.
         11   -1    0    0    0    0 -0.00000000000E+00 -0.00000000000E+00 -0.45593999997E+02  0.45594000000E+02  0.51100000000E-03 0.  1.
    9900012    2    1    2    0    0  0.12740554667E+02 -0.94378955687E+01 -0.99640147558E+01  0.72461622987E+02  0.70000068641E+02 0.  0.
         12    1    1    2    0    0 -0.12740554667E+02  0.94378955687E+01  0.99640147558E+01  0.18726377013E+02  0.00000000000E+00 0. -1.
         11    1    3    3    0    0  0.23795350458E+01  0.67481176009E+01  0.72697523263E+01  0.10200420449E+02  0.51100000000E-03 0. -1.
        -11    1    3    3    0    0  0.26311476777E+02  0.10777839858E+02 -0.67311797894E+01  0.29219247489E+02  0.51100000000E-03 0.  1.
        -12    1    3    3    0    0 -0.15950457156E+02 -0.26963853028E+02 -0.10502587293E+02  0.33041955048E+02  0.00000000000E+00 0.  1.
</event>
<event>
 7    1  0.2944263E-013  0.7246104E+02  0.7816164E-02  0.1226709E+00
        -11   -1    0    0    0    0  0.00000000000E+00  0.00000000000E+00  0.45593999997E+02  0.45594000000E+02  0.51100000000E-03 0. -1.
         11   -1    0    0    0    0 -0.00000000000E+00 -0.00000000000E+00 -0.45593999997E+02  0.45594000000E+02  0.51100000000E-03 0.  1.
    9900012    2    1    2    0    0 -0.12114820030E+02  0.13371452432E+02 -0.50134378866E+01  0.72461036446E+02  0.69999304560E+02 0.  0.
         12    1    1    2    0    0  0.12114820030E+02 -0.13371452432E+02  0.50134378866E+01  0.18726963554E+02  0.00000000000E+00 0. -1.
         11    1    3    3    0    0 -0.16802944588E+01 -0.83001651380E+01 -0.95246229271E+01  0.12744982266E+02  0.51100000000E-03 0. -1.
        -11    1    3    3    0    0 -0.11696035187E+02  0.12595129072E+02 -0.24140614860E+02  0.29634503564E+02  0.51100000000E-03 0.  1.
         12    1    3    3    0    0  0.12615096159E+01  0.90764884981E+01  0.28651799900E+02  0.30081550616E+02  0.00000000000E+00 0. -1.
</event>
<event>
 7    1  0.2944263E-013  0.7246152E+02  0.7816164E-02  0.1226708E+00
        -11   -1    0    0    0    0  0.00000000000E+00  0.00000000000E+00  0.45593999997E+02  0.45594000000E+02  0.51100000000E-03 0.  1.
         11   -1    0    0    0    0 -0.00000000000E+00 -0.00000000000E+00 -0.45593999997E+02  0.45594000000E+02  0.51100000000E-03 0. -1.
    9900012    2    1    2    0    0 -0.16213483839E+01 -0.11685163277E+02  0.14543351924E+02  0.72461524181E+02  0.69999939929E+02 0.  0.
         12    1    1    2    0    0  0.16213483839E+01  0.11685163277E+02 -0.14543351924E+02  0.18726475819E+02  0.00000000000E+00 0. -1.
         11    1    3    3    0    0 -0.82412482202E+01 -0.33645215597E+02  0.19353193242E+02  0.39679526128E+02  0.51100000000E-03 0. -1.
        -11    1    3    3    0    0  0.65174475612E+00  0.77099850549E+01  0.91339076595E+01  0.11970668744E+02  0.51100000000E-03 0.  1.
        -12    1    3    3    0    0  0.59681550802E+01  0.14250067265E+02 -0.13943748977E+02  0.20811329310E+02  0.00000000000E+00 0.  1.
</event>
<event>
 7    1  0.2944263E-013  0.7246180E+02  0.7816164E-02  0.1226707E+00
        -11   -1    0    0    0    0  0.00000000000E+00  0.00000000000E+00  0.45593999997E+02  0.45594000000E+02  0.51100000000E-03 0.  1.
         11   -1    0    0    0    0 -0.00000000000E+00 -0.00000000000E+00 -0.45593999997E+02  0.45594000000E+02  0.51100000000E-03 0. -1.
    9900012    2    1    2    0    0 -0.11937510417E+02 -0.10629082789E+02  0.97564884465E+01  0.72461798498E+02  0.70000297277E+02 0.  0.
         12    1    1    2    0    0  0.11937510417E+02  0.10629082789E+02 -0.97564884465E+01  0.18726201502E+02  0.00000000000E+00 0. -1.
         11    1    3    3    0    0 -0.20696075242E+02 -0.17219052475E+02  0.12760015720E+02  0.29793309651E+02  0.51100000000E-03 0. -1.
        -11    1    3    3    0    0 -0.33242124289E+01  0.79937407801E+01  0.17102687682E+02  0.19169042911E+02  0.51100000000E-03 0.  1.
        -12    1    3    3    0    0  0.12082777254E+02 -0.14037710945E+01 -0.20106214955E+02  0.23499445935E+02  0.00000000000E+00 0.  1.
</event>
<event>
 7    1  0.2944263E-013  0.7246140E+02  0.7816164E-02  0.1226708E+00
        -11   -1    0    0    0    0  0.00000000000E+00  0.00000000000E+00  0.45593999997E+02  0.45594000000E+02  0.51100000000E-03 0. -1.
         11   -1    0    0    0    0 -0.00000000000E+00 -0.00000000000E+00 -0.45593999997E+02  0.45594000000E+02  0.51100000000E-03 0.  1.
    9900012    2    1    2    0    0 -0.17158436004E+02 -0.31610943265E+01 -0.68030329500E+01  0.72461395909E+02  0.69999772831E+02 0.  0.
         12    1    1    2    0    0  0.17158436004E+02  0.31610943265E+01  0.68030329500E+01  0.18726604091E+02  0.00000000000E+00 0. -1.
         11    1    3    3    0    0 -0.10687577381E+01 -0.19395024063E+02 -0.22943069292E+01  0.19559474585E+02  0.51100000000E-03 0. -1.
        -11    1    3    3    0    0  0.10120939220E+02 -0.69427685358E+01 -0.11951540273E+02  0.17131105066E+02  0.51100000000E-03 0.  1.
         12    1    3    3    0    0 -0.26210617486E+02  0.23176698272E+02  0.74428142523E+01  0.35770816258E+02  0.00000000000E+00 0. -1.
</event>
<event>
 7    1  0.2944263E-013  0.7246162E+02  0.7816164E-02  0.1226708E+00
        -11   -1    0    0    0    0  0.00000000000E+00  0.00000000000E+00  0.45593999997E+02  0.45594000000E+02  0.51100000000E-03 0. -1.
         11   -1    0    0    0    0 -0.00000000000E+00 -0.00000000000E+00 -0.45593999997E+02  0.45594000000E+02  0.51100000000E-03 0.  1.
    9900012    2    1    2    0    0 -0.17912113657E+02 -0.50742951469E+01 -0.20211101342E+01  0.72461623600E+02  0.70000069440E+02 0.  0.
         12    1    1    2    0    0  0.17912113657E+02  0.50742951469E+01  0.20211101342E+01  0.18726376400E+02  0.00000000000E+00 0. -1.
         11    1    3    3    0    0 -0.95893108677E+01 -0.28851014392E+02 -0.44023498153E+01  0.30719970679E+02  0.51100000000E-03 0. -1.
        -11    1    3    3    0    0  0.62227920995E+01 -0.46981333889E+01 -0.45451660527E+01  0.90251943781E+01  0.51100000000E-03 0.  1.
        -12    1    3    3    0    0 -0.14545594889E+02  0.28474852634E+02  0.69264057338E+01  0.32716458543E+02  0.00000000000E+00 0.  1.
</event>
<event>
 7    1  0.2944263E-013  0.7246158E+02  0.7816164E-02  0.1226708E+00
        -11   -1    0    0    0    0  0.00000000000E+00  0.00000000000E+00  0.45593999997E+02  0.45594000000E+02  0.51100000000E-03 0.  1.
         11   -1    0    0    0    0 -0.00000000000E+00 -0.00000000000E+00 -0.45593999997E+02  0.45594000000E+02  0.51100000000E-03 0. -1.
    9900012    2    1    2    0    0 -0.15014927747E+02 -0.10858175532E+02  0.27075237838E+01  0.72461582399E+02  0.70000015768E+02 0.  0.
         12    1    1    2    0    0  0.15014927747E+02  0.10858175532E+02 -0.27075237838E+01  0.18726417601E+02  0.00000000000E+00 0. -1.
         11    1    3    3    0    0 -0.23758869880E+01 -0.18561193106E+02 -0.22490429248E+00  0.18713987034E+02  0.51100000000E-03 0. -1.
        -11    1    3    3    0    0 -0.14399909379E+02 -0.16269090594E+02  0.15437559739E+02  0.26652559911E+02  0.51100000000E-03 0.  1.
         12    1    3    3    0    0  0.17608686198E+01  0.23972108168E+02 -0.12505131662E+02  0.27095035453E+02  0.00000000000E+00 0. -1.
</event>
<event>
 7    1  0.2944263E-013  0.7246154E+02  0.7816164E-02  0.1226708E+00
        -11   -1    0    0    0    0  0.00000000000E+00  0.00000000000E+00  0.45593999997E+02  0.45594000000E+02  0.51100000000E-03 0. -1.
         11   -1    0    0    0    0 -0.00000000000E+00 -0.00000000000E+00 -0.45593999997E+02  0.45594000000E+02  0.51100000000E-03 0.  1.
    9900012    2    1    2    0    0 -0.21308477898E+01 -0.12226043080E+02 -0.14023684250E+02  0.72461538465E+02  0.69999958536E+02 0.  0.
         12    1    1    2    0    0  0.21308477898E+01  0.12226043080E+02  0.14023684250E+02  0.18726461535E+02  0.00000000000E+00 0. -1.
         11    1    3    3    0    0  0.15609140195E+02 -0.24433758187E+02  0.49040837871E+01  0.29405846950E+02  0.51100000000E-03 0. -1.
        -11    1    3    3    0    0 -0.13973242785E+02 -0.56819696847E+01  0.20573674503E+01  0.15223963167E+02  0.51100000000E-03 0.  1.
        -12    1    3    3    0    0 -0.37667451997E+01  0.17889684793E+02 -0.20985135487E+02  0.27831728347E+02  0.00000000000E+00 0.  1.
</event>
<event>
 7    1  0.2944263E-013  0.7246169E+02  0.7816164E-02  0.1226708E+00
        -11   -1    0    0    0    0  0.00000000000E+00  0.00000000000E+00  0.45593999997E+02  0.45594000000E+02  0.51100000000E-03 0.  1.
         11   -1    0    0    0    0 -0.00000000000E+00 -0.00000000000E+00 -0.45593999997E+02  0.45594000000E+02  0.51100000000E-03 0. -1.
    9900012    2    1    2    0    0 -0.11392658890E+02 -0.12900058583E+02  0.73804144423E+01  0.72461689489E+02  0.70000155273E+02 0.  0.
         12    1    1    2    0    0  0.11392658890E+02  0.12900058583E+02 -0.73804144423E+01  0.18726310511E+02  0.00000000000E+00 0. -1.
         11    1    3    3    0    0 -0.42843374931E+01 -0.65494255685E+01 -0.19557370125E+02  0.21065166734E+02  0.51100000000E-03 0. -1.
        -11    1    3    3    0    0  0.10018386691E+02 -0.82227766806E+01 -0.59560908225E+01  0.14263840520E+02  0.51100000000E-03 0.  1.
        -12    1    3    3    0    0 -0.17126708087E+02  0.18721436658E+01  0.32893875390E+02  0.37132682235E+02  0.00000000000E+00 0.  1.
</event>
<event>
 7    1  0.2944263E-013  0.7246157E+02  0.7816164E-02  0.1226708E+00
        -11   -1    0    0    0    0  0.00000000000E+00  0.00000000000E+00  0.45593999997E+02  0.45594000000E+02  0.51100000000E-03 0.  1.
         11   -1    0    0    0    0 -0.00000000000E+00 -0.00000000000E+00 -0.45593999997E+02  0.45594000000E+02  0.51100000000E-03 0. -1.
    9900012    2    1    2    0    0  0.53805845381E+01 -0.23636847312E+01  0.17780368536E+02  0.72461569461E+02  0.69999998914E+02 0.  0.
         12    1    1    2    0    0 -0.53805845381E+01  0.23636847312E+01 -0.17780368536E+02  0.18726430539E+02  0.00000000000E+00 0. -1.
         11    1    3    3    0    0  0.43285787742E+01  0.13274924295E+02  0.45690958893E+01  0.14691386822E+02  0.51100000000E-03 0. -1.
        -11    1    3    3    0    0  0.65887615921E+01  0.11119017943E+02  0.24896976674E+02  0.28051805416E+02  0.51100000000E-03 0.  1.
         12    1    3    3    0    0 -0.55367558282E+01 -0.26757626970E+02 -0.11685704027E+02  0.29718377223E+02  0.00000000000E+00 0. -1.
</event>
<event>
 7    1  0.2944263E-013  0.7246155E+02  0.7816164E-02  0.1226708E+00
        -11   -1    0    0    0    0  0.00000000000E+00  0.00000000000E+00  0.45593999997E+02  0.45594000000E+02  0.51100000000E-03 0.  1.
         11   -1    0    0    0    0 -0.00000000000E+00 -0.00000000000E+00 -0.45593999997E+02  0.45594000000E+02  0.51100000000E-03 0. -1.
    9900012    2    1    2    0    0 -0.25476842489E+01 -0.70863198213E+01  0.17145648267E+02  0.72461551374E+02  0.69999975353E+02 0.  0.
         12    1    1    2    0    0  0.25476842489E+01  0.70863198213E+01 -0.17145648267E+02  0.18726448626E+02  0.00000000000E+00 0. -1.
         11    1    3    3    0    0  0.31186824809E+01 -0.13099677341E+02 -0.88305592567E+01  0.16102996736E+02  0.51100000000E-03 0. -1.
        -11    1    3    3    0    0 -0.98797595078E+01 -0.10312954747E+02  0.34591531711E+02  0.37423799245E+02  0.51100000000E-03 0.  1.
         12    1    3    3    0    0  0.42133927779E+01  0.16326312266E+02 -0.86153241881E+01  0.18934755393E+02  0.00000000000E+00 0. -1.
</event>
<event>
 7    1  0.2944263E-013  0.7246225E+02  0.7816164E-02  0.1226706E+00
        -11   -1    0    0    0    0  0.00000000000E+00  0.00000000000E+00  0.45593999997E+02  0.45594000000E+02  0.51100000000E-03 0.  1.
         11   -1    0    0    0    0 -0.00000000000E+00 -0.00000000000E+00 -0.45593999997E+02  0.45594000000E+02  0.51100000000E-03 0. -1.
    9900012    2    1    2    0    0  0.14577431634E+02  0.13255727053E+01  0.11678833802E+02  0.72462247278E+02  0.70000881891E+02 0.  0.
         12    1    1    2    0    0 -0.14577431634E+02 -0.13255727053E+01 -0.11678833802E+02  0.18725752722E+02  0.00000000000E+00 0. -1.
         11    1    3    3    0    0 -0.13803242837E+02  0.75376274628E+01  0.93082655471E+01  0.18275369992E+02  0.51100000000E-03 0. -1.
        -11    1    3    3    0    0  0.18196716599E+01  0.17763685362E+02 -0.26589578666E+01  0.18053525412E+02  0.51100000000E-03 0.  1.
         12    1    3    3    0    0  0.26561002812E+02 -0.23975740120E+02  0.50295261213E+01  0.36133351874E+02  0.00000000000E+00 0. -1.
</event>
<event>
 7    1  0.2944263E-013  0.7246175E+02  0.7816164E-02  0.1226708E+00
        -11   -1    0    0    0    0  0.00000000000E+00  0.00000000000E+00  0.45593999997E+02  0.45594000000E+02  0.51100000000E-03 0.  1.
         11   -1    0    0    0    0 -0.00000000000E+00 -0.00000000000E+00 -0.45593999997E+02  0.45594000000E+02  0.51100000000E-03 0. -1.
    9900012    2    1    2    0    0 -0.55322410960E+01 -0.62224685997E+01  0.16773423311E+02  0.72461747396E+02  0.70000230707E+02 0.  0.
         12    1    1    2    0    0  0.55322410960E+01  0.62224685997E+01 -0.16773423311E+02  0.18726252604E+02  0.00000000000E+00 0. -1.
         11    1    3    3    0    0  0.65225984897E+01 -0.11053318543E+02 -0.11389650866E+02  0.17159379039E+02  0.51100000000E-03 0. -1.
        -11    1    3    3    0    0  0.16395376875E+02  0.85852268743E+01  0.14542252849E+02  0.23537026608E+02  0.51100000000E-03 0.  1.
        -12    1    3    3    0    0 -0.28450216461E+02 -0.37543769306E+01  0.13620821328E+02  0.31765341749E+02  0.00000000000E+00 0.  1.
</event>
<event>
 7    1  0.2944263E-013  0.7246160E+02  0.7816164E-02  0.1226708E+00
        -11   -1    0    0    0    0  0.00000000000E+00  0.00000000000E+00  0.45593999997E+02  0.45594000000E+02  0.51100000000E-03 0. -1.
         11   -1    0    0    0    0 -0.00000000000E+00 -0.00000000000E+00 -0.45593999997E+02  0.45594000000E+02  0.51100000000E-03 0.  1.
    9900012    2    1    2    0    0  0.16314828149E+02 -0.91828394295E+01  0.42418735507E+00  0.72461599053E+02  0.70000037463E+02 0.  0.
         12    1    1    2    0    0 -0.16314828149E+02  0.91828394295E+01 -0.42418735507E+00  0.18726400947E+02  0.00000000000E+00 0. -1.
         11    1    3    3    0    0  0.10775682470E+02  0.90987411502E+01  0.12126140990E+02  0.18599616092E+02  0.51100000000E-03 0. -1.
        -11    1    3    3    0    0  0.26716937331E+02 -0.15003874214E+02 -0.32043302981E+01  0.30808744128E+02  0.51100000000E-03 0.  1.
        -12    1    3    3    0    0 -0.21177791653E+02 -0.32777063656E+01 -0.84976233367E+01  0.23053238833E+02  0.00000000000E+00 0.  1.
</event>
<event>
 7    1  0.2944263E-013  0.7246159E+02  0.7816164E-02  0.1226708E+00
        -11   -1    0    0    0    0  0.00000000000E+00  0.00000000000E+00  0.45593999997E+02  0.45594000000E+02  0.51100000000E-03 0. -1.
         11   -1    0    0    0    0 -0.00000000000E+00 -0.00000000000E+00 -0.45593999997E+02  0.45594000000E+02  0.51100000000E-03 0.  1.
    9900012    2    1    2    0    0  0.10070074379E+02  0.12832003782E+02 -0.91984707132E+01  0.72461585968E+02  0.70000020417E+02 0.  0.
         12    1    1    2    0    0 -0.10070074379E+02 -0.12832003782E+02  0.91984707132E+01  0.18726414032E+02  0.00000000000E+00 0. -1.
         11    1    3    3    0    0 -0.16729369475E+02  0.78766394338E+01 -0.14157794539E+02  0.23288546504E+02  0.51100000000E-03 0. -1.
        -11    1    3    3    0    0  0.31566746074E-01  0.15647755784E+02 -0.79944169602E+01  0.17571680634E+02  0.51100000000E-03 0.  1.
         12    1    3    3    0    0  0.26767877108E+02 -0.10692391436E+02  0.12953740786E+02  0.31601358829E+02  0.00000000000E+00 0. -1.
</event>
<event>
 7    1  0.2944263E-013  0.7246160E+02  0.7816164E-02  0.1226708E+00
        -11   -1    0    0    0    0  0.00000000000E+00  0.00000000000E+00  0.45593999997E+02  0.45594000000E+02  0.51100000000E-03 0.  1.
         11   -1    0    0    0    0 -0.00000000000E+00 -0.00000000000E+00 -0.45593999997E+02  0.45594000000E+02  0.51100000000E-03 0. -1.
    9900012    2    1    2    0    0  0.86468516290E+01 -0.55718963029E+00  0.16601193679E+02  0.72461597918E+02  0.70000035985E+02 0.  0.
         12    1    1    2    0    0 -0.86468516290E+01  0.55718963029E+00 -0.16601193679E+02  0.18726402082E+02  0.00000000000E+00 0. -1.
         11    1    3    3    0    0  0.50321948176E+01 -0.30372078758E+00  0.26987580515E+01  0.57182625229E+01  0.51100000000E-03 0. -1.
        -11    1    3    3    0    0  0.18643680588E+02  0.27083741622E+02  0.75230253903E+00  0.32888931961E+02  0.51100000000E-03 0.  1.
         12    1    3    3    0    0 -0.15029023777E+02 -0.27337210465E+02  0.13150133088E+02  0.33854403435E+02  0.00000000000E+00 0. -1.
</event>
<event>
 7    1  0.2944263E-013  0.7246156E+02  0.7816164E-02  0.1226708E+00
        -11   -1    0    0    0    0  0.00000000000E+00  0.00000000000E+00  0.45593999997E+02  0.45594000000E+02  0.51100000000E-03 0.  1.
         11   -1    0    0    0    0 -0.00000000000E+00 -0.00000000000E+00 -0.45593999997E+02  0.45594000000E+02  0.51100000000E-03 0. -1.
    9900012    2    1    2    0    0  0.17514662655E+02 -0.57354158384E+01  0.33198075991E+01  0.72461560796E+02  0.69999987627E+02 0.  0.
         12    1    1    2    0    0 -0.17514662655E+02  0.57354158384E+01 -0.33198075991E+01  0.18726439204E+02  0.00000000000E+00 0. -1.
         11    1    3    3    0    0  0.78526255101E+01 -0.11846786930E+01  0.51443114247E+01  0.94620891616E+01  0.51100000000E-03 0. -1.
        -11    1    3    3    0    0  0.30964974018E+02 -0.19712214365E+02 -0.29707485253E+01  0.36826978673E+02  0.51100000000E-03 0.  1.
         12    1    3    3    0    0 -0.21302936873E+02  0.15161477220E+02  0.11462446997E+01  0.26172492961E+02  0.00000000000E+00 0. -1.
</event>
<event>
 7    1  0.2944263E-013  0.7246159E+02  0.7816164E-02  0.1226708E+00
        -11   -1    0    0    0    0  0.00000000000E+00  0.00000000000E+00  0.45593999997E+02  0.45594000000E+02  0.51100000000E-03 0. -1.
         11   -1    0    0    0    0 -0.00000000000E+00 -0.00000000000E+00 -0.45593999997E+02  0.45594000000E+02  0.51100000000E-03 0.  1.
    9900012    2    1    2    0    0 -0.76805058442E+01  0.15949286251E+02  0.61080850207E+01  0.72461585379E+02  0.70000019650E+02 0.  0.
         12    1    1    2    0    0  0.76805058442E+01 -0.15949286251E+02 -0.61080850207E+01  0.18726414621E+02  0.00000000000E+00 0. -1.
         11    1    3    3    0    0  0.12448520873E+02  0.40244345366E+01  0.20237317392E+02  0.24097941007E+02  0.51100000000E-03 0. -1.
        -11    1    3    3    0    0 -0.11138100545E+02 -0.11027405203E+02  0.57512261351E+01  0.16695435052E+02  0.51100000000E-03 0.  1.
        -12    1    3    3    0    0 -0.89909261723E+01  0.22952256918E+02 -0.19880458507E+02  0.31668209320E+02  0.00000000000E+00 0.  1.
</event>
<event>
 7    1  0.2944263E-013  0.7246157E+02  0.7816164E-02  0.1226708E+00
        -11   -1    0    0    0    0  0.00000000000E+00  0.00000000000E+00  0.45593999997E+02  0.45594000000E+02  0.51100000000E-03 0.  1.
         11   -1    0    0    0    0 -0.00000000000E+00 -0.00000000000E+00 -0.45593999997E+02  0.45594000000E+02  0.51100000000E-03 0. -1.
    9900012    2    1    2    0    0  0.13375911219E+02  0.12245155094E+02 -0.46712255857E+01  0.72461570210E+02  0.69999999890E+02 0.  0.
         12    1    1    2    0    0 -0.13375911219E+02 -0.12245155094E+02  0.46712255857E+01  0.18726429790E+02  0.00000000000E+00 0. -1.
         11    1    3    3    0    0  0.40751408339E+01  0.11871473519E+02 -0.67961823958E+01  0.14273288050E+02  0.51100000000E-03 0. -1.
        -11    1    3    3    0    0 -0.24335087802E+02  0.16139705957E+01 -0.80873762993E+00  0.24401955992E+02  0.51100000000E-03 0.  1.
         12    1    3    3    0    0  0.33635858187E+02 -0.12402890210E+01  0.29336944400E+01  0.33786326168E+02  0.00000000000E+00 0. -1.
</event>
<event>
 7    1  0.2944263E-013  0.7246158E+02  0.7816164E-02  0.1226708E+00
        -11   -1    0    0    0    0  0.00000000000E+00  0.00000000000E+00  0.45593999997E+02  0.45594000000E+02  0.51100000000E-03 0. -1.
         11   -1    0    0    0    0 -0.00000000000E+00 -0.00000000000E+00 -0.45593999997E+02  0.45594000000E+02  0.51100000000E-03 0.  1.
    9900012    2    1    2    0    0 -0.16405740408E+02  0.20996342049E+01 -0.87819137620E+01  0.72461580389E+02  0.70000013150E+02 0.  0.
         12    1    1    2    0    0  0.16405740408E+02 -0.20996342049E+01  0.87819137620E+01  0.18726419611E+02  0.00000000000E+00 0. -1.
         11    1    3    3    0    0  0.24506539070E+02  0.26792449425E+01 -0.49273414524E+01  0.25140157213E+02  0.51100000000E-03 0. -1.
        -11    1    3    3    0    0 -0.16183661462E+00 -0.42520723106E+01 -0.47745161297E+01  0.63954917370E+01  0.51100000000E-03 0.  1.
        -12    1    3    3    0    0 -0.40750442863E+02  0.36724615730E+01  0.91994382005E+00  0.40925931439E+02  0.00000000000E+00 0.  1.
</event>
<event>
 7    1  0.2944263E-013  0.7246156E+02  0.7816164E-02  0.1226708E+00
        -11   -1    0    0    0    0  0.00000000000E+00  0.00000000000E+00  0.45593999997E+02  0.45594000000E+02  0.51100000000E-03 0. -1.
         11   -1    0    0    0    0 -0.00000000000E+00 -0.00000000000E+00 -0.45593999997E+02  0.45594000000E+02  0.51100000000E-03 0.  1.
    9900012    2    1    2    0    0  0.87086661739E+01 -0.93556220581E+01 -0.13686155763E+02  0.72461564403E+02  0.69999992325E+02 0.  0.
         12    1    1    2    0    0 -0.87086661739E+01  0.93556220581E+01  0.13686155763E+02  0.18726435597E+02  0.00000000000E+00 0. -1.
         11    1    3    3    0    0 -0.64474560855E+01 -0.20597764965E+02  0.41351972492E+01  0.21975838279E+02  0.51100000000E-03 0. -1.
        -11    1    3    3    0    0 -0.85835717791E+01 -0.10512304201E+02 -0.11236586248E+02  0.17619509496E+02  0.51100000000E-03 0.  1.
        -12    1    3    3    0    0  0.23739694038E+02  0.21754447109E+02 -0.65847667635E+01  0.32866216627E+02  0.00000000000E+00 0.  1.
</event>
<event>
 7    1  0.2944263E-013  0.7246157E+02  0.7816164E-02  0.1226708E+00
        -11   -1    0    0    0    0  0.00000000000E+00  0.00000000000E+00  0.45593999997E+02  0.45594000000E+02  0.51100000000E-03 0.  1.
         11   -1    0    0    0    0 -0.00000000000E+00 -0.00000000000E+00 -0.45593999997E+02  0.45594000000E+02  0.51100000000E-03 0. -1.
    9900012    2    1    2    0    0  0.13069672321E+02  0.26955388949E+01  0.13137616119E+02  0.72461568898E+02  0.69999998181E+02 0.  0.
         12    1    1    2    0    0 -0.13069672321E+02 -0.26955388949E+01 -0.13137616119E+02  0.18726431102E+02  0.00000000000E+00 0. -1.
         11    1    3    3    0    0 -0.37082456116E+01 -0.37198209078E+01 -0.21458856884E+02  0.22092322018E+02  0.51100000000E-03 0. -1.
        -11    1    3    3    0    0  0.10221709000E+02  0.42524063362E+01 -0.35320502962E+01  0.11620743267E+02  0.51100000000E-03 0.  1.
        -12    1    3    3    0    0  0.65562089329E+01  0.21629534665E+01  0.38128523300E+02  0.38748503613E+02  0.00000000000E+00 0.  1.
</event>
<event>
 7    1  0.2944263E-013  0.7246159E+02  0.7816164E-02  0.1226708E+00
        -11   -1    0    0    0    0  0.00000000000E+00  0.00000000000E+00  0.45593999997E+02  0.45594000000E+02  0.51100000000E-03 0.  1.
         11   -1    0    0    0    0 -0.00000000000E+00 -0.00000000000E+00 -0.45593999997E+02  0.45594000000E+02  0.51100000000E-03 0. -1.
    9900012    2    1    2    0    0 -0.50372679728E+01  0.17005037218E+02 -0.60110893230E+01  0.72461586722E+02  0.70000021400E+02 0.  0.
         12    1    1    2    0    0  0.50372679728E+01 -0.17005037218E+02  0.60110893230E+01  0.18726413278E+02  0.00000000000E+00 0. -1.
         11    1    3    3    0    0  0.97336482811E+01  0.13409895378E+02 -0.38995071516E+01  0.17022789407E+02  0.51100000000E-03 0. -1.
        -11    1    3    3    0    0 -0.68784643287E+01  0.16893844397E+02  0.20883207680E+02  0.27727668732E+02  0.51100000000E-03 0.  1.
         12    1    3    3    0    0 -0.78924519251E+01 -0.13298702556E+02 -0.22994789852E+02  0.27711128584E+02  0.00000000000E+00 0. -1.
</event>
<event>
 7    1  0.2944263E-013  0.7246148E+02  0.7816164E-02  0.1226708E+00
        -11   -1    0    0    0    0  0.00000000000E+00  0.00000000000E+00  0.45593999997E+02  0.45594000000E+02  0.51100000000E-03 0.  1.
         11   -1    0    0    0    0 -0.00000000000E+00 -0.00000000000E+00 -0.45593999997E+02  0.45594000000E+02  0.51100000000E-03 0. -1.
    9900012    2    1    2    0    0  0.53049789429E+01 -0.16206861716E+01  0.17886115847E+02  0.72461479626E+02  0.69999881887E+02 0.  0.
         12    1    1    2    0    0 -0.53049789429E+01  0.16206861716E+01 -0.17886115847E+02  0.18726520374E+02  0.00000000000E+00 0. -1.
         11    1    3    3    0    0 -0.32134758865E+00  0.22763721826E+01  0.12680406956E+02  0.12887119749E+02  0.51100000000E-03 0. -1.
        -11    1    3    3    0    0  0.23811361391E+02 -0.56789025385E+01  0.23345797004E+02  0.33826869547E+02  0.51100000000E-03 0.  1.
         12    1    3    3    0    0 -0.18185034859E+02  0.17818441843E+01 -0.18140088114E+02  0.25747490330E+02  0.00000000000E+00 0. -1.
</event>
<event>
 7    1  0.2944263E-013  0.7246154E+02  0.7816164E-02  0.1226708E+00
        -11   -1    0    0    0    0  0.00000000000E+00  0.00000000000E+00  0.45593999997E+02  0.45594000000E+02  0.51100000000E-03 0. -1.
         11   -1    0    0    0    0 -0.00000000000E+00 -0.00000000000E+00 -0.45593999997E+02  0.45594000000E+02  0.51100000000E-03 0.  1.
    9900012    2    1    2    0    0  0.15128570317E+02  0.10358109769E+02 -0.38100391736E+01  0.72461535402E+02  0.69999954546E+02 0.  0.
         12    1    1    2    0    0 -0.15128570317E+02 -0.10358109769E+02  0.38100391736E+01  0.18726464598E+02  0.00000000000E+00 0. -1.
         11    1    3    3    0    0  0.12136399456E+02  0.68779892069E+00  0.43685985904E+01  0.12917039639E+02  0.51100000000E-03 0. -1.
        -11    1    3    3    0    0  0.30235126036E+02  0.55234918569E+01  0.22001427081E+00  0.30736301262E+02  0.51100000000E-03 0.  1.
         12    1    3    3    0    0 -0.27242955176E+02  0.41468189918E+01 -0.83986520348E+01  0.28808194502E+02  0.00000000000E+00 0. -1.
</event>
<event>
 7    1  0.2944263E-013  0.7246156E+02  0.7816164E-02  0.1226708E+00
        -11   -1    0    0    0    0  0.00000000000E+00  0.00000000000E+00  0.45593999997E+02  0.45594000000E+02  0.51100000000E-03 0. -1.
         11   -1    0    0    0    0 -0.00000000000E+00 -0.00000000000E+00 -0.45593999997E+02  0.45594000000E+02  0.51100000000E-03 0.  1.
    9900012    2    1    2    0    0 -0.11047975102E+01  0.18438369115E+02 -0.30798727814E+01  0.72461557479E+02  0.69999983305E+02 0.  0.
         12    1    1    2    0    0  0.11047975102E+01 -0.18438369115E+02  0.30798727814E+01  0.18726442521E+02  0.00000000000E+00 0. -1.
         11    1    3    3    0    0 -0.74135672871E+01 -0.13997093135E+01  0.57297470832E+01  0.94736565265E+01  0.51100000000E-03 0. -1.
        -11    1    3    3    0    0 -0.19867485549E+02 -0.80056576857E+01 -0.12150508533E+02  0.24626051143E+02  0.51100000000E-03 0.  1.
         12    1    3    3    0    0  0.26176255326E+02  0.27843736114E+02  0.33408886686E+01  0.38361849809E+02  0.00000000000E+00 0. -1.
</event>
<event>
 7    1  0.2944263E-013  0.7246155E+02  0.7816164E-02  0.1226708E+00
        -11   -1    0    0    0    0  0.00000000000E+00  0.00000000000E+00  0.45593999997E+02  0.45594000000E+02  0.51100000000E-03 0.  1.
         11   -1    0    0    0    0 -0.00000000000E+00 -0.00000000000E+00 -0.45593999997E+02  0.45594000000E+02  0.51100000000E-03 0. -1.
    9900012    2    1    2    0    0  0.52747090164E+01 -0.16639844875E+02 -0.67803396574E+01  0.72461548160E+02  0.69999971165E+02 0.  0.
         12    1    1    2    0    0 -0.52747090164E+01  0.16639844875E+02  0.67803396574E+01  0.18726451840E+02  0.00000000000E+00 0. -1.
         11    1    3    3    0    0 -0.11439147563E+02 -0.31273388593E+01 -0.42441984250E+01  0.12595537537E+02  0.51100000000E-03 0. -1.
        -11    1    3    3    0    0 -0.98587251395E+01 -0.12455724196E+02 -0.21839140327E+02  0.27005324977E+02  0.51100000000E-03 0.  1.
        -12    1    3    3    0    0  0.26572581719E+02 -0.10567818198E+01  0.19302999095E+02  0.32860685646E+02  0.00000000000E+00 0.  1.
</event>
<event>
 7    1  0.2944263E-013  0.7246152E+02  0.7816164E-02  0.1226708E+00
        -11   -1    0    0    0    0  0.00000000000E+00  0.00000000000E+00  0.45593999997E+02  0.45594000000E+02  0.51100000000E-03 0. -1.
         11   -1    0    0    0    0 -0.00000000000E+00 -0.00000000000E+00 -0.45593999997E+02  0.45594000000E+02  0.51100000000E-03 0.  1.
    9900012    2    1    2    0    0  0.13221843137E+02 -0.31831771998E+01 -0.12873670118E+02  0.72461517807E+02  0.69999931625E+02 0.  0.
         12    1    1    2    0    0 -0.13221843137E+02  0.31831771998E+01  0.12873670118E+02  0.18726482193E+02  0.00000000000E+00 0. -1.
         11    1    3    3    0    0  0.15998946673E+02  0.59213018298E+01  0.61041701499E+01  0.18118747294E+02  0.51100000000E-03 0. -1.
        -11    1    3    3    0    0 -0.36679083317E+01 -0.19645592955E+02  0.10817708247E+02  0.22725001344E+02  0.51100000000E-03 0.  1.
         12    1    3    3    0    0  0.89080479533E+00  0.10541113926E+02 -0.29795548515E+02  0.31617769170E+02  0.00000000000E+00 0. -1.
</event>
<event>
 7    1  0.2944263E-013  0.7246235E+02  0.7816164E-02  0.1226706E+00
        -11   -1    0    0    0    0  0.00000000000E+00  0.00000000000E+00  0.45593999997E+02  0.45594000000E+02  0.51100000000E-03 0. -1.
         11   -1    0    0    0    0 -0.00000000000E+00 -0.00000000000E+00 -0.45593999997E+02  0.45594000000E+02  0.51100000000E-03 0.  1.
    9900012    2    1    2    0    0  0.14619282143E+02 -0.90394862480E+01 -0.74306341030E+01  0.72462347938E+02  0.70001013017E+02 0.  0.
         12    1    1    2    0    0 -0.14619282143E+02  0.90394862480E+01  0.74306341030E+01  0.18725652062E+02  0.00000000000E+00 0. -1.
         11    1    3    3    0    0  0.18183853523E+02  0.13464816304E+02 -0.20071310657E+02  0.30245847960E+02  0.51100000000E-03 0. -1.
        -11    1    3    3    0    0  0.68719585276E+01 -0.21264830374E+02 -0.38347995040E+01  0.22674269830E+02  0.51100000000E-03 0.  1.
         12    1    3    3    0    0 -0.10436529908E+02 -0.12394721782E+01  0.16475476058E+02  0.19542230148E+02  0.00000000000E+00 0. -1.
</event>
<event>
 7    1  0.2944263E-013  0.7246155E+02  0.7816164E-02  0.1226708E+00
        -11   -1    0    0    0    0  0.00000000000E+00  0.00000000000E+00  0.45593999997E+02  0.45594000000E+02  0.51100000000E-03 0. -1.
         11   -1    0    0    0    0 -0.00000000000E+00 -0.00000000000E+00 -0.45593999997E+02  0.45594000000E+02  0.51100000000E-03 0.  1.
    9900012    2    1    2    0    0 -0.15881370272E+02 -0.98825531837E+01  0.89283343047E+00  0.72461549971E+02  0.69999973525E+02 0.  0.
         12    1    1    2    0    0  0.15881370272E+02  0.98825531837E+01 -0.89283343047E+00  0.18726450029E+02  0.00000000000E+00 0. -1.
         11    1    3    3    0    0 -0.92789005227E+01 -0.67585209749E+01  0.21844180467E+02  0.24676787092E+02  0.51100000000E-03 0. -1.
        -11    1    3    3    0    0  0.20623973894E+01  0.54794934851E+01  0.11613531943E+02  0.13005862382E+02  0.51100000000E-03 0.  1.
        -12    1    3    3    0    0 -0.86648671387E+01 -0.86035256939E+01 -0.32564878979E+02  0.34778900497E+02  0.00000000000E+00 0.  1.
</event>
<event>
 7    1  0.2944263E-013  0.7246167E+02  0.7816164E-02  0.1226708E+00
        -11   -1    0    0    0    0  0.00000000000E+00  0.00000000000E+00  0.45593999997E+02  0.45594000000E+02  0.51100000000E-03 0.  1.
         11   -1    0    0    0    0 -0.00000000000E+00 -0.00000000000E+00 -0.45593999997E+02  0.45594000000E+02  0.51100000000E-03 0. -1.
    9900012    2    1    2    0    0 -0.43861769702E+01  0.50502548702E+01  0.17490910890E+02  0.72461665964E+02  0.70000124628E+02 0.  0.
         12    1    1    2    0    0  0.43861769702E+01 -0.50502548702E+01 -0.17490910890E+02  0.18726334036E+02  0.00000000000E+00 0. -1.
         11    1    3    3    0    0 -0.83752979621E+01 -0.82569780439E+01 -0.74785531303E+01  0.13937433751E+02  0.51100000000E-03 0. -1.
        -11    1    3    3    0    0  0.12647878948E+02 -0.62320676462E+01 -0.10177603251E+02  0.17389396690E+02  0.51100000000E-03 0.  1.
        -12    1    3    3    0    0 -0.86587579564E+01  0.19539300560E+02  0.35147067272E+02  0.41134835523E+02  0.00000000000E+00 0.  1.
</event>
<event>
 7    1  0.2944263E-013  0.7246160E+02  0.7816164E-02  0.1226708E+00
        -11   -1    0    0    0    0  0.00000000000E+00  0.00000000000E+00  0.45593999997E+02  0.45594000000E+02  0.51100000000E-03 0. -1.
         11   -1    0    0    0    0 -0.00000000000E+00 -0.00000000000E+00 -0.45593999997E+02  0.45594000000E+02  0.51100000000E-03 0.  1.
    9900012    2    1    2    0    0 -0.48784130344E+01 -0.95531882654E+01 -0.15349781909E+02  0.72461598199E+02  0.70000036351E+02 0.  0.
         12    1    1    2    0    0  0.48784130344E+01  0.95531882654E+01  0.15349781909E+02  0.18726401801E+02  0.00000000000E+00 0. -1.
         11    1    3    3    0    0 -0.47857131663E+01 -0.73146526892E+01  0.15999466869E+02  0.18231569730E+02  0.51100000000E-03 0. -1.
        -11    1    3    3    0    0  0.12988838078E+02 -0.10856976067E+02  0.23274970392E+01  0.17088039287E+02  0.51100000000E-03 0.  1.
        -12    1    3    3    0    0 -0.13081537947E+02  0.86184404909E+01 -0.33676745817E+02  0.37141989182E+02  0.00000000000E+00 0.  1.
</event>
<event>
 7    1  0.2944263E-013  0.7246156E+02  0.7816164E-02  0.1226708E+00
        -11   -1    0    0    0    0  0.00000000000E+00  0.00000000000E+00  0.45593999997E+02  0.45594000000E+02  0.51100000000E-03 0.  1.
         11   -1    0    0    0    0 -0.00000000000E+00 -0.00000000000E+00 -0.45593999997E+02  0.45594000000E+02  0.51100000000E-03 0. -1.
    9900012    2    1    2    0    0 -0.11130138586E+02 -0.14034976676E+02  0.54606933718E+01  0.72461555400E+02  0.69999980598E+02 0.  0.
         12    1    1    2    0    0  0.11130138586E+02  0.14034976676E+02 -0.54606933718E+01  0.18726444600E+02  0.00000000000E+00 0. -1.
         11    1    3    3    0    0  0.40558644387E+01 -0.70908375787E+01  0.18757403215E+02  0.20458987990E+02  0.51100000000E-03 0. -1.
        -11    1    3    3    0    0 -0.61370192176E+01  0.20413811523E+02 -0.37290825285E+01  0.21640073071E+02  0.51100000000E-03 0.  1.
         12    1    3    3    0    0 -0.90489838076E+01 -0.27357950620E+02 -0.95676273152E+01  0.30362494339E+02  0.00000000000E+00 0. -1.
</event>
<event>
 7    1  0.2944263E-013  0.7246157E+02  0.7816164E-02  0.1226708E+00
        -11   -1    0    0    0    0  0.00000000000E+00  0.00000000000E+00  0.45593999997E+02  0.45594000000E+02  0.51100000000E-03 0.  1.
         11   -1    0    0    0    0 -0.00000000000E+00 -0.00000000000E+00 -0.45593999997E+02  0.45594000000E+02  0.51100000000E-03 0. -1.
    9900012    2    1    2    0    0 -0.70160473636E+01 -0.14888321572E+02  0.89326453696E+01  0.72461569663E+02  0.69999999178E+02 0.  0.
         12    1    1    2    0    0  0.70160473636E+01  0.14888321572E+02 -0.89326453696E+01  0.18726430337E+02  0.00000000000E+00 0. -1.
         11    1    3    3    0    0 -0.11307257563E+02  0.56462534197E+01 -0.56950131510E+00  0.12651426137E+02  0.51100000000E-03 0. -1.
        -11    1    3    3    0    0  0.49485904272E+01 -0.74918777328E+01  0.32306621822E+02  0.33531098893E+02  0.51100000000E-03 0.  1.
         12    1    3    3    0    0 -0.65738022747E+00 -0.13042697259E+02 -0.22804475137E+02  0.26279044633E+02  0.00000000000E+00 0. -1.
</event>
<event>
 7    1  0.2944263E-013  0.7246156E+02  0.7816164E-02  0.1226708E+00
        -11   -1    0    0    0    0  0.00000000000E+00  0.00000000000E+00  0.45593999997E+02  0.45594000000E+02  0.51100000000E-03 0. -1.
         11   -1    0    0    0    0 -0.00000000000E+00 -0.00000000000E+00 -0.45593999997E+02  0.45594000000E+02  0.51100000000E-03 0.  1.
    9900012    2    1    2    0    0  0.50303192737E+01  0.15007665813E+02 -0.10007267965E+02  0.72461559941E+02  0.69999986513E+02 0.  0.
         12    1    1    2    0    0 -0.50303192737E+01 -0.15007665813E+02  0.10007267965E+02  0.18726440059E+02  0.00000000000E+00 0. -1.
         11    1    3    3    0    0 -0.15265309619E+01 -0.11559859465E+01  0.16043884442E+02  0.16157748251E+02  0.51100000000E-03 0. -1.
        -11    1    3    3    0    0  0.82914737180E+01  0.96734281454E+01  0.12096931743E+02  0.17568708159E+02  0.51100000000E-03 0.  1.
        -12    1    3    3    0    0 -0.17346234824E+01  0.64902236141E+01 -0.38148084151E+02  0.38735103531E+02  0.00000000000E+00 0.  1.
</event>
<event>
 7    1  0.2944263E-013  0.7246159E+02  0.7816164E-02  0.1226708E+00
        -11   -1    0    0    0    0  0.00000000000E+00  0.00000000000E+00  0.45593999997E+02  0.45594000000E+02  0.51100000000E-03 0. -1.
         11   -1    0    0    0    0 -0.00000000000E+00 -0.00000000000E+00 -0.45593999997E+02  0.45594000000E+02  0.51100000000E-03 0.  1.
    9900012    2    1    2    0    0  0.96347316642E+01  0.15860097799E+02 -0.25115413285E+01  0.72461585600E+02  0.70000019938E+02 0.  0.
         12    1    1    2    0    0 -0.96347316642E+01 -0.15860097799E+02  0.25115413285E+01  0.18726414400E+02  0.00000000000E+00 0. -1.
         11    1    3    3    0    0  0.77440469787E+00 -0.14172264455E+02 -0.81462737800E+00  0.14216764767E+02  0.51100000000E-03 0. -1.
        -11    1    3    3    0    0  0.22934484105E+02 -0.16966745480E+01  0.30975752337E+01  0.23204832218E+02  0.51100000000E-03 0.  1.
         12    1    3    3    0    0 -0.14074157138E+02  0.31729036803E+02 -0.47944891842E+01  0.35039988615E+02  0.00000000000E+00 0. -1.
</event>
<event>
 7    1  0.2944263E-013  0.7246156E+02  0.7816164E-02  0.1226708E+00
        -11   -1    0    0    0    0  0.00000000000E+00  0.00000000000E+00  0.45593999997E+02  0.45594000000E+02  0.51100000000E-03 0.  1.
         11   -1    0    0    0    0 -0.00000000000E+00 -0.00000000000E+00 -0.45593999997E+02  0.45594000000E+02  0.51100000000E-03 0. -1.
    9900012    2    1    2    0    0  0.17954970877E+02  0.52983381616E+01 -0.47545040657E+00  0.72461563619E+02  0.69999991304E+02 0.  0.
         12    1    1    2    0    0 -0.17954970877E+02 -0.52983381616E+01  0.47545040657E+00  0.18726436381E+02  0.00000000000E+00 0. -1.
         11    1    3    3    0    0 -0.42897714571E+00 -0.12368921547E+02 -0.19111880989E+02  0.22769238829E+02  0.51100000000E-03 0. -1.
        -11    1    3    3    0    0  0.19817596478E+02 -0.24293256829E+01 -0.29290538881E+01  0.20179645943E+02  0.51100000000E-03 0.  1.
         12    1    3    3    0    0 -0.14336484555E+01  0.20096585391E+02  0.21565484471E+02  0.29512678847E+02  0.00000000000E+00 0. -1.
</event>
<event>
 7    1  0.2944263E-013  0.7246159E+02  0.7816164E-02  0.1226708E+00
        -11   -1    0    0    0    0  0.00000000000E+00  0.00000000000E+00  0.45593999997E+02  0.45594000000E+02  0.51100000000E-03 0. -1.
         11   -1    0    0    0    0 -0.00000000000E+00 -0.00000000000E+00 -0.45593999997E+02  0.45594000000E+02  0.51100000000E-03 0.  1.
    9900012    2    1    2    0    0 -0.88603105764E+01  0.94115784520E+01 -0.13549741707E+02  0.72461590499E+02  0.70000026320E+02 0.  0.
         12    1    1    2    0    0  0.88603105764E+01 -0.94115784520E+01  0.13549741707E+02  0.18726409501E+02  0.00000000000E+00 0. -1.
         11    1    3    3    0    0  0.11157406416E+02 -0.31572170313E+01 -0.40253000877E+01  0.12274313764E+02  0.51100000000E-03 0. -1.
        -11    1    3    3    0    0  0.63486370287E+01  0.39945268126E+01 -0.26591966489E+02  0.27629587738E+02  0.51100000000E-03 0.  1.
        -12    1    3    3    0    0 -0.26366354021E+02  0.85742686707E+01  0.17067524870E+02  0.32557688997E+02  0.00000000000E+00 0.  1.
</event>
<event>
 7    1  0.2944263E-013  0.7246169E+02  0.7816164E-02  0.1226708E+00
        -11   -1    0    0    0    0  0.00000000000E+00  0.00000000000E+00  0.45593999997E+02  0.45594000000E+02  0.51100000000E-03 0.  1.
         11   -1    0    0    0    0 -0.00000000000E+00 -0.00000000000E+00 -0.45593999997E+02  0.45594000000E+02  0.51100000000E-03 0. -1.
    9900012    2    1    2    0    0 -0.15752563217E+02  0.80808118356E+01  0.61017926722E+01  0.72461691190E+02  0.70000157489E+02 0.  0.
         12    1    1    2    0    0  0.15752563217E+02 -0.80808118356E+01 -0.61017926722E+01  0.18726308810E+02  0.00000000000E+00 0. -1.
         11    1    3    3    0    0  0.27079848139E+01  0.16637405852E+02 -0.58578877077E+01  0.17845203946E+02  0.51100000000E-03 0. -1.
        -11    1    3    3    0    0  0.15268955710E+02 -0.88315481043E+01  0.11166587899E+02  0.20876540325E+02  0.51100000000E-03 0.  1.
        -12    1    3    3    0    0 -0.33729503741E+02  0.27495408793E+00  0.79309248123E+00  0.33739946918E+02  0.00000000000E+00 0.  1.
</event>
<event>
 7    1  0.2944263E-013  0.7246159E+02  0.7816164E-02  0.1226708E+00
        -11   -1    0    0    0    0  0.00000000000E+00  0.00000000000E+00  0.45593999997E+02  0.45594000000E+02  0.51100000000E-03 0. -1.
         11   -1    0    0    0    0 -0.00000000000E+00 -0.00000000000E+00 -0.45593999997E+02  0.45594000000E+02  0.51100000000E-03 0.  1.
    9900012    2    1    2    0    0 -0.63615648443E+01  0.25600286224E+01 -0.17425702344E+02  0.72461592016E+02  0.70000028296E+02 0.  0.
         12    1    1    2    0    0  0.63615648443E+01 -0.25600286224E+01  0.17425702344E+02  0.18726407984E+02  0.00000000000E+00 0. -1.
         11    1    3    3    0    0 -0.11063795436E+02 -0.27190681436E+02  0.13708985080E+01  0.29387413792E+02  0.51100000000E-03 0. -1.
        -11    1    3    3    0    0 -0.25766951621E+01 -0.35554849532E+01 -0.38867990855E+01  0.58641315302E+01  0.51100000000E-03 0.  1.
        -12    1    3    3    0    0  0.72789257538E+01  0.33306195011E+02 -0.14909801766E+02  0.37210046694E+02  0.00000000000E+00 0.  1.
</event>
<event>
 7    1  0.2944263E-013  0.7246159E+02  0.7816164E-02  0.1226708E+00
        -11   -1    0    0    0    0  0.00000000000E+00  0.00000000000E+00  0.45593999997E+02  0.45594000000E+02  0.51100000000E-03 0.  1.
         11   -1    0    0    0    0 -0.00000000000E+00 -0.00000000000E+00 -0.45593999997E+02  0.45594000000E+02  0.51100000000E-03 0. -1.
    9900012    2    1    2    0    0  0.10913804357E+02  0.13698601007E+02  0.66268864877E+01  0.72461590317E+02  0.70000026083E+02 0.  0.
         12    1    1    2    0    0 -0.10913804357E+02 -0.13698601007E+02 -0.66268864877E+01  0.18726409683E+02  0.00000000000E+00 0. -1.
         11    1    3    3    0    0  0.16886932040E+02  0.15742865812E+01 -0.52173560915E+01  0.17744510611E+02  0.51100000000E-03 0. -1.
        -11    1    3    3    0    0  0.20201324644E+02  0.15209063057E+02 -0.11900370249E+01  0.25314527545E+02  0.51100000000E-03 0.  1.
        -12    1    3    3    0    0 -0.26174452328E+02 -0.30847486306E+01  0.13034279604E+02  0.29402552161E+02  0.00000000000E+00 0.  1.
</event>
<event>
 7    1  0.2944263E-013  0.7246153E+02  0.7816164E-02  0.1226708E+00
        -11   -1    0    0    0    0  0.00000000000E+00  0.00000000000E+00  0.45593999997E+02  0.45594000000E+02  0.51100000000E-03 0. -1.
         11   -1    0    0    0    0 -0.00000000000E+00 -0.00000000000E+00 -0.45593999997E+02  0.45594000000E+02  0.51100000000E-03 0.  1.
    9900012    2    1    2    0    0  0.92030662810E+01 -0.11351315978E+01 -0.16269471643E+02  0.72461530491E+02  0.69999948149E+02 0.  0.
         12    1    1    2    0    0 -0.92030662810E+01  0.11351315978E+01  0.16269471643E+02  0.18726469509E+02  0.00000000000E+00 0. -1.
         11    1    3    3    0    0 -0.66846483591E+01 -0.10537236465E+02 -0.21325091794E+02  0.24707841190E+02  0.51100000000E-03 0. -1.
        -11    1    3    3    0    0 -0.79186029355E-01 -0.14317128769E+02 -0.79116853376E+01  0.16357909761E+02  0.51100000000E-03 0.  1.
         12    1    3    3    0    0  0.15966900669E+02  0.23719233636E+02  0.12967305488E+02  0.31395779540E+02  0.00000000000E+00 0. -1.
</event>
<event>
 7    1  0.2944263E-013  0.7246158E+02  0.7816164E-02  0.1226708E+00
        -11   -1    0    0    0    0  0.00000000000E+00  0.00000000000E+00  0.45593999997E+02  0.45594000000E+02  0.51100000000E-03 0.  1.
         11   -1    0    0    0    0 -0.00000000000E+00 -0.00000000000E+00 -0.45593999997E+02  0.45594000000E+02  0.51100000000E-03 0. -1.
    9900012    2    1    2    0    0 -0.17358127900E+02  0.41266457322E+00  0.70145503027E+01  0.72461579835E+02  0.70000012429E+02 0.  0.
         12    1    1    2    0    0  0.17358127900E+02 -0.41266457322E+00 -0.70145503027E+01  0.18726420165E+02  0.00000000000E+00 0. -1.
         11    1    3    3    0    0 -0.75108754655E+01 -0.14955363448E+02  0.11699181931E+02  0.20419280208E+02  0.51100000000E-03 0. -1.
        -11    1    3    3    0    0 -0.14871432195E+02 -0.69057386923E+01  0.14752357640E+02  0.22056309270E+02  0.51100000000E-03 0.  1.
         12    1    3    3    0    0  0.50241797607E+01  0.22273766714E+02 -0.19436989268E+02  0.29985990357E+02  0.00000000000E+00 0. -1.
</event>
<event>
 7    1  0.2944263E-013  0.7246158E+02  0.7816164E-02  0.1226708E+00
        -11   -1    0    0    0    0  0.00000000000E+00  0.00000000000E+00  0.45593999997E+02  0.45594000000E+02  0.51100000000E-03 0.  1.
         11   -1    0    0    0    0 -0.00000000000E+00 -0.00000000000E+00 -0.45593999997E+02  0.45594000000E+02  0.51100000000E-03 0. -1.
    9900012    2    1    2    0    0  0.18578046683E+02  0.15875263988E+01 -0.17362668493E+01  0.72461583333E+02  0.70000016985E+02 0.  0.
         12    1    1    2    0    0 -0.18578046683E+02 -0.15875263988E+01  0.17362668493E+01  0.18726416667E+02  0.00000000000E+00 0. -1.
         11    1    3    3    0    0  0.15645550737E+02 -0.51906390052E+01  0.16453652467E+01  0.16566026023E+02  0.51100000000E-03 0. -1.
        -11    1    3    3    0    0 -0.15899294087E+02 -0.18421758240E+02 -0.14856118854E+01  0.24379412873E+02  0.51100000000E-03 0.  1.
         12    1    3    3    0    0  0.18831790033E+02  0.25199923644E+02 -0.18960202106E+01  0.31516144436E+02  0.00000000000E+00 0. -1.
</event>
<event>
 7    1  0.2944263E-013  0.7246161E+02  0.7816164E-02  0.1226708E+00
        -11   -1    0    0    0    0  0.00000000000E+00  0.00000000000E+00  0.45593999997E+02  0.45594000000E+02  0.51100000000E-03 0.  1.
         11   -1    0    0    0    0 -0.00000000000E+00 -0.00000000000E+00 -0.45593999997E+02  0.45594000000E+02  0.51100000000E-03 0. -1.
    9900012    2    1    2    0    0 -0.15647877646E+02 -0.39897968508E+01  0.94817343038E+01  0.72461605816E+02  0.70000046273E+02 0.  0.
         12    1    1    2    0    0  0.15647877646E+02  0.39897968508E+01 -0.94817343038E+01  0.18726394184E+02  0.00000000000E+00 0. -1.
         11    1    3    3    0    0 -0.97164039051E+01  0.96842483450E+01  0.19725172471E+01  0.13859437052E+02  0.51100000000E-03 0. -1.
        -11    1    3    3    0    0 -0.29330189219E+02  0.27473319692E+01  0.23284341199E+01  0.29550455805E+02  0.51100000000E-03 0.  1.
         12    1    3    3    0    0  0.23398715478E+02 -0.16421377165E+02  0.51807829368E+01  0.29051712959E+02  0.00000000000E+00 0. -1.
</event>
<event>
 7    1  0.2944263E-013  0.7246131E+02  0.7816164E-02  0.1226709E+00
        -11   -1    0    0    0    0  0.00000000000E+00  0.00000000000E+00  0.45593999997E+02  0.45594000000E+02  0.51100000000E-03 0.  1.
         11   -1    0    0    0    0 -0.00000000000E+00 -0.00000000000E+00 -0.45593999997E+02  0.45594000000E+02  0.51100000000E-03 0. -1.
    9900012    2    1    2    0    0 -0.18897814832E+01 -0.18458284996E+02  0.25316701378E+01  0.72461310150E+02  0.69999661113E+02 0.  0.
         12    1    1    2    0    0  0.18897814832E+01  0.18458284996E+02 -0.25316701378E+01  0.18726689850E+02  0.00000000000E+00 0. -1.
         11    1    3    3    0    0 -0.24695709474E+00  0.11830288414E+02  0.57427218363E+01  0.13152777886E+02  0.51100000000E-03 0. -1.
        -11    1    3    3    0    0  0.18144235469E+02  0.20946801828E+01 -0.98973860035E+01  0.20774003365E+02  0.51100000000E-03 0.  1.
         12    1    3    3    0    0 -0.19787059858E+02 -0.32383253593E+02  0.66863343050E+01  0.38534528900E+02  0.00000000000E+00 0. -1.
</event>
<event>
 7    1  0.2944263E-013  0.7246155E+02  0.7816164E-02  0.1226708E+00
        -11   -1    0    0    0    0  0.00000000000E+00  0.00000000000E+00  0.45593999997E+02  0.45594000000E+02  0.51100000000E-03 0. -1.
         11   -1    0    0    0    0 -0.00000000000E+00 -0.00000000000E+00 -0.45593999997E+02  0.45594000000E+02  0.51100000000E-03 0.  1.
    9900012    2    1    2    0    0 -0.31480884329E+01  0.12619029917E+02  0.13473284409E+02  0.72461554272E+02  0.69999979128E+02 0.  0.
         12    1    1    2    0    0  0.31480884329E+01 -0.12619029917E+02 -0.13473284409E+02  0.18726445728E+02  0.00000000000E+00 0. -1.
         11    1    3    3    0    0 -0.15144293278E+02  0.19504846110E+02 -0.17647761502E+02  0.30351805991E+02  0.51100000000E-03 0. -1.
        -11    1    3    3    0    0  0.50811364981E+01  0.19920473722E+00 -0.34526971677E+01  0.61464419490E+01  0.51100000000E-03 0.  1.
         12    1    3    3    0    0  0.69150683468E+01 -0.70850209300E+01  0.34573743079E+02  0.35963306332E+02  0.00000000000E+00 0. -1.
</event>
<event>
 7    1  0.2944263E-013  0.7246159E+02  0.7816164E-02  0.1226708E+00
        -11   -1    0    0    0    0  0.00000000000E+00  0.00000000000E+00  0.45593999997E+02  0.45594000000E+02  0.51100000000E-03 0. -1.
         11   -1    0    0    0    0 -0.00000000000E+00 -0.00000000000E+00 -0.45593999997E+02  0.45594000000E+02  0.51100000000E-03 0.  1.
    9900012    2    1    2    0    0  0.15457767642E+01  0.20823070976E+01 -0.18545967901E+02  0.72461592068E+02  0.70000028364E+02 0.  0.
         12    1    1    2    0    0 -0.15457767642E+01 -0.20823070976E+01  0.18545967901E+02  0.18726407932E+02  0.00000000000E+00 0. -1.
         11    1    3    3    0    0 -0.97196806020E+01  0.55800588051E+01 -0.23304176501E+00  0.11209975736E+02  0.51100000000E-03 0. -1.
        -11    1    3    3    0    0 -0.15667309530E+02 -0.10980550756E+01 -0.28349675440E+02  0.32409480259E+02  0.51100000000E-03 0.  1.
         12    1    3    3    0    0  0.26932766897E+02 -0.23996966319E+01  0.10036749304E+02  0.28842136072E+02  0.00000000000E+00 0. -1.
</event>
<event>
 7    1  0.2944263E-013  0.7246152E+02  0.7816164E-02  0.1226708E+00
        -11   -1    0    0    0    0  0.00000000000E+00  0.00000000000E+00  0.45593999997E+02  0.45594000000E+02  0.51100000000E-03 0.  1.
         11   -1    0    0    0    0 -0.00000000000E+00 -0.00000000000E+00 -0.45593999997E+02  0.45594000000E+02  0.51100000000E-03 0. -1.
    9900012    2    1    2    0    0 -0.32617691229E+01  0.50806291053E+01  0.17726504900E+02  0.72461523933E+02  0.69999939606E+02 0.  0.
         12    1    1    2    0    0  0.32617691229E+01 -0.50806291053E+01 -0.17726504900E+02  0.18726476067E+02  0.00000000000E+00 0. -1.
         11    1    3    3    0    0  0.20749305516E+01 -0.61671990210E+01  0.14525887162E+02  0.15916691825E+02  0.51100000000E-03 0.  1.
        -11    1    3    3    0    0 -0.28231570999E+00 -0.21120077561E+02  0.95407819060E+01  0.23176796543E+02  0.51100000000E-03 0. -1.
         12    1    3    3    0    0 -0.50543839645E+01  0.32367905687E+02 -0.63401641677E+01  0.33368035566E+02  0.00000000000E+00 0. -1.
</event>
<event>
 7    1  0.2944263E-013  0.7246156E+02  0.7816164E-02  0.1226708E+00
        -11   -1    0    0    0    0  0.00000000000E+00  0.00000000000E+00  0.45593999997E+02  0.45594000000E+02  0.51100000000E-03 0. -1.
         11   -1    0    0    0    0 -0.00000000000E+00 -0.00000000000E+00 -0.45593999997E+02  0.45594000000E+02  0.51100000000E-03 0.  1.
    9900012    2    1    2    0    0  0.13394193230E+02  0.25699657374E+00 -0.13084691180E+02  0.72461558726E+02  0.69999984930E+02 0.  0.
         12    1    1    2    0    0 -0.13394193230E+02 -0.25699657374E+00  0.13084691180E+02  0.18726441274E+02  0.00000000000E+00 0. -1.
         11    1    3    3    0    0  0.37566050583E+02 -0.53747688914E+01  0.32852626612E+01  0.38090540138E+02  0.51100000000E-03 0. -1.
        -11    1    3    3    0    0 -0.17676243375E+01 -0.50438959214E+01 -0.20940123417E+01  0.57402325573E+01  0.51100000000E-03 0.  1.
        -12    1    3    3    0    0 -0.22404233015E+02  0.10675661386E+02 -0.14275941499E+02  0.28630786031E+02  0.00000000000E+00 0.  1.
</event>
<event>
 7    1  0.2944263E-013  0.7246154E+02  0.7816164E-02  0.1226708E+00
        -11   -1    0    0    0    0  0.00000000000E+00  0.00000000000E+00  0.45593999997E+02  0.45594000000E+02  0.51100000000E-03 0. -1.
         11   -1    0    0    0    0 -0.00000000000E+00 -0.00000000000E+00 -0.45593999997E+02  0.45594000000E+02  0.51100000000E-03 0.  1.
    9900012    2    1    2    0    0  0.45735545003E+01  0.16401063072E+02 -0.77953741003E+01  0.72461544702E+02  0.69999966661E+02 0.  0.
         12    1    1    2    0    0 -0.45735545003E+01 -0.16401063072E+02  0.77953741003E+01  0.18726455298E+02  0.00000000000E+00 0. -1.
         11    1    3    3    0    0  0.60896166465E+01  0.12118138158E+02 -0.18970115330E+02  0.23319476392E+02  0.51100000000E-03 0. -1.
        -11    1    3    3    0    0 -0.11597253759E+02 -0.14701848540E+02 -0.79758303945E+01  0.20353243378E+02  0.51100000000E-03 0.  1.
         12    1    3    3    0    0  0.10081191613E+02  0.18984773454E+02  0.19150571624E+02  0.28788824932E+02  0.00000000000E+00 0. -1.
</event>
<event>
 7    1  0.2944263E-013  0.7246156E+02  0.7816164E-02  0.1226708E+00
        -11   -1    0    0    0    0  0.00000000000E+00  0.00000000000E+00  0.45593999997E+02  0.45594000000E+02  0.51100000000E-03 0.  1.
         11   -1    0    0    0    0 -0.00000000000E+00 -0.00000000000E+00 -0.45593999997E+02  0.45594000000E+02  0.51100000000E-03 0. -1.
    9900012    2    1    2    0    0  0.17745998702E+02  0.32154106977E+01  0.50418290072E+01  0.72461564791E+02  0.69999992831E+02 0.  0.
         12    1    1    2    0    0 -0.17745998702E+02 -0.32154106977E+01 -0.50418290072E+01  0.18726435209E+02  0.00000000000E+00 0. -1.
         11    1    3    3    0    0  0.11073240140E+02  0.22859627664E+02 -0.57863301077E+01  0.26051119755E+02  0.51100000000E-03 0. -1.
        -11    1    3    3    0    0  0.15906745433E+02  0.58742399809E+01 -0.59335408380E+00  0.16967124534E+02  0.51100000000E-03 0.  1.
        -12    1    3    3    0    0 -0.92339868699E+01 -0.25518456947E+02  0.11421513199E+02  0.29443320503E+02  0.00000000000E+00 0.  1.
</event>
<event>
 7    1  0.2944263E-013  0.7246159E+02  0.7816164E-02  0.1226708E+00
        -11   -1    0    0    0    0  0.00000000000E+00  0.00000000000E+00  0.45593999997E+02  0.45594000000E+02  0.51100000000E-03 0. -1.
         11   -1    0    0    0    0 -0.00000000000E+00 -0.00000000000E+00 -0.45593999997E+02  0.45594000000E+02  0.51100000000E-03 0.  1.
    9900012    2    1    2    0    0 -0.10923337579E+02 -0.60840450326E+01 -0.13940711028E+02  0.72461592662E+02  0.70000029138E+02 0.  0.
         12    1    1    2    0    0  0.10923337579E+02  0.60840450326E+01  0.13940711028E+02  0.18726407338E+02  0.00000000000E+00 0. -1.
         11    1    3    3    0    0  0.18894952352E+02 -0.10532684647E+02  0.11564168789E+02  0.24529302280E+02  0.51100000000E-03 0. -1.
        -11    1    3    3    0    0 -0.66379426327E+01  0.86184126128E+01  0.26785155355E+01  0.11203292556E+02  0.51100000000E-03 0.  1.
        -12    1    3    3    0    0 -0.23180347298E+02 -0.41697729979E+01 -0.28183395353E+02  0.36728997826E+02  0.00000000000E+00 0.  1.
</event>
<event>
 7    1  0.2944263E-013  0.7246155E+02  0.7816164E-02  0.1226708E+00
        -11   -1    0    0    0    0  0.00000000000E+00  0.00000000000E+00  0.45593999997E+02  0.45594000000E+02  0.51100000000E-03 0. -1.
         11   -1    0    0    0    0 -0.00000000000E+00 -0.00000000000E+00 -0.45593999997E+02  0.45594000000E+02  0.51100000000E-03 0.  1.
    9900012    2    1    2    0    0  0.18756693405E+01 -0.15194709891E+02 -0.10783439654E+02  0.72461550392E+02  0.69999974074E+02 0.  0.
         12    1    1    2    0    0 -0.18756693405E+01  0.15194709891E+02  0.10783439654E+02  0.18726449608E+02  0.00000000000E+00 0. -1.
         11    1    3    3    0    0 -0.84289187684E+00 -0.11921665888E+02 -0.30844007858E+01  0.12343018785E+02  0.51100000000E-03 0. -1.
        -11    1    3    3    0    0  0.12078203882E+02 -0.27755466457E+02  0.55111121510E+01  0.30767211194E+02  0.51100000000E-03 0.  1.
         12    1    3    3    0    0 -0.93596426645E+01  0.24482422454E+02 -0.13210151019E+02  0.29351320413E+02  0.00000000000E+00 0. -1.
</event>
<event>
 7    1  0.2944263E-013  0.7246157E+02  0.7816164E-02  0.1226708E+00
        -11   -1    0    0    0    0  0.00000000000E+00  0.00000000000E+00  0.45593999997E+02  0.45594000000E+02  0.51100000000E-03 0. -1.
         11   -1    0    0    0    0 -0.00000000000E+00 -0.00000000000E+00 -0.45593999997E+02  0.45594000000E+02  0.51100000000E-03 0.  1.
    9900012    2    1    2    0    0 -0.14324859940E+02  0.48414718837E+01 -0.11047072290E+02  0.72461567652E+02  0.69999996558E+02 0.  0.
         12    1    1    2    0    0  0.14324859940E+02 -0.48414718837E+01  0.11047072290E+02  0.18726432348E+02  0.00000000000E+00 0. -1.
         11    1    3    3    0    0 -0.70167847494E+01  0.12744208743E+02 -0.95969287403E+01  0.17428458515E+02  0.51100000000E-03 0. -1.
        -11    1    3    3    0    0 -0.22375761812E+02 -0.20445478703E+02 -0.12201425607E+02  0.32673645392E+02  0.51100000000E-03 0.  1.
         12    1    3    3    0    0  0.15067686622E+02  0.12542741845E+02  0.10751282057E+02  0.22359463746E+02  0.00000000000E+00 0. -1.
</event>
<event>
 7    1  0.2944263E-013  0.7246158E+02  0.7816164E-02  0.1226708E+00
        -11   -1    0    0    0    0  0.00000000000E+00  0.00000000000E+00  0.45593999997E+02  0.45594000000E+02  0.51100000000E-03 0.  1.
         11   -1    0    0    0    0 -0.00000000000E+00 -0.00000000000E+00 -0.45593999997E+02  0.45594000000E+02  0.51100000000E-03 0. -1.
    9900012    2    1    2    0    0 -0.18165436779E+02 -0.10089668034E+01  0.44359613561E+01  0.72461578545E+02  0.70000010748E+02 0.  0.
         12    1    1    2    0    0  0.18165436779E+02  0.10089668034E+01 -0.44359613561E+01  0.18726421455E+02  0.00000000000E+00 0. -1.
         11    1    3    3    0    0  0.18435722189E+02  0.24260337134E+01 -0.19889725022E+02  0.27227975575E+02  0.51100000000E-03 0. -1.
        -11    1    3    3    0    0 -0.69192522501E+01  0.24557800587E+01  0.79667248825E+01  0.10834002631E+02  0.51100000000E-03 0.  1.
        -12    1    3    3    0    0 -0.29681906718E+02 -0.58907805755E+01  0.16358961496E+02  0.34399600338E+02  0.00000000000E+00 0.  1.
</event>
<event>
 7    1  0.2944263E-013  0.7246154E+02  0.7816164E-02  0.1226708E+00
        -11   -1    0    0    0    0  0.00000000000E+00  0.00000000000E+00  0.45593999997E+02  0.45594000000E+02  0.51100000000E-03 0.  1.
         11   -1    0    0    0    0 -0.00000000000E+00 -0.00000000000E+00 -0.45593999997E+02  0.45594000000E+02  0.51100000000E-03 0. -1.
    9900012    2    1    2    0    0 -0.17379921830E+02 -0.65979947754E+01 -0.22550080381E+01  0.72461540668E+02  0.69999961406E+02 0.  0.
         12    1    1    2    0    0  0.17379921830E+02  0.65979947754E+01  0.22550080381E+01  0.18726459332E+02  0.00000000000E+00 0. -1.
         11    1    3    3    0    0 -0.21195396487E+01 -0.24365350362E+02 -0.13448325313E+02  0.27910933352E+02  0.51100000000E-03 0.  1.
        -11    1    3    3    0    0 -0.12701677491E+02  0.10435427804E+02 -0.11830022302E+02  0.20252905779E+02  0.51100000000E-03 0. -1.
        -12    1    3    3    0    0 -0.25587046897E+01  0.73319277826E+01  0.23023339577E+02  0.24297701537E+02  0.00000000000E+00 0.  1.
</event>
<event>
 7    1  0.2944263E-013  0.7246154E+02  0.7816164E-02  0.1226708E+00
        -11   -1    0    0    0    0  0.00000000000E+00  0.00000000000E+00  0.45593999997E+02  0.45594000000E+02  0.51100000000E-03 0. -1.
         11   -1    0    0    0    0 -0.00000000000E+00 -0.00000000000E+00 -0.45593999997E+02  0.45594000000E+02  0.51100000000E-03 0.  1.
    9900012    2    1    2    0    0  0.41976941486E+01 -0.68200437851E+00 -0.18237179075E+02  0.72461535658E+02  0.69999954879E+02 0.  0.
         12    1    1    2    0    0 -0.41976941486E+01  0.68200437851E+00  0.18237179075E+02  0.18726464342E+02  0.00000000000E+00 0. -1.
         11    1    3    3    0    0 -0.22961884149E+01  0.16303749465E+02 -0.18419766623E+02  0.24705718580E+02  0.51100000000E-03 0. -1.
        -11    1    3    3    0    0 -0.99961724184E+01  0.66333099699E+01 -0.11549120159E+02  0.16652520557E+02  0.51100000000E-03 0.  1.
         12    1    3    3    0    0  0.16490054982E+02 -0.23619063814E+02  0.11731707707E+02  0.31103296521E+02  0.00000000000E+00 0. -1.
</event>
<event>
 7    1  0.2944263E-013  0.7246158E+02  0.7816164E-02  0.1226708E+00
        -11   -1    0    0    0    0  0.00000000000E+00  0.00000000000E+00  0.45593999997E+02  0.45594000000E+02  0.51100000000E-03 0.  1.
         11   -1    0    0    0    0 -0.00000000000E+00 -0.00000000000E+00 -0.45593999997E+02  0.45594000000E+02  0.51100000000E-03 0. -1.
    9900012    2    1    2    0    0  0.57180542345E+01  0.16651590075E+02  0.63802299973E+01  0.72461576661E+02  0.70000008294E+02 0.  0.
         12    1    1    2    0    0 -0.57180542345E+01 -0.16651590075E+02 -0.63802299973E+01  0.18726423339E+02  0.00000000000E+00 0. -1.
         11    1    3    3    0    0  0.17276609328E+02  0.52639424545E+01 -0.88966030007E+01  0.20133054047E+02  0.51100000000E-03 0. -1.
        -11    1    3    3    0    0  0.18018023886E+02  0.94042226046E+01  0.76833197543E+01  0.21728368329E+02  0.51100000000E-03 0.  1.
        -12    1    3    3    0    0 -0.29576578979E+02  0.19834250154E+01  0.75935132437E+01  0.30600154285E+02  0.00000000000E+00 0.  1.
</event>
<event>
 7    1  0.2944263E-013  0.7246158E+02  0.7816164E-02  0.1226708E+00
        -11   -1    0    0    0    0  0.00000000000E+00  0.00000000000E+00  0.45593999997E+02  0.45594000000E+02  0.51100000000E-03 0.  1.
         11   -1    0    0    0    0 -0.00000000000E+00 -0.00000000000E+00 -0.45593999997E+02  0.45594000000E+02  0.51100000000E-03 0. -1.
    9900012    2    1    2    0    0  0.14790325148E+01  0.18363749217E+02  0.33561747721E+01  0.72461581987E+02  0.70000015232E+02 0.  0.
         12    1    1    2    0    0 -0.14790325148E+01 -0.18363749217E+02 -0.33561747721E+01  0.18726418013E+02  0.00000000000E+00 0. -1.
         11    1    3    3    0    0 -0.23863928729E+02  0.72399787638E+01  0.12444897858E+02  0.27870770887E+02  0.51100000000E-03 0. -1.
        -11    1    3    3    0    0 -0.14268637431E+00 -0.64429371283E+01  0.71589376472E+01  0.96323510493E+01  0.51100000000E-03 0.  1.
         12    1    3    3    0    0  0.25485647619E+02  0.17566707582E+02 -0.16247660733E+02  0.34958460050E+02  0.00000000000E+00 0. -1.
</event>
<event>
 7    1  0.2944263E-013  0.7246165E+02  0.7816164E-02  0.1226708E+00
        -11   -1    0    0    0    0  0.00000000000E+00  0.00000000000E+00  0.45593999997E+02  0.45594000000E+02  0.51100000000E-03 0. -1.
         11   -1    0    0    0    0 -0.00000000000E+00 -0.00000000000E+00 -0.45593999997E+02  0.45594000000E+02  0.51100000000E-03 0.  1.
    9900012    2    1    2    0    0  0.34079394733E+01  0.90020032530E+01 -0.16063187178E+02  0.72461652349E+02  0.70000106892E+02 0.  0.
         12    1    1    2    0    0 -0.34079394733E+01 -0.90020032530E+01  0.16063187178E+02  0.18726347651E+02  0.00000000000E+00 0. -1.
         11    1    3    3    0    0 -0.68025957146E+01  0.31245334308E+02 -0.89169257401E-01  0.31977401019E+02  0.51100000000E-03 0. -1.
        -11    1    3    3    0    0 -0.60070132326E+01 -0.98127371052E+01  0.37331210177E+01  0.12095875754E+02  0.51100000000E-03 0.  1.
        -12    1    3    3    0    0  0.16217548420E+02 -0.12430593950E+02 -0.19707138938E+02  0.28388375576E+02  0.00000000000E+00 0.  1.
</event>
<event>
 7    1  0.2944263E-013  0.7246158E+02  0.7816164E-02  0.1226708E+00
        -11   -1    0    0    0    0  0.00000000000E+00  0.00000000000E+00  0.45593999997E+02  0.45594000000E+02  0.51100000000E-03 0. -1.
         11   -1    0    0    0    0 -0.00000000000E+00 -0.00000000000E+00 -0.45593999997E+02  0.45594000000E+02  0.51100000000E-03 0.  1.
    9900012    2    1    2    0    0  0.64556312621E+01 -0.37081957088E+00 -0.17574583762E+02  0.72461583457E+02  0.70000017147E+02 0.  0.
         12    1    1    2    0    0 -0.64556312621E+01  0.37081957088E+00  0.17574583762E+02  0.18726416543E+02  0.00000000000E+00 0. -1.
         11    1    3    3    0    0 -0.59737902454E+00 -0.57813320174E+01  0.12162503922E+01  0.59380069781E+01  0.51100000000E-03 0. -1.
        -11    1    3    3    0    0  0.14637919831E+02 -0.20428304854E+02 -0.28407876155E+02  0.37928772246E+02  0.51100000000E-03 0.  1.
         12    1    3    3    0    0 -0.75849095439E+01  0.25838817301E+02  0.96170420009E+01  0.28594804233E+02  0.00000000000E+00 0. -1.
</event>
<event>
 7    1  0.2944263E-013  0.7246156E+02  0.7816164E-02  0.1226708E+00
        -11   -1    0    0    0    0  0.00000000000E+00  0.00000000000E+00  0.45593999997E+02  0.45594000000E+02  0.51100000000E-03 0.  1.
         11   -1    0    0    0    0 -0.00000000000E+00 -0.00000000000E+00 -0.45593999997E+02  0.45594000000E+02  0.51100000000E-03 0. -1.
    9900012    2    1    2    0    0 -0.51284822947E+01 -0.12654507567E+02  0.12815674137E+02  0.72461564248E+02  0.69999992124E+02 0.  0.
         12    1    1    2    0    0  0.51284822947E+01  0.12654507567E+02 -0.12815674137E+02  0.18726435752E+02  0.00000000000E+00 0. -1.
         11    1    3    3    0    0  0.13928424297E+02  0.40113235356E+01  0.63482194801E+01  0.15823767274E+02  0.51100000000E-03 0. -1.
        -11    1    3    3    0    0  0.31451069803E+01  0.94797594959E+01  0.17886755912E+02  0.20486424172E+02  0.51100000000E-03 0.  1.
         12    1    3    3    0    0 -0.22202013572E+02 -0.26145590598E+02 -0.11419301256E+02  0.36151372803E+02  0.00000000000E+00 0. -1.
</event>
<event>
 7    1  0.2944263E-013  0.7246160E+02  0.7816164E-02  0.1226708E+00
        -11   -1    0    0    0    0  0.00000000000E+00  0.00000000000E+00  0.45593999997E+02  0.45594000000E+02  0.51100000000E-03 0.  1.
         11   -1    0    0    0    0 -0.00000000000E+00 -0.00000000000E+00 -0.45593999997E+02  0.45594000000E+02  0.51100000000E-03 0. -1.
    9900012    2    1    2    0    0  0.14682343964E+02  0.72439027932E+01 -0.90902582446E+01  0.72461597599E+02  0.70000035569E+02 0.  0.
         12    1    1    2    0    0 -0.14682343964E+02 -0.72439027932E+01  0.90902582446E+01  0.18726402401E+02  0.00000000000E+00 0. -1.
         11    1    3    3    0    0  0.13943274164E+02 -0.85733268846E+01 -0.27301807367E+02  0.31832460069E+02  0.51100000000E-03 0. -1.
        -11    1    3    3    0    0 -0.14780943274E+02  0.12903413357E+01  0.97222680308E+01  0.17738764352E+02  0.51100000000E-03 0.  1.
        -12    1    3    3    0    0  0.15520013074E+02  0.14526888342E+02  0.84892810920E+01  0.22890373177E+02  0.00000000000E+00 0.  1.
</event>
<event>
 7    1  0.2944263E-013  0.7246159E+02  0.7816164E-02  0.1226708E+00
        -11   -1    0    0    0    0  0.00000000000E+00  0.00000000000E+00  0.45593999997E+02  0.45594000000E+02  0.51100000000E-03 0.  1.
         11   -1    0    0    0    0 -0.00000000000E+00 -0.00000000000E+00 -0.45593999997E+02  0.45594000000E+02  0.51100000000E-03 0. -1.
    9900012    2    1    2    0    0 -0.10298490812E+02 -0.12500292600E+02 -0.94001074625E+01  0.72461594888E+02  0.70000032038E+02 0.  0.
         12    1    1    2    0    0  0.10298490812E+02  0.12500292600E+02  0.94001074625E+01  0.18726405112E+02  0.00000000000E+00 0. -1.
         11    1    3    3    0    0 -0.10182892321E+02 -0.49176986495E+01  0.75279943093E+00  0.11333215045E+02  0.51100000000E-03 0. -1.
        -11    1    3    3    0    0  0.17123207983E+02 -0.36053133464E+01  0.19748174778E+02  0.26385468411E+02  0.51100000000E-03 0.  1.
         12    1    3    3    0    0 -0.17238806474E+02 -0.39772806046E+01 -0.29901081671E+02  0.34742911432E+02  0.00000000000E+00 0. -1.
</event>
<event>
 7    1  0.2944263E-013  0.7246163E+02  0.7816164E-02  0.1226708E+00
        -11   -1    0    0    0    0  0.00000000000E+00  0.00000000000E+00  0.45593999997E+02  0.45594000000E+02  0.51100000000E-03 0. -1.
         11   -1    0    0    0    0 -0.00000000000E+00 -0.00000000000E+00 -0.45593999997E+02  0.45594000000E+02  0.51100000000E-03 0.  1.
    9900012    2    1    2    0    0 -0.49758794524E+00 -0.16324447727E+02 -0.91619806207E+01  0.72461626186E+02  0.70000072809E+02 0.  0.
         12    1    1    2    0    0  0.49758794524E+00  0.16324447727E+02  0.91619806207E+01  0.18726373814E+02  0.00000000000E+00 0. -1.
         11    1    3    3    0    0 -0.31779011294E+01 -0.29903729413E+02 -0.15940789742E+02  0.34035876164E+02  0.51100000000E-03 0. -1.
        -11    1    3    3    0    0  0.11063905926E+01 -0.12069790363E+02  0.18705511386E+01  0.12263886063E+02  0.51100000000E-03 0.  1.
        -12    1    3    3    0    0  0.15739225915E+01  0.25649072050E+02  0.49082579827E+01  0.26161863958E+02  0.00000000000E+00 0.  1.
</event>
<event>
 7    1  0.2944263E-013  0.7246143E+02  0.7816164E-02  0.1226708E+00
        -11   -1    0    0    0    0  0.00000000000E+00  0.00000000000E+00  0.45593999997E+02  0.45594000000E+02  0.51100000000E-03 0.  1.
         11   -1    0    0    0    0 -0.00000000000E+00 -0.00000000000E+00 -0.45593999997E+02  0.45594000000E+02  0.51100000000E-03 0. -1.
    9900012    2    1    2    0    0 -0.76739571248E+01  0.10169455058E+02 -0.13725050380E+02  0.72461429517E+02  0.69999816611E+02 0.  0.
         12    1    1    2    0    0  0.76739571248E+01 -0.10169455058E+02  0.13725050380E+02  0.18726570483E+02  0.00000000000E+00 0. -1.
         11    1    3    3    0    0  0.60251244786E+01 -0.80022848573E+01 -0.15348431161E+02  0.18327930251E+02  0.51100000000E-03 0. -1.
        -11    1    3    3    0    0 -0.15776771972E+02 -0.14422854863E+02 -0.72814130244E+00  0.21388208580E+02  0.51100000000E-03 0.  1.
         12    1    3    3    0    0  0.20776903682E+01  0.32594594778E+02  0.23515220837E+01  0.32745290686E+02  0.00000000000E+00 0. -1.
</event>
<event>
 7    1  0.2944263E-013  0.7246154E+02  0.7816164E-02  0.1226708E+00
        -11   -1    0    0    0    0  0.00000000000E+00  0.00000000000E+00  0.45593999997E+02  0.45594000000E+02  0.51100000000E-03 0.  1.
         11   -1    0    0    0    0 -0.00000000000E+00 -0.00000000000E+00 -0.45593999997E+02  0.45594000000E+02  0.51100000000E-03 0. -1.
    9900012    2    1    2    0    0 -0.17468668904E+02 -0.62948256491E+01  0.24292439011E+01  0.72461536127E+02  0.69999955491E+02 0.  0.
         12    1    1    2    0    0  0.17468668904E+02  0.62948256491E+01 -0.24292439011E+01  0.18726463873E+02  0.00000000000E+00 0. -1.
         11    1    3    3    0    0  0.14730925875E+02 -0.19624235747E+02 -0.77068587084E+01  0.25719768218E+02  0.51100000000E-03 0. -1.
        -11    1    3    3    0    0  0.56618026944E+01  0.28811038236E+01  0.14588806997E+01  0.65180596921E+01  0.51100000000E-03 0.  1.
        -12    1    3    3    0    0 -0.37861397473E+02  0.10448306275E+02  0.86772219098E+01  0.40223708217E+02  0.00000000000E+00 0.  1.
</event>
<event>
 7    1  0.2944263E-013  0.7246158E+02  0.7816164E-02  0.1226708E+00
        -11   -1    0    0    0    0  0.00000000000E+00  0.00000000000E+00  0.45593999997E+02  0.45594000000E+02  0.51100000000E-03 0. -1.
         11   -1    0    0    0    0 -0.00000000000E+00 -0.00000000000E+00 -0.45593999997E+02  0.45594000000E+02  0.51100000000E-03 0.  1.
    9900012    2    1    2    0    0 -0.41088192603E+01  0.13287217215E+02 -0.12539785140E+02  0.72461581538E+02  0.70000014648E+02 0.  0.
         12    1    1    2    0    0  0.41088192603E+01 -0.13287217215E+02  0.12539785140E+02  0.18726418462E+02  0.00000000000E+00 0. -1.
         11    1    3    3    0    0  0.21606806489E+02 -0.23647550519E+01  0.88277837578E+01  0.23460092059E+02  0.51100000000E-03 0. -1.
        -11    1    3    3    0    0 -0.36142624864E+00 -0.80135428453E+01 -0.92946809043E+01  0.12277564548E+02  0.51100000000E-03 0.  1.
        -12    1    3    3    0    0 -0.25354199500E+02  0.23665515112E+02 -0.12072887994E+02  0.36723924931E+02  0.00000000000E+00 0.  1.
</event>
<event>
 7    1  0.2944263E-013  0.7246161E+02  0.7816164E-02  0.1226708E+00
        -11   -1    0    0    0    0  0.00000000000E+00  0.00000000000E+00  0.45593999997E+02  0.45594000000E+02  0.51100000000E-03 0.  1.
         11   -1    0    0    0    0 -0.00000000000E+00 -0.00000000000E+00 -0.45593999997E+02  0.45594000000E+02  0.51100000000E-03 0. -1.
    9900012    2    1    2    0    0  0.21024452868E+01  0.74933021901E+01  0.17032546725E+02  0.72461614822E+02  0.70000058005E+02 0.  0.
         12    1    1    2    0    0 -0.21024452868E+01 -0.74933021901E+01 -0.17032546725E+02  0.18726385178E+02  0.00000000000E+00 0. -1.
         11    1    3    3    0    0  0.50066416743E+01  0.56642991451E+01 -0.22157113299E+02  0.23411288210E+02  0.51100000000E-03 0. -1.
        -11    1    3    3    0    0  0.37926909508E+01 -0.86300789184E+01  0.17281318709E+01  0.95837991846E+01  0.51100000000E-03 0.  1.
        -12    1    3    3    0    0 -0.66968873383E+01  0.10459081963E+02  0.37461528153E+02  0.39466527427E+02  0.00000000000E+00 0.  1.
</event>
<event>
 7    1  0.2944263E-013  0.7246155E+02  0.7816164E-02  0.1226708E+00
        -11   -1    0    0    0    0  0.00000000000E+00  0.00000000000E+00  0.45593999997E+02  0.45594000000E+02  0.51100000000E-03 0. -1.
         11   -1    0    0    0    0 -0.00000000000E+00 -0.00000000000E+00 -0.45593999997E+02  0.45594000000E+02  0.51100000000E-03 0.  1.
    9900012    2    1    2    0    0 -0.15577251577E+02 -0.60178313353E+01  0.84743686572E+01  0.72461548526E+02  0.69999971642E+02 0.  0.
         12    1    1    2    0    0  0.15577251577E+02  0.60178313353E+01 -0.84743686572E+01  0.18726451474E+02  0.00000000000E+00 0. -1.
         11    1    3    3    0    0  0.14575123713E+02 -0.45837768965E+01  0.22515359665E+02  0.27210047097E+02  0.51100000000E-03 0. -1.
        -11    1    3    3    0    0 -0.61149658868E+01  0.87641657746E+01 -0.15807062021E+02  0.19080529855E+02  0.51100000000E-03 0.  1.
        -12    1    3    3    0    0 -0.24037409403E+02 -0.10198220213E+02  0.17660710134E+01  0.26170971575E+02  0.00000000000E+00 0.  1.
</event>
<event>
 7    1  0.2944263E-013  0.7246158E+02  0.7816164E-02  0.1226708E+00
        -11   -1    0    0    0    0  0.00000000000E+00  0.00000000000E+00  0.45593999997E+02  0.45594000000E+02  0.51100000000E-03 0.  1.
         11   -1    0    0    0    0 -0.00000000000E+00 -0.00000000000E+00 -0.45593999997E+02  0.45594000000E+02  0.51100000000E-03 0. -1.
    9900012    2    1    2    0    0 -0.31715038161E+01 -0.18375356235E+02 -0.17223465011E+01  0.72461584681E+02  0.70000018741E+02 0.  0.
         12    1    1    2    0    0  0.31715038161E+01  0.18375356235E+02  0.17223465011E+01  0.18726415319E+02  0.00000000000E+00 0. -1.
         11    1    3    3    0    0 -0.29384459155E+02 -0.15862672550E+02 -0.58654038509E+01  0.33903890379E+02  0.51100000000E-03 0. -1.
        -11    1    3    3    0    0  0.45042880817E+00 -0.52907326431E+00  0.11634185098E+02  0.11654916035E+02  0.51100000000E-03 0.  1.
        -12    1    3    3    0    0  0.25762526530E+02 -0.19836104213E+01 -0.74911277484E+01  0.26902778267E+02  0.00000000000E+00 0.  1.
</event>
<event>
 7    1  0.2944263E-013  0.7246155E+02  0.7816164E-02  0.1226708E+00
        -11   -1    0    0    0    0  0.00000000000E+00  0.00000000000E+00  0.45593999997E+02  0.45594000000E+02  0.51100000000E-03 0.  1.
         11   -1    0    0    0    0 -0.00000000000E+00 -0.00000000000E+00 -0.45593999997E+02  0.45594000000E+02  0.51100000000E-03 0. -1.
    9900012    2    1    2    0    0  0.13034609248E+02 -0.12997296139E+02  0.34422548006E+01  0.72461551771E+02  0.69999975870E+02 0.  0.
         12    1    1    2    0    0 -0.13034609248E+02  0.12997296139E+02 -0.34422548006E+01  0.18726448229E+02  0.00000000000E+00 0. -1.
         11    1    3    3    0    0  0.10449952436E+02 -0.24031979936E+02  0.56999443743E+01  0.26818406583E+02  0.51100000000E-03 0. -1.
        -11    1    3    3    0    0 -0.17287845988E+02 -0.48666036906E+01 -0.78244638311E+01  0.19590193590E+02  0.51100000000E-03 0.  1.
        -12    1    3    3    0    0  0.19872502800E+02  0.15901287487E+02  0.55667742575E+01  0.26052951597E+02  0.00000000000E+00 0.  1.
</event>
<event>
 7    1  0.2944263E-013  0.7246160E+02  0.7816164E-02  0.1226708E+00
        -11   -1    0    0    0    0  0.00000000000E+00  0.00000000000E+00  0.45593999997E+02  0.45594000000E+02  0.51100000000E-03 0.  1.
         11   -1    0    0    0    0 -0.00000000000E+00 -0.00000000000E+00 -0.45593999997E+02  0.45594000000E+02  0.51100000000E-03 0. -1.
    9900012    2    1    2    0    0 -0.26933973275E+01 -0.70681969967E+01  0.17130793992E+02  0.72461604171E+02  0.70000044131E+02 0.  0.
         12    1    1    2    0    0  0.26933973275E+01  0.70681969967E+01 -0.17130793992E+02  0.18726395829E+02  0.00000000000E+00 0. -1.
         11    1    3    3    0    0  0.14930575749E+02  0.58345010892E+01  0.22172339028E+02  0.27360119031E+02  0.51100000000E-03 0.  1.
        -11    1    3    3    0    0 -0.73270196162E+01  0.88909031979E+01 -0.15091551011E+02  0.18986529127E+02  0.51100000000E-03 0. -1.
        -12    1    3    3    0    0 -0.10296953460E+02 -0.21793601284E+02  0.10050005974E+02  0.26114956013E+02  0.00000000000E+00 0.  1.
</event>
<event>
 7    1  0.2944263E-013  0.7246155E+02  0.7816164E-02  0.1226708E+00
        -11   -1    0    0    0    0  0.00000000000E+00  0.00000000000E+00  0.45593999997E+02  0.45594000000E+02  0.51100000000E-03 0.  1.
         11   -1    0    0    0    0 -0.00000000000E+00 -0.00000000000E+00 -0.45593999997E+02  0.45594000000E+02  0.51100000000E-03 0. -1.
    9900012    2    1    2    0    0  0.92642677655E+01  0.13071351232E+02  0.96950024950E+01  0.72461549358E+02  0.69999972727E+02 0.  0.
         12    1    1    2    0    0 -0.92642677655E+01 -0.13071351232E+02 -0.96950024950E+01  0.18726450642E+02  0.00000000000E+00 0. -1.
         11    1    3    3    0    0 -0.22388060881E+02  0.24249438140E+02 -0.27329164858E+01  0.33116904337E+02  0.51100000000E-03 0. -1.
        -11    1    3    3    0    0  0.32796900027E+01  0.39840545380E+01  0.17497887340E+01  0.54489281469E+01  0.51100000000E-03 0.  1.
        -12    1    3    3    0    0  0.28372638644E+02 -0.15162141446E+02  0.10678130247E+02  0.33895716874E+02  0.00000000000E+00 0.  1.
</event>
<event>
 7    1  0.2944263E-013  0.7246158E+02  0.7816164E-02  0.1226708E+00
        -11   -1    0    0    0    0  0.00000000000E+00  0.00000000000E+00  0.45593999997E+02  0.45594000000E+02  0.51100000000E-03 0. -1.
         11   -1    0    0    0    0 -0.00000000000E+00 -0.00000000000E+00 -0.45593999997E+02  0.45594000000E+02  0.51100000000E-03 0.  1.
    9900012    2    1    2    0    0 -0.13969664811E+01  0.11832048687E+02 -0.14447489394E+02  0.72461579059E+02  0.70000011417E+02 0.  0.
         12    1    1    2    0    0  0.13969664811E+01 -0.11832048687E+02  0.14447489394E+02  0.18726420941E+02  0.00000000000E+00 0. -1.
         11    1    3    3    0    0 -0.76359701252E+01 -0.68103577233E+01  0.95024244235E+01  0.13963705893E+02  0.51100000000E-03 0. -1.
        -11    1    3    3    0    0  0.51370969723E+01 -0.16269775377E+02 -0.14294913091E+02  0.22258479208E+02  0.51100000000E-03 0.  1.
         12    1    3    3    0    0  0.11019066717E+01  0.34912181787E+02 -0.96550007266E+01  0.36239393958E+02  0.00000000000E+00 0. -1.
</event>
<event>
 7    1  0.2944263E-013  0.7246171E+02  0.7816164E-02  0.1226708E+00
        -11   -1    0    0    0    0  0.00000000000E+00  0.00000000000E+00  0.45593999997E+02  0.45594000000E+02  0.51100000000E-03 0.  1.
         11   -1    0    0    0    0 -0.00000000000E+00 -0.00000000000E+00 -0.45593999997E+02  0.45594000000E+02  0.51100000000E-03 0. -1.
    9900012    2    1    2    0    0 -0.31540863400E+01 -0.17779617753E+02  0.49609317497E+01  0.72461710675E+02  0.70000182871E+02 0.  0.
         12    1    1    2    0    0  0.31540863400E+01  0.17779617753E+02 -0.49609317497E+01  0.18726289325E+02  0.00000000000E+00 0. -1.
         11    1    3    3    0    0 -0.46155911504E+00  0.33979359678E+01 -0.58143027596E+00  0.34780838237E+01  0.51100000000E-03 0. -1.
        -11    1    3    3    0    0 -0.13386702985E+02  0.74913688013E+01  0.27384914097E+02  0.31388818769E+02  0.51100000000E-03 0.  1.
         12    1    3    3    0    0  0.10694175760E+02 -0.28668922522E+02 -0.21842552072E+02  0.37594808082E+02  0.00000000000E+00 0. -1.
</event>
<event>
 7    1  0.2944263E-013  0.7246159E+02  0.7816164E-02  0.1226708E+00
        -11   -1    0    0    0    0  0.00000000000E+00  0.00000000000E+00  0.45593999997E+02  0.45594000000E+02  0.51100000000E-03 0.  1.
         11   -1    0    0    0    0 -0.00000000000E+00 -0.00000000000E+00 -0.45593999997E+02  0.45594000000E+02  0.51100000000E-03 0. -1.
    9900012    2    1    2    0    0 -0.18145699544E+02 -0.92647436638E-01  0.46263859855E+01  0.72461589698E+02  0.70000025277E+02 0.  0.
         12    1    1    2    0    0  0.18145699544E+02  0.92647436638E-01 -0.46263859855E+01  0.18726410302E+02  0.00000000000E+00 0. -1.
         11    1    3    3    0    0 -0.69541170346E+01  0.16900114589E+02  0.83594321041E+01  0.20096112117E+02  0.51100000000E-03 0. -1.
        -11    1    3    3    0    0 -0.29423374522E+02 -0.36874079946E+01 -0.16615278583E+01  0.29700044125E+02  0.51100000000E-03 0.  1.
         12    1    3    3    0    0  0.18231792012E+02 -0.13305354031E+02 -0.20715182603E+01  0.22665433456E+02  0.00000000000E+00 0. -1.
</event>
<event>
 7    1  0.2944263E-013  0.7246160E+02  0.7816164E-02  0.1226708E+00
        -11   -1    0    0    0    0  0.00000000000E+00  0.00000000000E+00  0.45593999997E+02  0.45594000000E+02  0.51100000000E-03 0. -1.
         11   -1    0    0    0    0 -0.00000000000E+00 -0.00000000000E+00 -0.45593999997E+02  0.45594000000E+02  0.51100000000E-03 0.  1.
    9900012    2    1    2    0    0  0.98666873464E+01  0.15656112781E+02 -0.28658072039E+01  0.72461595179E+02  0.70000032416E+02 0.  0.
         12    1    1    2    0    0 -0.98666873464E+01 -0.15656112781E+02  0.28658072039E+01  0.18726404821E+02  0.00000000000E+00 0. -1.
         11    1    3    3    0    0 -0.10918439725E+02 -0.65562365038E+01  0.13955730030E+01  0.12811876810E+02  0.51100000000E-03 0. -1.
        -11    1    3    3    0    0 -0.95885020093E+01 -0.24407669813E+01 -0.15995469115E+02  0.18808289308E+02  0.51100000000E-03 0.  1.
         12    1    3    3    0    0  0.30373629081E+02  0.24653116266E+02  0.11734088908E+02  0.40841429060E+02  0.00000000000E+00 0. -1.
</event>
<event>
 7    1  0.2944263E-013  0.7246153E+02  0.7816164E-02  0.1226708E+00
        -11   -1    0    0    0    0  0.00000000000E+00  0.00000000000E+00  0.45593999997E+02  0.45594000000E+02  0.51100000000E-03 0. -1.
         11   -1    0    0    0    0 -0.00000000000E+00 -0.00000000000E+00 -0.45593999997E+02  0.45594000000E+02  0.51100000000E-03 0.  1.
    9900012    2    1    2    0    0  0.94525330673E+01  0.77129048364E+01 -0.14207086581E+02  0.72461532327E+02  0.69999950540E+02 0.  0.
         12    1    1    2    0    0 -0.94525330673E+01 -0.77129048364E+01  0.14207086581E+02  0.18726467673E+02  0.00000000000E+00 0. -1.
         11    1    3    3    0    0 -0.16017946493E+02  0.45547004649E+01  0.12477675755E+02  0.20808947563E+02  0.51100000000E-03 0. -1.
        -11    1    3    3    0    0 -0.80624393892E+01  0.62940573780E+01 -0.89402545689E+01  0.13584779689E+02  0.51100000000E-03 0.  1.
        -12    1    3    3    0    0  0.33532918949E+02 -0.31358530065E+01 -0.17744507767E+02  0.38067805075E+02  0.00000000000E+00 0.  1.
</event>
<event>
 7    1  0.2944263E-013  0.7246158E+02  0.7816164E-02  0.1226708E+00
        -11   -1    0    0    0    0  0.00000000000E+00  0.00000000000E+00  0.45593999997E+02  0.45594000000E+02  0.51100000000E-03 0. -1.
         11   -1    0    0    0    0 -0.00000000000E+00 -0.00000000000E+00 -0.45593999997E+02  0.45594000000E+02  0.51100000000E-03 0.  1.
    9900012    2    1    2    0    0  0.54286790053E+01 -0.79711148765E+01 -0.16052087514E+02  0.72461581718E+02  0.70000014882E+02 0.  0.
         12    1    1    2    0    0 -0.54286790053E+01  0.79711148765E+01  0.16052087514E+02  0.18726418282E+02  0.00000000000E+00 0. -1.
         11    1    3    3    0    0  0.55808170372E+00 -0.66368170733E+01  0.11225032398E+02  0.13052208573E+02  0.51100000000E-03 0. -1.
        -11    1    3    3    0    0  0.85479653257E+01  0.10191991733E+02  0.12243113176E+02  0.18078667739E+02  0.51100000000E-03 0.  1.
        -12    1    3    3    0    0 -0.36773680241E+01 -0.11526289536E+02 -0.39520233088E+02  0.41330705406E+02  0.00000000000E+00 0.  1.
</event>
<event>
 7    1  0.2944263E-013  0.7246169E+02  0.7816164E-02  0.1226708E+00
        -11   -1    0    0    0    0  0.00000000000E+00  0.00000000000E+00  0.45593999997E+02  0.45594000000E+02  0.51100000000E-03 0. -1.
         11   -1    0    0    0    0 -0.00000000000E+00 -0.00000000000E+00 -0.45593999997E+02  0.45594000000E+02  0.51100000000E-03 0.  1.
    9900012    2    1    2    0    0 -0.20674486924E+01 -0.58020877283E+01 -0.17684346504E+02  0.72461690236E+02  0.70000156247E+02 0.  0.
         12    1    1    2    0    0  0.20674486924E+01  0.58020877283E+01  0.17684346504E+02  0.18726309764E+02  0.00000000000E+00 0. -1.
         11    1    3    3    0    0 -0.16491842726E+01 -0.19161463538E+02  0.10946121304E+02  0.22129145161E+02  0.51100000000E-03 0. -1.
        -11    1    3    3    0    0 -0.10755739891E+02 -0.81788494705E+01 -0.63242737824E+00  0.13526990941E+02  0.51100000000E-03 0.  1.
        -12    1    3    3    0    0  0.10337475471E+02  0.21538225280E+02 -0.27998040429E+02  0.36805554135E+02  0.00000000000E+00 0.  1.
</event>
<event>
 7    1  0.2944263E-013  0.7246158E+02  0.7816164E-02  0.1226708E+00
        -11   -1    0    0    0    0  0.00000000000E+00  0.00000000000E+00  0.45593999997E+02  0.45594000000E+02  0.51100000000E-03 0.  1.
         11   -1    0    0    0    0 -0.00000000000E+00 -0.00000000000E+00 -0.45593999997E+02  0.45594000000E+02  0.51100000000E-03 0. -1.
    9900012    2    1    2    0    0 -0.36849046432E+01  0.14810665567E+02  0.10851017827E+02  0.72461576833E+02  0.70000008518E+02 0.  0.
         12    1    1    2    0    0  0.36849046432E+01 -0.14810665567E+02 -0.10851017827E+02  0.18726423167E+02  0.00000000000E+00 0. -1.
         11    1    3    3    0    0 -0.13057764680E+02 -0.10105443359E+02  0.62921261189E+01  0.17669636535E+02  0.51100000000E-03 0. -1.
        -11    1    3    3    0    0  0.55097019342E+01 -0.14226040801E+02  0.71970583691E+00  0.15272688991E+02  0.51100000000E-03 0.  1.
        -12    1    3    3    0    0  0.38631581031E+01  0.39142149726E+02  0.38391858707E+01  0.39519251307E+02  0.00000000000E+00 0.  1.
</event>
<event>
 7    1  0.2944263E-013  0.7246150E+02  0.7816164E-02  0.1226708E+00
        -11   -1    0    0    0    0  0.00000000000E+00  0.00000000000E+00  0.45593999997E+02  0.45594000000E+02  0.51100000000E-03 0.  1.
         11   -1    0    0    0    0 -0.00000000000E+00 -0.00000000000E+00 -0.45593999997E+02  0.45594000000E+02  0.51100000000E-03 0. -1.
    9900012    2    1    2    0    0 -0.17872339949E+02 -0.45388734514E+01  0.32649263666E+01  0.72461504022E+02  0.69999913667E+02 0.  0.
         12    1    1    2    0    0  0.17872339949E+02  0.45388734514E+01 -0.32649263666E+01  0.18726495978E+02  0.00000000000E+00 0. -1.
         11    1    3    3    0    0 -0.84022258573E+01  0.27761496083E+01 -0.99268505962E+01  0.13298374676E+02  0.51100000000E-03 0. -1.
        -11    1    3    3    0    0 -0.29469573677E+02  0.10997506022E+01 -0.61172874042E+01  0.30117875581E+02  0.51100000000E-03 0.  1.
        -12    1    3    3    0    0  0.19999459585E+02 -0.84147736619E+01  0.19309064367E+02  0.29045253764E+02  0.00000000000E+00 0.  1.
</event>
<event>
 7    1  0.2944263E-013  0.7246161E+02  0.7816164E-02  0.1226708E+00
        -11   -1    0    0    0    0  0.00000000000E+00  0.00000000000E+00  0.45593999997E+02  0.45594000000E+02  0.51100000000E-03 0. -1.
         11   -1    0    0    0    0 -0.00000000000E+00 -0.00000000000E+00 -0.45593999997E+02  0.45594000000E+02  0.51100000000E-03 0.  1.
    9900012    2    1    2    0    0 -0.56597859406E+01 -0.13935848682E+02 -0.11155113699E+02  0.72461611746E+02  0.70000053999E+02 0.  0.
         12    1    1    2    0    0  0.56597859406E+01  0.13935848682E+02  0.11155113699E+02  0.18726388254E+02  0.00000000000E+00 0. -1.
         11    1    3    3    0    0 -0.21145404967E+02  0.62430810221E+00  0.57921654035E+01  0.21933241716E+02  0.51100000000E-03 0. -1.
        -11    1    3    3    0    0 -0.76873347735E+01  0.10765656293E+02 -0.57102873249E+01  0.14408395224E+02  0.51100000000E-03 0.  1.
        -12    1    3    3    0    0  0.23172953800E+02 -0.25325813077E+02 -0.11236991778E+02  0.36119974807E+02  0.00000000000E+00 0.  1.
</event>
<event>
 7    1  0.2944263E-013  0.7246165E+02  0.7816164E-02  0.1226708E+00
        -11   -1    0    0    0    0  0.00000000000E+00  0.00000000000E+00  0.45593999997E+02  0.45594000000E+02  0.51100000000E-03 0.  1.
         11   -1    0    0    0    0 -0.00000000000E+00 -0.00000000000E+00 -0.45593999997E+02  0.45594000000E+02  0.51100000000E-03 0. -1.
    9900012    2    1    2    0    0 -0.28686971163E+01  0.59027370330E+01  0.17538656886E+02  0.72461649234E+02  0.70000102834E+02 0.  0.
         12    1    1    2    0    0  0.28686971163E+01 -0.59027370330E+01 -0.17538656886E+02  0.18726350766E+02  0.00000000000E+00 0. -1.
         11    1    3    3    0    0  0.20442798949E+02  0.59229151559E+00 -0.61323733996E+01  0.21350991590E+02  0.51100000000E-03 0. -1.
        -11    1    3    3    0    0 -0.19448318051E+02 -0.10992597686E+02  0.25905584456E+02  0.34207800063E+02  0.51100000000E-03 0.  1.
         12    1    3    3    0    0 -0.38631780151E+01  0.16303043203E+02 -0.22345541702E+01  0.16902857581E+02  0.00000000000E+00 0. -1.
</event>
<event>
 7    1  0.2944263E-013  0.7246140E+02  0.7816164E-02  0.1226708E+00
        -11   -1    0    0    0    0  0.00000000000E+00  0.00000000000E+00  0.45593999997E+02  0.45594000000E+02  0.51100000000E-03 0.  1.
         11   -1    0    0    0    0 -0.00000000000E+00 -0.00000000000E+00 -0.45593999997E+02  0.45594000000E+02  0.51100000000E-03 0. -1.
    9900012    2    1    2    0    0 -0.24089810336E+01  0.13815755791E+02  0.12409967847E+02  0.72461398609E+02  0.69999776348E+02 0.  0.
         12    1    1    2    0    0  0.24089810336E+01 -0.13815755791E+02 -0.12409967847E+02  0.18726601391E+02  0.00000000000E+00 0. -1.
         11    1    3    3    0    0  0.16922062607E+00  0.18897565106E+02 -0.16292221354E+02  0.24951614766E+02  0.51100000000E-03 0. -1.
        -11    1    3    3    0    0  0.13492898116E+02  0.62022019882E+01  0.22420740445E+02  0.26892660922E+02  0.51100000000E-03 0.  1.
         12    1    3    3    0    0 -0.16071099775E+02 -0.11284011303E+02  0.62814487558E+01  0.20617122921E+02  0.00000000000E+00 0. -1.
</event>
<event>
 7    1  0.2944263E-013  0.7246149E+02  0.7816164E-02  0.1226708E+00
        -11   -1    0    0    0    0  0.00000000000E+00  0.00000000000E+00  0.45593999997E+02  0.45594000000E+02  0.51100000000E-03 0. -1.
         11   -1    0    0    0    0 -0.00000000000E+00 -0.00000000000E+00 -0.45593999997E+02  0.45594000000E+02  0.51100000000E-03 0.  1.
    9900012    2    1    2    0    0 -0.15236571847E+02 -0.10815442477E+02 -0.12470553039E+01  0.72461492996E+02  0.69999899305E+02 0.  0.
         12    1    1    2    0    0  0.15236571847E+02  0.10815442477E+02  0.12470553039E+01  0.18726507004E+02  0.00000000000E+00 0. -1.
         11    1    3    3    0    0 -0.89650891017E+01 -0.10956017765E+02  0.17274092029E+02  0.22333862262E+02  0.51100000000E-03 0. -1.
        -11    1    3    3    0    0 -0.25763679768E+02 -0.57958732884E+00 -0.46338509946E+01  0.26183500377E+02  0.51100000000E-03 0.  1.
        -12    1    3    3    0    0  0.19492197023E+02  0.72016261674E+00 -0.13887296339E+02  0.23944130357E+02  0.00000000000E+00 0.  1.
</event>
<event>
 7    1  0.2944263E-013  0.7246157E+02  0.7816164E-02  0.1226708E+00
        -11   -1    0    0    0    0  0.00000000000E+00  0.00000000000E+00  0.45593999997E+02  0.45594000000E+02  0.51100000000E-03 0. -1.
         11   -1    0    0    0    0 -0.00000000000E+00 -0.00000000000E+00 -0.45593999997E+02  0.45594000000E+02  0.51100000000E-03 0.  1.
    9900012    2    1    2    0    0  0.13021954605E+02  0.92613404090E+01 -0.97639867903E+01  0.72461570390E+02  0.70000000124E+02 0.  0.
         12    1    1    2    0    0 -0.13021954605E+02 -0.92613404090E+01  0.97639867903E+01  0.18726429610E+02  0.00000000000E+00 0. -1.
         11    1    3    3    0    0  0.12149921691E+02  0.24828214816E+02  0.12558656285E+02  0.30360841490E+02  0.51100000000E-03 0. -1.
        -11    1    3    3    0    0 -0.62806894125E+00  0.89358203549E+01 -0.13114775218E+02  0.15882086931E+02  0.51100000000E-03 0.  1.
         12    1    3    3    0    0  0.15001018552E+01 -0.24502694762E+02 -0.92078678577E+01  0.26218641968E+02  0.00000000000E+00 0. -1.
</event>
<event>
 7    1  0.2944263E-013  0.7246156E+02  0.7816164E-02  0.1226708E+00
        -11   -1    0    0    0    0  0.00000000000E+00  0.00000000000E+00  0.45593999997E+02  0.45594000000E+02  0.51100000000E-03 0. -1.
         11   -1    0    0    0    0 -0.00000000000E+00 -0.00000000000E+00 -0.45593999997E+02  0.45594000000E+02  0.51100000000E-03 0.  1.
    9900012    2    1    2    0    0  0.25197188649E+01 -0.14134642350E+02 -0.12022585457E+02  0.72461557236E+02  0.69999982989E+02 0.  0.
         12    1    1    2    0    0 -0.25197188649E+01  0.14134642350E+02  0.12022585457E+02  0.18726442764E+02  0.00000000000E+00 0. -1.
         11    1    3    3    0    0  0.40871865038E+01 -0.10194697567E+01  0.19329895353E+02  0.19783560517E+02  0.51100000000E-03 0. -1.
        -11    1    3    3    0    0  0.18686571751E+02 -0.10826645677E+02 -0.12730668975E+02  0.25069386774E+02  0.51100000000E-03 0.  1.
         12    1    3    3    0    0 -0.20254039390E+02 -0.22885269159E+01 -0.18621811835E+02  0.27608609945E+02  0.00000000000E+00 0. -1.
</event>
<event>
 7    1  0.2944263E-013  0.7246157E+02  0.7816164E-02  0.1226708E+00
        -11   -1    0    0    0    0  0.00000000000E+00  0.00000000000E+00  0.45593999997E+02  0.45594000000E+02  0.51100000000E-03 0.  1.
         11   -1    0    0    0    0 -0.00000000000E+00 -0.00000000000E+00 -0.45593999997E+02  0.45594000000E+02  0.51100000000E-03 0. -1.
    9900012    2    1    2    0    0 -0.11706566471E+02 -0.13895231007E+02 -0.45341130543E+01  0.72461566157E+02  0.69999994611E+02 0.  0.
         12    1    1    2    0    0  0.11706566471E+02  0.13895231007E+02  0.45341130543E+01  0.18726433843E+02  0.00000000000E+00 0. -1.
         11    1    3    3    0    0 -0.13794392097E+02  0.14089984855E+02 -0.43646501435E+00  0.19723169839E+02  0.51100000000E-03 0. -1.
        -11    1    3    3    0    0 -0.16449246117E+02  0.26638089152E+01  0.18439367399E+00  0.16664560511E+02  0.51100000000E-03 0.  1.
        -12    1    3    3    0    0  0.18537071743E+02 -0.30649024777E+02 -0.42820417140E+01  0.36073835807E+02  0.00000000000E+00 0.  1.
</event>
<event>
 7    1  0.2944263E-013  0.7246147E+02  0.7816164E-02  0.1226708E+00
        -11   -1    0    0    0    0  0.00000000000E+00  0.00000000000E+00  0.45593999997E+02  0.45594000000E+02  0.51100000000E-03 0.  1.
         11   -1    0    0    0    0 -0.00000000000E+00 -0.00000000000E+00 -0.45593999997E+02  0.45594000000E+02  0.51100000000E-03 0. -1.
    9900012    2    1    2    0    0  0.44833767361E+01 -0.12705938545E+02  0.13005431315E+02  0.72461473762E+02  0.69999874249E+02 0.  0.
         12    1    1    2    0    0 -0.44833767361E+01  0.12705938545E+02 -0.13005431315E+02  0.18726526238E+02  0.00000000000E+00 0. -1.
         11    1    3    3    0    0 -0.34695345245E+01 -0.21826287973E+02 -0.11791389007E+01  0.22131761912E+02  0.51100000000E-03 0. -1.
        -11    1    3    3    0    0  0.15660982609E+02 -0.71432450899E+01  0.24227329415E+02  0.29719620077E+02  0.51100000000E-03 0.  1.
        -12    1    3    3    0    0 -0.77080713480E+01  0.16263594518E+02 -0.10042759199E+02  0.20610091773E+02  0.00000000000E+00 0.  1.
</event>
<event>
 7    1  0.2944263E-013  0.7246156E+02  0.7816164E-02  0.1226708E+00
        -11   -1    0    0    0    0  0.00000000000E+00  0.00000000000E+00  0.45593999997E+02  0.45594000000E+02  0.51100000000E-03 0.  1.
         11   -1    0    0    0    0 -0.00000000000E+00 -0.00000000000E+00 -0.45593999997E+02  0.45594000000E+02  0.51100000000E-03 0. -1.
    9900012    2    1    2    0    0  0.15943092522E+01  0.29452166655E+01  0.18424533563E+02  0.72461559863E+02  0.69999986411E+02 0.  0.
         12    1    1    2    0    0 -0.15943092522E+01 -0.29452166655E+01 -0.18424533563E+02  0.18726440137E+02  0.00000000000E+00 0. -1.
         11    1    3    3    0    0 -0.22826134125E+02  0.18627491912E+01 -0.26584112640E-01  0.22902029182E+02  0.51100000000E-03 0. -1.
        -11    1    3    3    0    0 -0.31350073743E+01  0.49551227301E+01  0.20822574328E+02  0.21632408890E+02  0.51100000000E-03 0.  1.
         12    1    3    3    0    0  0.27555450752E+02 -0.38726552557E+01 -0.23714566517E+01  0.27927121791E+02  0.00000000000E+00 0. -1.
</event>
<event>
 7    1  0.2944263E-013  0.7246157E+02  0.7816164E-02  0.1226708E+00
        -11   -1    0    0    0    0  0.00000000000E+00  0.00000000000E+00  0.45593999997E+02  0.45594000000E+02  0.51100000000E-03 0.  1.
         11   -1    0    0    0    0 -0.00000000000E+00 -0.00000000000E+00 -0.45593999997E+02  0.45594000000E+02  0.51100000000E-03 0. -1.
    9900012    2    1    2    0    0  0.13378806670E+02  0.35701078656E+01  0.12607187896E+02  0.72461566150E+02  0.69999994602E+02 0.  0.
         12    1    1    2    0    0 -0.13378806670E+02 -0.35701078656E+01 -0.12607187896E+02  0.18726433850E+02  0.00000000000E+00 0. -1.
         11    1    3    3    0    0  0.30438753756E+02  0.31962114735E+00  0.12672629000E+02  0.32972949730E+02  0.51100000000E-03 0.  1.
        -11    1    3    3    0    0  0.18211293406E+01 -0.12853097564E+02 -0.54771897006E+01  0.14089649972E+02  0.51100000000E-03 0. -1.
        -12    1    3    3    0    0 -0.18881076426E+02  0.16103584282E+02  0.54117485961E+01  0.25398966448E+02  0.00000000000E+00 0.  1.
</event>
<event>
 7    1  0.2944263E-013  0.7246159E+02  0.7816164E-02  0.1226708E+00
        -11   -1    0    0    0    0  0.00000000000E+00  0.00000000000E+00  0.45593999997E+02  0.45594000000E+02  0.51100000000E-03 0. -1.
         11   -1    0    0    0    0 -0.00000000000E+00 -0.00000000000E+00 -0.45593999997E+02  0.45594000000E+02  0.51100000000E-03 0.  1.
    9900012    2    1    2    0    0 -0.88847803915E+01  0.14948083692E+02  0.69493852073E+01  0.72461588613E+02  0.70000023864E+02 0.  0.
         12    1    1    2    0    0  0.88847803915E+01 -0.14948083692E+02 -0.69493852073E+01  0.18726411387E+02  0.00000000000E+00 0. -1.
         11    1    3    3    0    0  0.11069521063E+02  0.33370606873E+02 -0.72252599256E+01  0.35893398849E+02  0.51100000000E-03 0. -1.
        -11    1    3    3    0    0 -0.32113571007E+01  0.41639111456E+01  0.43830760397E+00  0.52766546479E+01  0.51100000000E-03 0.  1.
        -12    1    3    3    0    0 -0.16742944354E+02 -0.22586434327E+02  0.13736337529E+02  0.31291535117E+02  0.00000000000E+00 0.  1.
</event>
<event>
 7    1  0.2944263E-013  0.7246156E+02  0.7816164E-02  0.1226708E+00
        -11   -1    0    0    0    0  0.00000000000E+00  0.00000000000E+00  0.45593999997E+02  0.45594000000E+02  0.51100000000E-03 0.  1.
         11   -1    0    0    0    0 -0.00000000000E+00 -0.00000000000E+00 -0.45593999997E+02  0.45594000000E+02  0.51100000000E-03 0. -1.
    9900012    2    1    2    0    0  0.48342908869E+01 -0.17523261832E+02  0.44993707316E+01  0.72461563857E+02  0.69999991615E+02 0.  0.
         12    1    1    2    0    0 -0.48342908869E+01  0.17523261832E+02 -0.44993707316E+01  0.18726436143E+02  0.00000000000E+00 0. -1.
         11    1    3    3    0    0  0.11082553833E+02  0.10272903024E+02 -0.36500257799E+01  0.15546003489E+02  0.51100000000E-03 0. -1.
        -11    1    3    3    0    0  0.19987187837E+02 -0.48728951025E+01  0.80072927676E+01  0.22075994248E+02  0.51100000000E-03 0.  1.
         12    1    3    3    0    0 -0.26235450783E+02 -0.22923269754E+02  0.14210374387E+00  0.34839566121E+02  0.00000000000E+00 0. -1.
</event>
<event>
 7    1  0.2944263E-013  0.7246171E+02  0.7816164E-02  0.1226708E+00
        -11   -1    0    0    0    0  0.00000000000E+00  0.00000000000E+00  0.45593999997E+02  0.45594000000E+02  0.51100000000E-03 0. -1.
         11   -1    0    0    0    0 -0.00000000000E+00 -0.00000000000E+00 -0.45593999997E+02  0.45594000000E+02  0.51100000000E-03 0.  1.
    9900012    2    1    2    0    0 -0.87968161750E+01 -0.93734104214E+01 -0.13617233304E+02  0.72461712579E+02  0.70000185351E+02 0.  0.
         12    1    1    2    0    0  0.87968161750E+01  0.93734104214E+01  0.13617233304E+02  0.18726287421E+02  0.00000000000E+00 0. -1.
         11    1    3    3    0    0 -0.63957625571E+01 -0.14933024054E+02 -0.22092561017E+02  0.27422294554E+02  0.51100000000E-03 0. -1.
        -11    1    3    3    0    0  0.51890756244E+01 -0.90997003457E+01 -0.13792880115E+02  0.17319774662E+02  0.51100000000E-03 0.  1.
         12    1    3    3    0    0 -0.75901292422E+01  0.14659313979E+02  0.22268207828E+02  0.27719643362E+02  0.00000000000E+00 0. -1.
</event>
<event>
 7    1  0.2944263E-013  0.7246149E+02  0.7816164E-02  0.1226708E+00
        -11   -1    0    0    0    0  0.00000000000E+00  0.00000000000E+00  0.45593999997E+02  0.45594000000E+02  0.51100000000E-03 0. -1.
         11   -1    0    0    0    0 -0.00000000000E+00 -0.00000000000E+00 -0.45593999997E+02  0.45594000000E+02  0.51100000000E-03 0.  1.
    9900012    2    1    2    0    0  0.94235687066E+01 -0.13942682026E+02 -0.82146354195E+01  0.72461487663E+02  0.69999892357E+02 0.  0.
         12    1    1    2    0    0 -0.94235687066E+01  0.13942682026E+02  0.82146354195E+01  0.18726512337E+02  0.00000000000E+00 0. -1.
         11    1    3    3    0    0  0.85540603352E+01  0.14176757511E+02  0.69781781277E+01  0.17967954029E+02  0.51100000000E-03 0. -1.
        -11    1    3    3    0    0 -0.13875933907E+01 -0.12954960913E+02  0.15461410876E+02  0.20219091330E+02  0.51100000000E-03 0.  1.
         12    1    3    3    0    0  0.22571017621E+01 -0.15164478624E+02 -0.30654224423E+02  0.34274442304E+02  0.00000000000E+00 0. -1.
</event>
<event>
 7    1  0.2944263E-013  0.7246147E+02  0.7816164E-02  0.1226708E+00
        -11   -1    0    0    0    0  0.00000000000E+00  0.00000000000E+00  0.45593999997E+02  0.45594000000E+02  0.51100000000E-03 0.  1.
         11   -1    0    0    0    0 -0.00000000000E+00 -0.00000000000E+00 -0.45593999997E+02  0.45594000000E+02  0.51100000000E-03 0. -1.
    9900012    2    1    2    0    0  0.93119291091E+01  0.87457109932E+01  0.13692458191E+02  0.72461470801E+02  0.69999870392E+02 0.  0.
         12    1    1    2    0    0 -0.93119291091E+01 -0.87457109932E+01 -0.13692458191E+02  0.18726529199E+02  0.00000000000E+00 0. -1.
         11    1    3    3    0    0 -0.20767341149E+02  0.62525367390E+01 -0.71664295117E+01  0.22841505779E+02  0.51100000000E-03 0. -1.
        -11    1    3    3    0    0 -0.11814412086E+01  0.12179881332E+02  0.68157116708E+01  0.14007113851E+02  0.51100000000E-03 0.  1.
        -12    1    3    3    0    0  0.31260711467E+02 -0.96867070782E+01  0.14043176032E+02  0.35612851170E+02  0.00000000000E+00 0.  1.
</event>
<event>
 7    1  0.2944263E-013  0.7246158E+02  0.7816164E-02  0.1226708E+00
        -11   -1    0    0    0    0  0.00000000000E+00  0.00000000000E+00  0.45593999997E+02  0.45594000000E+02  0.51100000000E-03 0. -1.
         11   -1    0    0    0    0 -0.00000000000E+00 -0.00000000000E+00 -0.45593999997E+02  0.45594000000E+02  0.51100000000E-03 0.  1.
    9900012    2    1    2    0    0  0.14075972131E+02  0.84266145323E+01 -0.90298323840E+01  0.72461582916E+02  0.70000016442E+02 0.  0.
         12    1    1    2    0    0 -0.14075972131E+02 -0.84266145323E+01  0.90298323840E+01  0.18726417084E+02  0.00000000000E+00 0. -1.
         11    1    3    3    0    0  0.58813793350E+01  0.22311446685E+02 -0.21403645202E+02  0.31472326006E+02  0.51100000000E-03 0. -1.
        -11    1    3    3    0    0 -0.91186726730E+01 -0.90827542602E+01 -0.69303596807E+01  0.14617677717E+02  0.51100000000E-03 0.  1.
        -12    1    3    3    0    0  0.17313265469E+02 -0.48020778922E+01  0.19304172498E+02  0.26371579193E+02  0.00000000000E+00 0.  1.
</event>
<event>
 7    1  0.2944263E-013  0.7246153E+02  0.7816164E-02  0.1226708E+00
        -11   -1    0    0    0    0  0.00000000000E+00  0.00000000000E+00  0.45593999997E+02  0.45594000000E+02  0.51100000000E-03 0.  1.
         11   -1    0    0    0    0 -0.00000000000E+00 -0.00000000000E+00 -0.45593999997E+02  0.45594000000E+02  0.51100000000E-03 0. -1.
    9900012    2    1    2    0    0 -0.98318452093E+01  0.52441493749E+01  0.15050389415E+02  0.72461534652E+02  0.69999953569E+02 0.  0.
         12    1    1    2    0    0  0.98318452093E+01 -0.52441493749E+01 -0.15050389415E+02  0.18726465348E+02  0.00000000000E+00 0. -1.
         11    1    3    3    0    0 -0.32278375845E+02  0.70066529359E+01  0.20686320011E+02  0.38973203209E+02  0.51100000000E-03 0. -1.
        -11    1    3    3    0    0 -0.14263922426E+01 -0.81036016016E+01 -0.24359361316E+01  0.85811851656E+01  0.51100000000E-03 0.  1.
        -12    1    3    3    0    0  0.23872922878E+02  0.63410980406E+01 -0.31999944643E+01  0.24907146277E+02  0.00000000000E+00 0.  1.
</event>
<event>
 7    1  0.2944263E-013  0.7246172E+02  0.7816164E-02  0.1226708E+00
        -11   -1    0    0    0    0  0.00000000000E+00  0.00000000000E+00  0.45593999997E+02  0.45594000000E+02  0.51100000000E-03 0.  1.
         11   -1    0    0    0    0 -0.00000000000E+00 -0.00000000000E+00 -0.45593999997E+02  0.45594000000E+02  0.51100000000E-03 0. -1.
    9900012    2    1    2    0    0 -0.86726448884E+01  0.44567397174E+01  0.15987380021E+02  0.72461718516E+02  0.70000193086E+02 0.  0.
         12    1    1    2    0    0  0.86726448884E+01 -0.44567397174E+01 -0.15987380021E+02  0.18726281484E+02  0.00000000000E+00 0. -1.
         11    1    3    3    0    0  0.16376679477E+02  0.11341074945E+02 -0.16071465056E+02  0.25595069856E+02  0.51100000000E-03 0. -1.
        -11    1    3    3    0    0 -0.97239326678E+00 -0.94174016910E+01  0.12855331174E+02  0.15965354463E+02  0.51100000000E-03 0.  1.
        -12    1    3    3    0    0 -0.24076931099E+02  0.25330664632E+01  0.19203513903E+02  0.30901294197E+02  0.00000000000E+00 0.  1.
</event>
<event>
 7    1  0.2944263E-013  0.7246157E+02  0.7816164E-02  0.1226708E+00
        -11   -1    0    0    0    0  0.00000000000E+00  0.00000000000E+00  0.45593999997E+02  0.45594000000E+02  0.51100000000E-03 0. -1.
         11   -1    0    0    0    0 -0.00000000000E+00 -0.00000000000E+00 -0.45593999997E+02  0.45594000000E+02  0.51100000000E-03 0.  1.
    9900012    2    1    2    0    0 -0.12497127053E+02 -0.13085264694E+02 -0.48246056335E+01  0.72461570650E+02  0.70000000463E+02 0.  0.
         12    1    1    2    0    0  0.12497127053E+02  0.13085264694E+02  0.48246056335E+01  0.18726429350E+02  0.00000000000E+00 0. -1.
         11    1    3    3    0    0 -0.34463438028E+01 -0.21477799647E+02 -0.71890758165E+01  0.22909735368E+02  0.51100000000E-03 0. -1.
        -11    1    3    3    0    0 -0.21481612751E+02 -0.12099717331E+02 -0.34331392534E+01  0.24892755799E+02  0.51100000000E-03 0.  1.
         12    1    3    3    0    0  0.12430829501E+02  0.20492252284E+02  0.57976094365E+01  0.24659079482E+02  0.00000000000E+00 0. -1.
</event>
<event>
 7    1  0.2944263E-013  0.7246152E+02  0.7816164E-02  0.1226708E+00
        -11   -1    0    0    0    0  0.00000000000E+00  0.00000000000E+00  0.45593999997E+02  0.45594000000E+02  0.51100000000E-03 0.  1.
         11   -1    0    0    0    0 -0.00000000000E+00 -0.00000000000E+00 -0.45593999997E+02  0.45594000000E+02  0.51100000000E-03 0. -1.
    9900012    2    1    2    0    0  0.18074879414E+02 -0.48124827449E+01  0.90547261126E+00  0.72461517771E+02  0.69999931579E+02 0.  0.
         12    1    1    2    0    0 -0.18074879414E+02  0.48124827449E+01 -0.90547261126E+00  0.18726482229E+02  0.00000000000E+00 0. -1.
         11    1    3    3    0    0 -0.13500003381E+01 -0.43950086491E+00 -0.23339641021E+02  0.23382782238E+02  0.51100000000E-03 0. -1.
        -11    1    3    3    0    0  0.11826659775E+02  0.10533196636E+01 -0.87748642448E+01  0.14764064702E+02  0.51100000000E-03 0.  1.
        -12    1    3    3    0    0  0.75982199777E+01 -0.54263015436E+01  0.33019977877E+02  0.34314670832E+02  0.00000000000E+00 0.  1.
</event>
<event>
 7    1  0.2944263E-013  0.7246159E+02  0.7816164E-02  0.1226708E+00
        -11   -1    0    0    0    0  0.00000000000E+00  0.00000000000E+00  0.45593999997E+02  0.45594000000E+02  0.51100000000E-03 0.  1.
         11   -1    0    0    0    0 -0.00000000000E+00 -0.00000000000E+00 -0.45593999997E+02  0.45594000000E+02  0.51100000000E-03 0. -1.
    9900012    2    1    2    0    0  0.21560181585E+01 -0.17548446045E+02  0.61710736314E+01  0.72461587566E+02  0.70000022500E+02 0.  0.
         12    1    1    2    0    0 -0.21560181585E+01  0.17548446045E+02 -0.61710736314E+01  0.18726412434E+02  0.00000000000E+00 0. -1.
         11    1    3    3    0    0 -0.10101484963E+01  0.28968203453E+01 -0.21097206197E+01  0.37232901380E+01  0.51100000000E-03 0. -1.
        -11    1    3    3    0    0 -0.19262321710E+02  0.14902998015E+02  0.11132141421E+02  0.26777993957E+02  0.51100000000E-03 0.  1.
        -12    1    3    3    0    0  0.22428488364E+02 -0.35348264405E+02 -0.28513471696E+01  0.41960303471E+02  0.00000000000E+00 0.  1.
</event>
<event>
 7    1  0.2944263E-013  0.7246149E+02  0.7816164E-02  0.1226708E+00
        -11   -1    0    0    0    0  0.00000000000E+00  0.00000000000E+00  0.45593999997E+02  0.45594000000E+02  0.51100000000E-03 0.  1.
         11   -1    0    0    0    0 -0.00000000000E+00 -0.00000000000E+00 -0.45593999997E+02  0.45594000000E+02  0.51100000000E-03 0. -1.
    9900012    2    1    2    0    0 -0.96742543917E+01 -0.12078750852E+02  0.10544889890E+02  0.72461491437E+02  0.69999897273E+02 0.  0.
         12    1    1    2    0    0  0.96742543917E+01  0.12078750852E+02 -0.10544889890E+02  0.18726508563E+02  0.00000000000E+00 0. -1.
         11    1    3    3    0    0 -0.93817919326E+01  0.75344400783E+01 -0.17020659641E+02  0.20844391621E+02  0.51100000000E-03 0. -1.
        -11    1    3    3    0    0  0.14164748190E+02  0.14105016284E+01  0.24763361699E+00  0.14236956445E+02  0.51100000000E-03 0.  1.
        -12    1    3    3    0    0 -0.14457210649E+02 -0.21023692559E+02  0.27317915914E+02  0.37380143371E+02  0.00000000000E+00 0.  1.
</event>
<event>
 7    1  0.2944263E-013  0.7246157E+02  0.7816164E-02  0.1226708E+00
        -11   -1    0    0    0    0  0.00000000000E+00  0.00000000000E+00  0.45593999997E+02  0.45594000000E+02  0.51100000000E-03 0.  1.
         11   -1    0    0    0    0 -0.00000000000E+00 -0.00000000000E+00 -0.45593999997E+02  0.45594000000E+02  0.51100000000E-03 0. -1.
    9900012    2    1    2    0    0  0.67448213969E+01  0.12957643541E+02  0.11716909505E+02  0.72461571879E+02  0.70000002065E+02 0.  0.
         12    1    1    2    0    0 -0.67448213969E+01 -0.12957643541E+02 -0.11716909505E+02  0.18726428121E+02  0.00000000000E+00 0. -1.
         11    1    3    3    0    0  0.10246016512E+02  0.18838347655E+02  0.41481688036E+01  0.21841966519E+02  0.51100000000E-03 0. -1.
        -11    1    3    3    0    0  0.13596255719E+02  0.16817175364E+02  0.28249811325E+01  0.21809540927E+02  0.51100000000E-03 0.  1.
        -12    1    3    3    0    0 -0.17097450834E+02 -0.22697879477E+02  0.47437595686E+01  0.28810064433E+02  0.00000000000E+00 0.  1.
</event>
<event>
 7    1  0.2944263E-013  0.7246160E+02  0.7816164E-02  0.1226708E+00
        -11   -1    0    0    0    0  0.00000000000E+00  0.00000000000E+00  0.45593999997E+02  0.45594000000E+02  0.51100000000E-03 0.  1.
         11   -1    0    0    0    0 -0.00000000000E+00 -0.00000000000E+00 -0.45593999997E+02  0.45594000000E+02  0.51100000000E-03 0. -1.
    9900012    2    1    2    0    0 -0.97295174024E+01 -0.72098791826E-01  0.16000297855E+02  0.72461595151E+02  0.70000032380E+02 0.  0.
         12    1    1    2    0    0  0.97295174024E+01  0.72098791826E-01 -0.16000297855E+02  0.18726404849E+02  0.00000000000E+00 0. -1.
         11    1    3    3    0    0 -0.12360961458E+02  0.34303219302E+01  0.28792630878E+02  0.31521041699E+02  0.51100000000E-03 0. -1.
        -11    1    3    3    0    0  0.50958295217E+01 -0.30268878450E+01  0.13387411052E+02  0.14640775372E+02  0.51100000000E-03 0.  1.
         12    1    3    3    0    0 -0.24643854663E+01 -0.47553287703E+00 -0.26179744074E+02  0.26299778080E+02  0.00000000000E+00 0. -1.
</event>
<event>
 7    1  0.2944263E-013  0.7246156E+02  0.7816164E-02  0.1226708E+00
        -11   -1    0    0    0    0  0.00000000000E+00  0.00000000000E+00  0.45593999997E+02  0.45594000000E+02  0.51100000000E-03 0. -1.
         11   -1    0    0    0    0 -0.00000000000E+00 -0.00000000000E+00 -0.45593999997E+02  0.45594000000E+02  0.51100000000E-03 0.  1.
    9900012    2    1    2    0    0 -0.46689951564E+01 -0.15939193798E+02 -0.86499850123E+01  0.72461557321E+02  0.69999983100E+02 0.  0.
         12    1    1    2    0    0  0.46689951564E+01  0.15939193798E+02  0.86499850123E+01  0.18726442679E+02  0.00000000000E+00 0. -1.
         11    1    3    3    0    0 -0.25192650146E+02 -0.13422704493E+02 -0.48779318712E+01  0.28959158083E+02  0.51100000000E-03 0. -1.
        -11    1    3    3    0    0 -0.61131388548E+01 -0.38341449329E+01 -0.13341668236E+02  0.15168099605E+02  0.51100000000E-03 0.  1.
         12    1    3    3    0    0  0.26636793844E+02  0.13176556284E+01  0.95696150952E+01  0.28334299633E+02  0.00000000000E+00 0. -1.
</event>
<event>
 7    1  0.2944263E-013  0.7246157E+02  0.7816164E-02  0.1226708E+00
        -11   -1    0    0    0    0  0.00000000000E+00  0.00000000000E+00  0.45593999997E+02  0.45594000000E+02  0.51100000000E-03 0. -1.
         11   -1    0    0    0    0 -0.00000000000E+00 -0.00000000000E+00 -0.45593999997E+02  0.45594000000E+02  0.51100000000E-03 0.  1.
    9900012    2    1    2    0    0 -0.21127348397E+01  0.15820385039E+01 -0.18539491083E+02  0.72461568842E+02  0.69999998108E+02 0.  0.
         12    1    1    2    0    0  0.21127348397E+01 -0.15820385039E+01  0.18539491083E+02  0.18726431158E+02  0.00000000000E+00 0. -1.
         11    1    3    3    0    0  0.19963672721E+02 -0.10092507229E+02 -0.19182908491E+02  0.29468473139E+02  0.51100000000E-03 0. -1.
        -11    1    3    3    0    0 -0.82996008291E+00 -0.11478150087E+02  0.11475794164E+01  0.11565193554E+02  0.51100000000E-03 0.  1.
         12    1    3    3    0    0 -0.21246447478E+02  0.23152695820E+02 -0.50416200759E+00  0.31427902149E+02  0.00000000000E+00 0. -1.
</event>
<event>
 7    1  0.2944263E-013  0.7246158E+02  0.7816164E-02  0.1226708E+00
        -11   -1    0    0    0    0  0.00000000000E+00  0.00000000000E+00  0.45593999997E+02  0.45594000000E+02  0.51100000000E-03 0.  1.
         11   -1    0    0    0    0 -0.00000000000E+00 -0.00000000000E+00 -0.45593999997E+02  0.45594000000E+02  0.51100000000E-03 0. -1.
    9900012    2    1    2    0    0  0.14791710167E+02  0.11481492187E+02 -0.24394536536E+00  0.72461578509E+02  0.70000010701E+02 0.  0.
         12    1    1    2    0    0 -0.14791710167E+02 -0.11481492187E+02  0.24394536536E+00  0.18726421491E+02  0.00000000000E+00 0. -1.
         11    1    3    3    0    0  0.54388497005E+01 -0.14678661331E+02  0.35528135163E+01  0.16051998900E+02  0.51100000000E-03 0. -1.
        -11    1    3    3    0    0  0.15266042642E+01 -0.81493755655E+01  0.14532595378E+02  0.16731382829E+02  0.51100000000E-03 0.  1.
         12    1    3    3    0    0  0.78262562023E+01  0.34309529084E+02 -0.18329354260E+02  0.39678196780E+02  0.00000000000E+00 0. -1.
</event>
<event>
 7    1  0.2944263E-013  0.7246167E+02  0.7816164E-02  0.1226708E+00
        -11   -1    0    0    0    0  0.00000000000E+00  0.00000000000E+00  0.45593999997E+02  0.45594000000E+02  0.51100000000E-03 0.  1.
         11   -1    0    0    0    0 -0.00000000000E+00 -0.00000000000E+00 -0.45593999997E+02  0.45594000000E+02  0.51100000000E-03 0. -1.
    9900012    2    1    2    0    0  0.13780686890E+02  0.62671080340E+01  0.11022322206E+02  0.72461666641E+02  0.70000125509E+02 0.  0.
         12    1    1    2    0    0 -0.13780686890E+02 -0.62671080340E+01 -0.11022322206E+02  0.18726333359E+02  0.00000000000E+00 0. -1.
         11    1    3    3    0    0  0.12488470267E+02  0.22330279177E+01 -0.55868185807E+01  0.13862209255E+02  0.51100000000E-03 0. -1.
        -11    1    3    3    0    0  0.19406100435E+02  0.19177435959E+02 -0.36022951534E+01  0.27519943945E+02  0.51100000000E-03 0.  1.
         12    1    3    3    0    0 -0.18113883813E+02 -0.15143355843E+02  0.20211435941E+02  0.31079513441E+02  0.00000000000E+00 0. -1.
</event>
<event>
 7    1  0.2944263E-013  0.7246153E+02  0.7816164E-02  0.1226708E+00
        -11   -1    0    0    0    0  0.00000000000E+00  0.00000000000E+00  0.45593999997E+02  0.45594000000E+02  0.51100000000E-03 0.  1.
         11   -1    0    0    0    0 -0.00000000000E+00 -0.00000000000E+00 -0.45593999997E+02  0.45594000000E+02  0.51100000000E-03 0. -1.
    9900012    2    1    2    0    0 -0.10950459233E+02 -0.41380992759E+01  0.14616577743E+02  0.72461527616E+02  0.69999944403E+02 0.  0.
         12    1    1    2    0    0  0.10950459233E+02  0.41380992759E+01 -0.14616577743E+02  0.18726472384E+02  0.00000000000E+00 0. -1.
         11    1    3    3    0    0  0.11327082354E+02 -0.12574661244E+02 -0.83381371597E+01  0.18866622157E+02  0.51100000000E-03 0. -1.
        -11    1    3    3    0    0 -0.26594357454E+02 -0.28056067542E+01 -0.10245927836E+01  0.26761559527E+02  0.51100000000E-03 0.  1.
         12    1    3    3    0    0  0.43168158665E+01  0.11242168722E+02  0.23979307686E+02  0.26833345932E+02  0.00000000000E+00 0. -1.
</event>
<event>
 7    1  0.2944263E-013  0.7246160E+02  0.7816164E-02  0.1226708E+00
        -11   -1    0    0    0    0  0.00000000000E+00  0.00000000000E+00  0.45593999997E+02  0.45594000000E+02  0.51100000000E-03 0.  1.
         11   -1    0    0    0    0 -0.00000000000E+00 -0.00000000000E+00 -0.45593999997E+02  0.45594000000E+02  0.51100000000E-03 0. -1.
    9900012    2    1    2    0    0  0.34539598042E+01  0.13998602023E+02  0.11949365561E+02  0.72461600606E+02  0.70000039487E+02 0.  0.
         12    1    1    2    0    0 -0.34539598042E+01 -0.13998602023E+02 -0.11949365561E+02  0.18726399394E+02  0.00000000000E+00 0. -1.
         11    1    3    3    0    0 -0.38639538389E+00 -0.16654101764E+02 -0.65368171643E+01  0.17895205667E+02  0.51100000000E-03 0. -1.
        -11    1    3    3    0    0 -0.35908938069E+01 -0.92733265397E+01  0.76142918351E+01  0.12524637474E+02  0.51100000000E-03 0.  1.
         12    1    3    3    0    0  0.74312489950E+01  0.39926030327E+02  0.10871890890E+02  0.42041757466E+02  0.00000000000E+00 0. -1.
</event>
<event>
 7    1  0.2944263E-013  0.7246157E+02  0.7816164E-02  0.1226708E+00
        -11   -1    0    0    0    0  0.00000000000E+00  0.00000000000E+00  0.45593999997E+02  0.45594000000E+02  0.51100000000E-03 0.  1.
         11   -1    0    0    0    0 -0.00000000000E+00 -0.00000000000E+00 -0.45593999997E+02  0.45594000000E+02  0.51100000000E-03 0. -1.
    9900012    2    1    2    0    0 -0.15341554624E+02 -0.23822125744E+00  0.10735879410E+02  0.72461570699E+02  0.70000000528E+02 0.  0.
         12    1    1    2    0    0  0.15341554624E+02  0.23822125744E+00 -0.10735879410E+02  0.18726429301E+02  0.00000000000E+00 0. -1.
         11    1    3    3    0    0 -0.10151875572E+02 -0.16859116923E+01 -0.27761110063E+01  0.10658783629E+02  0.51100000000E-03 0. -1.
        -11    1    3    3    0    0 -0.30563658883E+02 -0.86205774728E+01  0.99579458034E+00  0.31771735984E+02  0.51100000000E-03 0.  1.
         12    1    3    3    0    0  0.25373979832E+02  0.10068267908E+02  0.12516195836E+02  0.30031051087E+02  0.00000000000E+00 0. -1.
</event>
<event>
 7    1  0.2944263E-013  0.7246162E+02  0.7816164E-02  0.1226708E+00
        -11   -1    0    0    0    0  0.00000000000E+00  0.00000000000E+00  0.45593999997E+02  0.45594000000E+02  0.51100000000E-03 0.  1.
         11   -1    0    0    0    0 -0.00000000000E+00 -0.00000000000E+00 -0.45593999997E+02  0.45594000000E+02  0.51100000000E-03 0. -1.
    9900012    2    1    2    0    0  0.16578913382E+02 -0.18378184942E+01  0.85111374127E+01  0.72461617386E+02  0.70000061345E+02 0.  0.
         12    1    1    2    0    0 -0.16578913382E+02  0.18378184942E+01 -0.85111374127E+01  0.18726382614E+02  0.00000000000E+00 0. -1.
         11    1    3    3    0    0  0.53187952538E+01  0.11490115419E+02  0.12995095280E+02  0.18143451625E+02  0.51100000000E-03 0. -1.
        -11    1    3    3    0    0  0.20213920185E+02 -0.23326617707E+02  0.11950802473E+02  0.33099174354E+02  0.51100000000E-03 0.  1.
         12    1    3    3    0    0 -0.89538020562E+01  0.99986837946E+01 -0.16434760340E+02  0.21218991407E+02  0.00000000000E+00 0. -1.
</event>
<event>
 7    1  0.2944263E-013  0.7246145E+02  0.7816164E-02  0.1226708E+00
        -11   -1    0    0    0    0  0.00000000000E+00  0.00000000000E+00  0.45593999997E+02  0.45594000000E+02  0.51100000000E-03 0.  1.
         11   -1    0    0    0    0 -0.00000000000E+00 -0.00000000000E+00 -0.45593999997E+02  0.45594000000E+02  0.51100000000E-03 0. -1.
    9900012    2    1    2    0    0 -0.82673685326E+01  0.16420854287E+02 -0.35623021827E+01  0.72461445730E+02  0.69999837732E+02 0.  0.
         12    1    1    2    0    0  0.82673685326E+01 -0.16420854287E+02  0.35623021827E+01  0.18726554270E+02  0.00000000000E+00 0. -1.
         11    1    3    3    0    0 -0.27766792094E+02  0.46233048767E+01 -0.39237065579E+00  0.28151796500E+02  0.51100000000E-03 0. -1.
        -11    1    3    3    0    0 -0.65740609755E+01 -0.87712406081E+01 -0.14735370136E+00  0.10962420029E+02  0.51100000000E-03 0.  1.
         12    1    3    3    0    0  0.26073484537E+02  0.20568790018E+02 -0.30225778256E+01  0.33347229202E+02  0.00000000000E+00 0. -1.
</event>
<event>
 7    1  0.2944263E-013  0.7246160E+02  0.7816164E-02  0.1226708E+00
        -11   -1    0    0    0    0  0.00000000000E+00  0.00000000000E+00  0.45593999997E+02  0.45594000000E+02  0.51100000000E-03 0.  1.
         11   -1    0    0    0    0 -0.00000000000E+00 -0.00000000000E+00 -0.45593999997E+02  0.45594000000E+02  0.51100000000E-03 0. -1.
    9900012    2    1    2    0    0 -0.11510443189E+02  0.81815805234E+01 -0.12298360351E+02  0.72461595391E+02  0.70000032693E+02 0.  0.
         12    1    1    2    0    0  0.11510443189E+02 -0.81815805234E+01  0.12298360351E+02  0.18726404609E+02  0.00000000000E+00 0. -1.
         11    1    3    3    0    0 -0.14781498313E+02 -0.10207294039E+02 -0.15015535410E+02  0.23412557483E+02  0.51100000000E-03 0. -1.
        -11    1    3    3    0    0 -0.63006973424E+01  0.24151288646E+02 -0.14244577683E+02  0.28738328481E+02  0.51100000000E-03 0.  1.
        -12    1    3    3    0    0  0.95717524672E+01 -0.57624140832E+01  0.16961752742E+02  0.20310709427E+02  0.00000000000E+00 0.  1.
</event>
<event>
 7    1  0.2944263E-013  0.7246156E+02  0.7816164E-02  0.1226708E+00
        -11   -1    0    0    0    0  0.00000000000E+00  0.00000000000E+00  0.45593999997E+02  0.45594000000E+02  0.51100000000E-03 0. -1.
         11   -1    0    0    0    0 -0.00000000000E+00 -0.00000000000E+00 -0.45593999997E+02  0.45594000000E+02  0.51100000000E-03 0.  1.
    9900012    2    1    2    0    0  0.11435627112E+02 -0.39602671864E+01 -0.14290642103E+02  0.72461555187E+02  0.69999980319E+02 0.  0.
         12    1    1    2    0    0 -0.11435627112E+02  0.39602671864E+01  0.14290642103E+02  0.18726444813E+02  0.00000000000E+00 0. -1.
         11    1    3    3    0    0  0.24955760997E+01 -0.12984137305E+02 -0.21328871984E+01  0.13392719279E+02  0.51100000000E-03 0. -1.
        -11    1    3    3    0    0  0.44801403788E+01  0.42986641960E+01 -0.34883870409E+02  0.35432112366E+02  0.51100000000E-03 0.  1.
         12    1    3    3    0    0  0.44599106340E+01  0.47252059222E+01  0.22726115505E+02  0.23636723542E+02  0.00000000000E+00 0. -1.
</event>
<event>
 7    1  0.2944263E-013  0.7246157E+02  0.7816164E-02  0.1226708E+00
        -11   -1    0    0    0    0  0.00000000000E+00  0.00000000000E+00  0.45593999997E+02  0.45594000000E+02  0.51100000000E-03 0.  1.
         11   -1    0    0    0    0 -0.00000000000E+00 -0.00000000000E+00 -0.45593999997E+02  0.45594000000E+02  0.51100000000E-03 0. -1.
    9900012    2    1    2    0    0 -0.17290745368E+02  0.68939970912E+01  0.20450580461E+01  0.72461565911E+02  0.69999994290E+02 0.  0.
         12    1    1    2    0    0  0.17290745368E+02 -0.68939970912E+01 -0.20450580461E+01  0.18726434089E+02  0.00000000000E+00 0. -1.
         11    1    3    3    0    0  0.89428293945E+01  0.10491352601E+02 -0.26143698593E+01  0.14031308100E+02  0.51100000000E-03 0. -1.
        -11    1    3    3    0    0 -0.66132669355E+01  0.12583173269E+02  0.23025640103E+02  0.27060148771E+02  0.51100000000E-03 0.  1.
        -12    1    3    3    0    0 -0.19620307827E+02 -0.16180528779E+02 -0.18366212197E+02  0.31370109041E+02  0.00000000000E+00 0.  1.
</event>
<event>
 7    1  0.2944263E-013  0.7246146E+02  0.7816164E-02  0.1226708E+00
        -11   -1    0    0    0    0  0.00000000000E+00  0.00000000000E+00  0.45593999997E+02  0.45594000000E+02  0.51100000000E-03 0. -1.
         11   -1    0    0    0    0 -0.00000000000E+00 -0.00000000000E+00 -0.45593999997E+02  0.45594000000E+02  0.51100000000E-03 0.  1.
    9900012    2    1    2    0    0  0.79875955188E+01 -0.16810226112E+02 -0.20731385200E+01  0.72461460345E+02  0.69999856771E+02 0.  0.
         12    1    1    2    0    0 -0.79875955188E+01  0.16810226112E+02  0.20731385200E+01  0.18726539655E+02  0.00000000000E+00 0. -1.
         11    1    3    3    0    0 -0.11929270194E+02  0.72497676536E+01 -0.36017173277E+01  0.14416621878E+02  0.51100000000E-03 0. -1.
        -11    1    3    3    0    0 -0.50099667640E+01 -0.20104060976E+02 -0.16946450970E+02  0.26766681443E+02  0.51100000000E-03 0.  1.
        -12    1    3    3    0    0  0.24926832477E+02 -0.39559327896E+01  0.18475029778E+02  0.31278157025E+02  0.00000000000E+00 0.  1.
</event>
<event>
 7    1  0.2944263E-013  0.7246155E+02  0.7816164E-02  0.1226708E+00
        -11   -1    0    0    0    0  0.00000000000E+00  0.00000000000E+00  0.45593999997E+02  0.45594000000E+02  0.51100000000E-03 0. -1.
         11   -1    0    0    0    0 -0.00000000000E+00 -0.00000000000E+00 -0.45593999997E+02  0.45594000000E+02  0.51100000000E-03 0.  1.
    9900012    2    1    2    0    0 -0.56225305363E+01 -0.17837978994E+02 -0.93472455782E+00  0.72461546672E+02  0.69999969228E+02 0.  0.
         12    1    1    2    0    0  0.56225305363E+01  0.17837978994E+02  0.93472455782E+00  0.18726453328E+02  0.00000000000E+00 0. -1.
         11    1    3    3    0    0 -0.25639696792E+02  0.19727439698E+01 -0.11238980250E+02  0.28064220062E+02  0.51100000000E-03 0. -1.
        -11    1    3    3    0    0  0.75935666230E+01  0.14029759260E+01  0.17209057589E+02  0.18862191254E+02  0.51100000000E-03 0.  1.
        -12    1    3    3    0    0  0.12423599633E+02 -0.21213698890E+02 -0.69048018972E+01  0.25535135357E+02  0.00000000000E+00 0.  1.
</event>
<event>
 7    1  0.2944263E-013  0.7246163E+02  0.7816164E-02  0.1226708E+00
        -11   -1    0    0    0    0  0.00000000000E+00  0.00000000000E+00  0.45593999997E+02  0.45594000000E+02  0.51100000000E-03 0. -1.
         11   -1    0    0    0    0 -0.00000000000E+00 -0.00000000000E+00 -0.45593999997E+02  0.45594000000E+02  0.51100000000E-03 0.  1.
    9900012    2    1    2    0    0  0.17994463236E+02 -0.17118160889E+01 -0.48934484096E+01  0.72461631991E+02  0.70000080372E+02 0.  0.
         12    1    1    2    0    0 -0.17994463236E+02  0.17118160889E+01  0.48934484096E+01  0.18726368009E+02  0.00000000000E+00 0. -1.
         11    1    3    3    0    0  0.36495498586E+01  0.51882273310E+01 -0.12585863861E+02  0.14094001788E+02  0.51100000000E-03 0. -1.
        -11    1    3    3    0    0 -0.32424475332E+01  0.74893520535E+01 -0.20554220040E+02  0.22115149150E+02  0.51100000000E-03 0.  1.
         12    1    3    3    0    0  0.17587360910E+02 -0.14389395473E+02  0.28246635492E+02  0.36252481053E+02  0.00000000000E+00 0. -1.
</event>
<event>
 7    1  0.2944263E-013  0.7246157E+02  0.7816164E-02  0.1226708E+00
        -11   -1    0    0    0    0  0.00000000000E+00  0.00000000000E+00  0.45593999997E+02  0.45594000000E+02  0.51100000000E-03 0.  1.
         11   -1    0    0    0    0 -0.00000000000E+00 -0.00000000000E+00 -0.45593999997E+02  0.45594000000E+02  0.51100000000E-03 0. -1.
    9900012    2    1    2    0    0 -0.14517302730E+02 -0.71983567413E+01  0.93867304422E+01  0.72461571437E+02  0.70000001489E+02 0.  0.
         12    1    1    2    0    0  0.14517302730E+02  0.71983567413E+01 -0.93867304422E+01  0.18726428563E+02  0.00000000000E+00 0. -1.
         11    1    3    3    0    0  0.63969595520E+01  0.63050794753E+01 -0.14517355782E+02  0.17071284013E+02  0.51100000000E-03 0. -1.
        -11    1    3    3    0    0  0.10825791563E+02  0.47782831398E+01  0.34320217796E+00  0.11838392658E+02  0.51100000000E-03 0.  1.
        -12    1    3    3    0    0 -0.31740053845E+02 -0.18281719356E+02  0.23560884046E+02  0.43551894766E+02  0.00000000000E+00 0.  1.
</event>
<event>
 7    1  0.2944263E-013  0.7246158E+02  0.7816164E-02  0.1226708E+00
        -11   -1    0    0    0    0  0.00000000000E+00  0.00000000000E+00  0.45593999997E+02  0.45594000000E+02  0.51100000000E-03 0.  1.
         11   -1    0    0    0    0 -0.00000000000E+00 -0.00000000000E+00 -0.45593999997E+02  0.45594000000E+02  0.51100000000E-03 0. -1.
    9900012    2    1    2    0    0  0.91465033418E+01 -0.41861681402E+01  0.15795446123E+02  0.72461584291E+02  0.70000018234E+02 0.  0.
         12    1    1    2    0    0 -0.91465033418E+01  0.41861681402E+01 -0.15795446123E+02  0.18726415709E+02  0.00000000000E+00 0. -1.
         11    1    3    3    0    0 -0.94033845203E+01 -0.46611545532E+01  0.14868292519E+02  0.18199344079E+02  0.51100000000E-03 0. -1.
        -11    1    3    3    0    0  0.22846142976E+02 -0.16183673715E+02  0.15245841418E+02  0.31879354206E+02  0.51100000000E-03 0.  1.
         12    1    3    3    0    0 -0.42962551135E+01  0.16658660128E+02 -0.14318687814E+02  0.22382886007E+02  0.00000000000E+00 0. -1.
</event>
<event>
 7    1  0.2944263E-013  0.7246145E+02  0.7816164E-02  0.1226708E+00
        -11   -1    0    0    0    0  0.00000000000E+00  0.00000000000E+00  0.45593999997E+02  0.45594000000E+02  0.51100000000E-03 0.  1.
         11   -1    0    0    0    0 -0.00000000000E+00 -0.00000000000E+00 -0.45593999997E+02  0.45594000000E+02  0.51100000000E-03 0. -1.
    9900012    2    1    2    0    0 -0.87948865114E+01 -0.72204818621E+01  0.14872737745E+02  0.72461448927E+02  0.69999841896E+02 0.  0.
         12    1    1    2    0    0  0.87948865114E+01  0.72204818621E+01 -0.14872737745E+02  0.18726551073E+02  0.00000000000E+00 0. -1.
         11    1    3    3    0    0 -0.11057266998E+01 -0.16798084573E+02 -0.85928810099E+01  0.18900684674E+02  0.51100000000E-03 0.  1.
        -11    1    3    3    0    0  0.49417819831E+01  0.16900556487E+02 -0.76436923102E+01  0.19195730024E+02  0.51100000000E-03 0. -1.
        -12    1    3    3    0    0 -0.12630941795E+02 -0.73229537764E+01  0.31109311065E+02  0.34365034229E+02  0.00000000000E+00 0.  1.
</event>
<event>
 7    1  0.2944263E-013  0.7246149E+02  0.7816164E-02  0.1226708E+00
        -11   -1    0    0    0    0  0.00000000000E+00  0.00000000000E+00  0.45593999997E+02  0.45594000000E+02  0.51100000000E-03 0. -1.
         11   -1    0    0    0    0 -0.00000000000E+00 -0.00000000000E+00 -0.45593999997E+02  0.45594000000E+02  0.51100000000E-03 0.  1.
    9900012    2    1    2    0    0 -0.17292371172E+02 -0.67864339320E+01  0.23665430442E+01  0.72461486383E+02  0.69999890690E+02 0.  0.
         12    1    1    2    0    0  0.17292371172E+02  0.67864339320E+01 -0.23665430442E+01  0.18726513617E+02  0.00000000000E+00 0. -1.
         11    1    3    3    0    0  0.75556145574E+01 -0.15143452212E+02  0.17743923169E+02  0.24520568222E+02  0.51100000000E-03 0. -1.
        -11    1    3    3    0    0 -0.11264446737E+02  0.19140939812E+02  0.32992338177E+01  0.22453246563E+02  0.51100000000E-03 0.  1.
        -12    1    3    3    0    0 -0.13583538993E+02 -0.10783921531E+02 -0.18676613942E+02  0.25487671599E+02  0.00000000000E+00 0.  1.
</event>
<event>
 7    1  0.2944263E-013  0.7246155E+02  0.7816164E-02  0.1226708E+00
        -11   -1    0    0    0    0  0.00000000000E+00  0.00000000000E+00  0.45593999997E+02  0.45594000000E+02  0.51100000000E-03 0.  1.
         11   -1    0    0    0    0 -0.00000000000E+00 -0.00000000000E+00 -0.45593999997E+02  0.45594000000E+02  0.51100000000E-03 0. -1.
    9900012    2    1    2    0    0  0.17710987886E+01  0.11852322981E+01  0.18604797259E+02  0.72461546850E+02  0.69999969460E+02 0.  0.
         12    1    1    2    0    0 -0.17710987886E+01 -0.11852322981E+01 -0.18604797259E+02  0.18726453150E+02  0.00000000000E+00 0. -1.
         11    1    3    3    0    0  0.17925099663E+02  0.97287776584E+01  0.70727100106E+01  0.21586605565E+02  0.51100000000E-03 0. -1.
        -11    1    3    3    0    0 -0.18546923844E+02  0.16201607799E+02  0.44537472506E+01  0.25026313036E+02  0.51100000000E-03 0.  1.
         12    1    3    3    0    0  0.23929229695E+01 -0.24745153160E+02  0.70783399979E+01  0.25848628249E+02  0.00000000000E+00 0. -1.
</event>
<event>
 7    1  0.2944263E-013  0.7246152E+02  0.7816164E-02  0.1226708E+00
        -11   -1    0    0    0    0  0.00000000000E+00  0.00000000000E+00  0.45593999997E+02  0.45594000000E+02  0.51100000000E-03 0. -1.
         11   -1    0    0    0    0 -0.00000000000E+00 -0.00000000000E+00 -0.45593999997E+02  0.45594000000E+02  0.51100000000E-03 0.  1.
    9900012    2    1    2    0    0 -0.15829253098E+02 -0.31287156420E+01 -0.95040439153E+01  0.72461522329E+02  0.69999937517E+02 0.  0.
         12    1    1    2    0    0  0.15829253098E+02  0.31287156420E+01  0.95040439153E+01  0.18726477671E+02  0.00000000000E+00 0. -1.
         11    1    3    3    0    0 -0.13308435006E+01  0.13286469312E+02  0.86253341285E+01  0.15896471316E+02  0.51100000000E-03 0.  1.
        -11    1    3    3    0    0  0.11783994149E+02  0.19142823331E+01  0.87009261623E+01  0.14772715095E+02  0.51100000000E-03 0. -1.
        -12    1    3    3    0    0 -0.26282403746E+02 -0.18329467287E+02 -0.26830304206E+02  0.41792335918E+02  0.00000000000E+00 0.  1.
</event>
<event>
 7    1  0.2944263E-013  0.7246153E+02  0.7816164E-02  0.1226708E+00
        -11   -1    0    0    0    0  0.00000000000E+00  0.00000000000E+00  0.45593999997E+02  0.45594000000E+02  0.51100000000E-03 0.  1.
         11   -1    0    0    0    0 -0.00000000000E+00 -0.00000000000E+00 -0.45593999997E+02  0.45594000000E+02  0.51100000000E-03 0. -1.
    9900012    2    1    2    0    0  0.17474030562E+02 -0.67264546235E+01  0.30621706421E+00  0.72461529303E+02  0.69999946601E+02 0.  0.
         12    1    1    2    0    0 -0.17474030562E+02  0.67264546235E+01 -0.30621706421E+00  0.18726470697E+02  0.00000000000E+00 0. -1.
         11    1    3    3    0    0 -0.30641097254E+01 -0.12499599222E+02 -0.80240967300E+01  0.15166241384E+02  0.51100000000E-03 0. -1.
        -11    1    3    3    0    0 -0.97498654322E+01  0.95149108690E+01 -0.13958232301E+02  0.19504503429E+02  0.51100000000E-03 0.  1.
        -12    1    3    3    0    0  0.30288005719E+02 -0.37417662701E+01  0.22288546095E+02  0.37790784489E+02  0.00000000000E+00 0.  1.
</event>
<event>
 7    1  0.2944263E-013  0.7246160E+02  0.7816164E-02  0.1226708E+00
        -11   -1    0    0    0    0  0.00000000000E+00  0.00000000000E+00  0.45593999997E+02  0.45594000000E+02  0.51100000000E-03 0.  1.
         11   -1    0    0    0    0 -0.00000000000E+00 -0.00000000000E+00 -0.45593999997E+02  0.45594000000E+02  0.51100000000E-03 0. -1.
    9900012    2    1    2    0    0 -0.12333456711E+02 -0.13062667900E+02  0.52849590404E+01  0.72461595135E+02  0.70000032359E+02 0.  0.
         12    1    1    2    0    0  0.12333456711E+02  0.13062667900E+02 -0.52849590404E+01  0.18726404865E+02  0.00000000000E+00 0. -1.
         11    1    3    3    0    0 -0.32053923603E+02 -0.35194325053E+01  0.14798354505E+02  0.35480018599E+02  0.51100000000E-03 0. -1.
        -11    1    3    3    0    0 -0.52842921356E+01 -0.18423281439E+01  0.46088429080E+01  0.72497827261E+01  0.51100000000E-03 0.  1.
         12    1    3    3    0    0  0.25004759027E+02 -0.77009072511E+01 -0.14122238372E+02  0.29731793810E+02  0.00000000000E+00 0. -1.
</event>
<event>
 7    1  0.2944263E-013  0.7246162E+02  0.7816164E-02  0.1226708E+00
        -11   -1    0    0    0    0  0.00000000000E+00  0.00000000000E+00  0.45593999997E+02  0.45594000000E+02  0.51100000000E-03 0.  1.
         11   -1    0    0    0    0 -0.00000000000E+00 -0.00000000000E+00 -0.45593999997E+02  0.45594000000E+02  0.51100000000E-03 0. -1.
    9900012    2    1    2    0    0  0.50454493318E+01 -0.36527476666E+01  0.17660078132E+02  0.72461615295E+02  0.70000058622E+02 0.  0.
         12    1    1    2    0    0 -0.50454493318E+01  0.36527476666E+01 -0.17660078132E+02  0.18726384705E+02  0.00000000000E+00 0. -1.
         11    1    3    3    0    0  0.31632474018E+01 -0.23017309857E+01 -0.17338631010E+01  0.42790631182E+01  0.51100000000E-03 0. -1.
        -11    1    3    3    0    0  0.30618448256E+02  0.12943513000E+02  0.10882390796E+02  0.34977854881E+02  0.51100000000E-03 0.  1.
         12    1    3    3    0    0 -0.28736246326E+02 -0.14294529681E+02  0.85115504370E+01  0.33204697296E+02  0.00000000000E+00 0. -1.
</event>
<event>
 7    1  0.2944263E-013  0.7246157E+02  0.7816164E-02  0.1226708E+00
        -11   -1    0    0    0    0  0.00000000000E+00  0.00000000000E+00  0.45593999997E+02  0.45594000000E+02  0.51100000000E-03 0. -1.
         11   -1    0    0    0    0 -0.00000000000E+00 -0.00000000000E+00 -0.45593999997E+02  0.45594000000E+02  0.51100000000E-03 0.  1.
    9900012    2    1    2    0    0  0.13103365938E+02  0.94052555132E+01  0.95143158956E+01  0.72461568489E+02  0.69999997648E+02 0.  0.
         12    1    1    2    0    0 -0.13103365938E+02 -0.94052555132E+01 -0.95143158956E+01  0.18726431511E+02  0.00000000000E+00 0. -1.
         11    1    3    3    0    0  0.21399764978E+02 -0.95607129236E+01  0.24870762749E+02  0.34174727691E+02  0.51100000000E-03 0. -1.
        -11    1    3    3    0    0  0.82690868021E+01 -0.16395130137E+01 -0.19912991295E+01  0.86620477918E+01  0.51100000000E-03 0.  1.
        -12    1    3    3    0    0 -0.16565485842E+02  0.20605481451E+02 -0.13365147724E+02  0.29624793006E+02  0.00000000000E+00 0.  1.
</event>
