<event>
 7    1  0.4081218E-008  0.4614231E+02  0.7816164E-02  0.1320468E+00
        -11   -1    0    0    0    0  0.00000000000E+00  0.00000000000E+00  0.45593999997E+02  0.45594000000E+02  0.51100000000E-03 0.  1.
         11   -1    0    0    0    0 -0.00000000000E+00 -0.00000000000E+00 -0.45593999997E+02  0.45594000000E+02  0.51100000000E-03 0. -1.
    9900012    2    1    2    0    0  0.20742406660E+02 -0.12144939897E+02 -0.38096811164E+02  0.46142311860E+02  0.99999461911E+01 0.  0.
        -12    1    1    2    0    0 -0.20742406660E+02  0.12144939897E+02  0.38096811164E+02  0.45045688140E+02  0.00000000000E+00 0.  1.
         11    1    3    3    0    0  0.35780413171E+01 -0.50647250923E+01 -0.12839175120E+02  0.14258269107E+02  0.51100000000E-03 0. -1.
        -11    1    3    3    0    0  0.56528764162E+01 -0.54107001095E+01 -0.99428293931E+01  0.12652689202E+02  0.51100000000E-03 0.  1.
         12    1    3    3    0    0  0.11511488927E+02 -0.16695146952E+01 -0.15314806651E+02  0.19231353550E+02  0.00000000000E+00 0. -1.
</event>
<event>
 7    1  0.4081218E-008  0.4614232E+02  0.7816164E-02  0.1320468E+00
        -11   -1    0    0    0    0  0.00000000000E+00  0.00000000000E+00  0.45593999997E+02  0.45594000000E+02  0.51100000000E-03 0.  1.
         11   -1    0    0    0    0 -0.00000000000E+00 -0.00000000000E+00 -0.45593999997E+02  0.45594000000E+02  0.51100000000E-03 0. -1.
    9900012    2    1    2    0    0 -0.38352567378E+02  0.13899397428E+02 -0.19104995696E+02  0.46142317256E+02  0.99999953931E+01 0.  0.
        -12    1    1    2    0    0  0.38352567378E+02 -0.13899397428E+02  0.19104995696E+02  0.45045682744E+02  0.00000000000E+00 0.  1.
         11    1    3    3    0    0 -0.18757303921E+02  0.27790109364E+01 -0.74054869966E+01  0.20356831533E+02  0.51100000000E-03 0. -1.
        -11    1    3    3    0    0 -0.12966767800E+02  0.53352672304E+01 -0.86449990190E+01  0.16472345064E+02  0.51100000000E-03 0.  1.
        -12    1    3    3    0    0 -0.66284956572E+01  0.57851192614E+01 -0.30545096809E+01  0.93131406591E+01  0.00000000000E+00 0.  1.
</event>
<event>
 7    1  0.4081218E-008  0.4614232E+02  0.7816164E-02  0.1320468E+00
        -11   -1    0    0    0    0  0.00000000000E+00  0.00000000000E+00  0.45593999997E+02  0.45594000000E+02  0.51100000000E-03 0.  1.
         11   -1    0    0    0    0 -0.00000000000E+00 -0.00000000000E+00 -0.45593999997E+02  0.45594000000E+02  0.51100000000E-03 0. -1.
    9900012    2    1    2    0    0 -0.17270311588E+02  0.97638722314E+01 -0.40441521177E+02  0.46142317649E+02  0.99999989822E+01 0.  0.
        -12    1    1    2    0    0  0.17270311588E+02 -0.97638722314E+01  0.40441521177E+02  0.45045682351E+02  0.00000000000E+00 0.  1.
         11    1    3    3    0    0 -0.12525724868E+02  0.66688698088E+01 -0.18690105834E+02  0.23466735272E+02  0.51100000000E-03 0.  1.
        -11    1    3    3    0    0 -0.38204835047E+01  0.12436471828E+01 -0.10643576540E+02  0.11376663586E+02  0.51100000000E-03 0. -1.
        -12    1    3    3    0    0 -0.92410321597E+00  0.18513552398E+01 -0.11107838803E+02  0.11298918791E+02  0.00000000000E+00 0.  1.
</event>
<event>
 7    1  0.4081218E-008  0.4614232E+02  0.7816164E-02  0.1320468E+00
        -11   -1    0    0    0    0  0.00000000000E+00  0.00000000000E+00  0.45593999997E+02  0.45594000000E+02  0.51100000000E-03 0.  1.
         11   -1    0    0    0    0 -0.00000000000E+00 -0.00000000000E+00 -0.45593999997E+02  0.45594000000E+02  0.51100000000E-03 0. -1.
    9900012    2    1    2    0    0  0.27472603462E+02 -0.16277398262E+02 -0.31771303300E+02  0.46142319313E+02  0.10000014156E+02 0.  0.
        -12    1    1    2    0    0 -0.27472603462E+02  0.16277398262E+02  0.31771303300E+02  0.45045680687E+02  0.00000000000E+00 0.  1.
         11    1    3    3    0    0  0.45357723026E+01 -0.34669044169E+01 -0.22535827215E+01  0.61376943521E+01  0.51100000000E-03 0.  1.
        -11    1    3    3    0    0  0.64344605283E+01 -0.92996688549E+00 -0.53426868393E+01  0.84149523838E+01  0.51100000000E-03 0. -1.
         12    1    3    3    0    0  0.16502370631E+02 -0.11880526959E+02 -0.24175033739E+02  0.31589672578E+02  0.00000000000E+00 0. -1.
</event>
<event>
 7    1  0.4081218E-008  0.4614232E+02  0.7816164E-02  0.1320468E+00
        -11   -1    0    0    0    0  0.00000000000E+00  0.00000000000E+00  0.45593999997E+02  0.45594000000E+02  0.51100000000E-03 0.  1.
         11   -1    0    0    0    0 -0.00000000000E+00 -0.00000000000E+00 -0.45593999997E+02  0.45594000000E+02  0.51100000000E-03 0. -1.
    9900012    2    1    2    0    0 -0.68006866410E+00 -0.44803078677E+02 -0.46189935102E+01  0.46142318150E+02  0.10000003545E+02 0.  0.
        -12    1    1    2    0    0  0.68006866410E+00  0.44803078677E+02  0.46189935102E+01  0.45045681850E+02  0.00000000000E+00 0.  1.
         11    1    3    3    0    0 -0.15570401577E+01 -0.31905993726E+02 -0.28920151376E+00  0.31945272694E+02  0.51100000000E-03 0. -1.
        -11    1    3    3    0    0  0.92950812614E-01  0.27258797067E+00 -0.26681180433E+00  0.39259757433E+00  0.51100000000E-03 0.  1.
         12    1    3    3    0    0  0.78402068100E+00 -0.13169672921E+02 -0.40629801921E+01  0.13804447882E+02  0.00000000000E+00 0. -1.
</event>
<event>
 7    1  0.4081218E-008  0.4614232E+02  0.7816164E-02  0.1320468E+00
        -11   -1    0    0    0    0  0.00000000000E+00  0.00000000000E+00  0.45593999997E+02  0.45594000000E+02  0.51100000000E-03 0.  1.
         11   -1    0    0    0    0 -0.00000000000E+00 -0.00000000000E+00 -0.45593999997E+02  0.45594000000E+02  0.51100000000E-03 0. -1.
    9900012    2    1    2    0    0  0.19111053922E+02  0.34413680661E+02 -0.21899307982E+02  0.46142317757E+02  0.99999999598E+01 0.  0.
        -12    1    1    2    0    0 -0.19111053922E+02 -0.34413680661E+02  0.21899307982E+02  0.45045682243E+02  0.00000000000E+00 0.  1.
         11    1    3    3    0    0  0.50098256807E+01  0.68596529122E+01 -0.18691956774E+01  0.86975332232E+01  0.51100000000E-03 0. -1.
        -11    1    3    3    0    0  0.89638073827E+01  0.10555556271E+02 -0.79541041446E+01  0.15969889918E+02  0.51100000000E-03 0.  1.
         12    1    3    3    0    0  0.51374208584E+01  0.16998471478E+02 -0.12076008160E+02  0.21474894615E+02  0.00000000000E+00 0. -1.
</event>
<event>
 7    1  0.4081218E-008  0.4614232E+02  0.7816164E-02  0.1320468E+00
        -11   -1    0    0    0    0  0.00000000000E+00  0.00000000000E+00  0.45593999997E+02  0.45594000000E+02  0.51100000000E-03 0. -1.
         11   -1    0    0    0    0 -0.00000000000E+00 -0.00000000000E+00 -0.45593999997E+02  0.45594000000E+02  0.51100000000E-03 0.  1.
    9900012    2    1    2    0    0  0.41509851102E+02 -0.14151994992E+02  0.10284298284E+02  0.46142317722E+02  0.99999996394E+01 0.  0.
        -12    1    1    2    0    0 -0.41509851102E+02  0.14151994992E+02 -0.10284298284E+02  0.45045682278E+02  0.00000000000E+00 0.  1.
         11    1    3    3    0    0  0.41224127048E+00 -0.16846767396E+01  0.14397184919E+01  0.22540781218E+01  0.51100000000E-03 0.  1.
        -11    1    3    3    0    0  0.16293842281E+02 -0.39902618184E+01  0.33998071315E+01  0.17116371533E+02  0.51100000000E-03 0. -1.
        -12    1    3    3    0    0  0.24803767551E+02 -0.84770564336E+01  0.54447726603E+01  0.26771868067E+02  0.00000000000E+00 0.  1.
</event>
<event>
 7    1  0.4081218E-008  0.4614232E+02  0.7816164E-02  0.1320468E+00
        -11   -1    0    0    0    0  0.00000000000E+00  0.00000000000E+00  0.45593999997E+02  0.45594000000E+02  0.51100000000E-03 0. -1.
         11   -1    0    0    0    0 -0.00000000000E+00 -0.00000000000E+00 -0.45593999997E+02  0.45594000000E+02  0.51100000000E-03 0.  1.
    9900012    2    1    2    0    0  0.26541269382E+02 -0.31417596716E+02 -0.18374139354E+02  0.46142319177E+02  0.10000012910E+02 0.  0.
        -12    1    1    2    0    0 -0.26541269382E+02  0.31417596716E+02  0.18374139354E+02  0.45045680823E+02  0.00000000000E+00 0.  1.
         11    1    3    3    0    0  0.14740972994E+02 -0.16319619245E+02 -0.11789950479E+02  0.24952538742E+02  0.51100000000E-03 0. -1.
        -11    1    3    3    0    0  0.69518521356E+01 -0.74987843007E+01 -0.35300491791E+00  0.10231550559E+02  0.51100000000E-03 0.  1.
        -12    1    3    3    0    0  0.48484442524E+01 -0.75991931707E+01 -0.62311839571E+01  0.10958229876E+02  0.00000000000E+00 0.  1.
</event>
<event>
 7    1  0.4081218E-008  0.4614232E+02  0.7816164E-02  0.1320468E+00
        -11   -1    0    0    0    0  0.00000000000E+00  0.00000000000E+00  0.45593999997E+02  0.45594000000E+02  0.51100000000E-03 0. -1.
         11   -1    0    0    0    0 -0.00000000000E+00 -0.00000000000E+00 -0.45593999997E+02  0.45594000000E+02  0.51100000000E-03 0.  1.
    9900012    2    1    2    0    0 -0.13654365413E+02  0.41669416181E+02  0.10311714576E+02  0.46142318773E+02  0.10000009226E+02 0.  0.
        -12    1    1    2    0    0  0.13654365413E+02 -0.41669416181E+02 -0.10311714576E+02  0.45045681227E+02  0.00000000000E+00 0.  1.
         11    1    3    3    0    0 -0.79224863236E+00  0.55740315556E+01  0.24646032941E+01  0.61458730329E+01  0.51100000000E-03 0. -1.
        -11    1    3    3    0    0 -0.38059457226E+00  0.12421992764E+02  0.32067786487E+01  0.12834881613E+02  0.51100000000E-03 0.  1.
        -12    1    3    3    0    0 -0.12481522209E+02  0.23673391862E+02  0.46403326332E+01  0.27161564127E+02  0.00000000000E+00 0.  1.
</event>
<event>
 7    1  0.4081218E-008  0.4614232E+02  0.7816164E-02  0.1320468E+00
        -11   -1    0    0    0    0  0.00000000000E+00  0.00000000000E+00  0.45593999997E+02  0.45594000000E+02  0.51100000000E-03 0.  1.
         11   -1    0    0    0    0 -0.00000000000E+00 -0.00000000000E+00 -0.45593999997E+02  0.45594000000E+02  0.51100000000E-03 0. -1.
    9900012    2    1    2    0    0  0.41556604109E+02  0.10122294430E+02 -0.14131577203E+02  0.46142315813E+02  0.99999822380E+01 0.  0.
        -12    1    1    2    0    0 -0.41556604109E+02 -0.10122294430E+02  0.14131577203E+02  0.45045684187E+02  0.00000000000E+00 0.  1.
         11    1    3    3    0    0  0.43940934332E+01 -0.12086215314E+01  0.11193992203E+00  0.45586570296E+01  0.51100000000E-03 0.  1.
        -11    1    3    3    0    0  0.77157972224E+01  0.11075036737E+01 -0.16664652668E+01  0.79710223881E+01  0.51100000000E-03 0. -1.
        -12    1    3    3    0    0  0.29446713453E+02  0.10223412288E+02 -0.12577051859E+02  0.33612636396E+02  0.00000000000E+00 0.  1.
</event>
<event>
 7    1  0.4081218E-008  0.4614232E+02  0.7816164E-02  0.1320468E+00
        -11   -1    0    0    0    0  0.00000000000E+00  0.00000000000E+00  0.45593999997E+02  0.45594000000E+02  0.51100000000E-03 0.  1.
         11   -1    0    0    0    0 -0.00000000000E+00 -0.00000000000E+00 -0.45593999997E+02  0.45594000000E+02  0.51100000000E-03 0. -1.
    9900012    2    1    2    0    0  0.10241821141E+02  0.43694587149E+02  0.38732206256E+01  0.46142315585E+02  0.99999801568E+01 0.  0.
        -12    1    1    2    0    0 -0.10241821141E+02 -0.43694587149E+02 -0.38732206256E+01  0.45045684415E+02  0.00000000000E+00 0.  1.
         11    1    3    3    0    0  0.27373528865E+01  0.12109313138E+02  0.52466557794E+01  0.13477980658E+02  0.51100000000E-03 0.  1.
        -11    1    3    3    0    0  0.39368096943E+01  0.17542858251E+02  0.88453220317E+00  0.18000909523E+02  0.51100000000E-03 0. -1.
        -12    1    3    3    0    0  0.35676585606E+01  0.14042415760E+02 -0.22579673569E+01  0.14663425404E+02  0.00000000000E+00 0.  1.
</event>
<event>
 7    1  0.4081218E-008  0.4614232E+02  0.7816164E-02  0.1320468E+00
        -11   -1    0    0    0    0  0.00000000000E+00  0.00000000000E+00  0.45593999997E+02  0.45594000000E+02  0.51100000000E-03 0.  1.
         11   -1    0    0    0    0 -0.00000000000E+00 -0.00000000000E+00 -0.45593999997E+02  0.45594000000E+02  0.51100000000E-03 0. -1.
    9900012    2    1    2    0    0 -0.41011567900E+02  0.17403901759E+02  0.66534951120E+01  0.46142317685E+02  0.99999993040E+01 0.  0.
        -12    1    1    2    0    0  0.41011567900E+02 -0.17403901759E+02 -0.66534951120E+01  0.45045682315E+02  0.00000000000E+00 0.  1.
         11    1    3    3    0    0 -0.41697622894E+01  0.29229945414E+00 -0.52447838441E+00  0.42127703898E+01  0.51100000000E-03 0. -1.
        -11    1    3    3    0    0 -0.29823017665E-01 -0.33863033358E+00 -0.36472318097E+00  0.49858116196E+00  0.51100000000E-03 0.  1.
         12    1    3    3    0    0 -0.36811982593E+02  0.17450232638E+02  0.75426966773E+01  0.41430966133E+02  0.00000000000E+00 0. -1.
</event>
<event>
 7    1  0.4081218E-008  0.4614232E+02  0.7816164E-02  0.1320468E+00
        -11   -1    0    0    0    0  0.00000000000E+00  0.00000000000E+00  0.45593999997E+02  0.45594000000E+02  0.51100000000E-03 0.  1.
         11   -1    0    0    0    0 -0.00000000000E+00 -0.00000000000E+00 -0.45593999997E+02  0.45594000000E+02  0.51100000000E-03 0. -1.
    9900012    2    1    2    0    0  0.43161515351E+02 -0.12806069003E+02 -0.14837934426E+01  0.46142318146E+02  0.10000003511E+02 0.  0.
        -12    1    1    2    0    0 -0.43161515351E+02  0.12806069003E+02  0.14837934426E+01  0.45045681854E+02  0.00000000000E+00 0.  1.
         11    1    3    3    0    0  0.14436067024E+01  0.17920753221E+00  0.64292646159E+00  0.15904308683E+01  0.51100000000E-03 0.  1.
        -11    1    3    3    0    0  0.68144556226E+01  0.78347148572E+00  0.85557598129E+00  0.69124990794E+01  0.51100000000E-03 0. -1.
         12    1    3    3    0    0  0.34903453026E+02 -0.13768748021E+02 -0.29822958855E+01  0.37639388198E+02  0.00000000000E+00 0. -1.
</event>
<event>
 7    1  0.4081218E-008  0.4614232E+02  0.7816164E-02  0.1320468E+00
        -11   -1    0    0    0    0  0.00000000000E+00  0.00000000000E+00  0.45593999997E+02  0.45594000000E+02  0.51100000000E-03 0. -1.
         11   -1    0    0    0    0 -0.00000000000E+00 -0.00000000000E+00 -0.45593999997E+02  0.45594000000E+02  0.51100000000E-03 0.  1.
    9900012    2    1    2    0    0 -0.88041216587E+01 -0.37601567714E+02  0.23188854591E+02  0.46142318409E+02  0.10000005911E+02 0.  0.
        -12    1    1    2    0    0  0.88041216587E+01  0.37601567714E+02 -0.23188854591E+02  0.45045681591E+02  0.00000000000E+00 0.  1.
         11    1    3    3    0    0 -0.63459293410E+01 -0.19641144146E+02  0.13525619973E+02  0.24677677331E+02  0.51100000000E-03 0. -1.
        -11    1    3    3    0    0 -0.13904526927E+01 -0.77296592427E+01  0.81426780123E+00  0.78958231371E+01  0.51100000000E-03 0.  1.
         12    1    3    3    0    0 -0.10677396250E+01 -0.10230764326E+02  0.88489668169E+01  0.13568817941E+02  0.00000000000E+00 0. -1.
</event>
<event>
 7    1  0.4081218E-008  0.4614232E+02  0.7816164E-02  0.1320468E+00
        -11   -1    0    0    0    0  0.00000000000E+00  0.00000000000E+00  0.45593999997E+02  0.45594000000E+02  0.51100000000E-03 0.  1.
         11   -1    0    0    0    0 -0.00000000000E+00 -0.00000000000E+00 -0.45593999997E+02  0.45594000000E+02  0.51100000000E-03 0. -1.
    9900012    2    1    2    0    0 -0.11250048564E+02  0.15746129145E+02 -0.40676888980E+02  0.46142317933E+02  0.10000001568E+02 0.  0.
        -12    1    1    2    0    0  0.11250048564E+02 -0.15746129145E+02  0.40676888980E+02  0.45045682067E+02  0.00000000000E+00 0.  1.
         11    1    3    3    0    0 -0.69783957580E+01  0.76679047297E+01 -0.15617595421E+02  0.18745774385E+02  0.51100000000E-03 0. -1.
        -11    1    3    3    0    0  0.12650097586E+01  0.47641251701E-01 -0.21146080133E+01  0.24645662274E+01  0.51100000000E-03 0.  1.
         12    1    3    3    0    0 -0.55366625643E+01  0.80305831640E+01 -0.22944685546E+02  0.24931977321E+02  0.00000000000E+00 0. -1.
</event>
<event>
 7    1  0.4081218E-008  0.4614232E+02  0.7816164E-02  0.1320468E+00
        -11   -1    0    0    0    0  0.00000000000E+00  0.00000000000E+00  0.45593999997E+02  0.45594000000E+02  0.51100000000E-03 0.  1.
         11   -1    0    0    0    0 -0.00000000000E+00 -0.00000000000E+00 -0.45593999997E+02  0.45594000000E+02  0.51100000000E-03 0. -1.
    9900012    2    1    2    0    0 -0.44936350050E+02  0.97364490142E+00  0.29816092890E+01  0.46142317252E+02  0.99999953618E+01 0.  0.
        -12    1    1    2    0    0  0.44936350050E+02 -0.97364490142E+00 -0.29816092890E+01  0.45045682748E+02  0.00000000000E+00 0.  1.
         11    1    3    3    0    0 -0.21731776303E+02  0.48807529810E+01  0.21479334556E+01  0.22376448989E+02  0.51100000000E-03 0. -1.
        -11    1    3    3    0    0 -0.11092427601E+01 -0.51995638596E+00 -0.60473727921E+00  0.13661923664E+01  0.51100000000E-03 0.  1.
         12    1    3    3    0    0 -0.22095330987E+02 -0.33871516936E+01  0.14384131126E+01  0.22399675897E+02  0.00000000000E+00 0. -1.
</event>
<event>
 7    1  0.4081218E-008  0.4614232E+02  0.7816164E-02  0.1320468E+00
        -11   -1    0    0    0    0  0.00000000000E+00  0.00000000000E+00  0.45593999997E+02  0.45594000000E+02  0.51100000000E-03 0.  1.
         11   -1    0    0    0    0 -0.00000000000E+00 -0.00000000000E+00 -0.45593999997E+02  0.45594000000E+02  0.51100000000E-03 0. -1.
    9900012    2    1    2    0    0 -0.23720596793E+02  0.25506848298E+02 -0.28563045733E+02  0.46142316479E+02  0.99999883108E+01 0.  0.
        -12    1    1    2    0    0  0.23720596793E+02 -0.25506848298E+02  0.28563045733E+02  0.45045683521E+02  0.00000000000E+00 0.  1.
         11    1    3    3    0    0 -0.94279074130E+01  0.13354904450E+02 -0.11960731843E+02  0.20255814413E+02  0.51100000000E-03 0. -1.
        -11    1    3    3    0    0 -0.55462115136E+01  0.77495490537E+01 -0.11191097875E+02  0.14698865419E+02  0.51100000000E-03 0.  1.
         12    1    3    3    0    0 -0.87464778666E+01  0.44023947940E+01 -0.54112160148E+01  0.11187636647E+02  0.00000000000E+00 0. -1.
</event>
<event>
 7    1  0.4081218E-008  0.4614232E+02  0.7816164E-02  0.1320468E+00
        -11   -1    0    0    0    0  0.00000000000E+00  0.00000000000E+00  0.45593999997E+02  0.45594000000E+02  0.51100000000E-03 0. -1.
         11   -1    0    0    0    0 -0.00000000000E+00 -0.00000000000E+00 -0.45593999997E+02  0.45594000000E+02  0.51100000000E-03 0.  1.
    9900012    2    1    2    0    0  0.91093451195E+01  0.30453308515E+02  0.31917541975E+02  0.46142315926E+02  0.99999832614E+01 0.  0.
        -12    1    1    2    0    0 -0.91093451195E+01 -0.30453308515E+02 -0.31917541975E+02  0.45045684074E+02  0.00000000000E+00 0.  1.
         11    1    3    3    0    0  0.74860039712E+01  0.11146741603E+02  0.16516410145E+02  0.21285720757E+02  0.51100000000E-03 0. -1.
        -11    1    3    3    0    0  0.79926843487E+00  0.28572156031E+01  0.16131115846E+01  0.33770756993E+01  0.51100000000E-03 0.  1.
         12    1    3    3    0    0  0.82407271341E+00  0.16449351309E+02  0.13788020245E+02  0.21479519469E+02  0.00000000000E+00 0. -1.
</event>
<event>
 7    1  0.4081218E-008  0.4614232E+02  0.7816164E-02  0.1320468E+00
        -11   -1    0    0    0    0  0.00000000000E+00  0.00000000000E+00  0.45593999997E+02  0.45594000000E+02  0.51100000000E-03 0.  1.
         11   -1    0    0    0    0 -0.00000000000E+00 -0.00000000000E+00 -0.45593999997E+02  0.45594000000E+02  0.51100000000E-03 0. -1.
    9900012    2    1    2    0    0  0.23762226897E+02 -0.13624646611E+02 -0.35760862098E+02  0.46142315630E+02  0.99999805701E+01 0.  0.
        -12    1    1    2    0    0 -0.23762226897E+02  0.13624646611E+02  0.35760862098E+02  0.45045684370E+02  0.00000000000E+00 0.  1.
         11    1    3    3    0    0  0.78112468213E+01 -0.50107028182E+01 -0.17665568727E+02  0.19954824939E+02  0.51100000000E-03 0. -1.
        -11    1    3    3    0    0  0.19636539046E+01  0.54755778192E+00 -0.98575784519E+00  0.22643928485E+01  0.51100000000E-03 0.  1.
        -12    1    3    3    0    0  0.13987326171E+02 -0.91615015742E+01 -0.17109535526E+02  0.23923097843E+02  0.00000000000E+00 0.  1.
</event>
<event>
 7    1  0.4081218E-008  0.4614232E+02  0.7816164E-02  0.1320468E+00
        -11   -1    0    0    0    0  0.00000000000E+00  0.00000000000E+00  0.45593999997E+02  0.45594000000E+02  0.51100000000E-03 0.  1.
         11   -1    0    0    0    0 -0.00000000000E+00 -0.00000000000E+00 -0.45593999997E+02  0.45594000000E+02  0.51100000000E-03 0. -1.
    9900012    2    1    2    0    0  0.34117311130E+02 -0.37163233293E+01 -0.29177242419E+02  0.46142318154E+02  0.10000003581E+02 0.  0.
        -12    1    1    2    0    0 -0.34117311130E+02  0.37163233293E+01  0.29177242419E+02  0.45045681846E+02  0.00000000000E+00 0.  1.
         11    1    3    3    0    0  0.91226601039E+01 -0.29288611772E+01 -0.70898006353E+01  0.11919162239E+02  0.51100000000E-03 0. -1.
        -11    1    3    3    0    0  0.17209112394E+02  0.29760807429E+01 -0.15526946364E+02  0.23368711338E+02  0.51100000000E-03 0.  1.
        -12    1    3    3    0    0  0.77855386322E+01 -0.37635428949E+01 -0.65604954200E+01  0.10854444577E+02  0.00000000000E+00 0.  1.
</event>
<event>
 7    1  0.4081218E-008  0.4614232E+02  0.7816164E-02  0.1320468E+00
        -11   -1    0    0    0    0  0.00000000000E+00  0.00000000000E+00  0.45593999997E+02  0.45594000000E+02  0.51100000000E-03 0.  1.
         11   -1    0    0    0    0 -0.00000000000E+00 -0.00000000000E+00 -0.45593999997E+02  0.45594000000E+02  0.51100000000E-03 0. -1.
    9900012    2    1    2    0    0 -0.48855081451E+01 -0.14614365604E+02 -0.42328071373E+02  0.46142317654E+02  0.99999990274E+01 0.  0.
        -12    1    1    2    0    0  0.48855081451E+01  0.14614365604E+02  0.42328071373E+02  0.45045682346E+02  0.00000000000E+00 0.  1.
         11    1    3    3    0    0 -0.37839827699E+01 -0.98853835448E+01 -0.18666369004E+02  0.21458626831E+02  0.51100000000E-03 0. -1.
        -11    1    3    3    0    0 -0.88322657381E+00 -0.15286194196E+01 -0.15769207849E+01  0.23671598876E+01  0.51100000000E-03 0.  1.
         12    1    3    3    0    0 -0.21829880140E+00 -0.32003626397E+01 -0.22084781584E+02  0.22316530936E+02  0.00000000000E+00 0. -1.
</event>
<event>
 7    1  0.4081218E-008  0.4614232E+02  0.7816164E-02  0.1320468E+00
        -11   -1    0    0    0    0  0.00000000000E+00  0.00000000000E+00  0.45593999997E+02  0.45594000000E+02  0.51100000000E-03 0.  1.
         11   -1    0    0    0    0 -0.00000000000E+00 -0.00000000000E+00 -0.45593999997E+02  0.45594000000E+02  0.51100000000E-03 0. -1.
    9900012    2    1    2    0    0 -0.26877675412E+02  0.12027342825E+02 -0.34088813639E+02  0.46142316230E+02  0.99999860337E+01 0.  0.
        -12    1    1    2    0    0  0.26877675412E+02 -0.12027342825E+02  0.34088813639E+02  0.45045683770E+02  0.00000000000E+00 0.  1.
         11    1    3    3    0    0 -0.40998040319E+01  0.54751659496E+01 -0.10227132151E+02  0.12303660739E+02  0.51100000000E-03 0. -1.
        -11    1    3    3    0    0 -0.30212357389E+01  0.22160783606E+01 -0.42383591009E+01  0.56570802381E+01  0.51100000000E-03 0.  1.
         12    1    3    3    0    0 -0.19756635642E+02  0.43360985148E+01 -0.19623322387E+02  0.28181575253E+02  0.00000000000E+00 0. -1.
</event>
<event>
 7    1  0.4081218E-008  0.4614232E+02  0.7816164E-02  0.1320468E+00
        -11   -1    0    0    0    0  0.00000000000E+00  0.00000000000E+00  0.45593999997E+02  0.45594000000E+02  0.51100000000E-03 0.  1.
         11   -1    0    0    0    0 -0.00000000000E+00 -0.00000000000E+00 -0.45593999997E+02  0.45594000000E+02  0.51100000000E-03 0. -1.
    9900012    2    1    2    0    0 -0.31041119763E+02  0.19343322491E+02 -0.26294450500E+02  0.46142319095E+02  0.10000012161E+02 0.  0.
        -12    1    1    2    0    0  0.31041119763E+02 -0.19343322491E+02  0.26294450500E+02  0.45045680905E+02  0.00000000000E+00 0.  1.
         11    1    3    3    0    0 -0.50873374733E+01  0.56814813941E+00 -0.22029085539E+01  0.55728449856E+01  0.51100000000E-03 0. -1.
        -11    1    3    3    0    0 -0.10550013749E+01  0.20628835845E+01 -0.34826588178E+01  0.41829928624E+01  0.51100000000E-03 0.  1.
         12    1    3    3    0    0 -0.24898780915E+02  0.16712290767E+02 -0.20608883128E+02  0.36386481247E+02  0.00000000000E+00 0. -1.
</event>
<event>
 7    1  0.4081218E-008  0.4614232E+02  0.7816164E-02  0.1320468E+00
        -11   -1    0    0    0    0  0.00000000000E+00  0.00000000000E+00  0.45593999997E+02  0.45594000000E+02  0.51100000000E-03 0. -1.
         11   -1    0    0    0    0 -0.00000000000E+00 -0.00000000000E+00 -0.45593999997E+02  0.45594000000E+02  0.51100000000E-03 0.  1.
    9900012    2    1    2    0    0  0.17450919904E+02 -0.15976781979E+02  0.38331728576E+02  0.46142316705E+02  0.99999903657E+01 0.  0.
        -12    1    1    2    0    0 -0.17450919904E+02  0.15976781979E+02 -0.38331728576E+02  0.45045683295E+02  0.00000000000E+00 0.  1.
         11    1    3    3    0    0  0.66567659540E+01 -0.85899071870E+01  0.14648370676E+02  0.18239347636E+02  0.51100000000E-03 0. -1.
        -11    1    3    3    0    0  0.63088681465E+01 -0.73614999044E+01  0.19464142103E+02  0.21745029920E+02  0.51100000000E-03 0.  1.
        -12    1    3    3    0    0  0.44852858038E+01 -0.25374887962E-01  0.42192157967E+01  0.61579391492E+01  0.00000000000E+00 0.  1.
</event>
<event>
 7    1  0.4081218E-008  0.4614232E+02  0.7816164E-02  0.1320468E+00
        -11   -1    0    0    0    0  0.00000000000E+00  0.00000000000E+00  0.45593999997E+02  0.45594000000E+02  0.51100000000E-03 0.  1.
         11   -1    0    0    0    0 -0.00000000000E+00 -0.00000000000E+00 -0.45593999997E+02  0.45594000000E+02  0.51100000000E-03 0. -1.
    9900012    2    1    2    0    0  0.34375424810E+02 -0.82104252773E+01 -0.27929064066E+02  0.46142317258E+02  0.99999954114E+01 0.  0.
        -12    1    1    2    0    0 -0.34375424810E+02  0.82104252773E+01  0.27929064066E+02  0.45045682742E+02  0.00000000000E+00 0.  1.
         11    1    3    3    0    0  0.19209032736E+02 -0.87574837138E+01 -0.19071709608E+02  0.28450141780E+02  0.51100000000E-03 0. -1.
        -11    1    3    3    0    0  0.12347476436E+02 -0.36379867519E+00 -0.71700501441E+01  0.14282931882E+02  0.51100000000E-03 0.  1.
         12    1    3    3    0    0  0.28189156378E+01  0.91085711177E+00 -0.16873043145E+01  0.34092435966E+01  0.00000000000E+00 0. -1.
</event>
<event>
 7    1  0.4081218E-008  0.4614232E+02  0.7816164E-02  0.1320468E+00
        -11   -1    0    0    0    0  0.00000000000E+00  0.00000000000E+00  0.45593999997E+02  0.45594000000E+02  0.51100000000E-03 0.  1.
         11   -1    0    0    0    0 -0.00000000000E+00 -0.00000000000E+00 -0.45593999997E+02  0.45594000000E+02  0.51100000000E-03 0. -1.
    9900012    2    1    2    0    0 -0.20572194406E+01 -0.44123515658E+02 -0.88315733450E+01  0.46142317925E+02  0.10000001498E+02 0.  0.
        -12    1    1    2    0    0  0.20572194406E+01  0.44123515658E+02  0.88315733450E+01  0.45045682075E+02  0.00000000000E+00 0.  1.
         11    1    3    3    0    0 -0.12988012061E+01 -0.15999905596E+02 -0.34888950259E+01  0.16427302043E+02  0.51100000000E-03 0. -1.
        -11    1    3    3    0    0 -0.34145276934E+01 -0.13877347257E+02 -0.62768723733E-01  0.14291385743E+02  0.51100000000E-03 0.  1.
         12    1    3    3    0    0  0.26561094589E+01 -0.14246262804E+02 -0.52799095954E+01  0.15423630140E+02  0.00000000000E+00 0. -1.
</event>
<event>
 7    1  0.4081218E-008  0.4614232E+02  0.7816164E-02  0.1320468E+00
        -11   -1    0    0    0    0  0.00000000000E+00  0.00000000000E+00  0.45593999997E+02  0.45594000000E+02  0.51100000000E-03 0. -1.
         11   -1    0    0    0    0 -0.00000000000E+00 -0.00000000000E+00 -0.45593999997E+02  0.45594000000E+02  0.51100000000E-03 0.  1.
    9900012    2    1    2    0    0  0.34243548673E+02  0.29145614594E+02  0.26506641782E+01  0.46142317672E+02  0.99999991871E+01 0.  0.
        -12    1    1    2    0    0 -0.34243548673E+02 -0.29145614594E+02 -0.26506641782E+01  0.45045682328E+02  0.00000000000E+00 0.  1.
         11    1    3    3    0    0  0.12563746707E+01  0.15830936216E+01 -0.55331165667E+00  0.20954275884E+01  0.51100000000E-03 0. -1.
        -11    1    3    3    0    0  0.13161531486E+02  0.13372069377E+02  0.55159496900E+01  0.19556683046E+02  0.51100000000E-03 0.  1.
        -12    1    3    3    0    0  0.19825642516E+02  0.14190451596E+02 -0.23119738551E+01  0.24490207038E+02  0.00000000000E+00 0.  1.
</event>
<event>
 7    1  0.4081218E-008  0.4614232E+02  0.7816164E-02  0.1320468E+00
        -11   -1    0    0    0    0  0.00000000000E+00  0.00000000000E+00  0.45593999997E+02  0.45594000000E+02  0.51100000000E-03 0.  1.
         11   -1    0    0    0    0 -0.00000000000E+00 -0.00000000000E+00 -0.45593999997E+02  0.45594000000E+02  0.51100000000E-03 0. -1.
    9900012    2    1    2    0    0  0.11338887849E+02  0.13315657776E+02 -0.41511884052E+02  0.46142316109E+02  0.99999849358E+01 0.  0.
        -12    1    1    2    0    0 -0.11338887849E+02 -0.13315657776E+02  0.41511884052E+02  0.45045683891E+02  0.00000000000E+00 0.  1.
         11    1    3    3    0    0  0.29968545964E+01  0.18060584260E+01 -0.44041223023E+01  0.56248802676E+01  0.51100000000E-03 0. -1.
        -11    1    3    3    0    0  0.74806696097E+00 -0.11094843931E+01 -0.52857436867E+01  0.54524899247E+01  0.51100000000E-03 0.  1.
         12    1    3    3    0    0  0.75939662917E+01  0.12619083743E+02 -0.31822018063E+02  0.35064945917E+02  0.00000000000E+00 0. -1.
</event>
<event>
 7    1  0.4081218E-008  0.4614232E+02  0.7816164E-02  0.1320468E+00
        -11   -1    0    0    0    0  0.00000000000E+00  0.00000000000E+00  0.45593999997E+02  0.45594000000E+02  0.51100000000E-03 0.  1.
         11   -1    0    0    0    0 -0.00000000000E+00 -0.00000000000E+00 -0.45593999997E+02  0.45594000000E+02  0.51100000000E-03 0. -1.
    9900012    2    1    2    0    0  0.25222913163E+02  0.37146828927E+02  0.36098804448E+01  0.46142317804E+02  0.10000000387E+02 0.  0.
        -12    1    1    2    0    0 -0.25222913163E+02 -0.37146828927E+02 -0.36098804448E+01  0.45045682196E+02  0.00000000000E+00 0.  1.
         11    1    3    3    0    0  0.20766157626E+02  0.24841122799E+02  0.23496273338E+01  0.32462831567E+02  0.51100000000E-03 0. -1.
        -11    1    3    3    0    0  0.19951080282E+01  0.38740072186E+01  0.21347382508E+01  0.48523701049E+01  0.51100000000E-03 0.  1.
        -12    1    3    3    0    0  0.24616475087E+01  0.84316989089E+01 -0.87448513983E+00  0.88271161319E+01  0.00000000000E+00 0.  1.
</event>
<event>
 7    1  0.4165189E-008  0.4614232E+02  0.7816164E-02  0.1320468E+00
        -11   -1    0    0    0    0  0.00000000000E+00  0.00000000000E+00  0.45593999997E+02  0.45594000000E+02  0.51100000000E-03 0. -1.
         11   -1    0    0    0    0 -0.00000000000E+00 -0.00000000000E+00 -0.45593999997E+02  0.45594000000E+02  0.51100000000E-03 0.  1.
    9900012    2    1    2    0    0  0.37307644926E+02  0.10033051589E+02  0.23164427253E+02  0.46142321139E+02  0.10000030804E+02 0.  0.
        -12    1    1    2    0    0 -0.37307644926E+02 -0.10033051589E+02 -0.23164427253E+02  0.45045678861E+02  0.00000000000E+00 0.  1.
         11    1    3    3    0    0  0.13549349193E+02  0.50492103254E+01  0.12040983881E+02  0.18816606536E+02  0.51100000000E-03 0. -1.
        -11    1    3    3    0    0  0.28715338905E+01  0.19012853069E+01  0.34135953810E+01  0.48490438633E+01  0.51100000000E-03 0.  1.
        -12    1    3    3    0    0  0.20886761843E+02  0.30825559563E+01  0.77098479905E+01  0.22476670739E+02  0.00000000000E+00 0.  1.
</event>
<event>
 7    1  0.4081218E-008  0.4614232E+02  0.7816164E-02  0.1320468E+00
        -11   -1    0    0    0    0  0.00000000000E+00  0.00000000000E+00  0.45593999997E+02  0.45594000000E+02  0.51100000000E-03 0. -1.
         11   -1    0    0    0    0 -0.00000000000E+00 -0.00000000000E+00 -0.45593999997E+02  0.45594000000E+02  0.51100000000E-03 0.  1.
    9900012    2    1    2    0    0  0.14266260314E+02  0.42518901311E+02  0.42107593287E+01  0.46142316010E+02  0.99999840337E+01 0.  0.
        -12    1    1    2    0    0 -0.14266260314E+02 -0.42518901311E+02 -0.42107593287E+01  0.45045683990E+02  0.00000000000E+00 0.  1.
         11    1    3    3    0    0  0.84498643931E+00  0.82037224526E+01  0.30125334603E+01  0.87801151628E+01  0.51100000000E-03 0. -1.
        -11    1    3    3    0    0  0.70808230678E+01  0.11191566978E+02  0.18749410829E+01  0.13375523581E+02  0.51100000000E-03 0.  1.
        -12    1    3    3    0    0  0.63404508064E+01  0.23123611880E+02 -0.67671521451E+00  0.23986677266E+02  0.00000000000E+00 0.  1.
</event>
<event>
 7    1  0.4081218E-008  0.4614232E+02  0.7816164E-02  0.1320468E+00
        -11   -1    0    0    0    0  0.00000000000E+00  0.00000000000E+00  0.45593999997E+02  0.45594000000E+02  0.51100000000E-03 0.  1.
         11   -1    0    0    0    0 -0.00000000000E+00 -0.00000000000E+00 -0.45593999997E+02  0.45594000000E+02  0.51100000000E-03 0. -1.
    9900012    2    1    2    0    0 -0.12641673707E+02  0.10072820650E+02 -0.42045687577E+02  0.46142317923E+02  0.10000001481E+02 0.  0.
        -12    1    1    2    0    0  0.12641673707E+02 -0.10072820650E+02  0.42045687577E+02  0.45045682077E+02  0.00000000000E+00 0.  1.
         11    1    3    3    0    0 -0.15230819517E+01  0.64495562218E+01 -0.16394204882E+02  0.17682943988E+02  0.51100000000E-03 0. -1.
        -11    1    3    3    0    0 -0.71604007434E+01  0.40632878414E+01 -0.18995132317E+02  0.20702577107E+02  0.51100000000E-03 0.  1.
         12    1    3    3    0    0 -0.39581910119E+01 -0.44002341347E+00 -0.66563503771E+01  0.77567968282E+01  0.00000000000E+00 0. -1.
</event>
<event>
 7    1  0.4081218E-008  0.4614232E+02  0.7816164E-02  0.1320468E+00
        -11   -1    0    0    0    0  0.00000000000E+00  0.00000000000E+00  0.45593999997E+02  0.45594000000E+02  0.51100000000E-03 0. -1.
         11   -1    0    0    0    0 -0.00000000000E+00 -0.00000000000E+00 -0.45593999997E+02  0.45594000000E+02  0.51100000000E-03 0.  1.
    9900012    2    1    2    0    0  0.30798981456E+01 -0.24939096037E+02  0.37385414829E+02  0.46142317347E+02  0.99999962233E+01 0.  0.
        -12    1    1    2    0    0 -0.30798981456E+01  0.24939096037E+02 -0.37385414829E+02  0.45045682653E+02  0.00000000000E+00 0.  1.
         11    1    3    3    0    0  0.14216567455E+01 -0.21641341410E+02  0.30500711350E+02  0.37425421294E+02  0.51100000000E-03 0. -1.
        -11    1    3    3    0    0  0.38600055103E+00 -0.29647032257E+00  0.48496522866E+01  0.48740146326E+01  0.51100000000E-03 0.  1.
        -12    1    3    3    0    0  0.12722408491E+01 -0.30012843043E+01  0.20350511931E+01  0.38428814205E+01  0.00000000000E+00 0.  1.
</event>
<event>
 7    1  0.4081218E-008  0.4614232E+02  0.7816164E-02  0.1320468E+00
        -11   -1    0    0    0    0  0.00000000000E+00  0.00000000000E+00  0.45593999997E+02  0.45594000000E+02  0.51100000000E-03 0.  1.
         11   -1    0    0    0    0 -0.00000000000E+00 -0.00000000000E+00 -0.45593999997E+02  0.45594000000E+02  0.51100000000E-03 0. -1.
    9900012    2    1    2    0    0 -0.41795281527E+02  0.86924828572E+01 -0.14377363144E+02  0.46142318885E+02  0.10000010245E+02 0.  0.
        -12    1    1    2    0    0  0.41795281527E+02 -0.86924828572E+01  0.14377363144E+02  0.45045681115E+02  0.00000000000E+00 0.  1.
         11    1    3    3    0    0 -0.18729707599E+02  0.40314885278E+01 -0.47817929365E+01  0.19746401962E+02  0.51100000000E-03 0. -1.
        -11    1    3    3    0    0 -0.22639816610E+02  0.45957228511E+01 -0.75477716896E+01  0.24303308877E+02  0.51100000000E-03 0.  1.
        -12    1    3    3    0    0 -0.42575731823E+00  0.65271478257E-01 -0.20477985179E+01  0.20926080449E+01  0.00000000000E+00 0.  1.
</event>
<event>
 7    1  0.4081218E-008  0.4614232E+02  0.7816164E-02  0.1320468E+00
        -11   -1    0    0    0    0  0.00000000000E+00  0.00000000000E+00  0.45593999997E+02  0.45594000000E+02  0.51100000000E-03 0.  1.
         11   -1    0    0    0    0 -0.00000000000E+00 -0.00000000000E+00 -0.45593999997E+02  0.45594000000E+02  0.51100000000E-03 0. -1.
    9900012    2    1    2    0    0  0.23260092027E+02  0.38154092828E+02 -0.56874239446E+01  0.46142317945E+02  0.10000001679E+02 0.  0.
        -12    1    1    2    0    0 -0.23260092027E+02 -0.38154092828E+02  0.56874239446E+01  0.45045682055E+02  0.00000000000E+00 0.  1.
         11    1    3    3    0    0  0.69262599802E+01  0.81780175332E+01  0.16204861736E+01  0.10838774091E+02  0.51100000000E-03 0. -1.
        -11    1    3    3    0    0  0.10007042030E+00  0.32349936587E+01 -0.34297642938E+00  0.32546629861E+01  0.51100000000E-03 0.  1.
         12    1    3    3    0    0  0.16233761626E+02  0.26741081637E+02 -0.69649336889E+01  0.32048880869E+02  0.00000000000E+00 0. -1.
</event>
<event>
 7    1  0.4081218E-008  0.4614232E+02  0.7816164E-02  0.1320468E+00
        -11   -1    0    0    0    0  0.00000000000E+00  0.00000000000E+00  0.45593999997E+02  0.45594000000E+02  0.51100000000E-03 0.  1.
         11   -1    0    0    0    0 -0.00000000000E+00 -0.00000000000E+00 -0.45593999997E+02  0.45594000000E+02  0.51100000000E-03 0. -1.
    9900012    2    1    2    0    0  0.30503309868E+02 -0.31188662799E+02 -0.11221806306E+02  0.46142317223E+02  0.99999950895E+01 0.  0.
        -12    1    1    2    0    0 -0.30503309868E+02  0.31188662799E+02  0.11221806306E+02  0.45045682777E+02  0.00000000000E+00 0.  1.
         11    1    3    3    0    0  0.10274135961E+01 -0.78796068537E+00  0.73157273511E+00  0.14871649764E+01  0.51100000000E-03 0. -1.
        -11    1    3    3    0    0  0.23976099133E+02 -0.26411356516E+02 -0.72730521736E+01  0.36404812468E+02  0.51100000000E-03 0.  1.
         12    1    3    3    0    0  0.54997971392E+01 -0.39893455979E+01 -0.46803268676E+01  0.82503397784E+01  0.00000000000E+00 0. -1.
</event>
<event>
 7    1  0.4081218E-008  0.4614232E+02  0.7816164E-02  0.1320468E+00
        -11   -1    0    0    0    0  0.00000000000E+00  0.00000000000E+00  0.45593999997E+02  0.45594000000E+02  0.51100000000E-03 0.  1.
         11   -1    0    0    0    0 -0.00000000000E+00 -0.00000000000E+00 -0.45593999997E+02  0.45594000000E+02  0.51100000000E-03 0. -1.
    9900012    2    1    2    0    0  0.22943071943E+02  0.31166859102E+02 -0.23051156947E+02  0.46142317709E+02  0.99999995250E+01 0.  0.
        -12    1    1    2    0    0 -0.22943071943E+02 -0.31166859102E+02  0.23051156947E+02  0.45045682291E+02  0.00000000000E+00 0.  1.
         11    1    3    3    0    0  0.11536009591E+02  0.98915579396E+01 -0.94743624395E+01  0.17907707269E+02  0.51100000000E-03 0. -1.
        -11    1    3    3    0    0  0.81461597667E+01  0.12347983558E+02 -0.10854773235E+02  0.18348262019E+02  0.51100000000E-03 0.  1.
        -12    1    3    3    0    0  0.32609025857E+01  0.89273176039E+01 -0.27220212734E+01  0.98863484203E+01  0.00000000000E+00 0.  1.
</event>
<event>
 7    1  0.4081218E-008  0.4614232E+02  0.7816164E-02  0.1320468E+00
        -11   -1    0    0    0    0  0.00000000000E+00  0.00000000000E+00  0.45593999997E+02  0.45594000000E+02  0.51100000000E-03 0.  1.
         11   -1    0    0    0    0 -0.00000000000E+00 -0.00000000000E+00 -0.45593999997E+02  0.45594000000E+02  0.51100000000E-03 0. -1.
    9900012    2    1    2    0    0 -0.19952236895E+02  0.65060209239E+01 -0.39858417283E+02  0.46142317702E+02  0.99999994651E+01 0.  0.
        -12    1    1    2    0    0  0.19952236895E+02 -0.65060209239E+01  0.39858417283E+02  0.45045682298E+02  0.00000000000E+00 0.  1.
         11    1    3    3    0    0 -0.51752472612E+01  0.27399797217E+01 -0.18401366705E+02  0.19310643955E+02  0.51100000000E-03 0. -1.
        -11    1    3    3    0    0 -0.47068690116E+01  0.23431949039E+01 -0.11274020537E+02  0.12439803760E+02  0.51100000000E-03 0.  1.
        -12    1    3    3    0    0 -0.10070120622E+02  0.14228462982E+01 -0.10183030041E+02  0.14391869988E+02  0.00000000000E+00 0.  1.
</event>
<event>
 7    1  0.4081218E-008  0.4614232E+02  0.7816164E-02  0.1320468E+00
        -11   -1    0    0    0    0  0.00000000000E+00  0.00000000000E+00  0.45593999997E+02  0.45594000000E+02  0.51100000000E-03 0.  1.
         11   -1    0    0    0    0 -0.00000000000E+00 -0.00000000000E+00 -0.45593999997E+02  0.45594000000E+02  0.51100000000E-03 0. -1.
    9900012    2    1    2    0    0  0.27631467363E+02 -0.25041437270E+02 -0.25269388590E+02  0.46142316867E+02  0.99999918498E+01 0.  0.
        -12    1    1    2    0    0 -0.27631467363E+02  0.25041437270E+02  0.25269388590E+02  0.45045683133E+02  0.00000000000E+00 0.  1.
         11    1    3    3    0    0  0.84770577886E+01 -0.54554936123E+01 -0.73183494237E+01  0.12457172948E+02  0.51100000000E-03 0.  1.
        -11    1    3    3    0    0  0.11569038421E+02 -0.11428970810E+02 -0.15089475172E+02  0.22184595669E+02  0.51100000000E-03 0. -1.
        -12    1    3    3    0    0  0.75853711535E+01 -0.81569728478E+01 -0.28615639943E+01  0.11500548251E+02  0.00000000000E+00 0.  1.
</event>
<event>
 7    1  0.4081218E-008  0.4614232E+02  0.7816164E-02  0.1320468E+00
        -11   -1    0    0    0    0  0.00000000000E+00  0.00000000000E+00  0.45593999997E+02  0.45594000000E+02  0.51100000000E-03 0.  1.
         11   -1    0    0    0    0 -0.00000000000E+00 -0.00000000000E+00 -0.45593999997E+02  0.45594000000E+02  0.51100000000E-03 0. -1.
    9900012    2    1    2    0    0  0.43884582967E+02  0.86293562458E+01 -0.53657312165E+01  0.46142317822E+02  0.10000000554E+02 0.  0.
        -12    1    1    2    0    0 -0.43884582967E+02 -0.86293562458E+01  0.53657312165E+01  0.45045682178E+02  0.00000000000E+00 0.  1.
         11    1    3    3    0    0  0.71053262328E+01 -0.10963809077E+01  0.43414228731E+00  0.72025128778E+01  0.51100000000E-03 0. -1.
        -11    1    3    3    0    0  0.20997139281E+02  0.25030848525E+01 -0.34397189949E+01  0.21423747543E+02  0.51100000000E-03 0.  1.
        -12    1    3    3    0    0  0.15782117453E+02  0.72226523010E+01 -0.23601545088E+01  0.17516057401E+02  0.00000000000E+00 0.  1.
</event>
<event>
 7    1  0.4081218E-008  0.4614231E+02  0.7816164E-02  0.1320468E+00
        -11   -1    0    0    0    0  0.00000000000E+00  0.00000000000E+00  0.45593999997E+02  0.45594000000E+02  0.51100000000E-03 0. -1.
         11   -1    0    0    0    0 -0.00000000000E+00 -0.00000000000E+00 -0.45593999997E+02  0.45594000000E+02  0.51100000000E-03 0.  1.
    9900012    2    1    2    0    0 -0.31088681003E+02 -0.24472705776E+01  0.32505669870E+02  0.46142314374E+02  0.99999691126E+01 0.  0.
        -12    1    1    2    0    0  0.31088681003E+02  0.24472705776E+01 -0.32505669870E+02  0.45045685626E+02  0.00000000000E+00 0.  1.
         11    1    3    3    0    0 -0.17976386890E+02  0.10460735961E+01  0.16485871169E+02  0.24413699106E+02  0.51100000000E-03 0. -1.
        -11    1    3    3    0    0  0.26231098115E+00  0.57758700617E+00  0.33445499945E+00  0.71712914339E+00  0.51100000000E-03 0.  1.
        -12    1    3    3    0    0 -0.13374605095E+02 -0.40709311798E+01  0.15685343702E+02  0.21011486124E+02  0.00000000000E+00 0.  1.
</event>
<event>
 7    1  0.4081218E-008  0.4614232E+02  0.7816164E-02  0.1320468E+00
        -11   -1    0    0    0    0  0.00000000000E+00  0.00000000000E+00  0.45593999997E+02  0.45594000000E+02  0.51100000000E-03 0.  1.
         11   -1    0    0    0    0 -0.00000000000E+00 -0.00000000000E+00 -0.45593999997E+02  0.45594000000E+02  0.51100000000E-03 0. -1.
    9900012    2    1    2    0    0  0.25059058851E+02 -0.35628037635E+02 -0.11480420706E+02  0.46142317012E+02  0.99999931718E+01 0.  0.
        -12    1    1    2    0    0 -0.25059058851E+02  0.35628037635E+02  0.11480420706E+02  0.45045682988E+02  0.00000000000E+00 0.  1.
         11    1    3    3    0    0  0.23981736157E+00 -0.30439461271E+01  0.11925859096E-01  0.30534018534E+01  0.51100000000E-03 0. -1.
        -11    1    3    3    0    0 -0.35862384860E+00 -0.14166299566E+01 -0.42289162184E+00  0.15212787659E+01  0.51100000000E-03 0.  1.
         12    1    3    3    0    0  0.25177865338E+02 -0.31167461551E+02 -0.11069454943E+02  0.41567636393E+02  0.00000000000E+00 0. -1.
</event>
<event>
 7    1  0.4081218E-008  0.4614232E+02  0.7816164E-02  0.1320468E+00
        -11   -1    0    0    0    0  0.00000000000E+00  0.00000000000E+00  0.45593999997E+02  0.45594000000E+02  0.51100000000E-03 0.  1.
         11   -1    0    0    0    0 -0.00000000000E+00 -0.00000000000E+00 -0.45593999997E+02  0.45594000000E+02  0.51100000000E-03 0. -1.
    9900012    2    1    2    0    0 -0.16896792940E+02 -0.26266167033E+02 -0.32460750984E+02  0.46142317669E+02  0.99999991595E+01 0.  0.
        -12    1    1    2    0    0  0.16896792940E+02  0.26266167033E+02  0.32460750984E+02  0.45045682331E+02  0.00000000000E+00 0.  1.
         11    1    3    3    0    0 -0.10270600693E+01 -0.56283301311E+01 -0.29857526014E+01  0.64535007018E+01  0.51100000000E-03 0. -1.
        -11    1    3    3    0    0 -0.90858644449E+01 -0.79769924573E+01 -0.11573791316E+02  0.16737323175E+02  0.51100000000E-03 0.  1.
         12    1    3    3    0    0 -0.67838684259E+01 -0.12660844444E+02 -0.17901207067E+02  0.22951493792E+02  0.00000000000E+00 0. -1.
</event>
<event>
 7    1  0.4081218E-008  0.4614232E+02  0.7816164E-02  0.1320468E+00
        -11   -1    0    0    0    0  0.00000000000E+00  0.00000000000E+00  0.45593999997E+02  0.45594000000E+02  0.51100000000E-03 0.  1.
         11   -1    0    0    0    0 -0.00000000000E+00 -0.00000000000E+00 -0.45593999997E+02  0.45594000000E+02  0.51100000000E-03 0. -1.
    9900012    2    1    2    0    0 -0.31850939816E+01 -0.44801515151E+02  0.34340910782E+01  0.46142316910E+02  0.99999922401E+01 0.  0.
        -12    1    1    2    0    0  0.31850939816E+01  0.44801515151E+02 -0.34340910782E+01  0.45045683090E+02  0.00000000000E+00 0.  1.
         11    1    3    3    0    0 -0.39134179663E+00 -0.26268296501E+02  0.15330099310E+01  0.26315901451E+02  0.51100000000E-03 0. -1.
        -11    1    3    3    0    0 -0.34065585323E+01 -0.12055153901E+02 -0.12633654451E+01  0.12590769202E+02  0.51100000000E-03 0.  1.
        -12    1    3    3    0    0  0.61280634733E+00 -0.64780647499E+01  0.31644465923E+01  0.72356462571E+01  0.00000000000E+00 0.  1.
</event>
<event>
 7    1  0.4081218E-008  0.4614232E+02  0.7816164E-02  0.1320468E+00
        -11   -1    0    0    0    0  0.00000000000E+00  0.00000000000E+00  0.45593999997E+02  0.45594000000E+02  0.51100000000E-03 0.  1.
         11   -1    0    0    0    0 -0.00000000000E+00 -0.00000000000E+00 -0.45593999997E+02  0.45594000000E+02  0.51100000000E-03 0. -1.
    9900012    2    1    2    0    0  0.53292377247E+01  0.32872898073E+02 -0.30332905310E+02  0.46142319331E+02  0.10000014314E+02 0.  0.
        -12    1    1    2    0    0 -0.53292377247E+01 -0.32872898073E+02  0.30332905310E+02  0.45045680669E+02  0.00000000000E+00 0.  1.
         11    1    3    3    0    0  0.59834610118E+00  0.73318975823E+01 -0.55242104749E+01  0.91995457413E+01  0.51100000000E-03 0. -1.
        -11    1    3    3    0    0  0.16403079716E+01  0.19420779073E+02 -0.13467992259E+02  0.23690590659E+02  0.51100000000E-03 0.  1.
        -12    1    3    3    0    0  0.30905836519E+01  0.61202214178E+01 -0.11340702576E+02  0.13252182930E+02  0.00000000000E+00 0.  1.
</event>
<event>
 7    1  0.4081218E-008  0.4614232E+02  0.7816164E-02  0.1320468E+00
        -11   -1    0    0    0    0  0.00000000000E+00  0.00000000000E+00  0.45593999997E+02  0.45594000000E+02  0.51100000000E-03 0.  1.
         11   -1    0    0    0    0 -0.00000000000E+00 -0.00000000000E+00 -0.45593999997E+02  0.45594000000E+02  0.51100000000E-03 0. -1.
    9900012    2    1    2    0    0 -0.18660604369E+02 -0.37264060475E+02 -0.17096350504E+02  0.46142316976E+02  0.99999928437E+01 0.  0.
        -12    1    1    2    0    0  0.18660604369E+02  0.37264060475E+02  0.17096350504E+02  0.45045683024E+02  0.00000000000E+00 0.  1.
         11    1    3    3    0    0 -0.14105708115E+01 -0.66265857578E+01 -0.15705745863E+01  0.69547144882E+01  0.51100000000E-03 0.  1.
        -11    1    3    3    0    0 -0.14187394076E+02 -0.20712193587E+02 -0.79592539821E+01  0.26336796276E+02  0.51100000000E-03 0. -1.
        -12    1    3    3    0    0 -0.30626394820E+01 -0.99252811302E+01 -0.75665219357E+01  0.12850806213E+02  0.00000000000E+00 0.  1.
</event>
<event>
 7    1  0.4081218E-008  0.4614232E+02  0.7816164E-02  0.1320468E+00
        -11   -1    0    0    0    0  0.00000000000E+00  0.00000000000E+00  0.45593999997E+02  0.45594000000E+02  0.51100000000E-03 0.  1.
         11   -1    0    0    0    0 -0.00000000000E+00 -0.00000000000E+00 -0.45593999997E+02  0.45594000000E+02  0.51100000000E-03 0. -1.
    9900012    2    1    2    0    0 -0.62466926877E+01  0.47663344752E+01 -0.44355093985E+02  0.46142317896E+02  0.10000001226E+02 0.  0.
        -12    1    1    2    0    0  0.62466926877E+01 -0.47663344752E+01  0.44355093985E+02  0.45045682104E+02  0.00000000000E+00 0.  1.
         11    1    3    3    0    0 -0.63972033358E+01  0.48513681149E+01 -0.22569579719E+02  0.23955081132E+02  0.51100000000E-03 0. -1.
        -11    1    3    3    0    0  0.30984168798E+00 -0.11098739882E+01 -0.15823119162E+01  0.19574303059E+01  0.51100000000E-03 0.  1.
         12    1    3    3    0    0 -0.15933103983E+00  0.10248403484E+01 -0.20203202350E+02  0.20229806458E+02  0.00000000000E+00 0. -1.
</event>
<event>
 7    1  0.4081218E-008  0.4614233E+02  0.7816164E-02  0.1320468E+00
        -11   -1    0    0    0    0  0.00000000000E+00  0.00000000000E+00  0.45593999997E+02  0.45594000000E+02  0.51100000000E-03 0.  1.
         11   -1    0    0    0    0 -0.00000000000E+00 -0.00000000000E+00 -0.45593999997E+02  0.45594000000E+02  0.51100000000E-03 0. -1.
    9900012    2    1    2    0    0  0.28751513156E+02  0.32668748048E+02 -0.11628216516E+02  0.46142333981E+02  0.10000147900E+02 0.  0.
        -12    1    1    2    0    0 -0.28751513156E+02 -0.32668748048E+02  0.11628216516E+02  0.45045666019E+02  0.00000000000E+00 0.  1.
         11    1    3    3    0    0  0.10551665000E+02  0.74945077324E+01 -0.27269572899E+01  0.13226548180E+02  0.51100000000E-03 0.  1.
        -11    1    3    3    0    0  0.90887607254E+01  0.13609508209E+02 -0.78639000600E+01  0.18156684985E+02  0.51100000000E-03 0. -1.
        -12    1    3    3    0    0  0.91110874300E+01  0.11564732107E+02 -0.10373591666E+01  0.14759100816E+02  0.00000000000E+00 0.  1.
</event>
<event>
 7    1  0.4081218E-008  0.4614232E+02  0.7816164E-02  0.1320468E+00
        -11   -1    0    0    0    0  0.00000000000E+00  0.00000000000E+00  0.45593999997E+02  0.45594000000E+02  0.51100000000E-03 0.  1.
         11   -1    0    0    0    0 -0.00000000000E+00 -0.00000000000E+00 -0.45593999997E+02  0.45594000000E+02  0.51100000000E-03 0. -1.
    9900012    2    1    2    0    0 -0.66234554465E+01 -0.42196443907E+02 -0.14307459726E+02  0.46142318251E+02  0.10000004467E+02 0.  0.
        -12    1    1    2    0    0  0.66234554465E+01  0.42196443907E+02  0.14307459726E+02  0.45045681749E+02  0.00000000000E+00 0.  1.
         11    1    3    3    0    0 -0.36428880275E+01 -0.13832137431E+02 -0.68449357925E+01  0.15857231958E+02  0.51100000000E-03 0. -1.
        -11    1    3    3    0    0 -0.27988283618E+01 -0.91835609246E+01  0.26793167884E+00  0.96043229381E+01  0.51100000000E-03 0.  1.
         12    1    3    3    0    0 -0.18173905724E+00 -0.19180745551E+02 -0.77304556119E+01  0.20680763355E+02  0.00000000000E+00 0. -1.
</event>
<event>
 7    1  0.4081218E-008  0.4614232E+02  0.7816164E-02  0.1320468E+00
        -11   -1    0    0    0    0  0.00000000000E+00  0.00000000000E+00  0.45593999997E+02  0.45594000000E+02  0.51100000000E-03 0. -1.
         11   -1    0    0    0    0 -0.00000000000E+00 -0.00000000000E+00 -0.45593999997E+02  0.45594000000E+02  0.51100000000E-03 0.  1.
    9900012    2    1    2    0    0  0.26033602697E+02 -0.28076628534E+02  0.23729048819E+02  0.46142319885E+02  0.10000019365E+02 0.  0.
        -12    1    1    2    0    0 -0.26033602697E+02  0.28076628534E+02 -0.23729048819E+02  0.45045680115E+02  0.00000000000E+00 0.  1.
         11    1    3    3    0    0  0.16404815263E+02 -0.18063609470E+02  0.10384946138E+02  0.26519031986E+02  0.51100000000E-03 0. -1.
        -11    1    3    3    0    0  0.12406862352E+01 -0.45197297265E-01  0.19729576790E+01  0.23310743004E+01  0.51100000000E-03 0.  1.
         12    1    3    3    0    0  0.83881011983E+01 -0.99678217666E+01  0.11371145002E+02  0.17292213599E+02  0.00000000000E+00 0. -1.
</event>
<event>
 7    1  0.4081218E-008  0.4614231E+02  0.7816164E-02  0.1320468E+00
        -11   -1    0    0    0    0  0.00000000000E+00  0.00000000000E+00  0.45593999997E+02  0.45594000000E+02  0.51100000000E-03 0. -1.
         11   -1    0    0    0    0 -0.00000000000E+00 -0.00000000000E+00 -0.45593999997E+02  0.45594000000E+02  0.51100000000E-03 0.  1.
    9900012    2    1    2    0    0  0.34744384502E+02 -0.51648673808E+01 -0.28200462587E+02  0.46142309867E+02  0.99999280123E+01 0.  0.
        -12    1    1    2    0    0 -0.34744384502E+02  0.51648673808E+01  0.28200462587E+02  0.45045690133E+02  0.00000000000E+00 0.  1.
         11    1    3    3    0    0  0.19809829545E+02 -0.12537055010E+01 -0.18940499998E+02  0.27436174379E+02  0.51100000000E-03 0. -1.
        -11    1    3    3    0    0  0.14862472178E+02 -0.43690221163E+01 -0.95119949233E+01  0.18178544528E+02  0.51100000000E-03 0.  1.
        -12    1    3    3    0    0  0.72082778875E-01  0.45786023644E+00  0.25203233463E+00  0.52759095977E+00  0.00000000000E+00 0.  1.
</event>
<event>
 7    1  0.4081218E-008  0.4614232E+02  0.7816164E-02  0.1320468E+00
        -11   -1    0    0    0    0  0.00000000000E+00  0.00000000000E+00  0.45593999997E+02  0.45594000000E+02  0.51100000000E-03 0.  1.
         11   -1    0    0    0    0 -0.00000000000E+00 -0.00000000000E+00 -0.45593999997E+02  0.45594000000E+02  0.51100000000E-03 0. -1.
    9900012    2    1    2    0    0 -0.18748560004E+02 -0.31733678065E+02 -0.25895534579E+02  0.46142317222E+02  0.99999950859E+01 0.  0.
        -12    1    1    2    0    0  0.18748560004E+02  0.31733678065E+02  0.25895534579E+02  0.45045682778E+02  0.00000000000E+00 0.  1.
         11    1    3    3    0    0 -0.45767163615E+01 -0.38475935154E+01 -0.27987319999E+01  0.66017580675E+01  0.51100000000E-03 0. -1.
        -11    1    3    3    0    0 -0.14672572463E+01 -0.30774811226E-01 -0.12714434663E+01  0.19417414001E+01  0.51100000000E-03 0.  1.
         12    1    3    3    0    0 -0.12704586397E+02 -0.27855309739E+02 -0.21825359113E+02  0.37598817755E+02  0.00000000000E+00 0. -1.
</event>
<event>
 7    1  0.4081218E-008  0.4614232E+02  0.7816164E-02  0.1320468E+00
        -11   -1    0    0    0    0  0.00000000000E+00  0.00000000000E+00  0.45593999997E+02  0.45594000000E+02  0.51100000000E-03 0.  1.
         11   -1    0    0    0    0 -0.00000000000E+00 -0.00000000000E+00 -0.45593999997E+02  0.45594000000E+02  0.51100000000E-03 0. -1.
    9900012    2    1    2    0    0 -0.44183072478E+02 -0.78291431988E+01 -0.39590470350E+01  0.46142318406E+02  0.10000005884E+02 0.  0.
        -12    1    1    2    0    0  0.44183072478E+02  0.78291431988E+01  0.39590470350E+01  0.45045681594E+02  0.00000000000E+00 0.  1.
         11    1    3    3    0    0 -0.28600033943E+02 -0.24906485388E+01 -0.35973140458E+01  0.28932783141E+02  0.51100000000E-03 0. -1.
        -11    1    3    3    0    0 -0.14759334861E+00  0.54695323589E+00 -0.39403561868E+00  0.69007678466E+00  0.51100000000E-03 0.  1.
         12    1    3    3    0    0 -0.15435445187E+02 -0.58854478959E+01  0.32302629426E-01  0.16519458481E+02  0.00000000000E+00 0. -1.
</event>
<event>
 7    1  0.4081218E-008  0.4614232E+02  0.7816164E-02  0.1320468E+00
        -11   -1    0    0    0    0  0.00000000000E+00  0.00000000000E+00  0.45593999997E+02  0.45594000000E+02  0.51100000000E-03 0.  1.
         11   -1    0    0    0    0 -0.00000000000E+00 -0.00000000000E+00 -0.45593999997E+02  0.45594000000E+02  0.51100000000E-03 0. -1.
    9900012    2    1    2    0    0  0.12322610688E+02 -0.17655297241E+02 -0.39567123760E+02  0.46142317216E+02  0.99999950279E+01 0.  0.
        -12    1    1    2    0    0 -0.12322610688E+02  0.17655297241E+02  0.39567123760E+02  0.45045682784E+02  0.00000000000E+00 0.  1.
         11    1    3    3    0    0  0.33837037854E+01 -0.53247828050E+01 -0.11550072598E+02  0.13160810785E+02  0.51100000000E-03 0. -1.
        -11    1    3    3    0    0  0.35285829784E+00 -0.20780481084E+01 -0.11682203028E+02  0.11870832353E+02  0.51100000000E-03 0.  1.
        -12    1    3    3    0    0  0.85860486052E+01 -0.10252466328E+02 -0.16334848134E+02  0.21110674078E+02  0.00000000000E+00 0.  1.
</event>
<event>
 7    1  0.4081218E-008  0.4614232E+02  0.7816164E-02  0.1320468E+00
        -11   -1    0    0    0    0  0.00000000000E+00  0.00000000000E+00  0.45593999997E+02  0.45594000000E+02  0.51100000000E-03 0.  1.
         11   -1    0    0    0    0 -0.00000000000E+00 -0.00000000000E+00 -0.45593999997E+02  0.45594000000E+02  0.51100000000E-03 0. -1.
    9900012    2    1    2    0    0 -0.20930907491E+02  0.31238447328E+02 -0.24802621148E+02  0.46142317680E+02  0.99999992617E+01 0.  0.
        -12    1    1    2    0    0  0.20930907491E+02 -0.31238447328E+02  0.24802621148E+02  0.45045682320E+02  0.00000000000E+00 0.  1.
         11    1    3    3    0    0 -0.80193939653E+01  0.14775990507E+02 -0.11077843774E+02  0.20133534165E+02  0.51100000000E-03 0. -1.
        -11    1    3    3    0    0 -0.20657635115E+01  0.28455751074E+01  0.46891055659E+00  0.35474714867E+01  0.51100000000E-03 0.  1.
        -12    1    3    3    0    0 -0.10845750014E+02  0.13616881714E+02 -0.14193687931E+02  0.22461312028E+02  0.00000000000E+00 0.  1.
</event>
<event>
 7    1  0.4081218E-008  0.4614232E+02  0.7816164E-02  0.1320468E+00
        -11   -1    0    0    0    0  0.00000000000E+00  0.00000000000E+00  0.45593999997E+02  0.45594000000E+02  0.51100000000E-03 0. -1.
         11   -1    0    0    0    0 -0.00000000000E+00 -0.00000000000E+00 -0.45593999997E+02  0.45594000000E+02  0.51100000000E-03 0.  1.
    9900012    2    1    2    0    0 -0.23720909957E+02 -0.36433196118E+02  0.11792121061E+02  0.46142317991E+02  0.10000002097E+02 0.  0.
        -12    1    1    2    0    0  0.23720909957E+02  0.36433196118E+02 -0.11792121061E+02  0.45045682009E+02  0.00000000000E+00 0.  1.
         11    1    3    3    0    0 -0.13018993993E+02 -0.22262160984E+02  0.57033004708E+01  0.26412604052E+02  0.51100000000E-03 0. -1.
        -11    1    3    3    0    0 -0.58161880681E+01 -0.11831467345E+02  0.54846907020E+01  0.14279127968E+02  0.51100000000E-03 0.  1.
        -12    1    3    3    0    0 -0.48857278954E+01 -0.23395677890E+01  0.60412988784E+00  0.54505859711E+01  0.00000000000E+00 0.  1.
</event>
<event>
 7    1  0.4081218E-008  0.4614232E+02  0.7816164E-02  0.1320468E+00
        -11   -1    0    0    0    0  0.00000000000E+00  0.00000000000E+00  0.45593999997E+02  0.45594000000E+02  0.51100000000E-03 0.  1.
         11   -1    0    0    0    0 -0.00000000000E+00 -0.00000000000E+00 -0.45593999997E+02  0.45594000000E+02  0.51100000000E-03 0. -1.
    9900012    2    1    2    0    0 -0.29937300501E+02 -0.27036433598E+02 -0.20047519400E+02  0.46142315000E+02  0.99999748251E+01 0.  0.
        -12    1    1    2    0    0  0.29937300501E+02  0.27036433598E+02  0.20047519400E+02  0.45045685000E+02  0.00000000000E+00 0.  1.
         11    1    3    3    0    0 -0.16519782933E+02 -0.10904224478E+02 -0.12532054497E+02  0.23427712859E+02  0.51100000000E-03 0. -1.
        -11    1    3    3    0    0 -0.32574906399E+01 -0.51778846190E+01 -0.41715885835E+01  0.74043153611E+01  0.51100000000E-03 0.  1.
         12    1    3    3    0    0 -0.10160026928E+02 -0.10954324501E+02 -0.33438763192E+01  0.15310286780E+02  0.00000000000E+00 0. -1.
</event>
<event>
 7    1  0.4081218E-008  0.4614231E+02  0.7816164E-02  0.1320468E+00
        -11   -1    0    0    0    0  0.00000000000E+00  0.00000000000E+00  0.45593999997E+02  0.45594000000E+02  0.51100000000E-03 0. -1.
         11   -1    0    0    0    0 -0.00000000000E+00 -0.00000000000E+00 -0.45593999997E+02  0.45594000000E+02  0.51100000000E-03 0.  1.
    9900012    2    1    2    0    0  0.31696291247E+02  0.29433000116E+02  0.12576064884E+02  0.46142314495E+02  0.99999702204E+01 0.  0.
        -12    1    1    2    0    0 -0.31696291247E+02 -0.29433000116E+02 -0.12576064884E+02  0.45045685505E+02  0.00000000000E+00 0.  1.
         11    1    3    3    0    0  0.12862371739E+02  0.88496336239E+01  0.31141515437E+01  0.15920256346E+02  0.51100000000E-03 0.  1.
        -11    1    3    3    0    0  0.71742748768E+01  0.48952262908E+01  0.44664314271E+00  0.86967206925E+01  0.51100000000E-03 0. -1.
        -12    1    3    3    0    0  0.11659644631E+02  0.15688140201E+02  0.90152701980E+01  0.21525337457E+02  0.00000000000E+00 0.  1.
</event>
<event>
 7    1  0.4081218E-008  0.4614233E+02  0.7816164E-02  0.1320468E+00
        -11   -1    0    0    0    0  0.00000000000E+00  0.00000000000E+00  0.45593999997E+02  0.45594000000E+02  0.51100000000E-03 0. -1.
         11   -1    0    0    0    0 -0.00000000000E+00 -0.00000000000E+00 -0.45593999997E+02  0.45594000000E+02  0.51100000000E-03 0.  1.
    9900012    2    1    2    0    0 -0.28924143535E+02  0.19080011338E+02  0.28782966772E+02  0.46142333304E+02  0.10000141732E+02 0.  0.
        -12    1    1    2    0    0  0.28924143535E+02 -0.19080011338E+02 -0.28782966772E+02  0.45045666696E+02  0.00000000000E+00 0.  1.
         11    1    3    3    0    0 -0.66528577287E+01  0.36092295449E+01  0.93267917158E+01  0.12011498568E+02  0.51100000000E-03 0. -1.
        -11    1    3    3    0    0 -0.28799864172E+01  0.93530623474E+00 -0.39072004021E-01  0.30283075138E+01  0.51100000000E-03 0.  1.
         12    1    3    3    0    0 -0.19391299389E+02  0.14535475559E+02  0.19495247060E+02  0.31102527223E+02  0.00000000000E+00 0. -1.
</event>
<event>
 7    1  0.4081218E-008  0.4614232E+02  0.7816164E-02  0.1320468E+00
        -11   -1    0    0    0    0  0.00000000000E+00  0.00000000000E+00  0.45593999997E+02  0.45594000000E+02  0.51100000000E-03 0. -1.
         11   -1    0    0    0    0 -0.00000000000E+00 -0.00000000000E+00 -0.45593999997E+02  0.45594000000E+02  0.51100000000E-03 0.  1.
    9900012    2    1    2    0    0 -0.44563548679E+02 -0.30171621164E+01  0.58395492615E+01  0.46142317924E+02  0.10000001489E+02 0.  0.
        -12    1    1    2    0    0  0.44563548679E+02  0.30171621164E+01 -0.58395492615E+01  0.45045682076E+02  0.00000000000E+00 0.  1.
         11    1    3    3    0    0 -0.20692602603E+02  0.66881601415E+00  0.57840133247E+01  0.21496184028E+02  0.51100000000E-03 0. -1.
        -11    1    3    3    0    0 -0.33230096260E+01 -0.18729475167E+01  0.11653616587E+01  0.39885327417E+01  0.51100000000E-03 0.  1.
        -12    1    3    3    0    0 -0.20547936449E+02 -0.18130306138E+01 -0.11098257220E+01  0.20657601155E+02  0.00000000000E+00 0.  1.
</event>
<event>
 7    1  0.4081218E-008  0.4614232E+02  0.7816164E-02  0.1320468E+00
        -11   -1    0    0    0    0  0.00000000000E+00  0.00000000000E+00  0.45593999997E+02  0.45594000000E+02  0.51100000000E-03 0.  1.
         11   -1    0    0    0    0 -0.00000000000E+00 -0.00000000000E+00 -0.45593999997E+02  0.45594000000E+02  0.51100000000E-03 0. -1.
    9900012    2    1    2    0    0 -0.17583780309E+02 -0.59212987337E+00 -0.41467737516E+02  0.46142320935E+02  0.10000028940E+02 0.  0.
        -12    1    1    2    0    0  0.17583780309E+02  0.59212987337E+00  0.41467737516E+02  0.45045679065E+02  0.00000000000E+00 0.  1.
         11    1    3    3    0    0 -0.43669054013E+01  0.32490623788E+01 -0.95369757432E+01  0.10980900496E+02  0.51100000000E-03 0.  1.
        -11    1    3    3    0    0 -0.80135999630E+01 -0.25341953819E+01 -0.12960653330E+02  0.15447280201E+02  0.51100000000E-03 0. -1.
        -12    1    3    3    0    0 -0.52032749443E+01 -0.13069968702E+01 -0.18970108443E+02  0.19714140237E+02  0.00000000000E+00 0.  1.
</event>
<event>
 7    1  0.4081218E-008  0.4614232E+02  0.7816164E-02  0.1320468E+00
        -11   -1    0    0    0    0  0.00000000000E+00  0.00000000000E+00  0.45593999997E+02  0.45594000000E+02  0.51100000000E-03 0.  1.
         11   -1    0    0    0    0 -0.00000000000E+00 -0.00000000000E+00 -0.45593999997E+02  0.45594000000E+02  0.51100000000E-03 0. -1.
    9900012    2    1    2    0    0  0.11167761965E+02  0.65228215758E+01 -0.43149130156E+02  0.46142317168E+02  0.99999945915E+01 0.  0.
        -12    1    1    2    0    0 -0.11167761965E+02 -0.65228215758E+01  0.43149130156E+02  0.45045682832E+02  0.00000000000E+00 0.  1.
         11    1    3    3    0    0  0.47329505703E+01  0.27516706846E+01 -0.81713429890E+01  0.98358202079E+01  0.51100000000E-03 0. -1.
        -11    1    3    3    0    0 -0.47154423231E+00  0.84436348846E+00 -0.64167921735E+00  0.11606274780E+01  0.51100000000E-03 0.  1.
         12    1    3    3    0    0  0.69063556273E+01  0.29267874027E+01 -0.34336107949E+02  0.35145869482E+02  0.00000000000E+00 0. -1.
</event>
<event>
 7    1  0.4081218E-008  0.4614232E+02  0.7816164E-02  0.1320468E+00
        -11   -1    0    0    0    0  0.00000000000E+00  0.00000000000E+00  0.45593999997E+02  0.45594000000E+02  0.51100000000E-03 0.  1.
         11   -1    0    0    0    0 -0.00000000000E+00 -0.00000000000E+00 -0.45593999997E+02  0.45594000000E+02  0.51100000000E-03 0. -1.
    9900012    2    1    2    0    0 -0.39805325986E+02 -0.20521824769E+02  0.48481078459E+01  0.46142318538E+02  0.10000007080E+02 0.  0.
        -12    1    1    2    0    0  0.39805325986E+02  0.20521824769E+02 -0.48481078459E+01  0.45045681462E+02  0.00000000000E+00 0.  1.
         11    1    3    3    0    0 -0.26073568491E+01 -0.10854026946E+01 -0.15173012617E+01  0.32060274684E+01  0.51100000000E-03 0. -1.
        -11    1    3    3    0    0 -0.24539683502E+00 -0.29805787454E+00  0.88103922079E+00  0.96191916132E+00  0.51100000000E-03 0.  1.
        -12    1    3    3    0    0 -0.36952572302E+02 -0.19138364200E+02  0.54843698868E+01  0.41974371908E+02  0.00000000000E+00 0.  1.
</event>
<event>
 7    1  0.4081218E-008  0.4614232E+02  0.7816164E-02  0.1320468E+00
        -11   -1    0    0    0    0  0.00000000000E+00  0.00000000000E+00  0.45593999997E+02  0.45594000000E+02  0.51100000000E-03 0.  1.
         11   -1    0    0    0    0 -0.00000000000E+00 -0.00000000000E+00 -0.45593999997E+02  0.45594000000E+02  0.51100000000E-03 0. -1.
    9900012    2    1    2    0    0 -0.37542320737E+02 -0.73183160079E+01 -0.23793485576E+02  0.46142317062E+02  0.99999936238E+01 0.  0.
        -12    1    1    2    0    0  0.37542320737E+02  0.73183160079E+01  0.23793485576E+02  0.45045682938E+02  0.00000000000E+00 0.  1.
         11    1    3    3    0    0 -0.30682354228E+02 -0.65602568035E+01 -0.22023125422E+02  0.38333560804E+02  0.51100000000E-03 0. -1.
        -11    1    3    3    0    0 -0.48265910944E+01 -0.19743538772E+01 -0.94495698037E+00  0.52997168585E+01  0.51100000000E-03 0.  1.
        -12    1    3    3    0    0 -0.20333754149E+01  0.12162946729E+01 -0.82540317315E+00  0.25090393993E+01  0.00000000000E+00 0.  1.
</event>
<event>
 7    1  0.4081218E-008  0.4614232E+02  0.7816164E-02  0.1320468E+00
        -11   -1    0    0    0    0  0.00000000000E+00  0.00000000000E+00  0.45593999997E+02  0.45594000000E+02  0.51100000000E-03 0.  1.
         11   -1    0    0    0    0 -0.00000000000E+00 -0.00000000000E+00 -0.45593999997E+02  0.45594000000E+02  0.51100000000E-03 0. -1.
    9900012    2    1    2    0    0 -0.13875518029E+02 -0.17257477004E+02 -0.39227069454E+02  0.46142317732E+02  0.99999997303E+01 0.  0.
        -12    1    1    2    0    0  0.13875518029E+02  0.17257477004E+02  0.39227069454E+02  0.45045682268E+02  0.00000000000E+00 0.  1.
         11    1    3    3    0    0 -0.40357387104E+01 -0.10640367331E+02 -0.18035618946E+02  0.21325762703E+02  0.51100000000E-03 0. -1.
        -11    1    3    3    0    0 -0.62725307747E+00 -0.85545037034E+00 -0.62639937897E+01  0.63531771751E+01  0.51100000000E-03 0.  1.
        -12    1    3    3    0    0 -0.92125262413E+01 -0.57616593028E+01 -0.14927456718E+02  0.18463377853E+02  0.00000000000E+00 0.  1.
</event>
<event>
 7    1  0.4081218E-008  0.4614232E+02  0.7816164E-02  0.1320468E+00
        -11   -1    0    0    0    0  0.00000000000E+00  0.00000000000E+00  0.45593999997E+02  0.45594000000E+02  0.51100000000E-03 0.  1.
         11   -1    0    0    0    0 -0.00000000000E+00 -0.00000000000E+00 -0.45593999997E+02  0.45594000000E+02  0.51100000000E-03 0. -1.
    9900012    2    1    2    0    0 -0.45114443020E+01 -0.20515290341E+02 -0.39848252206E+02  0.46142317950E+02  0.10000001723E+02 0.  0.
        -12    1    1    2    0    0  0.45114443020E+01  0.20515290341E+02  0.39848252206E+02  0.45045682050E+02  0.00000000000E+00 0.  1.
         11    1    3    3    0    0 -0.23125188555E+00 -0.15641396949E+00  0.25758311077E+00  0.37985797937E+00  0.51100000000E-03 0.  1.
        -11    1    3    3    0    0 -0.56917734904E+01 -0.10521249961E+02 -0.19331148912E+02  0.22732934363E+02  0.51100000000E-03 0. -1.
         12    1    3    3    0    0  0.14115810739E+01 -0.98376264100E+01 -0.20774686405E+02  0.23029525608E+02  0.00000000000E+00 0. -1.
</event>
<event>
 7    1  0.4081218E-008  0.4614232E+02  0.7816164E-02  0.1320468E+00
        -11   -1    0    0    0    0  0.00000000000E+00  0.00000000000E+00  0.45593999997E+02  0.45594000000E+02  0.51100000000E-03 0.  1.
         11   -1    0    0    0    0 -0.00000000000E+00 -0.00000000000E+00 -0.45593999997E+02  0.45594000000E+02  0.51100000000E-03 0. -1.
    9900012    2    1    2    0    0  0.26733499851E+02 -0.33482200797E+02  0.13905962033E+02  0.46142316915E+02  0.99999922852E+01 0.  0.
        -12    1    1    2    0    0 -0.26733499851E+02  0.33482200797E+02 -0.13905962033E+02  0.45045683085E+02  0.00000000000E+00 0.  1.
         11    1    3    3    0    0  0.80757643215E+01 -0.64746851612E+01  0.12272491134E+01  0.10423322789E+02  0.51100000000E-03 0.  1.
        -11    1    3    3    0    0  0.17075129560E+02 -0.21210449433E+02  0.11673728957E+02  0.29626325501E+02  0.51100000000E-03 0. -1.
        -12    1    3    3    0    0  0.15826059697E+01 -0.57970662029E+01  0.10049839626E+01  0.60926686256E+01  0.00000000000E+00 0.  1.
</event>
<event>
 7    1  0.4081218E-008  0.4614232E+02  0.7816164E-02  0.1320468E+00
        -11   -1    0    0    0    0  0.00000000000E+00  0.00000000000E+00  0.45593999997E+02  0.45594000000E+02  0.51100000000E-03 0.  1.
         11   -1    0    0    0    0 -0.00000000000E+00 -0.00000000000E+00 -0.45593999997E+02  0.45594000000E+02  0.51100000000E-03 0. -1.
    9900012    2    1    2    0    0  0.41823202754E+02  0.14504963339E+02 -0.83390042266E+01  0.46142320501E+02  0.10000024981E+02 0.  0.
        -12    1    1    2    0    0 -0.41823202754E+02 -0.14504963339E+02  0.83390042266E+01  0.45045679499E+02  0.00000000000E+00 0.  1.
         11    1    3    3    0    0  0.86251020469E+01  0.65581598392E+00 -0.13648643102E+01  0.87570163167E+01  0.51100000000E-03 0. -1.
        -11    1    3    3    0    0  0.47152615348E+01  0.23454322550E+00  0.99668317014E+00  0.48251507198E+01  0.51100000000E-03 0.  1.
        -12    1    3    3    0    0  0.28482839172E+02  0.13614604130E+02 -0.79708230865E+01  0.32560153464E+02  0.00000000000E+00 0.  1.
</event>
<event>
 7    1  0.4081218E-008  0.4614232E+02  0.7816164E-02  0.1320468E+00
        -11   -1    0    0    0    0  0.00000000000E+00  0.00000000000E+00  0.45593999997E+02  0.45594000000E+02  0.51100000000E-03 0. -1.
         11   -1    0    0    0    0 -0.00000000000E+00 -0.00000000000E+00 -0.45593999997E+02  0.45594000000E+02  0.51100000000E-03 0.  1.
    9900012    2    1    2    0    0 -0.11067161908E+02  0.35154004216E+02  0.25900335506E+02  0.46142318027E+02  0.10000002420E+02 0.  0.
        -12    1    1    2    0    0  0.11067161908E+02 -0.35154004216E+02 -0.25900335506E+02  0.45045681973E+02  0.00000000000E+00 0.  1.
         11    1    3    3    0    0 -0.89644742671E+01  0.16612831799E+02  0.14937823332E+02  0.24072526777E+02  0.51100000000E-03 0. -1.
        -11    1    3    3    0    0  0.10561234784E+01  0.16266635861E+01  0.13095288386E+01  0.23401489833E+01  0.51100000000E-03 0.  1.
         12    1    3    3    0    0 -0.31588111196E+01  0.16914508830E+02  0.96529833357E+01  0.19729642266E+02  0.00000000000E+00 0. -1.
</event>
<event>
 7    1  0.4081218E-008  0.4614232E+02  0.7816164E-02  0.1320468E+00
        -11   -1    0    0    0    0  0.00000000000E+00  0.00000000000E+00  0.45593999997E+02  0.45594000000E+02  0.51100000000E-03 0.  1.
         11   -1    0    0    0    0 -0.00000000000E+00 -0.00000000000E+00 -0.45593999997E+02  0.45594000000E+02  0.51100000000E-03 0. -1.
    9900012    2    1    2    0    0 -0.10947326722E+02 -0.19103573872E+02 -0.39297876240E+02  0.46142316811E+02  0.99999913340E+01 0.  0.
        -12    1    1    2    0    0  0.10947326722E+02  0.19103573872E+02  0.39297876240E+02  0.45045683189E+02  0.00000000000E+00 0.  1.
         11    1    3    3    0    0 -0.28912694415E+01 -0.36535902521E+01 -0.10436774217E+02  0.11429541418E+02  0.51100000000E-03 0.  1.
        -11    1    3    3    0    0 -0.61851813755E+01 -0.16088173943E+02 -0.26736711006E+02  0.31810965486E+02  0.51100000000E-03 0. -1.
        -12    1    3    3    0    0 -0.18708759054E+01  0.63819032350E+00 -0.21243910172E+01  0.29018099070E+01  0.00000000000E+00 0.  1.
</event>
<event>
 7    1  0.4086369E-008  0.4614232E+02  0.7816164E-02  0.1320468E+00
        -11   -1    0    0    0    0  0.00000000000E+00  0.00000000000E+00  0.45593999997E+02  0.45594000000E+02  0.51100000000E-03 0. -1.
         11   -1    0    0    0    0 -0.00000000000E+00 -0.00000000000E+00 -0.45593999997E+02  0.45594000000E+02  0.51100000000E-03 0.  1.
    9900012    2    1    2    0    0  0.79479902061E+01  0.42291453816E+02  0.13318251105E+02  0.46142318446E+02  0.10000006245E+02 0.  0.
        -12    1    1    2    0    0 -0.79479902061E+01 -0.42291453816E+02 -0.13318251105E+02  0.45045681554E+02  0.00000000000E+00 0.  1.
         11    1    3    3    0    0  0.39618997610E+01  0.24849541841E+02  0.73664378332E+01  0.26219473412E+02  0.51100000000E-03 0. -1.
        -11    1    3    3    0    0  0.19610225338E+01  0.94418452995E+01 -0.17466156461E+00  0.96449239998E+01  0.51100000000E-03 0.  1.
        -12    1    3    3    0    0  0.20250679112E+01  0.80000666758E+01  0.61264748360E+01  0.10277921034E+02  0.00000000000E+00 0.  1.
</event>
<event>
 7    1  0.4096878E-008  0.4614232E+02  0.7816164E-02  0.1320468E+00
        -11   -1    0    0    0    0  0.00000000000E+00  0.00000000000E+00  0.45593999997E+02  0.45594000000E+02  0.51100000000E-03 0.  1.
         11   -1    0    0    0    0 -0.00000000000E+00 -0.00000000000E+00 -0.45593999997E+02  0.45594000000E+02  0.51100000000E-03 0. -1.
    9900012    2    1    2    0    0 -0.49139491800E+01 -0.39117329804E+02 -0.21789929621E+02  0.46142318515E+02  0.10000006877E+02 0.  0.
        -12    1    1    2    0    0  0.49139491800E+01  0.39117329804E+02  0.21789929621E+02  0.45045681485E+02  0.00000000000E+00 0.  1.
         11    1    3    3    0    0 -0.41592417152E+01 -0.21655262550E+02 -0.94742702817E+01  0.24000239278E+02  0.51100000000E-03 0. -1.
        -11    1    3    3    0    0 -0.46082254408E+00 -0.14665419666E+02 -0.72915861514E+01  0.16384569578E+02  0.51100000000E-03 0.  1.
        -12    1    3    3    0    0 -0.29388492070E+00 -0.27966475878E+01 -0.50240731883E+01  0.57575096595E+01  0.00000000000E+00 0.  1.
</event>
<event>
 7    1  0.4081218E-008  0.4614232E+02  0.7816164E-02  0.1320468E+00
        -11   -1    0    0    0    0  0.00000000000E+00  0.00000000000E+00  0.45593999997E+02  0.45594000000E+02  0.51100000000E-03 0.  1.
         11   -1    0    0    0    0 -0.00000000000E+00 -0.00000000000E+00 -0.45593999997E+02  0.45594000000E+02  0.51100000000E-03 0. -1.
    9900012    2    1    2    0    0 -0.44067190409E+02  0.86294624025E+01 -0.35677240600E+01  0.46142317112E+02  0.99999940786E+01 0.  0.
        -12    1    1    2    0    0  0.44067190409E+02 -0.86294624025E+01  0.35677240600E+01  0.45045682888E+02  0.00000000000E+00 0.  1.
         11    1    3    3    0    0 -0.24898013205E+02  0.49483738427E+01 -0.40525783143E+01  0.25706436091E+02  0.51100000000E-03 0. -1.
        -11    1    3    3    0    0 -0.10338193355E+01 -0.10092936107E+01 -0.81488304208E+00  0.16587617805E+01  0.51100000000E-03 0.  1.
        -12    1    3    3    0    0 -0.18135357868E+02  0.46903821705E+01  0.12997372963E+01  0.18777119240E+02  0.00000000000E+00 0.  1.
</event>
<event>
 7    1  0.4081218E-008  0.4614232E+02  0.7816164E-02  0.1320468E+00
        -11   -1    0    0    0    0  0.00000000000E+00  0.00000000000E+00  0.45593999997E+02  0.45594000000E+02  0.51100000000E-03 0.  1.
         11   -1    0    0    0    0 -0.00000000000E+00 -0.00000000000E+00 -0.45593999997E+02  0.45594000000E+02  0.51100000000E-03 0. -1.
    9900012    2    1    2    0    0 -0.33252865522E+02  0.19754551933E+01 -0.30322566426E+02  0.46142317373E+02  0.99999964638E+01 0.  0.
        -12    1    1    2    0    0  0.33252865522E+02 -0.19754551933E+01  0.30322566426E+02  0.45045682627E+02  0.00000000000E+00 0.  1.
         11    1    3    3    0    0 -0.55288510752E+00  0.76088030349E+00  0.80527883289E-02  0.94057742206E+00  0.51100000000E-03 0. -1.
        -11    1    3    3    0    0 -0.51165973005E+01 -0.12610040403E+01 -0.82182965381E+01  0.97626890442E+01  0.51100000000E-03 0.  1.
         12    1    3    3    0    0 -0.27583383114E+02  0.24755789300E+01 -0.22112322676E+02  0.35439050907E+02  0.00000000000E+00 0. -1.
</event>
<event>
 7    1  0.4081218E-008  0.4614232E+02  0.7816164E-02  0.1320468E+00
        -11   -1    0    0    0    0  0.00000000000E+00  0.00000000000E+00  0.45593999997E+02  0.45594000000E+02  0.51100000000E-03 0.  1.
         11   -1    0    0    0    0 -0.00000000000E+00 -0.00000000000E+00 -0.45593999997E+02  0.45594000000E+02  0.51100000000E-03 0. -1.
    9900012    2    1    2    0    0 -0.84057834693E+00  0.78669313111E+01 -0.44345439324E+02  0.46142321305E+02  0.10000032318E+02 0.  0.
        -12    1    1    2    0    0  0.84057834693E+00 -0.78669313111E+01  0.44345439324E+02  0.45045678695E+02  0.00000000000E+00 0.  1.
         11    1    3    3    0    0  0.22289884628E+01  0.88509061827E+01 -0.29746705432E+02  0.31115485119E+02  0.51100000000E-03 0. -1.
        -11    1    3    3    0    0 -0.46492050102E+00 -0.18908491107E+00 -0.68549849507E+00  0.84959556480E+00  0.51100000000E-03 0.  1.
         12    1    3    3    0    0 -0.26046463087E+01 -0.79488996052E+00 -0.13913235397E+02  0.14177240622E+02  0.00000000000E+00 0. -1.
</event>
<event>
 7    1  0.4081218E-008  0.4614232E+02  0.7816164E-02  0.1320468E+00
        -11   -1    0    0    0    0  0.00000000000E+00  0.00000000000E+00  0.45593999997E+02  0.45594000000E+02  0.51100000000E-03 0.  1.
         11   -1    0    0    0    0 -0.00000000000E+00 -0.00000000000E+00 -0.45593999997E+02  0.45594000000E+02  0.51100000000E-03 0. -1.
    9900012    2    1    2    0    0  0.33687277124E+02 -0.13820426671E+02 -0.26519362905E+02  0.46142318272E+02  0.10000004663E+02 0.  0.
        -12    1    1    2    0    0 -0.33687277124E+02  0.13820426671E+02  0.26519362905E+02  0.45045681728E+02  0.00000000000E+00 0.  1.
         11    1    3    3    0    0  0.21852816256E+02 -0.47328480552E+01 -0.15170831379E+02  0.27020354439E+02  0.51100000000E-03 0. -1.
        -11    1    3    3    0    0  0.11393498425E+02 -0.73097298041E+01 -0.96535269220E+01  0.16626320654E+02  0.51100000000E-03 0.  1.
        -12    1    3    3    0    0  0.44096244317E+00 -0.17778488121E+01 -0.16950046038E+01  0.24956431800E+01  0.00000000000E+00 0.  1.
</event>
<event>
 7    1  0.4081218E-008  0.4614232E+02  0.7816164E-02  0.1320468E+00
        -11   -1    0    0    0    0  0.00000000000E+00  0.00000000000E+00  0.45593999997E+02  0.45594000000E+02  0.51100000000E-03 0.  1.
         11   -1    0    0    0    0 -0.00000000000E+00 -0.00000000000E+00 -0.45593999997E+02  0.45594000000E+02  0.51100000000E-03 0. -1.
    9900012    2    1    2    0    0  0.27562810686E+02 -0.27655604272E+02 -0.22462695138E+02  0.46142315929E+02  0.99999832927E+01 0.  0.
        -12    1    1    2    0    0 -0.27562810686E+02  0.27655604272E+02  0.22462695138E+02  0.45045684071E+02  0.00000000000E+00 0.  1.
         11    1    3    3    0    0  0.21636069726E+02 -0.17467524024E+02 -0.14882395669E+02  0.31539175795E+02  0.51100000000E-03 0. -1.
        -11    1    3    3    0    0  0.70314640614E+00 -0.30677945914E+01 -0.30635590004E+00  0.31622195879E+01  0.51100000000E-03 0.  1.
         12    1    3    3    0    0  0.52235945543E+01 -0.71202856565E+01 -0.72739435693E+01  0.11440920546E+02  0.00000000000E+00 0. -1.
</event>
<event>
 7    1  0.4081218E-008  0.4614232E+02  0.7816164E-02  0.1320468E+00
        -11   -1    0    0    0    0  0.00000000000E+00  0.00000000000E+00  0.45593999997E+02  0.45594000000E+02  0.51100000000E-03 0. -1.
         11   -1    0    0    0    0 -0.00000000000E+00 -0.00000000000E+00 -0.45593999997E+02  0.45594000000E+02  0.51100000000E-03 0.  1.
    9900012    2    1    2    0    0  0.12816148159E+00  0.25228265187E+02  0.37317981802E+02  0.46142317016E+02  0.99999932048E+01 0.  0.
        -12    1    1    2    0    0 -0.12816148159E+00 -0.25228265187E+02 -0.37317981802E+02  0.45045682984E+02  0.00000000000E+00 0.  1.
         11    1    3    3    0    0 -0.22303986773E+01  0.28354781820E+01  0.73286936680E+01  0.81684983884E+01  0.51100000000E-03 0. -1.
        -11    1    3    3    0    0 -0.50628111283E+00  0.21119205024E+01  0.62671792766E+01  0.66328022072E+01  0.51100000000E-03 0.  1.
         12    1    3    3    0    0  0.28648412717E+01  0.20280866503E+02  0.23722108857E+02  0.31341016420E+02  0.00000000000E+00 0. -1.
</event>
<event>
 7    1  0.4081218E-008  0.4614232E+02  0.7816164E-02  0.1320468E+00
        -11   -1    0    0    0    0  0.00000000000E+00  0.00000000000E+00  0.45593999997E+02  0.45594000000E+02  0.51100000000E-03 0.  1.
         11   -1    0    0    0    0 -0.00000000000E+00 -0.00000000000E+00 -0.45593999997E+02  0.45594000000E+02  0.51100000000E-03 0. -1.
    9900012    2    1    2    0    0  0.11502303932E+02 -0.42452426908E+01 -0.43344992959E+02  0.46142317678E+02  0.99999992435E+01 0.  0.
        -12    1    1    2    0    0 -0.11502303932E+02  0.42452426908E+01  0.43344992959E+02  0.45045682322E+02  0.00000000000E+00 0.  1.
         11    1    3    3    0    0  0.27491371238E+00 -0.18813080458E+01 -0.67000775366E+01  0.69646203608E+01  0.51100000000E-03 0.  1.
        -11    1    3    3    0    0  0.75258682040E+01 -0.52096453655E+01 -0.22903327245E+02  0.24664579790E+02  0.51100000000E-03 0. -1.
         12    1    3    3    0    0  0.37015220154E+01  0.28457107205E+01 -0.13741588177E+02  0.14513117527E+02  0.00000000000E+00 0. -1.
</event>
<event>
 7    1  0.4081218E-008  0.4614232E+02  0.7816164E-02  0.1320468E+00
        -11   -1    0    0    0    0  0.00000000000E+00  0.00000000000E+00  0.45593999997E+02  0.45594000000E+02  0.51100000000E-03 0.  1.
         11   -1    0    0    0    0 -0.00000000000E+00 -0.00000000000E+00 -0.45593999997E+02  0.45594000000E+02  0.51100000000E-03 0. -1.
    9900012    2    1    2    0    0 -0.33380510907E+02 -0.28676773309E+02  0.96175725704E+01  0.46142317210E+02  0.99999949778E+01 0.  0.
        -12    1    1    2    0    0  0.33380510907E+02  0.28676773309E+02 -0.96175725704E+01  0.45045682790E+02  0.00000000000E+00 0.  1.
         11    1    3    3    0    0 -0.47939025574E+01 -0.85204219515E+01  0.42512821683E+00  0.97856949791E+01  0.51100000000E-03 0. -1.
        -11    1    3    3    0    0 -0.18942389430E+02 -0.12829118595E+02  0.42209608057E+01  0.23264069111E+02  0.51100000000E-03 0.  1.
         12    1    3    3    0    0 -0.96442189198E+01 -0.73272327630E+01  0.49714835479E+01  0.13092553120E+02  0.00000000000E+00 0. -1.
</event>
<event>
 7    1  0.4081218E-008  0.4614232E+02  0.7816164E-02  0.1320468E+00
        -11   -1    0    0    0    0  0.00000000000E+00  0.00000000000E+00  0.45593999997E+02  0.45594000000E+02  0.51100000000E-03 0.  1.
         11   -1    0    0    0    0 -0.00000000000E+00 -0.00000000000E+00 -0.45593999997E+02  0.45594000000E+02  0.51100000000E-03 0. -1.
    9900012    2    1    2    0    0 -0.58490471630E+01  0.13726721845E+02 -0.42502696811E+02  0.46142317837E+02  0.10000000696E+02 0.  0.
        -12    1    1    2    0    0  0.58490471630E+01 -0.13726721845E+02  0.42502696811E+02  0.45045682163E+02  0.00000000000E+00 0.  1.
         11    1    3    3    0    0 -0.24291961179E+01  0.84940900581E+01 -0.15006570681E+02  0.17414009405E+02  0.51100000000E-03 0. -1.
        -11    1    3    3    0    0 -0.14151529015E+01  0.20780034133E+01 -0.28502374147E+01  0.38006064649E+01  0.51100000000E-03 0.  1.
         12    1    3    3    0    0 -0.20046981435E+01  0.31546283732E+01 -0.24645888715E+02  0.24927701968E+02  0.00000000000E+00 0. -1.
</event>
<event>
 7    1  0.4081218E-008  0.4614232E+02  0.7816164E-02  0.1320468E+00
        -11   -1    0    0    0    0  0.00000000000E+00  0.00000000000E+00  0.45593999997E+02  0.45594000000E+02  0.51100000000E-03 0. -1.
         11   -1    0    0    0    0 -0.00000000000E+00 -0.00000000000E+00 -0.45593999997E+02  0.45594000000E+02  0.51100000000E-03 0.  1.
    9900012    2    1    2    0    0 -0.19799503424E+02 -0.11159770435E+02  0.38891548933E+02  0.46142318848E+02  0.10000009916E+02 0.  0.
        -12    1    1    2    0    0  0.19799503424E+02  0.11159770435E+02 -0.38891548933E+02  0.45045681152E+02  0.00000000000E+00 0.  1.
         11    1    3    3    0    0 -0.13448821476E+02 -0.40492586298E+01  0.21749589459E+02  0.25890383088E+02  0.51100000000E-03 0. -1.
        -11    1    3    3    0    0 -0.51755169493E+01 -0.20287272153E+01  0.92602469874E+01  0.10800642774E+02  0.51100000000E-03 0.  1.
         12    1    3    3    0    0 -0.11751649989E+01 -0.50817845903E+01  0.78817124858E+01  0.94512929859E+01  0.00000000000E+00 0. -1.
</event>
<event>
 7    1  0.4081218E-008  0.4614233E+02  0.7816164E-02  0.1320468E+00
        -11   -1    0    0    0    0  0.00000000000E+00  0.00000000000E+00  0.45593999997E+02  0.45594000000E+02  0.51100000000E-03 0.  1.
         11   -1    0    0    0    0 -0.00000000000E+00 -0.00000000000E+00 -0.45593999997E+02  0.45594000000E+02  0.51100000000E-03 0. -1.
    9900012    2    1    2    0    0  0.35393975529E+02 -0.27241167263E+02 -0.58564491909E+01  0.46142326571E+02  0.10000080334E+02 0.  0.
        -12    1    1    2    0    0 -0.35393975529E+02  0.27241167263E+02  0.58564491909E+01  0.45045673429E+02  0.00000000000E+00 0.  1.
         11    1    3    3    0    0  0.25586477065E+02 -0.16034582701E+02 -0.22173253482E+01  0.30276924926E+02  0.51100000000E-03 0. -1.
        -11    1    3    3    0    0  0.97941453489E+01 -0.98195992743E+01 -0.25491886821E+01  0.14101353702E+02  0.51100000000E-03 0.  1.
        -12    1    3    3    0    0  0.13353115128E-01 -0.13869852873E+01 -0.10899351606E+01  0.17640479436E+01  0.00000000000E+00 0.  1.
</event>
<event>
 7    1  0.4081218E-008  0.4614232E+02  0.7816164E-02  0.1320468E+00
        -11   -1    0    0    0    0  0.00000000000E+00  0.00000000000E+00  0.45593999997E+02  0.45594000000E+02  0.51100000000E-03 0. -1.
         11   -1    0    0    0    0 -0.00000000000E+00 -0.00000000000E+00 -0.45593999997E+02  0.45594000000E+02  0.51100000000E-03 0.  1.
    9900012    2    1    2    0    0 -0.12257085563E+02 -0.38404396729E+02  0.20099246113E+02  0.46142317311E+02  0.99999958964E+01 0.  0.
        -12    1    1    2    0    0  0.12257085563E+02  0.38404396729E+02 -0.20099246113E+02  0.45045682689E+02  0.00000000000E+00 0.  1.
         11    1    3    3    0    0 -0.83349121353E+01 -0.13260642946E+02  0.83775232819E+01  0.17762272047E+02  0.51100000000E-03 0. -1.
        -11    1    3    3    0    0 -0.39092108417E+01 -0.11397855856E+02  0.63636700389E+01  0.13626787742E+02  0.51100000000E-03 0.  1.
        -12    1    3    3    0    0 -0.12962586404E-01 -0.13745897926E+02  0.53580527921E+01  0.14753257523E+02  0.00000000000E+00 0.  1.
</event>
<event>
 7    1  0.4081218E-008  0.4614232E+02  0.7816164E-02  0.1320468E+00
        -11   -1    0    0    0    0  0.00000000000E+00  0.00000000000E+00  0.45593999997E+02  0.45594000000E+02  0.51100000000E-03 0. -1.
         11   -1    0    0    0    0 -0.00000000000E+00 -0.00000000000E+00 -0.45593999997E+02  0.45594000000E+02  0.51100000000E-03 0.  1.
    9900012    2    1    2    0    0  0.18491005084E+02  0.37661170948E+02  0.16396110058E+02  0.46142317729E+02  0.99999997104E+01 0.  0.
        -12    1    1    2    0    0 -0.18491005084E+02 -0.37661170948E+02 -0.16396110058E+02  0.45045682271E+02  0.00000000000E+00 0.  1.
         11    1    3    3    0    0  0.51052521436E+01  0.62663666068E+01  0.57826835671E+01  0.99383288031E+01  0.51100000000E-03 0.  1.
        -11    1    3    3    0    0  0.88033191192E+01  0.14602873713E+02  0.35347781837E+01  0.17413701653E+02  0.51100000000E-03 0. -1.
         12    1    3    3    0    0  0.45824338210E+01  0.16791930629E+02  0.70786483070E+01  0.18790287274E+02  0.00000000000E+00 0. -1.
</event>
<event>
 7    1  0.4081218E-008  0.4614232E+02  0.7816164E-02  0.1320468E+00
        -11   -1    0    0    0    0  0.00000000000E+00  0.00000000000E+00  0.45593999997E+02  0.45594000000E+02  0.51100000000E-03 0. -1.
         11   -1    0    0    0    0 -0.00000000000E+00 -0.00000000000E+00 -0.45593999997E+02  0.45594000000E+02  0.51100000000E-03 0.  1.
    9900012    2    1    2    0    0 -0.42248060932E+02  0.94623852509E+01  0.12436968335E+02  0.46142316871E+02  0.99999918861E+01 0.  0.
        -12    1    1    2    0    0  0.42248060932E+02 -0.94623852509E+01 -0.12436968335E+02  0.45045683129E+02  0.00000000000E+00 0.  1.
         11    1    3    3    0    0 -0.21526819441E+02  0.43170437543E+01  0.25568405863E+01  0.22103806371E+02  0.51100000000E-03 0. -1.
        -11    1    3    3    0    0 -0.72059674658E+01  0.41360446063E+01  0.29517506555E+01  0.88173501856E+01  0.51100000000E-03 0.  1.
        -12    1    3    3    0    0 -0.13515274025E+02  0.10092968902E+01  0.69283770927E+01  0.15221160315E+02  0.00000000000E+00 0.  1.
</event>
<event>
 7    1  0.4081218E-008  0.4614232E+02  0.7816164E-02  0.1320468E+00
        -11   -1    0    0    0    0  0.00000000000E+00  0.00000000000E+00  0.45593999997E+02  0.45594000000E+02  0.51100000000E-03 0.  1.
         11   -1    0    0    0    0 -0.00000000000E+00 -0.00000000000E+00 -0.45593999997E+02  0.45594000000E+02  0.51100000000E-03 0. -1.
    9900012    2    1    2    0    0 -0.12525996621E+02  0.43244899745E+02  0.14462142838E+01  0.46142317842E+02  0.10000000735E+02 0.  0.
        -12    1    1    2    0    0  0.12525996621E+02 -0.43244899745E+02 -0.14462142838E+01  0.45045682158E+02  0.00000000000E+00 0.  1.
         11    1    3    3    0    0 -0.56919689970E+01  0.15575475573E+02 -0.34998053966E-03  0.16582941560E+02  0.51100000000E-03 0. -1.
        -11    1    3    3    0    0 -0.36762881149E+01  0.23510870433E+02 -0.94686819717E+00  0.23815387515E+02  0.51100000000E-03 0.  1.
         12    1    3    3    0    0 -0.31577395094E+01  0.41585537389E+01  0.23934324615E+01  0.57439887671E+01  0.00000000000E+00 0. -1.
</event>
<event>
 7    1  0.4081218E-008  0.4614232E+02  0.7816164E-02  0.1320468E+00
        -11   -1    0    0    0    0  0.00000000000E+00  0.00000000000E+00  0.45593999997E+02  0.45594000000E+02  0.51100000000E-03 0.  1.
         11   -1    0    0    0    0 -0.00000000000E+00 -0.00000000000E+00 -0.45593999997E+02  0.45594000000E+02  0.51100000000E-03 0. -1.
    9900012    2    1    2    0    0  0.19990512811E+02 -0.39390830693E+02 -0.88235721416E+01  0.46142316850E+02  0.99999916948E+01 0.  0.
        -12    1    1    2    0    0 -0.19990512811E+02  0.39390830693E+02  0.88235721416E+01  0.45045683150E+02  0.00000000000E+00 0.  1.
         11    1    3    3    0    0  0.15626239632E+02 -0.34651239071E+02 -0.83233627927E+01  0.38912287297E+02  0.51100000000E-03 0. -1.
        -11    1    3    3    0    0  0.29010974428E+01 -0.20653044940E+01 -0.17098938296E+01  0.39503906383E+01  0.51100000000E-03 0.  1.
         12    1    3    3    0    0  0.14631757357E+01 -0.26742871272E+01  0.12096844807E+01  0.32796389154E+01  0.00000000000E+00 0. -1.
</event>
<event>
 7    1  0.4081218E-008  0.4614232E+02  0.7816164E-02  0.1320468E+00
        -11   -1    0    0    0    0  0.00000000000E+00  0.00000000000E+00  0.45593999997E+02  0.45594000000E+02  0.51100000000E-03 0.  1.
         11   -1    0    0    0    0 -0.00000000000E+00 -0.00000000000E+00 -0.45593999997E+02  0.45594000000E+02  0.51100000000E-03 0. -1.
    9900012    2    1    2    0    0  0.16274471924E+02  0.56402743955E+01 -0.41622616019E+02  0.46142319898E+02  0.10000019482E+02 0.  0.
        -12    1    1    2    0    0 -0.16274471924E+02 -0.56402743955E+01  0.41622616019E+02  0.45045680102E+02  0.00000000000E+00 0.  1.
         11    1    3    3    0    0 -0.45165985351E+00  0.16624642379E+01 -0.40241218244E+01  0.43773668665E+01  0.51100000000E-03 0. -1.
        -11    1    3    3    0    0  0.95972417618E+01  0.52436726597E+01 -0.23204026701E+02  0.25652095583E+02  0.51100000000E-03 0.  1.
         12    1    3    3    0    0  0.71288900153E+01 -0.12658625020E+01 -0.14394467493E+02  0.16112857448E+02  0.00000000000E+00 0. -1.
</event>
<event>
 7    1  0.4081218E-008  0.4614232E+02  0.7816164E-02  0.1320468E+00
        -11   -1    0    0    0    0  0.00000000000E+00  0.00000000000E+00  0.45593999997E+02  0.45594000000E+02  0.51100000000E-03 0.  1.
         11   -1    0    0    0    0 -0.00000000000E+00 -0.00000000000E+00 -0.45593999997E+02  0.45594000000E+02  0.51100000000E-03 0. -1.
    9900012    2    1    2    0    0  0.14427228115E+02 -0.37673798316E+02 -0.20041295973E+02  0.46142317245E+02  0.99999952898E+01 0.  0.
        -12    1    1    2    0    0 -0.14427228115E+02  0.37673798316E+02  0.20041295973E+02  0.45045682755E+02  0.00000000000E+00 0.  1.
         11    1    3    3    0    0 -0.11549721213E+01 -0.33000302564E+01 -0.56977914370E+00  0.35424297915E+01  0.51100000000E-03 0. -1.
        -11    1    3    3    0    0  0.15144520026E+02 -0.31274732701E+02 -0.18141420254E+02  0.39199190316E+02  0.51100000000E-03 0.  1.
         12    1    3    3    0    0  0.43768021090E+00 -0.30990353582E+01 -0.13300965754E+01  0.34006971371E+01  0.00000000000E+00 0. -1.
</event>
<event>
 7    1  0.4081218E-008  0.4614232E+02  0.7816164E-02  0.1320468E+00
        -11   -1    0    0    0    0  0.00000000000E+00  0.00000000000E+00  0.45593999997E+02  0.45594000000E+02  0.51100000000E-03 0.  1.
         11   -1    0    0    0    0 -0.00000000000E+00 -0.00000000000E+00 -0.45593999997E+02  0.45594000000E+02  0.51100000000E-03 0. -1.
    9900012    2    1    2    0    0  0.20960006549E+02  0.19039577021E+02 -0.35032637577E+02  0.46142322480E+02  0.10000043028E+02 0.  0.
        -12    1    1    2    0    0 -0.20960006549E+02 -0.19039577021E+02  0.35032637577E+02  0.45045677520E+02  0.00000000000E+00 0.  1.
         11    1    3    3    0    0  0.12501534551E+02  0.78956505276E+01 -0.16457026592E+02  0.22123819469E+02  0.51100000000E-03 0.  1.
        -11    1    3    3    0    0  0.30919200481E+01  0.97197718308E+00 -0.69337698280E+01  0.76538796382E+01  0.51100000000E-03 0. -1.
        -12    1    3    3    0    0  0.53665519499E+01  0.10171949310E+02 -0.11641841157E+02  0.16364623373E+02  0.00000000000E+00 0.  1.
</event>
<event>
 7    1  0.4081218E-008  0.4614232E+02  0.7816164E-02  0.1320468E+00
        -11   -1    0    0    0    0  0.00000000000E+00  0.00000000000E+00  0.45593999997E+02  0.45594000000E+02  0.51100000000E-03 0.  1.
         11   -1    0    0    0    0 -0.00000000000E+00 -0.00000000000E+00 -0.45593999997E+02  0.45594000000E+02  0.51100000000E-03 0. -1.
    9900012    2    1    2    0    0  0.30186058773E-02  0.42102994764E+02 -0.16014099952E+02  0.46142316806E+02  0.99999912886E+01 0.  0.
        -12    1    1    2    0    0 -0.30186058773E-02 -0.42102994764E+02  0.16014099952E+02  0.45045683194E+02  0.00000000000E+00 0.  1.
         11    1    3    3    0    0 -0.80949267711E+00  0.60488060179E+01 -0.45777664249E+01  0.76288451510E+01  0.51100000000E-03 0. -1.
        -11    1    3    3    0    0 -0.28446750550E+01  0.81285957091E+01 -0.27426167484E+01  0.90381519825E+01  0.51100000000E-03 0.  1.
         12    1    3    3    0    0  0.36571863380E+01  0.27925593037E+02 -0.86937167783E+01  0.29475319672E+02  0.00000000000E+00 0. -1.
</event>
<event>
 7    1  0.4334862E-008  0.4614232E+02  0.7816164E-02  0.1320468E+00
        -11   -1    0    0    0    0  0.00000000000E+00  0.00000000000E+00  0.45593999997E+02  0.45594000000E+02  0.51100000000E-03 0.  1.
         11   -1    0    0    0    0 -0.00000000000E+00 -0.00000000000E+00 -0.45593999997E+02  0.45594000000E+02  0.51100000000E-03 0. -1.
    9900012    2    1    2    0    0 -0.12334955056E+02  0.43233223879E+02  0.28019224537E+01  0.46142317269E+02  0.99999955159E+01 0.  0.
        -12    1    1    2    0    0  0.12334955056E+02 -0.43233223879E+02 -0.28019224537E+01  0.45045682731E+02  0.00000000000E+00 0.  1.
         11    1    3    3    0    0 -0.42894339569E+01  0.19882855611E+02  0.32870221891E+00  0.20342940700E+02  0.51100000000E-03 0. -1.
        -11    1    3    3    0    0 -0.38673391923E+01  0.19775645921E+02  0.14158937500E+01  0.20199931668E+02  0.51100000000E-03 0.  1.
        -12    1    3    3    0    0 -0.41781819066E+01  0.35747223472E+01  0.10573264847E+01  0.55994449010E+01  0.00000000000E+00 0.  1.
</event>
<event>
 7    1  0.4081218E-008  0.4614232E+02  0.7816164E-02  0.1320468E+00
        -11   -1    0    0    0    0  0.00000000000E+00  0.00000000000E+00  0.45593999997E+02  0.45594000000E+02  0.51100000000E-03 0. -1.
         11   -1    0    0    0    0 -0.00000000000E+00 -0.00000000000E+00 -0.45593999997E+02  0.45594000000E+02  0.51100000000E-03 0.  1.
    9900012    2    1    2    0    0  0.41056597150E+01  0.43628893282E+02  0.10429612458E+02  0.46142316669E+02  0.99999900421E+01 0.  0.
        -12    1    1    2    0    0 -0.41056597150E+01 -0.43628893282E+02 -0.10429612458E+02  0.45045683331E+02  0.00000000000E+00 0.  1.
         11    1    3    3    0    0  0.65478269126E+00  0.18005609822E+02  0.27259390426E+01  0.18222553865E+02  0.51100000000E-03 0. -1.
        -11    1    3    3    0    0 -0.16689482172E+00  0.14505188920E+02  0.72550927309E+01  0.16219270338E+02  0.51100000000E-03 0.  1.
         12    1    3    3    0    0  0.36177718454E+01  0.11118094540E+02  0.44858068427E+00  0.11700492466E+02  0.00000000000E+00 0. -1.
</event>
<event>
 7    1  0.4081218E-008  0.4614232E+02  0.7816164E-02  0.1320468E+00
        -11   -1    0    0    0    0  0.00000000000E+00  0.00000000000E+00  0.45593999997E+02  0.45594000000E+02  0.51100000000E-03 0.  1.
         11   -1    0    0    0    0 -0.00000000000E+00 -0.00000000000E+00 -0.45593999997E+02  0.45594000000E+02  0.51100000000E-03 0. -1.
    9900012    2    1    2    0    0  0.54180407245E+01  0.29709291180E+02  0.33423290306E+02  0.46142317826E+02  0.10000000587E+02 0.  0.
        -12    1    1    2    0    0 -0.54180407245E+01 -0.29709291180E+02 -0.33423290306E+02  0.45045682174E+02  0.00000000000E+00 0.  1.
         11    1    3    3    0    0  0.12092032979E+01  0.15702427251E+01  0.56502429102E+00  0.20608463169E+01  0.51100000000E-03 0. -1.
        -11    1    3    3    0    0  0.63059639728E+01  0.22004266295E+02  0.26125124588E+02  0.34734349740E+02  0.51100000000E-03 0.  1.
        -12    1    3    3    0    0 -0.20971265462E+01  0.61347821599E+01  0.67331414262E+01  0.93471217691E+01  0.00000000000E+00 0.  1.
</event>
<event>
 7    1  0.4081218E-008  0.4614232E+02  0.7816164E-02  0.1320468E+00
        -11   -1    0    0    0    0  0.00000000000E+00  0.00000000000E+00  0.45593999997E+02  0.45594000000E+02  0.51100000000E-03 0.  1.
         11   -1    0    0    0    0 -0.00000000000E+00 -0.00000000000E+00 -0.45593999997E+02  0.45594000000E+02  0.51100000000E-03 0. -1.
    9900012    2    1    2    0    0  0.14279026340E+02 -0.13422925047E+02 -0.40559193144E+02  0.46142315873E+02  0.99999827803E+01 0.  0.
        -12    1    1    2    0    0 -0.14279026340E+02  0.13422925047E+02  0.40559193144E+02  0.45045684127E+02  0.00000000000E+00 0.  1.
         11    1    3    3    0    0  0.14166837309E+02 -0.95084199323E+01 -0.35048474805E+02  0.38980827536E+02  0.51100000000E-03 0. -1.
        -11    1    3    3    0    0  0.70299033177E+00 -0.38817429179E+01 -0.44493902332E+01  0.59463599955E+01  0.51100000000E-03 0.  1.
         12    1    3    3    0    0 -0.59080130123E+00 -0.32762197074E-01 -0.10613281049E+01  0.12151283411E+01  0.00000000000E+00 0. -1.
</event>
<event>
 7    1  0.4081218E-008  0.4614232E+02  0.7816164E-02  0.1320468E+00
        -11   -1    0    0    0    0  0.00000000000E+00  0.00000000000E+00  0.45593999997E+02  0.45594000000E+02  0.51100000000E-03 0. -1.
         11   -1    0    0    0    0 -0.00000000000E+00 -0.00000000000E+00 -0.45593999997E+02  0.45594000000E+02  0.51100000000E-03 0.  1.
    9900012    2    1    2    0    0  0.82838246511E+01  0.40964544309E+02  0.16804695912E+02  0.46142318231E+02  0.10000004288E+02 0.  0.
        -12    1    1    2    0    0 -0.82838246511E+01 -0.40964544309E+02 -0.16804695912E+02  0.45045681769E+02  0.00000000000E+00 0.  1.
         11    1    3    3    0    0  0.18095466911E+01  0.23761144228E+01  0.11910787375E+01  0.32154389743E+01  0.51100000000E-03 0. -1.
        -11    1    3    3    0    0 -0.12763507279E+01  0.91262480999E+01  0.14414061411E+01  0.93271178553E+01  0.51100000000E-03 0.  1.
         12    1    3    3    0    0  0.77506286879E+01  0.29462181786E+02  0.14172211034E+02  0.33599761402E+02  0.00000000000E+00 0. -1.
</event>
<event>
 7    1  0.4081218E-008  0.4614232E+02  0.7816164E-02  0.1320468E+00
        -11   -1    0    0    0    0  0.00000000000E+00  0.00000000000E+00  0.45593999997E+02  0.45594000000E+02  0.51100000000E-03 0.  1.
         11   -1    0    0    0    0 -0.00000000000E+00 -0.00000000000E+00 -0.45593999997E+02  0.45594000000E+02  0.51100000000E-03 0. -1.
    9900012    2    1    2    0    0 -0.11996475854E+02  0.33701597032E+02  0.27375181621E+02  0.46142316031E+02  0.99999842280E+01 0.  0.
        -12    1    1    2    0    0  0.11996475854E+02 -0.33701597032E+02 -0.27375181621E+02  0.45045683969E+02  0.00000000000E+00 0.  1.
         11    1    3    3    0    0 -0.54542388541E+01  0.21088882720E+02  0.16943276963E+02  0.27596455032E+02  0.51100000000E-03 0. -1.
        -11    1    3    3    0    0 -0.48306147624E+00  0.42883401106E+01  0.68775593913E+00  0.43699219429E+01  0.51100000000E-03 0.  1.
         12    1    3    3    0    0 -0.60591755236E+01  0.83243742015E+01  0.97441487191E+01  0.14175939056E+02  0.00000000000E+00 0. -1.
</event>
<event>
 7    1  0.4081218E-008  0.4614232E+02  0.7816164E-02  0.1320468E+00
        -11   -1    0    0    0    0  0.00000000000E+00  0.00000000000E+00  0.45593999997E+02  0.45594000000E+02  0.51100000000E-03 0.  1.
         11   -1    0    0    0    0 -0.00000000000E+00 -0.00000000000E+00 -0.45593999997E+02  0.45594000000E+02  0.51100000000E-03 0. -1.
    9900012    2    1    2    0    0  0.13225095779E+02 -0.34488695640E+02 -0.25782556155E+02  0.46142317775E+02  0.10000000123E+02 0.  0.
        -12    1    1    2    0    0 -0.13225095779E+02  0.34488695640E+02  0.25782556155E+02  0.45045682225E+02  0.00000000000E+00 0.  1.
         11    1    3    3    0    0  0.13291854661E+01 -0.89747323490E+01 -0.81245378262E+01  0.12178697381E+02  0.51100000000E-03 0. -1.
        -11    1    3    3    0    0  0.27785203090E+01 -0.18071283165E+01 -0.60203523675E+00  0.33687289216E+01  0.51100000000E-03 0.  1.
        -12    1    3    3    0    0  0.91173900036E+01 -0.23706834974E+02 -0.17055983092E+02  0.30594891472E+02  0.00000000000E+00 0.  1.
</event>
<event>
 7    1  0.4081218E-008  0.4614231E+02  0.7816164E-02  0.1320468E+00
        -11   -1    0    0    0    0  0.00000000000E+00  0.00000000000E+00  0.45593999997E+02  0.45594000000E+02  0.51100000000E-03 0. -1.
         11   -1    0    0    0    0 -0.00000000000E+00 -0.00000000000E+00 -0.45593999997E+02  0.45594000000E+02  0.51100000000E-03 0.  1.
    9900012    2    1    2    0    0 -0.17493277053E+01  0.44907589800E+02  0.30597603222E+01  0.46142313167E+02  0.99999581076E+01 0.  0.
        -12    1    1    2    0    0  0.17493277053E+01 -0.44907589800E+02 -0.30597603222E+01  0.45045686833E+02  0.00000000000E+00 0.  1.
         11    1    3    3    0    0 -0.27545295911E-01  0.97837384338E+01 -0.50192818324E+00  0.97966437440E+01  0.51100000000E-03 0. -1.
        -11    1    3    3    0    0 -0.34954593346E+01  0.17314352274E+02  0.50914326703E+01  0.18382810381E+02  0.51100000000E-03 0.  1.
        -12    1    3    3    0    0  0.17736769252E+01  0.17809499092E+02 -0.15297441649E+01  0.17962859042E+02  0.00000000000E+00 0.  1.
</event>
<event>
 7    1  0.4081218E-008  0.4614232E+02  0.7816164E-02  0.1320468E+00
        -11   -1    0    0    0    0  0.00000000000E+00  0.00000000000E+00  0.45593999997E+02  0.45594000000E+02  0.51100000000E-03 0. -1.
         11   -1    0    0    0    0 -0.00000000000E+00 -0.00000000000E+00 -0.45593999997E+02  0.45594000000E+02  0.51100000000E-03 0.  1.
    9900012    2    1    2    0    0 -0.30217879112E+02 -0.27200173808E+02  0.19394423526E+02  0.46142319439E+02  0.10000015303E+02 0.  0.
        -12    1    1    2    0    0  0.30217879112E+02  0.27200173808E+02 -0.19394423526E+02  0.45045680561E+02  0.00000000000E+00 0.  1.
         11    1    3    3    0    0 -0.26726903128E+01 -0.11912218705E+01  0.31622176639E+01  0.43083528021E+01  0.51100000000E-03 0. -1.
        -11    1    3    3    0    0 -0.25078658620E+01 -0.75670070433E-01  0.10868446835E+01  0.27342912735E+01  0.51100000000E-03 0.  1.
         12    1    3    3    0    0 -0.25037322938E+02 -0.25933281868E+02  0.15145361179E+02  0.39099675364E+02  0.00000000000E+00 0. -1.
</event>
<event>
 7    1  0.4081218E-008  0.4614232E+02  0.7816164E-02  0.1320468E+00
        -11   -1    0    0    0    0  0.00000000000E+00  0.00000000000E+00  0.45593999997E+02  0.45594000000E+02  0.51100000000E-03 0. -1.
         11   -1    0    0    0    0 -0.00000000000E+00 -0.00000000000E+00 -0.45593999997E+02  0.45594000000E+02  0.51100000000E-03 0.  1.
    9900012    2    1    2    0    0 -0.31507766239E+02  0.20468000448E+01  0.32127632723E+02  0.46142317541E+02  0.99999979914E+01 0.  0.
        -12    1    1    2    0    0  0.31507766239E+02 -0.20468000448E+01 -0.32127632723E+02  0.45045682459E+02  0.00000000000E+00 0.  1.
         11    1    3    3    0    0 -0.39816013296E+01 -0.11727014339E+01  0.68202732210E+01  0.79840155856E+01  0.51100000000E-03 0. -1.
        -11    1    3    3    0    0  0.29942511368E+00 -0.27551715999E+00  0.87091733216E+00  0.96128162613E+00  0.51100000000E-03 0.  1.
         12    1    3    3    0    0 -0.27825590023E+02  0.34950186387E+01  0.24436442170E+02  0.37197020329E+02  0.00000000000E+00 0. -1.
</event>
<event>
 7    1  0.4081218E-008  0.4614232E+02  0.7816164E-02  0.1320468E+00
        -11   -1    0    0    0    0  0.00000000000E+00  0.00000000000E+00  0.45593999997E+02  0.45594000000E+02  0.51100000000E-03 0.  1.
         11   -1    0    0    0    0 -0.00000000000E+00 -0.00000000000E+00 -0.45593999997E+02  0.45594000000E+02  0.51100000000E-03 0. -1.
    9900012    2    1    2    0    0  0.19614709444E+02 -0.34088679011E+01 -0.40407378595E+02  0.46142318166E+02  0.10000003694E+02 0.  0.
        -12    1    1    2    0    0 -0.19614709444E+02  0.34088679011E+01  0.40407378595E+02  0.45045681834E+02  0.00000000000E+00 0.  1.
         11    1    3    3    0    0  0.15789308110E+02 -0.31746785985E+01 -0.27608068197E+02  0.31962263134E+02  0.51100000000E-03 0. -1.
        -11    1    3    3    0    0  0.41926197481E+00  0.12755799158E+01 -0.68817665338E+00  0.15087982279E+01  0.51100000000E-03 0.  1.
         12    1    3    3    0    0  0.34061393597E+01 -0.15097692183E+01 -0.12111133744E+02  0.12671256804E+02  0.00000000000E+00 0. -1.
</event>
<event>
 7    1  0.4081218E-008  0.4614232E+02  0.7816164E-02  0.1320468E+00
        -11   -1    0    0    0    0  0.00000000000E+00  0.00000000000E+00  0.45593999997E+02  0.45594000000E+02  0.51100000000E-03 0.  1.
         11   -1    0    0    0    0 -0.00000000000E+00 -0.00000000000E+00 -0.45593999997E+02  0.45594000000E+02  0.51100000000E-03 0. -1.
    9900012    2    1    2    0    0 -0.12474793679E+02  0.37338579976E+02 -0.21893456461E+02  0.46142317990E+02  0.10000002084E+02 0.  0.
        -12    1    1    2    0    0  0.12474793679E+02 -0.37338579976E+02  0.21893456461E+02  0.45045682010E+02  0.00000000000E+00 0.  1.
         11    1    3    3    0    0 -0.79834284052E+00  0.27122158711E+01 -0.25173216133E+01  0.37855481225E+01  0.51100000000E-03 0.  1.
        -11    1    3    3    0    0 -0.11951001295E+02  0.24442780863E+02 -0.16292056649E+02  0.31712885053E+02  0.51100000000E-03 0. -1.
        -12    1    3    3    0    0  0.27455045663E+00  0.10183583242E+02 -0.30840781991E+01  0.10643884814E+02  0.00000000000E+00 0.  1.
</event>
<event>
 7    1  0.4081218E-008  0.4614232E+02  0.7816164E-02  0.1320468E+00
        -11   -1    0    0    0    0  0.00000000000E+00  0.00000000000E+00  0.45593999997E+02  0.45594000000E+02  0.51100000000E-03 0. -1.
         11   -1    0    0    0    0 -0.00000000000E+00 -0.00000000000E+00 -0.45593999997E+02  0.45594000000E+02  0.51100000000E-03 0.  1.
    9900012    2    1    2    0    0  0.28035747884E+02  0.25089115578E+02  0.24771891514E+02  0.46142317754E+02  0.99999999318E+01 0.  0.
        -12    1    1    2    0    0 -0.28035747884E+02 -0.25089115578E+02 -0.24771891514E+02  0.45045682246E+02  0.00000000000E+00 0.  1.
         11    1    3    3    0    0  0.39853254163E+01  0.20073238876E+01  0.44867181369E+01  0.63279386663E+01  0.51100000000E-03 0. -1.
        -11    1    3    3    0    0  0.19189217002E+02  0.15224753640E+02  0.17697581202E+02  0.30219588899E+02  0.51100000000E-03 0.  1.
        -12    1    3    3    0    0  0.48612054653E+01  0.78570380505E+01  0.25875921751E+01  0.95947901888E+01  0.00000000000E+00 0.  1.
</event>
<event>
 7    1  0.4081218E-008  0.4614232E+02  0.7816164E-02  0.1320468E+00
        -11   -1    0    0    0    0  0.00000000000E+00  0.00000000000E+00  0.45593999997E+02  0.45594000000E+02  0.51100000000E-03 0.  1.
         11   -1    0    0    0    0 -0.00000000000E+00 -0.00000000000E+00 -0.45593999997E+02  0.45594000000E+02  0.51100000000E-03 0. -1.
    9900012    2    1    2    0    0  0.17672908769E+02  0.29909514892E+02 -0.28674078489E+02  0.46142316937E+02  0.99999924830E+01 0.  0.
        -12    1    1    2    0    0 -0.17672908769E+02 -0.29909514892E+02  0.28674078489E+02  0.45045683063E+02  0.00000000000E+00 0.  1.
         11    1    3    3    0    0  0.11310636793E+00  0.25260361376E+01 -0.16073309603E+01  0.29961916988E+01  0.51100000000E-03 0.  1.
        -11    1    3    3    0    0  0.13332028570E+02  0.24631138672E+02 -0.19799425808E+02  0.34299464145E+02  0.51100000000E-03 0. -1.
        -12    1    3    3    0    0  0.42277738316E+01  0.27523400825E+01 -0.72673217201E+01  0.88466610925E+01  0.00000000000E+00 0.  1.
</event>
<event>
 7    1  0.4081218E-008  0.4614232E+02  0.7816164E-02  0.1320468E+00
        -11   -1    0    0    0    0  0.00000000000E+00  0.00000000000E+00  0.45593999997E+02  0.45594000000E+02  0.51100000000E-03 0. -1.
         11   -1    0    0    0    0 -0.00000000000E+00 -0.00000000000E+00 -0.45593999997E+02  0.45594000000E+02  0.51100000000E-03 0.  1.
    9900012    2    1    2    0    0 -0.14184122512E+02 -0.24937007278E+02 -0.34728515948E+02  0.46142317817E+02  0.10000000506E+02 0.  0.
        -12    1    1    2    0    0  0.14184122512E+02  0.24937007278E+02  0.34728515948E+02  0.45045682183E+02  0.00000000000E+00 0.  1.
         11    1    3    3    0    0 -0.91493971643E+01 -0.21437663049E+02 -0.26991095960E+02  0.35662362889E+02  0.51100000000E-03 0. -1.
        -11    1    3    3    0    0 -0.21009997528E+01 -0.11250318825E+01 -0.68266153887E+00  0.24790973631E+01  0.51100000000E-03 0.  1.
        -12    1    3    3    0    0 -0.29337255949E+01 -0.23743123464E+01 -0.70547584491E+01  0.80008575640E+01  0.00000000000E+00 0.  1.
</event>
<event>
 7    1  0.4081218E-008  0.4614232E+02  0.7816164E-02  0.1320468E+00
        -11   -1    0    0    0    0  0.00000000000E+00  0.00000000000E+00  0.45593999997E+02  0.45594000000E+02  0.51100000000E-03 0.  1.
         11   -1    0    0    0    0 -0.00000000000E+00 -0.00000000000E+00 -0.45593999997E+02  0.45594000000E+02  0.51100000000E-03 0. -1.
    9900012    2    1    2    0    0  0.43420951125E+02 -0.41515163281E+01 -0.11247192506E+02  0.46142318479E+02  0.10000006544E+02 0.  0.
        -12    1    1    2    0    0 -0.43420951125E+02  0.41515163281E+01  0.11247192506E+02  0.45045681521E+02  0.00000000000E+00 0.  1.
         11    1    3    3    0    0  0.16155408106E+02 -0.77768061491E+00 -0.13743554166E+01  0.16232401279E+02  0.51100000000E-03 0. -1.
        -11    1    3    3    0    0  0.16886991286E+02 -0.52551792583E+01 -0.61738461344E+01  0.18732425365E+02  0.51100000000E-03 0.  1.
         12    1    3    3    0    0  0.10378551733E+02  0.18813435452E+01 -0.36989909551E+01  0.11177491834E+02  0.00000000000E+00 0. -1.
</event>
<event>
 7    1  0.4081218E-008  0.4614232E+02  0.7816164E-02  0.1320468E+00
        -11   -1    0    0    0    0  0.00000000000E+00  0.00000000000E+00  0.45593999997E+02  0.45594000000E+02  0.51100000000E-03 0.  1.
         11   -1    0    0    0    0 -0.00000000000E+00 -0.00000000000E+00 -0.45593999997E+02  0.45594000000E+02  0.51100000000E-03 0. -1.
    9900012    2    1    2    0    0  0.50866490438E+00 -0.28624903941E+02 -0.34777431084E+02  0.46142316761E+02  0.99999908846E+01 0.  0.
        -12    1    1    2    0    0 -0.50866490438E+00  0.28624903941E+02  0.34777431084E+02  0.45045683239E+02  0.00000000000E+00 0.  1.
         11    1    3    3    0    0 -0.21704457454E+01 -0.10902458562E+02 -0.16940080328E+02  0.20261805428E+02  0.51100000000E-03 0. -1.
        -11    1    3    3    0    0  0.21296943483E+01 -0.17338382324E+02 -0.18105264345E+02  0.25158610790E+02  0.51100000000E-03 0.  1.
         12    1    3    3    0    0  0.54941630143E+00 -0.38406305564E+00  0.26791358918E+00  0.72190054319E+00  0.00000000000E+00 0. -1.
</event>
<event>
 7    1  0.4081218E-008  0.4614232E+02  0.7816164E-02  0.1320468E+00
        -11   -1    0    0    0    0  0.00000000000E+00  0.00000000000E+00  0.45593999997E+02  0.45594000000E+02  0.51100000000E-03 0. -1.
         11   -1    0    0    0    0 -0.00000000000E+00 -0.00000000000E+00 -0.45593999997E+02  0.45594000000E+02  0.51100000000E-03 0.  1.
    9900012    2    1    2    0    0 -0.63412464293E+01  0.42370212272E+02  0.13916436644E+02  0.46142317597E+02  0.99999985062E+01 0.  0.
        -12    1    1    2    0    0  0.63412464293E+01 -0.42370212272E+02 -0.13916436644E+02  0.45045682403E+02  0.00000000000E+00 0.  1.
         11    1    3    3    0    0 -0.23586981341E+01  0.53650641571E+01  0.46333198797E+01  0.74709452994E+01  0.51100000000E-03 0. -1.
        -11    1    3    3    0    0 -0.23174111576E+01  0.96745996132E+01  0.43118295884E+01  0.10842515705E+02  0.51100000000E-03 0.  1.
         12    1    3    3    0    0 -0.16651371377E+01  0.27330548502E+02  0.49712871762E+01  0.27828856593E+02  0.00000000000E+00 0. -1.
</event>
<event>
 7    1  0.4081218E-008  0.4614232E+02  0.7816164E-02  0.1320468E+00
        -11   -1    0    0    0    0  0.00000000000E+00  0.00000000000E+00  0.45593999997E+02  0.45594000000E+02  0.51100000000E-03 0.  1.
         11   -1    0    0    0    0 -0.00000000000E+00 -0.00000000000E+00 -0.45593999997E+02  0.45594000000E+02  0.51100000000E-03 0. -1.
    9900012    2    1    2    0    0 -0.28215785581E+02 -0.18469692372E+02  0.29863914015E+02  0.46142318158E+02  0.10000003623E+02 0.  0.
        -12    1    1    2    0    0  0.28215785581E+02  0.18469692372E+02 -0.29863914015E+02  0.45045681842E+02  0.00000000000E+00 0.  1.
         11    1    3    3    0    0 -0.60192996232E+01 -0.22413038592E+01  0.34666902260E+01  0.72988596594E+01  0.51100000000E-03 0. -1.
        -11    1    3    3    0    0 -0.12321462515E+02 -0.45035464649E+01  0.11057599223E+02  0.17157239583E+02  0.51100000000E-03 0.  1.
         12    1    3    3    0    0 -0.98750234425E+01 -0.11724842048E+02  0.15339624566E+02  0.21686218916E+02  0.00000000000E+00 0. -1.
</event>
<event>
 7    1  0.4081218E-008  0.4614232E+02  0.7816164E-02  0.1320468E+00
        -11   -1    0    0    0    0  0.00000000000E+00  0.00000000000E+00  0.45593999997E+02  0.45594000000E+02  0.51100000000E-03 0.  1.
         11   -1    0    0    0    0 -0.00000000000E+00 -0.00000000000E+00 -0.45593999997E+02  0.45594000000E+02  0.51100000000E-03 0. -1.
    9900012    2    1    2    0    0 -0.88507077797E+01 -0.14031287944E+02 -0.41879605977E+02  0.46142318005E+02  0.10000002226E+02 0.  0.
        -12    1    1    2    0    0  0.88507077797E+01  0.14031287944E+02  0.41879605977E+02  0.45045681995E+02  0.00000000000E+00 0.  1.
         11    1    3    3    0    0 -0.15620421922E+01 -0.74947805254E+01 -0.14514014433E+02  0.16409397495E+02  0.51100000000E-03 0. -1.
        -11    1    3    3    0    0 -0.19421126437E+01 -0.53876777732E+01 -0.17983579273E+02  0.18873473370E+02  0.51100000000E-03 0.  1.
         12    1    3    3    0    0 -0.53465529437E+01 -0.11488296458E+01 -0.93820122712E+01  0.10859447140E+02  0.00000000000E+00 0. -1.
</event>
<event>
 7    1  0.4081218E-008  0.4614232E+02  0.7816164E-02  0.1320468E+00
        -11   -1    0    0    0    0  0.00000000000E+00  0.00000000000E+00  0.45593999997E+02  0.45594000000E+02  0.51100000000E-03 0.  1.
         11   -1    0    0    0    0 -0.00000000000E+00 -0.00000000000E+00 -0.45593999997E+02  0.45594000000E+02  0.51100000000E-03 0. -1.
    9900012    2    1    2    0    0 -0.78010283721E+01  0.44324302206E+02 -0.19009703617E+01  0.46142317654E+02  0.99999990255E+01 0.  0.
        -12    1    1    2    0    0  0.78010283721E+01 -0.44324302206E+02  0.19009703617E+01  0.45045682346E+02  0.00000000000E+00 0.  1.
         11    1    3    3    0    0 -0.79796357294E+00  0.58113994998E+01 -0.16539126131E+01  0.60946318348E+01  0.51100000000E-03 0. -1.
        -11    1    3    3    0    0 -0.87211666255E+01  0.31408419779E+02 -0.15026036643E+01  0.32631356061E+02  0.51100000000E-03 0.  1.
        -12    1    3    3    0    0  0.17181018263E+01  0.71044829270E+01  0.12555459157E+01  0.74163297588E+01  0.00000000000E+00 0.  1.
</event>
<event>
 7    1  0.4081218E-008  0.4614232E+02  0.7816164E-02  0.1320468E+00
        -11   -1    0    0    0    0  0.00000000000E+00  0.00000000000E+00  0.45593999997E+02  0.45594000000E+02  0.51100000000E-03 0.  1.
         11   -1    0    0    0    0 -0.00000000000E+00 -0.00000000000E+00 -0.45593999997E+02  0.45594000000E+02  0.51100000000E-03 0. -1.
    9900012    2    1    2    0    0  0.55184421409E+01 -0.35959980242E+02 -0.26562005505E+02  0.46142317420E+02  0.99999968924E+01 0.  0.
        -12    1    1    2    0    0 -0.55184421409E+01  0.35959980242E+02  0.26562005505E+02  0.45045682580E+02  0.00000000000E+00 0.  1.
         11    1    3    3    0    0  0.18925674752E+01 -0.27452280113E+02 -0.16773037263E+02  0.32226453022E+02  0.51100000000E-03 0. -1.
        -11    1    3    3    0    0 -0.47519931636E+00 -0.97506546775E-01 -0.22062510658E+00  0.53291426675E+00  0.51100000000E-03 0.  1.
        -12    1    3    3    0    0  0.41010739820E+01 -0.84101935815E+01 -0.95683431347E+01  0.13382950132E+02  0.00000000000E+00 0.  1.
</event>
<event>
 7    1  0.4081218E-008  0.4614232E+02  0.7816164E-02  0.1320468E+00
        -11   -1    0    0    0    0  0.00000000000E+00  0.00000000000E+00  0.45593999997E+02  0.45594000000E+02  0.51100000000E-03 0.  1.
         11   -1    0    0    0    0 -0.00000000000E+00 -0.00000000000E+00 -0.45593999997E+02  0.45594000000E+02  0.51100000000E-03 0. -1.
    9900012    2    1    2    0    0 -0.74049771720E+01  0.33236788135E+02 -0.29488908891E+02  0.46142317410E+02  0.99999967945E+01 0.  0.
        -12    1    1    2    0    0  0.74049771720E+01 -0.33236788135E+02  0.29488908891E+02  0.45045682590E+02  0.00000000000E+00 0.  1.
         11    1    3    3    0    0  0.19012551039E+01  0.11165017370E+02 -0.79760671750E+01  0.13852437753E+02  0.51100000000E-03 0. -1.
        -11    1    3    3    0    0 -0.21649923806E+01  0.45335534858E+01 -0.58831738490E+01  0.77364096333E+01  0.51100000000E-03 0.  1.
         12    1    3    3    0    0 -0.71412398952E+01  0.17538217279E+02 -0.15629667867E+02  0.24553470024E+02  0.00000000000E+00 0. -1.
</event>
<event>
 7    1  0.4081218E-008  0.4614232E+02  0.7816164E-02  0.1320468E+00
        -11   -1    0    0    0    0  0.00000000000E+00  0.00000000000E+00  0.45593999997E+02  0.45594000000E+02  0.51100000000E-03 0. -1.
         11   -1    0    0    0    0 -0.00000000000E+00 -0.00000000000E+00 -0.45593999997E+02  0.45594000000E+02  0.51100000000E-03 0.  1.
    9900012    2    1    2    0    0  0.19459616320E+02 -0.22711742838E+01  0.40562028476E+02  0.46142322582E+02  0.10000043964E+02 0.  0.
        -12    1    1    2    0    0 -0.19459616320E+02  0.22711742838E+01 -0.40562028476E+02  0.45045677418E+02  0.00000000000E+00 0.  1.
         11    1    3    3    0    0  0.59826132349E+01 -0.15171018829E+01  0.60948407940E+01  0.86741191949E+01  0.51100000000E-03 0. -1.
        -11    1    3    3    0    0  0.30127393867E+01  0.20376303297E+01  0.11776826052E+02  0.12325671101E+02  0.51100000000E-03 0.  1.
        -12    1    3    3    0    0  0.10464263699E+02 -0.27917027306E+01  0.22690361629E+02  0.25142532286E+02  0.00000000000E+00 0.  1.
</event>
<event>
 7    1  0.4081218E-008  0.4614232E+02  0.7816164E-02  0.1320468E+00
        -11   -1    0    0    0    0  0.00000000000E+00  0.00000000000E+00  0.45593999997E+02  0.45594000000E+02  0.51100000000E-03 0.  1.
         11   -1    0    0    0    0 -0.00000000000E+00 -0.00000000000E+00 -0.45593999997E+02  0.45594000000E+02  0.51100000000E-03 0. -1.
    9900012    2    1    2    0    0 -0.30025741293E+02 -0.22395643167E+02 -0.25020063002E+02  0.46142317347E+02  0.99999962227E+01 0.  0.
        -12    1    1    2    0    0  0.30025741293E+02  0.22395643167E+02  0.25020063002E+02  0.45045682653E+02  0.00000000000E+00 0.  1.
         11    1    3    3    0    0 -0.22404647313E+02 -0.19250550506E+02 -0.20520482663E+02  0.35967236828E+02  0.51100000000E-03 0. -1.
        -11    1    3    3    0    0 -0.31463030726E+00 -0.77524809726E+00 -0.18829195832E+01  0.20604339981E+01  0.51100000000E-03 0.  1.
         12    1    3    3    0    0 -0.73064636726E+01 -0.23698445634E+01 -0.26166607556E+01  0.81146465212E+01  0.00000000000E+00 0. -1.
</event>
<event>
 7    1  0.4081218E-008  0.4614232E+02  0.7816164E-02  0.1320468E+00
        -11   -1    0    0    0    0  0.00000000000E+00  0.00000000000E+00  0.45593999997E+02  0.45594000000E+02  0.51100000000E-03 0.  1.
         11   -1    0    0    0    0 -0.00000000000E+00 -0.00000000000E+00 -0.45593999997E+02  0.45594000000E+02  0.51100000000E-03 0. -1.
    9900012    2    1    2    0    0  0.23966018007E+02 -0.22208170270E+02 -0.31008721974E+02  0.46142315586E+02  0.99999801668E+01 0.  0.
        -12    1    1    2    0    0 -0.23966018007E+02  0.22208170270E+02  0.31008721974E+02  0.45045684414E+02  0.00000000000E+00 0.  1.
         11    1    3    3    0    0  0.15134345022E+02 -0.15062315729E+02 -0.19296629120E+02  0.28779882731E+02  0.51100000000E-03 0. -1.
        -11    1    3    3    0    0  0.38607579834E+01 -0.41379151713E+00 -0.62868915656E+01  0.73892950574E+01  0.51100000000E-03 0.  1.
        -12    1    3    3    0    0  0.49709150020E+01 -0.67320630239E+01 -0.54252012887E+01  0.99731377980E+01  0.00000000000E+00 0.  1.
</event>
<event>
 7    1  0.4081218E-008  0.4614232E+02  0.7816164E-02  0.1320468E+00
        -11   -1    0    0    0    0  0.00000000000E+00  0.00000000000E+00  0.45593999997E+02  0.45594000000E+02  0.51100000000E-03 0.  1.
         11   -1    0    0    0    0 -0.00000000000E+00 -0.00000000000E+00 -0.45593999997E+02  0.45594000000E+02  0.51100000000E-03 0. -1.
    9900012    2    1    2    0    0  0.34430166160E+02 -0.13657542986E+02 -0.25634914768E+02  0.46142315663E+02  0.99999808692E+01 0.  0.
        -12    1    1    2    0    0 -0.34430166160E+02  0.13657542986E+02  0.25634914768E+02  0.45045684337E+02  0.00000000000E+00 0.  1.
         11    1    3    3    0    0  0.78546936772E+01 -0.18729969260E+01 -0.10259365674E+02  0.13055991519E+02  0.51100000000E-03 0. -1.
        -11    1    3    3    0    0  0.46499835723E+01 -0.36058747542E+01 -0.34595966888E+01  0.68259423874E+01  0.51100000000E-03 0.  1.
         12    1    3    3    0    0  0.21925488911E+02 -0.81786713055E+01 -0.11915952405E+02  0.26260381757E+02  0.00000000000E+00 0. -1.
</event>
<event>
 7    1  0.4081218E-008  0.4614232E+02  0.7816164E-02  0.1320468E+00
        -11   -1    0    0    0    0  0.00000000000E+00  0.00000000000E+00  0.45593999997E+02  0.45594000000E+02  0.51100000000E-03 0. -1.
         11   -1    0    0    0    0 -0.00000000000E+00 -0.00000000000E+00 -0.45593999997E+02  0.45594000000E+02  0.51100000000E-03 0.  1.
    9900012    2    1    2    0    0  0.29740075343E+02  0.31207367303E+02  0.13066815585E+02  0.46142317356E+02  0.99999963019E+01 0.  0.
        -12    1    1    2    0    0 -0.29740075343E+02 -0.31207367303E+02 -0.13066815585E+02  0.45045682644E+02  0.00000000000E+00 0.  1.
         11    1    3    3    0    0  0.11594522959E+02  0.10487518138E+02  0.70251531205E+01  0.17139830103E+02  0.51100000000E-03 0. -1.
        -11    1    3    3    0    0  0.77896117680E+01  0.10938198736E+02  0.61195195271E+01  0.14757058060E+02  0.51100000000E-03 0.  1.
        -12    1    3    3    0    0  0.10355940616E+02  0.97816504293E+01 -0.77857062343E-01  0.14245429193E+02  0.00000000000E+00 0.  1.
</event>
<event>
 7    1  0.4081218E-008  0.4614232E+02  0.7816164E-02  0.1320468E+00
        -11   -1    0    0    0    0  0.00000000000E+00  0.00000000000E+00  0.45593999997E+02  0.45594000000E+02  0.51100000000E-03 0.  1.
         11   -1    0    0    0    0 -0.00000000000E+00 -0.00000000000E+00 -0.45593999997E+02  0.45594000000E+02  0.51100000000E-03 0. -1.
    9900012    2    1    2    0    0 -0.15028358508E+02 -0.36467776901E+02 -0.21756910535E+02  0.46142317993E+02  0.10000002110E+02 0.  0.
        -12    1    1    2    0    0  0.15028358508E+02  0.36467776901E+02  0.21756910535E+02  0.45045682007E+02  0.00000000000E+00 0.  1.
         11    1    3    3    0    0 -0.71564566693E+01 -0.74403341513E+01 -0.44948070803E+01  0.11259517543E+02  0.51100000000E-03 0.  1.
        -11    1    3    3    0    0  0.89501556281E-01 -0.49838761897E+01 -0.28757955475E+01  0.57547573967E+01  0.51100000000E-03 0. -1.
        -12    1    3    3    0    0 -0.79614033948E+01 -0.24043566560E+02 -0.14386307907E+02  0.29128043053E+02  0.00000000000E+00 0.  1.
</event>
<event>
 7    1  0.4081218E-008  0.4614232E+02  0.7816164E-02  0.1320468E+00
        -11   -1    0    0    0    0  0.00000000000E+00  0.00000000000E+00  0.45593999997E+02  0.45594000000E+02  0.51100000000E-03 0.  1.
         11   -1    0    0    0    0 -0.00000000000E+00 -0.00000000000E+00 -0.45593999997E+02  0.45594000000E+02  0.51100000000E-03 0. -1.
    9900012    2    1    2    0    0  0.75317323245E+01 -0.39983809566E+02 -0.19330834754E+02  0.46142321056E+02  0.10000030045E+02 0.  0.
        -12    1    1    2    0    0 -0.75317323245E+01  0.39983809566E+02  0.19330834754E+02  0.45045678944E+02  0.00000000000E+00 0.  1.
         11    1    3    3    0    0  0.37064932888E+01 -0.17043492729E+02 -0.10678465985E+02  0.20451121557E+02  0.51100000000E-03 0. -1.
        -11    1    3    3    0    0  0.87342578672E+00  0.38760016774E-01  0.18744494723E+00  0.89415368543E+00  0.51100000000E-03 0.  1.
        -12    1    3    3    0    0  0.29518132491E+01 -0.22979076854E+02 -0.88398137165E+01  0.24797045813E+02  0.00000000000E+00 0.  1.
</event>
<event>
 7    1  0.4081218E-008  0.4614232E+02  0.7816164E-02  0.1320468E+00
        -11   -1    0    0    0    0  0.00000000000E+00  0.00000000000E+00  0.45593999997E+02  0.45594000000E+02  0.51100000000E-03 0.  1.
         11   -1    0    0    0    0 -0.00000000000E+00 -0.00000000000E+00 -0.45593999997E+02  0.45594000000E+02  0.51100000000E-03 0. -1.
    9900012    2    1    2    0    0  0.43979977070E+02  0.24286133404E+01 -0.94327572774E+01  0.46142318124E+02  0.10000003307E+02 0.  0.
        -12    1    1    2    0    0 -0.43979977070E+02 -0.24286133404E+01  0.94327572774E+01  0.45045681876E+02  0.00000000000E+00 0.  1.
         11    1    3    3    0    0  0.64254156560E+01  0.17230593037E+01 -0.27955187473E+01  0.72159424225E+01  0.51100000000E-03 0. -1.
        -11    1    3    3    0    0  0.26544601374E+01 -0.77254545038E+00  0.13753362716E+01  0.30878042708E+01  0.51100000000E-03 0.  1.
         12    1    3    3    0    0  0.34900101277E+02  0.14780994871E+01 -0.80125748017E+01  0.35838571430E+02  0.00000000000E+00 0. -1.
</event>
<event>
 7    1  0.4081218E-008  0.4614232E+02  0.7816164E-02  0.1320468E+00
        -11   -1    0    0    0    0  0.00000000000E+00  0.00000000000E+00  0.45593999997E+02  0.45594000000E+02  0.51100000000E-03 0.  1.
         11   -1    0    0    0    0 -0.00000000000E+00 -0.00000000000E+00 -0.45593999997E+02  0.45594000000E+02  0.51100000000E-03 0. -1.
    9900012    2    1    2    0    0 -0.27649030270E+02 -0.12745117795E+02 -0.33199495961E+02  0.46142318358E+02  0.10000005447E+02 0.  0.
        -12    1    1    2    0    0  0.27649030270E+02  0.12745117795E+02  0.33199495961E+02  0.45045681642E+02  0.00000000000E+00 0.  1.
         11    1    3    3    0    0 -0.33044838792E+01 -0.22193782918E+01 -0.29341834145E+01  0.49451679730E+01  0.51100000000E-03 0. -1.
        -11    1    3    3    0    0 -0.14261883095E+02 -0.59678522187E+01 -0.23803515127E+02  0.28383514621E+02  0.51100000000E-03 0.  1.
        -12    1    3    3    0    0 -0.10082663296E+02 -0.45578872847E+01 -0.64617974190E+01  0.12813635765E+02  0.00000000000E+00 0.  1.
</event>
<event>
 7    1  0.4081218E-008  0.4614232E+02  0.7816164E-02  0.1320468E+00
        -11   -1    0    0    0    0  0.00000000000E+00  0.00000000000E+00  0.45593999997E+02  0.45594000000E+02  0.51100000000E-03 0.  1.
         11   -1    0    0    0    0 -0.00000000000E+00 -0.00000000000E+00 -0.45593999997E+02  0.45594000000E+02  0.51100000000E-03 0. -1.
    9900012    2    1    2    0    0  0.15418213988E+02  0.42053732675E+02 -0.47828621029E+01  0.46142317362E+02  0.99999963579E+01 0.  0.
        -12    1    1    2    0    0 -0.15418213988E+02 -0.42053732675E+02  0.47828621029E+01  0.45045682638E+02  0.00000000000E+00 0.  1.
         11    1    3    3    0    0  0.15202017854E+02  0.34727627935E+02 -0.16213595106E+01  0.37943883509E+02  0.51100000000E-03 0. -1.
        -11    1    3    3    0    0 -0.69282919626E+00  0.50807309856E+01 -0.19107131730E+01  0.54721718479E+01  0.51100000000E-03 0.  1.
         12    1    3    3    0    0  0.90902533037E+00  0.22453737543E+01 -0.12507894194E+01  0.27262620049E+01  0.00000000000E+00 0. -1.
</event>
<event>
 7    1  0.4081218E-008  0.4614232E+02  0.7816164E-02  0.1320468E+00
        -11   -1    0    0    0    0  0.00000000000E+00  0.00000000000E+00  0.45593999997E+02  0.45594000000E+02  0.51100000000E-03 0.  1.
         11   -1    0    0    0    0 -0.00000000000E+00 -0.00000000000E+00 -0.45593999997E+02  0.45594000000E+02  0.51100000000E-03 0. -1.
    9900012    2    1    2    0    0 -0.26661592776E+02  0.17757242184E+01 -0.36264579779E+02  0.46142317939E+02  0.10000001620E+02 0.  0.
        -12    1    1    2    0    0  0.26661592776E+02 -0.17757242184E+01  0.36264579779E+02  0.45045682061E+02  0.00000000000E+00 0.  1.
         11    1    3    3    0    0 -0.15756946639E+01 -0.33141257104E+00 -0.74443799975E+01  0.76165242581E+01  0.51100000000E-03 0. -1.
        -11    1    3    3    0    0 -0.21647768780E+02  0.23930203462E+00 -0.24662997691E+02  0.32816864780E+02  0.51100000000E-03 0.  1.
         12    1    3    3    0    0 -0.34381293315E+01  0.18678347549E+01 -0.41572020897E+01  0.57089289001E+01  0.00000000000E+00 0. -1.
</event>
<event>
 7    1  0.4081218E-008  0.4614232E+02  0.7816164E-02  0.1320468E+00
        -11   -1    0    0    0    0  0.00000000000E+00  0.00000000000E+00  0.45593999997E+02  0.45594000000E+02  0.51100000000E-03 0.  1.
         11   -1    0    0    0    0 -0.00000000000E+00 -0.00000000000E+00 -0.45593999997E+02  0.45594000000E+02  0.51100000000E-03 0. -1.
    9900012    2    1    2    0    0 -0.16215422094E+02 -0.15326505832E+01 -0.41997910960E+02  0.46142318115E+02  0.10000003223E+02 0.  0.
        -12    1    1    2    0    0  0.16215422094E+02  0.15326505832E+01  0.41997910960E+02  0.45045681885E+02  0.00000000000E+00 0.  1.
         11    1    3    3    0    0 -0.13451314615E+02 -0.14179322738E+01 -0.34481569811E+02  0.37039533660E+02  0.51100000000E-03 0. -1.
        -11    1    3    3    0    0 -0.50438361968E+00 -0.16201401459E+01 -0.53995691535E+01  0.56599120340E+01  0.51100000000E-03 0.  1.
        -12    1    3    3    0    0 -0.22597238592E+01  0.15054218365E+01 -0.21167719955E+01  0.34428724209E+01  0.00000000000E+00 0.  1.
</event>
<event>
 7    1  0.4081218E-008  0.4614232E+02  0.7816164E-02  0.1320468E+00
        -11   -1    0    0    0    0  0.00000000000E+00  0.00000000000E+00  0.45593999997E+02  0.45594000000E+02  0.51100000000E-03 0. -1.
         11   -1    0    0    0    0 -0.00000000000E+00 -0.00000000000E+00 -0.45593999997E+02  0.45594000000E+02  0.51100000000E-03 0.  1.
    9900012    2    1    2    0    0  0.10072125211E+02 -0.41377715134E+02 -0.14681632327E+02  0.46142319366E+02  0.10000014632E+02 0.  0.
        -12    1    1    2    0    0 -0.10072125211E+02  0.41377715134E+02  0.14681632327E+02  0.45045680634E+02  0.00000000000E+00 0.  1.
         11    1    3    3    0    0  0.20767462667E+01 -0.16640512346E+02 -0.41726823063E+01  0.17280937593E+02  0.51100000000E-03 0.  1.
        -11    1    3    3    0    0 -0.74346705718E+00 -0.70518819791E+01 -0.36588781575E+01  0.79792964818E+01  0.51100000000E-03 0. -1.
        -12    1    3    3    0    0  0.87388460019E+01 -0.17685320809E+02 -0.68500718631E+01  0.20882085291E+02  0.00000000000E+00 0.  1.
</event>
<event>
 7    1  0.4081218E-008  0.4614232E+02  0.7816164E-02  0.1320468E+00
        -11   -1    0    0    0    0  0.00000000000E+00  0.00000000000E+00  0.45593999997E+02  0.45594000000E+02  0.51100000000E-03 0.  1.
         11   -1    0    0    0    0 -0.00000000000E+00 -0.00000000000E+00 -0.45593999997E+02  0.45594000000E+02  0.51100000000E-03 0. -1.
    9900012    2    1    2    0    0 -0.14630455861E+02  0.41784741224E+02 -0.83125631918E+01  0.46142317136E+02  0.99999943004E+01 0.  0.
        -12    1    1    2    0    0  0.14630455861E+02 -0.41784741224E+02  0.83125631918E+01  0.45045682864E+02  0.00000000000E+00 0.  1.
         11    1    3    3    0    0 -0.81506528919E+01  0.28843124895E+02 -0.59706183514E+01  0.30561532685E+02  0.51100000000E-03 0. -1.
        -11    1    3    3    0    0  0.61830211809E+00  0.20791406982E+01 -0.13762831648E+01  0.25689062192E+01  0.51100000000E-03 0.  1.
         12    1    3    3    0    0 -0.70981050873E+01  0.10862475631E+02 -0.96566167566E+00  0.13011878232E+02  0.00000000000E+00 0. -1.
</event>
<event>
 7    1  0.4081218E-008  0.4614232E+02  0.7816164E-02  0.1320468E+00
        -11   -1    0    0    0    0  0.00000000000E+00  0.00000000000E+00  0.45593999997E+02  0.45594000000E+02  0.51100000000E-03 0.  1.
         11   -1    0    0    0    0 -0.00000000000E+00 -0.00000000000E+00 -0.45593999997E+02  0.45594000000E+02  0.51100000000E-03 0. -1.
    9900012    2    1    2    0    0  0.65367161481E+01  0.37310578519E+02 -0.24378383036E+02  0.46142317778E+02  0.10000000153E+02 0.  0.
        -12    1    1    2    0    0 -0.65367161481E+01 -0.37310578519E+02  0.24378383036E+02  0.45045682222E+02  0.00000000000E+00 0.  1.
         11    1    3    3    0    0  0.40191036397E-01  0.27493173117E+01 -0.20371353204E+01  0.34220288682E+01  0.51100000000E-03 0. -1.
        -11    1    3    3    0    0 -0.14457589445E+01  0.10944769679E+01 -0.22366226351E+01  0.28793367000E+01  0.51100000000E-03 0.  1.
         12    1    3    3    0    0  0.79422840563E+01  0.33466784239E+02 -0.20104625080E+02  0.39840952210E+02  0.00000000000E+00 0. -1.
</event>
<event>
 7    1  0.4081218E-008  0.4614232E+02  0.7816164E-02  0.1320468E+00
        -11   -1    0    0    0    0  0.00000000000E+00  0.00000000000E+00  0.45593999997E+02  0.45594000000E+02  0.51100000000E-03 0. -1.
         11   -1    0    0    0    0 -0.00000000000E+00 -0.00000000000E+00 -0.45593999997E+02  0.45594000000E+02  0.51100000000E-03 0.  1.
    9900012    2    1    2    0    0 -0.11967243337E+02 -0.35624536702E+02 -0.24835275514E+02  0.46142318318E+02  0.10000005081E+02 0.  0.
        -12    1    1    2    0    0  0.11967243337E+02  0.35624536702E+02  0.24835275514E+02  0.45045681682E+02  0.00000000000E+00 0.  1.
         11    1    3    3    0    0 -0.31510681679E+00 -0.94099077379E+01 -0.39642521633E+01  0.10215720798E+02  0.51100000000E-03 0. -1.
        -11    1    3    3    0    0 -0.14241917751E+01 -0.45560604368E+00 -0.71767206568E+00  0.16585995702E+01  0.51100000000E-03 0.  1.
         12    1    3    3    0    0 -0.10227944745E+02 -0.25759022921E+02 -0.20153351285E+02  0.34267997950E+02  0.00000000000E+00 0. -1.
</event>
<event>
 7    1  0.4081218E-008  0.4614232E+02  0.7816164E-02  0.1320468E+00
        -11   -1    0    0    0    0  0.00000000000E+00  0.00000000000E+00  0.45593999997E+02  0.45594000000E+02  0.51100000000E-03 0.  1.
         11   -1    0    0    0    0 -0.00000000000E+00 -0.00000000000E+00 -0.45593999997E+02  0.45594000000E+02  0.51100000000E-03 0. -1.
    9900012    2    1    2    0    0  0.43734615080E+02  0.88367562063E+01  0.61894014709E+01  0.46142317555E+02  0.99999981164E+01 0.  0.
        -12    1    1    2    0    0 -0.43734615080E+02 -0.88367562063E+01 -0.61894014709E+01  0.45045682445E+02  0.00000000000E+00 0.  1.
         11    1    3    3    0    0  0.12478338041E+02  0.42766718485E+01  0.19911082063E+01  0.13340290645E+02  0.51100000000E-03 0. -1.
        -11    1    3    3    0    0  0.10836512953E+02  0.33296419924E+01  0.48604176485E+01  0.12334512101E+02  0.51100000000E-03 0.  1.
         12    1    3    3    0    0  0.20419764086E+02  0.12304423654E+01 -0.66212438382E+00  0.20467514809E+02  0.00000000000E+00 0. -1.
</event>
<event>
 7    1  0.4081218E-008  0.4614232E+02  0.7816164E-02  0.1320468E+00
        -11   -1    0    0    0    0  0.00000000000E+00  0.00000000000E+00  0.45593999997E+02  0.45594000000E+02  0.51100000000E-03 0. -1.
         11   -1    0    0    0    0 -0.00000000000E+00 -0.00000000000E+00 -0.45593999997E+02  0.45594000000E+02  0.51100000000E-03 0.  1.
    9900012    2    1    2    0    0 -0.24983757653E+02 -0.19531927313E+02  0.31991079419E+02  0.46142317705E+02  0.99999994868E+01 0.  0.
        -12    1    1    2    0    0  0.24983757653E+02  0.19531927313E+02 -0.31991079419E+02  0.45045682295E+02  0.00000000000E+00 0.  1.
         11    1    3    3    0    0 -0.72939564409E+01 -0.27658796077E+01  0.13130871943E+02  0.15273234393E+02  0.51100000000E-03 0. -1.
        -11    1    3    3    0    0 -0.74930377642E+01 -0.71808954965E+01  0.69297215343E+01  0.12479259428E+02  0.51100000000E-03 0.  1.
         12    1    3    3    0    0 -0.10196763448E+02 -0.95851522090E+01  0.11930485942E+02  0.18389823884E+02  0.00000000000E+00 0. -1.
</event>
<event>
 7    1  0.4081218E-008  0.4614232E+02  0.7816164E-02  0.1320468E+00
        -11   -1    0    0    0    0  0.00000000000E+00  0.00000000000E+00  0.45593999997E+02  0.45594000000E+02  0.51100000000E-03 0.  1.
         11   -1    0    0    0    0 -0.00000000000E+00 -0.00000000000E+00 -0.45593999997E+02  0.45594000000E+02  0.51100000000E-03 0. -1.
    9900012    2    1    2    0    0  0.16150655987E+02 -0.42027410542E+02  0.14023380528E+01  0.46142317880E+02  0.10000001082E+02 0.  0.
        -12    1    1    2    0    0 -0.16150655987E+02  0.42027410542E+02 -0.14023380528E+01  0.45045682120E+02  0.00000000000E+00 0.  1.
         11    1    3    3    0    0 -0.22920790925E+00 -0.63480237276E+01 -0.15566769592E+01  0.65401211707E+01  0.51100000000E-03 0. -1.
        -11    1    3    3    0    0  0.19118762691E+01 -0.18377755123E+01  0.61957579373E+00  0.27233369471E+01  0.51100000000E-03 0.  1.
         12    1    3    3    0    0  0.14467987627E+02 -0.33841611302E+02  0.23394392182E+01  0.36878859762E+02  0.00000000000E+00 0. -1.
</event>
<event>
 7    1  0.4081218E-008  0.4614232E+02  0.7816164E-02  0.1320468E+00
        -11   -1    0    0    0    0  0.00000000000E+00  0.00000000000E+00  0.45593999997E+02  0.45594000000E+02  0.51100000000E-03 0. -1.
         11   -1    0    0    0    0 -0.00000000000E+00 -0.00000000000E+00 -0.45593999997E+02  0.45594000000E+02  0.51100000000E-03 0.  1.
    9900012    2    1    2    0    0  0.36122923265E+02 -0.22192339536E+02 -0.15223270684E+02  0.46142317748E+02  0.99999998767E+01 0.  0.
        -12    1    1    2    0    0 -0.36122923265E+02  0.22192339536E+02  0.15223270684E+02  0.45045682252E+02  0.00000000000E+00 0.  1.
         11    1    3    3    0    0  0.84530150782E+01 -0.38158624575E+01 -0.28130560280E+01  0.96916229128E+01  0.51100000000E-03 0. -1.
        -11    1    3    3    0    0  0.18898133279E+00 -0.93831841846E+00  0.87508410147E+00  0.12968916086E+01  0.51100000000E-03 0.  1.
        -12    1    3    3    0    0  0.27480926854E+02 -0.17438158660E+02 -0.13285298757E+02  0.35153803226E+02  0.00000000000E+00 0.  1.
</event>
<event>
 7    1  0.4081218E-008  0.4614232E+02  0.7816164E-02  0.1320468E+00
        -11   -1    0    0    0    0  0.00000000000E+00  0.00000000000E+00  0.45593999997E+02  0.45594000000E+02  0.51100000000E-03 0.  1.
         11   -1    0    0    0    0 -0.00000000000E+00 -0.00000000000E+00 -0.45593999997E+02  0.45594000000E+02  0.51100000000E-03 0. -1.
    9900012    2    1    2    0    0 -0.36763989022E+02  0.17711374491E+02 -0.19074325577E+02  0.46142316840E+02  0.99999916012E+01 0.  0.
        -12    1    1    2    0    0  0.36763989022E+02 -0.17711374491E+02  0.19074325577E+02  0.45045683160E+02  0.00000000000E+00 0.  1.
         11    1    3    3    0    0 -0.93037364966E+01  0.75183043822E+01 -0.39143884378E+01  0.12585978336E+02  0.51100000000E-03 0. -1.
        -11    1    3    3    0    0 -0.35388983705E+01  0.15827471570E+01  0.14833027053E+00  0.38795479595E+01  0.51100000000E-03 0.  1.
         12    1    3    3    0    0 -0.23921354154E+02  0.86103229513E+01 -0.15308267410E+02  0.29676790544E+02  0.00000000000E+00 0. -1.
</event>
<event>
 7    1  0.4081218E-008  0.4614232E+02  0.7816164E-02  0.1320468E+00
        -11   -1    0    0    0    0  0.00000000000E+00  0.00000000000E+00  0.45593999997E+02  0.45594000000E+02  0.51100000000E-03 0.  1.
         11   -1    0    0    0    0 -0.00000000000E+00 -0.00000000000E+00 -0.45593999997E+02  0.45594000000E+02  0.51100000000E-03 0. -1.
    9900012    2    1    2    0    0  0.42581431317E+02  0.12818208558E+02 -0.71853129317E+01  0.46142317792E+02  0.10000000284E+02 0.  0.
        -12    1    1    2    0    0 -0.42581431317E+02 -0.12818208558E+02  0.71853129317E+01  0.45045682208E+02  0.00000000000E+00 0.  1.
         11    1    3    3    0    0  0.20770434876E+02  0.68052882956E+01 -0.22079835722E+01  0.21968115655E+02  0.51100000000E-03 0. -1.
        -11    1    3    3    0    0  0.60091379694E+01  0.26386696811E+01  0.15565901563E+01  0.67450196439E+01  0.51100000000E-03 0.  1.
         12    1    3    3    0    0  0.15801858472E+02  0.33742505815E+01 -0.65339195158E+01  0.17429182494E+02  0.00000000000E+00 0. -1.
</event>
<event>
 7    1  0.4081218E-008  0.4614232E+02  0.7816164E-02  0.1320468E+00
        -11   -1    0    0    0    0  0.00000000000E+00  0.00000000000E+00  0.45593999997E+02  0.45594000000E+02  0.51100000000E-03 0.  1.
         11   -1    0    0    0    0 -0.00000000000E+00 -0.00000000000E+00 -0.45593999997E+02  0.45594000000E+02  0.51100000000E-03 0. -1.
    9900012    2    1    2    0    0  0.11835185601E+02 -0.32113922686E+02 -0.29287164023E+02  0.46142316245E+02  0.99999861713E+01 0.  0.
        -12    1    1    2    0    0 -0.11835185601E+02  0.32113922686E+02  0.29287164023E+02  0.45045683755E+02  0.00000000000E+00 0.  1.
         11    1    3    3    0    0  0.47397204109E+01 -0.11910612369E+02 -0.11064086496E+02  0.16933447576E+02  0.51100000000E-03 0. -1.
        -11    1    3    3    0    0  0.39930416359E+01 -0.41276869794E+01 -0.82036319910E+01  0.10014078061E+02  0.51100000000E-03 0.  1.
        -12    1    3    3    0    0  0.31024235543E+01 -0.16075623338E+02 -0.10019445536E+02  0.19194790607E+02  0.00000000000E+00 0.  1.
</event>
<event>
 7    1  0.4081218E-008  0.4614231E+02  0.7816164E-02  0.1320468E+00
        -11   -1    0    0    0    0  0.00000000000E+00  0.00000000000E+00  0.45593999997E+02  0.45594000000E+02  0.51100000000E-03 0.  1.
         11   -1    0    0    0    0 -0.00000000000E+00 -0.00000000000E+00 -0.45593999997E+02  0.45594000000E+02  0.51100000000E-03 0. -1.
    9900012    2    1    2    0    0 -0.20163819292E+02  0.27990931796E+02 -0.28966219535E+02  0.46142314908E+02  0.99999739857E+01 0.  0.
        -12    1    1    2    0    0  0.20163819292E+02 -0.27990931796E+02  0.28966219535E+02  0.45045685092E+02  0.00000000000E+00 0.  1.
         11    1    3    3    0    0 -0.46011801373E+01  0.23440290441E+01 -0.32040737322E+01  0.60771226381E+01  0.51100000000E-03 0. -1.
        -11    1    3    3    0    0 -0.96361934889E+00  0.44020484004E+01 -0.63938448633E+01  0.78222659611E+01  0.51100000000E-03 0.  1.
         12    1    3    3    0    0 -0.14599019805E+02  0.21244854351E+02 -0.19368300939E+02  0.32242926309E+02  0.00000000000E+00 0. -1.
</event>
<event>
 7    1  0.4081218E-008  0.4614232E+02  0.7816164E-02  0.1320468E+00
        -11   -1    0    0    0    0  0.00000000000E+00  0.00000000000E+00  0.45593999997E+02  0.45594000000E+02  0.51100000000E-03 0. -1.
         11   -1    0    0    0    0 -0.00000000000E+00 -0.00000000000E+00 -0.45593999997E+02  0.45594000000E+02  0.51100000000E-03 0.  1.
    9900012    2    1    2    0    0 -0.43372109311E+02 -0.10486236946E+02 -0.61654252544E+01  0.46142317633E+02  0.99999988319E+01 0.  0.
        -12    1    1    2    0    0  0.43372109311E+02  0.10486236946E+02  0.61654252544E+01  0.45045682367E+02  0.00000000000E+00 0.  1.
         11    1    3    3    0    0 -0.18963600176E+02 -0.49818043330E+01  0.63857754284E-01  0.19607156452E+02  0.51100000000E-03 0. -1.
        -11    1    3    3    0    0 -0.64151277394E+01 -0.43723031022E+01 -0.17565578194E+01  0.79596729809E+01  0.51100000000E-03 0.  1.
        -12    1    3    3    0    0 -0.17993381395E+02 -0.11321295111E+01 -0.44727251893E+01  0.18575488201E+02  0.00000000000E+00 0.  1.
</event>
<event>
 7    1  0.4081218E-008  0.4614231E+02  0.7816164E-02  0.1320468E+00
        -11   -1    0    0    0    0  0.00000000000E+00  0.00000000000E+00  0.45593999997E+02  0.45594000000E+02  0.51100000000E-03 0.  1.
         11   -1    0    0    0    0 -0.00000000000E+00 -0.00000000000E+00 -0.45593999997E+02  0.45594000000E+02  0.51100000000E-03 0. -1.
    9900012    2    1    2    0    0 -0.98709704282E+01 -0.11345744285E+02 -0.42461184100E+02  0.46142310687E+02  0.99999354889E+01 0.  0.
        -12    1    1    2    0    0  0.98709704282E+01  0.11345744285E+02  0.42461184100E+02  0.45045689313E+02  0.00000000000E+00 0.  1.
         11    1    3    3    0    0 -0.72752988712E+00 -0.93480282095E+00 -0.41762175649E+01  0.43409618129E+01  0.51100000000E-03 0. -1.
        -11    1    3    3    0    0 -0.68808030964E+01 -0.76651408413E+01 -0.36287367547E+02  0.37720987250E+02  0.51100000000E-03 0.  1.
         12    1    3    3    0    0 -0.22626374447E+01 -0.27458006225E+01 -0.19975989882E+01  0.40803616240E+01  0.00000000000E+00 0. -1.
</event>
<event>
 7    1  0.4081218E-008  0.4614232E+02  0.7816164E-02  0.1320468E+00
        -11   -1    0    0    0    0  0.00000000000E+00  0.00000000000E+00  0.45593999997E+02  0.45594000000E+02  0.51100000000E-03 0. -1.
         11   -1    0    0    0    0 -0.00000000000E+00 -0.00000000000E+00 -0.45593999997E+02  0.45594000000E+02  0.51100000000E-03 0.  1.
    9900012    2    1    2    0    0  0.15912635213E+02 -0.38415353771E+02  0.17325186675E+02  0.46142318097E+02  0.10000003065E+02 0.  0.
        -12    1    1    2    0    0 -0.15912635213E+02  0.38415353771E+02 -0.17325186675E+02  0.45045681903E+02  0.00000000000E+00 0.  1.
         11    1    3    3    0    0  0.11800727422E+00 -0.42714232133E+01  0.26357799842E+01  0.50205894445E+01  0.51100000000E-03 0. -1.
        -11    1    3    3    0    0  0.14474284922E+02 -0.29262865711E+02  0.15252209281E+02  0.36034013402E+02  0.51100000000E-03 0.  1.
        -12    1    3    3    0    0  0.13203430164E+01 -0.48810648465E+01 -0.56280259025E+00  0.50877152507E+01  0.00000000000E+00 0.  1.
</event>
<event>
 7    1  0.4081218E-008  0.4614232E+02  0.7816164E-02  0.1320468E+00
        -11   -1    0    0    0    0  0.00000000000E+00  0.00000000000E+00  0.45593999997E+02  0.45594000000E+02  0.51100000000E-03 0. -1.
         11   -1    0    0    0    0 -0.00000000000E+00 -0.00000000000E+00 -0.45593999997E+02  0.45594000000E+02  0.51100000000E-03 0.  1.
    9900012    2    1    2    0    0 -0.20510265066E+02 -0.39906600350E+02  0.39882003712E+01  0.46142318001E+02  0.10000002188E+02 0.  0.
        -12    1    1    2    0    0  0.20510265066E+02  0.39906600350E+02 -0.39882003712E+01  0.45045681999E+02  0.00000000000E+00 0.  1.
         11    1    3    3    0    0 -0.15191454692E+02 -0.30437782787E+02  0.34783503926E+01  0.34195582147E+02  0.51100000000E-03 0. -1.
        -11    1    3    3    0    0 -0.59523808843E+01 -0.82656252749E+01  0.14570776888E+01  0.10289532304E+02  0.51100000000E-03 0.  1.
        -12    1    3    3    0    0  0.63357051022E+00 -0.12031922880E+01 -0.94722771019E+00  0.16572035507E+01  0.00000000000E+00 0.  1.
</event>
<event>
 7    1  0.4081218E-008  0.4614231E+02  0.7816164E-02  0.1320468E+00
        -11   -1    0    0    0    0  0.00000000000E+00  0.00000000000E+00  0.45593999997E+02  0.45594000000E+02  0.51100000000E-03 0.  1.
         11   -1    0    0    0    0 -0.00000000000E+00 -0.00000000000E+00 -0.45593999997E+02  0.45594000000E+02  0.51100000000E-03 0. -1.
    9900012    2    1    2    0    0 -0.35817399939E+02  0.23428507874E+01 -0.27216525249E+02  0.46142308366E+02  0.99999143272E+01 0.  0.
        -12    1    1    2    0    0  0.35817399939E+02 -0.23428507874E+01  0.27216525249E+02  0.45045691634E+02  0.00000000000E+00 0.  1.
         11    1    3    3    0    0 -0.15220920814E+02  0.11633777176E+01 -0.16557766647E+02  0.22520868428E+02  0.51100000000E-03 0. -1.
        -11    1    3    3    0    0 -0.14720909800E+02  0.27604354594E+01 -0.71347364642E+01  0.16590046834E+02  0.51100000000E-03 0.  1.
         12    1    3    3    0    0 -0.58755693247E+01 -0.15809623896E+01 -0.35240221371E+01  0.70313931045E+01  0.00000000000E+00 0. -1.
</event>
<event>
 7    1  0.4081218E-008  0.4614232E+02  0.7816164E-02  0.1320468E+00
        -11   -1    0    0    0    0  0.00000000000E+00  0.00000000000E+00  0.45593999997E+02  0.45594000000E+02  0.51100000000E-03 0. -1.
         11   -1    0    0    0    0 -0.00000000000E+00 -0.00000000000E+00 -0.45593999997E+02  0.45594000000E+02  0.51100000000E-03 0.  1.
    9900012    2    1    2    0    0  0.24080236037E+02  0.29937782279E+02  0.23515631230E+02  0.46142317770E+02  0.10000000082E+02 0.  0.
        -12    1    1    2    0    0 -0.24080236037E+02 -0.29937782279E+02 -0.23515631230E+02  0.45045682230E+02  0.00000000000E+00 0.  1.
         11    1    3    3    0    0  0.19557607880E+02  0.23124368916E+02  0.19800084476E+02  0.36183971718E+02  0.51100000000E-03 0. -1.
        -11    1    3    3    0    0  0.33046462870E+01  0.21229023517E+01  0.32350570989E+01  0.50885161070E+01  0.51100000000E-03 0.  1.
        -12    1    3    3    0    0  0.12179818695E+01  0.46905110117E+01  0.48048965510E+00  0.48698299451E+01  0.00000000000E+00 0.  1.
</event>
<event>
 7    1  0.4081218E-008  0.4614232E+02  0.7816164E-02  0.1320468E+00
        -11   -1    0    0    0    0  0.00000000000E+00  0.00000000000E+00  0.45593999997E+02  0.45594000000E+02  0.51100000000E-03 0.  1.
         11   -1    0    0    0    0 -0.00000000000E+00 -0.00000000000E+00 -0.45593999997E+02  0.45594000000E+02  0.51100000000E-03 0. -1.
    9900012    2    1    2    0    0  0.40689900432E+02 -0.19272138642E+02 -0.14247748167E+01  0.46142319760E+02  0.10000018228E+02 0.  0.
        -12    1    1    2    0    0 -0.40689900432E+02  0.19272138642E+02  0.14247748167E+01  0.45045680240E+02  0.00000000000E+00 0.  1.
         11    1    3    3    0    0  0.15911336987E+02 -0.56645768768E+01 -0.18434978030E+01  0.16989895830E+02  0.51100000000E-03 0. -1.
        -11    1    3    3    0    0  0.18475802942E+02 -0.64756010624E+01  0.11122572841E+01  0.19609329922E+02  0.51100000000E-03 0.  1.
        -12    1    3    3    0    0  0.63027605036E+01 -0.71319607023E+01 -0.69353429779E+00  0.95430940081E+01  0.00000000000E+00 0.  1.
</event>
<event>
 7    1  0.4081218E-008  0.4614232E+02  0.7816164E-02  0.1320468E+00
        -11   -1    0    0    0    0  0.00000000000E+00  0.00000000000E+00  0.45593999997E+02  0.45594000000E+02  0.51100000000E-03 0.  1.
         11   -1    0    0    0    0 -0.00000000000E+00 -0.00000000000E+00 -0.45593999997E+02  0.45594000000E+02  0.51100000000E-03 0. -1.
    9900012    2    1    2    0    0  0.39984276098E+02  0.15571054324E+02 -0.13708156536E+02  0.46142316261E+02  0.99999863227E+01 0.  0.
        -12    1    1    2    0    0 -0.39984276098E+02 -0.15571054324E+02  0.13708156536E+02  0.45045683739E+02  0.00000000000E+00 0.  1.
         11    1    3    3    0    0  0.17666903801E+02  0.73306831622E+01 -0.86429259265E+01  0.20989487235E+02  0.51100000000E-03 0. -1.
        -11    1    3    3    0    0  0.34587891139E+01 -0.25085143411E+00 -0.25793082886E+01  0.43219185653E+01  0.51100000000E-03 0.  1.
        -12    1    3    3    0    0  0.18858583184E+02  0.84912225959E+01 -0.24859223213E+01  0.20830910461E+02  0.00000000000E+00 0.  1.
</event>
<event>
 7    1  0.4081218E-008  0.4614232E+02  0.7816164E-02  0.1320468E+00
        -11   -1    0    0    0    0  0.00000000000E+00  0.00000000000E+00  0.45593999997E+02  0.45594000000E+02  0.51100000000E-03 0. -1.
         11   -1    0    0    0    0 -0.00000000000E+00 -0.00000000000E+00 -0.45593999997E+02  0.45594000000E+02  0.51100000000E-03 0.  1.
    9900012    2    1    2    0    0 -0.12474126166E+02  0.16999208855E+02  0.39806237718E+02  0.46142317781E+02  0.10000000186E+02 0.  0.
        -12    1    1    2    0    0  0.12474126166E+02 -0.16999208855E+02 -0.39806237718E+02  0.45045682219E+02  0.00000000000E+00 0.  1.
         11    1    3    3    0    0 -0.14922185444E+01  0.10029632983E+01  0.10401182349E+02  0.10555436802E+02  0.51100000000E-03 0. -1.
        -11    1    3    3    0    0 -0.17327239107E+01  0.13201594706E+01  0.64916056603E+01  0.68473423668E+01  0.51100000000E-03 0.  1.
        -12    1    3    3    0    0 -0.92491837108E+01  0.14676086086E+02  0.22913449708E+02  0.28739538612E+02  0.00000000000E+00 0.  1.
</event>
<event>
 7    1  0.4081218E-008  0.4614232E+02  0.7816164E-02  0.1320468E+00
        -11   -1    0    0    0    0  0.00000000000E+00  0.00000000000E+00  0.45593999997E+02  0.45594000000E+02  0.51100000000E-03 0. -1.
         11   -1    0    0    0    0 -0.00000000000E+00 -0.00000000000E+00 -0.45593999997E+02  0.45594000000E+02  0.51100000000E-03 0.  1.
    9900012    2    1    2    0    0  0.39590725272E+02  0.20722943211E+02 -0.56786980278E+01  0.46142317474E+02  0.99999973819E+01 0.  0.
        -12    1    1    2    0    0 -0.39590725272E+02 -0.20722943211E+02  0.56786980278E+01  0.45045682526E+02  0.00000000000E+00 0.  1.
         11    1    3    3    0    0  0.12285934280E+01  0.21363353469E+01 -0.14016595614E+00  0.24684037924E+01  0.51100000000E-03 0. -1.
        -11    1    3    3    0    0  0.31611057439E+02  0.17777058197E+02 -0.29075030920E+01  0.36383187395E+02  0.51100000000E-03 0.  1.
        -12    1    3    3    0    0  0.67510744053E+01  0.80954966773E+00 -0.26310289796E+01  0.72907262863E+01  0.00000000000E+00 0.  1.
</event>
<event>
 7    1  0.4081218E-008  0.4614232E+02  0.7816164E-02  0.1320468E+00
        -11   -1    0    0    0    0  0.00000000000E+00  0.00000000000E+00  0.45593999997E+02  0.45594000000E+02  0.51100000000E-03 0. -1.
         11   -1    0    0    0    0 -0.00000000000E+00 -0.00000000000E+00 -0.45593999997E+02  0.45594000000E+02  0.51100000000E-03 0.  1.
    9900012    2    1    2    0    0  0.31017532693E+02  0.11260494984E+02  0.30663128185E+02  0.46142317502E+02  0.99999976363E+01 0.  0.
        -12    1    1    2    0    0 -0.31017532693E+02 -0.11260494984E+02 -0.30663128185E+02  0.45045682498E+02  0.00000000000E+00 0.  1.
         11    1    3    3    0    0  0.92538274390E+01  0.49328205768E+01  0.77794006694E+01  0.13056994913E+02  0.51100000000E-03 0. -1.
        -11    1    3    3    0    0  0.79896177753E+01  0.61494614937E+01  0.87590487436E+01  0.13355553302E+02  0.51100000000E-03 0.  1.
        -12    1    3    3    0    0  0.13774087479E+02  0.17821291396E+00  0.14124678772E+02  0.19729769287E+02  0.00000000000E+00 0.  1.
</event>
<event>
 7    1  0.5190840E-008  0.4614232E+02  0.7816164E-02  0.1320468E+00
        -11   -1    0    0    0    0  0.00000000000E+00  0.00000000000E+00  0.45593999997E+02  0.45594000000E+02  0.51100000000E-03 0. -1.
         11   -1    0    0    0    0 -0.00000000000E+00 -0.00000000000E+00 -0.45593999997E+02  0.45594000000E+02  0.51100000000E-03 0.  1.
    9900012    2    1    2    0    0  0.21441462327E+02  0.31914378945E+02  0.23470179281E+02  0.46142320899E+02  0.10000028617E+02 0.  0.
        -12    1    1    2    0    0 -0.21441462327E+02 -0.31914378945E+02 -0.23470179281E+02  0.45045679101E+02  0.00000000000E+00 0.  1.
         11    1    3    3    0    0  0.14242949084E+02  0.20094843426E+02  0.16268238581E+02  0.29518128628E+02  0.51100000000E-03 0. -1.
        -11    1    3    3    0    0  0.71178691147E+00  0.28201317442E+01  0.42405354215E+01  0.51421711936E+01  0.51100000000E-03 0.  1.
        -12    1    3    3    0    0  0.64867263316E+01  0.89994037748E+01  0.29614052782E+01  0.11482021077E+02  0.00000000000E+00 0.  1.
</event>
<event>
 7    1  0.4081218E-008  0.4614232E+02  0.7816164E-02  0.1320468E+00
        -11   -1    0    0    0    0  0.00000000000E+00  0.00000000000E+00  0.45593999997E+02  0.45594000000E+02  0.51100000000E-03 0. -1.
         11   -1    0    0    0    0 -0.00000000000E+00 -0.00000000000E+00 -0.45593999997E+02  0.45594000000E+02  0.51100000000E-03 0.  1.
    9900012    2    1    2    0    0 -0.37939462430E+02 -0.17776727423E+02  0.16543838517E+02  0.46142318295E+02  0.10000004870E+02 0.  0.
        -12    1    1    2    0    0  0.37939462430E+02  0.17776727423E+02 -0.16543838517E+02  0.45045681705E+02  0.00000000000E+00 0.  1.
         11    1    3    3    0    0 -0.33149225690E+02 -0.17466664302E+02  0.12766945558E+02  0.39584724640E+02  0.51100000000E-03 0. -1.
        -11    1    3    3    0    0 -0.48672396971E+01 -0.52966773831E+00  0.29894778671E+01  0.57365101204E+01  0.51100000000E-03 0.  1.
         12    1    3    3    0    0  0.77002956915E-01  0.21960461766E+00  0.78741509218E+00  0.82108353464E+00  0.00000000000E+00 0. -1.
</event>
<event>
 7    1  0.4081218E-008  0.4614232E+02  0.7816164E-02  0.1320468E+00
        -11   -1    0    0    0    0  0.00000000000E+00  0.00000000000E+00  0.45593999997E+02  0.45594000000E+02  0.51100000000E-03 0.  1.
         11   -1    0    0    0    0 -0.00000000000E+00 -0.00000000000E+00 -0.45593999997E+02  0.45594000000E+02  0.51100000000E-03 0. -1.
    9900012    2    1    2    0    0 -0.43987164757E+02  0.96946104455E+01 -0.50727975878E+00  0.46142317990E+02  0.10000002085E+02 0.  0.
        -12    1    1    2    0    0  0.43987164757E+02 -0.96946104455E+01  0.50727975878E+00  0.45045682010E+02  0.00000000000E+00 0.  1.
         11    1    3    3    0    0 -0.15543423404E+02  0.60448256320E+01 -0.23389279222E+01  0.16840680275E+02  0.51100000000E-03 0. -1.
        -11    1    3    3    0    0 -0.92016562604E+01  0.38559252135E+01  0.11915294817E+01  0.10047804733E+02  0.51100000000E-03 0.  1.
        -12    1    3    3    0    0 -0.19242085093E+02 -0.20614039988E+00  0.64011868172E+00  0.19253832982E+02  0.00000000000E+00 0.  1.
</event>
<event>
 7    1  0.4081218E-008  0.4614232E+02  0.7816164E-02  0.1320468E+00
        -11   -1    0    0    0    0  0.00000000000E+00  0.00000000000E+00  0.45593999997E+02  0.45594000000E+02  0.51100000000E-03 0.  1.
         11   -1    0    0    0    0 -0.00000000000E+00 -0.00000000000E+00 -0.45593999997E+02  0.45594000000E+02  0.51100000000E-03 0. -1.
    9900012    2    1    2    0    0 -0.26340402535E+02  0.25604275219E+02 -0.26071398247E+02  0.46142317390E+02  0.99999966182E+01 0.  0.
        -12    1    1    2    0    0  0.26340402535E+02 -0.25604275219E+02  0.26071398247E+02  0.45045682610E+02  0.00000000000E+00 0.  1.
         11    1    3    3    0    0 -0.15765504043E+02  0.16139232817E+02 -0.19120141631E+02  0.29573734460E+02  0.51100000000E-03 0. -1.
        -11    1    3    3    0    0 -0.33080639128E+01  0.56108077857E+01 -0.47256343442E+01  0.80471156991E+01  0.51100000000E-03 0.  1.
        -12    1    3    3    0    0 -0.72668345787E+01  0.38542346161E+01 -0.22256222727E+01  0.85214672311E+01  0.00000000000E+00 0.  1.
</event>
<event>
 7    1  0.4081218E-008  0.4614232E+02  0.7816164E-02  0.1320468E+00
        -11   -1    0    0    0    0  0.00000000000E+00  0.00000000000E+00  0.45593999997E+02  0.45594000000E+02  0.51100000000E-03 0.  1.
         11   -1    0    0    0    0 -0.00000000000E+00 -0.00000000000E+00 -0.45593999997E+02  0.45594000000E+02  0.51100000000E-03 0. -1.
    9900012    2    1    2    0    0 -0.34086807525E+02 -0.21931654210E+02 -0.19652113992E+02  0.46142317766E+02  0.10000000041E+02 0.  0.
        -12    1    1    2    0    0  0.34086807525E+02  0.21931654210E+02  0.19652113992E+02  0.45045682234E+02  0.00000000000E+00 0.  1.
         11    1    3    3    0    0 -0.64545988629E+01 -0.54512563791E+01 -0.24328980359E+01  0.87918732762E+01  0.51100000000E-03 0. -1.
        -11    1    3    3    0    0 -0.11742784899E+02 -0.11553063246E+02 -0.77048667238E+01  0.18186017680E+02  0.51100000000E-03 0.  1.
        -12    1    3    3    0    0 -0.15889423763E+02 -0.49273345843E+01 -0.95143492324E+01  0.19164426810E+02  0.00000000000E+00 0.  1.
</event>
<event>
 7    1  0.4081218E-008  0.4614232E+02  0.7816164E-02  0.1320468E+00
        -11   -1    0    0    0    0  0.00000000000E+00  0.00000000000E+00  0.45593999997E+02  0.45594000000E+02  0.51100000000E-03 0. -1.
         11   -1    0    0    0    0 -0.00000000000E+00 -0.00000000000E+00 -0.45593999997E+02  0.45594000000E+02  0.51100000000E-03 0.  1.
    9900012    2    1    2    0    0 -0.34680552261E+02  0.21720441229E+02  0.18830698518E+02  0.46142317866E+02  0.10000000952E+02 0.  0.
        -12    1    1    2    0    0  0.34680552261E+02 -0.21720441229E+02 -0.18830698518E+02  0.45045682134E+02  0.00000000000E+00 0.  1.
         11    1    3    3    0    0 -0.49977511685E+01  0.39997192275E+01  0.11994800173E+00  0.64023166452E+01  0.51100000000E-03 0. -1.
        -11    1    3    3    0    0 -0.11220876077E+02  0.77499790635E+01  0.43508901285E+01  0.14314345273E+02  0.51100000000E-03 0.  1.
         12    1    3    3    0    0 -0.18461925015E+02  0.99707429378E+01  0.14359860388E+02  0.25425655947E+02  0.00000000000E+00 0. -1.
</event>
<event>
 7    1  0.4081218E-008  0.4614232E+02  0.7816164E-02  0.1320468E+00
        -11   -1    0    0    0    0  0.00000000000E+00  0.00000000000E+00  0.45593999997E+02  0.45594000000E+02  0.51100000000E-03 0. -1.
         11   -1    0    0    0    0 -0.00000000000E+00 -0.00000000000E+00 -0.45593999997E+02  0.45594000000E+02  0.51100000000E-03 0.  1.
    9900012    2    1    2    0    0  0.10019024608E+02 -0.13003684316E+02  0.41948026659E+02  0.46142316517E+02  0.99999886525E+01 0.  0.
        -12    1    1    2    0    0 -0.10019024608E+02  0.13003684316E+02 -0.41948026659E+02  0.45045683483E+02  0.00000000000E+00 0.  1.
         11    1    3    3    0    0 -0.15090034980E+01 -0.13329413309E+01  0.79435105303E+01  0.81947046288E+01  0.51100000000E-03 0. -1.
        -11    1    3    3    0    0  0.23687130505E+00 -0.25754443123E+00  0.70082196681E-02  0.34998075016E+00  0.51100000000E-03 0.  1.
         12    1    3    3    0    0  0.11291156801E+02 -0.11413198554E+02  0.33997507909E+02  0.37597631138E+02  0.00000000000E+00 0. -1.
</event>
<event>
 7    1  0.4081218E-008  0.4614232E+02  0.7816164E-02  0.1320468E+00
        -11   -1    0    0    0    0  0.00000000000E+00  0.00000000000E+00  0.45593999997E+02  0.45594000000E+02  0.51100000000E-03 0.  1.
         11   -1    0    0    0    0 -0.00000000000E+00 -0.00000000000E+00 -0.45593999997E+02  0.45594000000E+02  0.51100000000E-03 0. -1.
    9900012    2    1    2    0    0 -0.95293432880E+01  0.68571314670E+01 -0.43488905243E+02  0.46142317469E+02  0.99999973352E+01 0.  0.
        -12    1    1    2    0    0  0.95293432880E+01 -0.68571314670E+01  0.43488905243E+02  0.45045682531E+02  0.00000000000E+00 0.  1.
         11    1    3    3    0    0 -0.82332131810E+01  0.59107310795E+01 -0.38563764625E+02  0.39873380637E+02  0.51100000000E-03 0.  1.
        -11    1    3    3    0    0 -0.19233037733E+01  0.82355871287E+00 -0.10489914229E+01  0.23404550037E+01  0.51100000000E-03 0. -1.
        -12    1    3    3    0    0  0.62717366626E+00  0.12284167466E+00 -0.38761491955E+01  0.39284818277E+01  0.00000000000E+00 0.  1.
</event>
<event>
 7    1  0.4081218E-008  0.4614232E+02  0.7816164E-02  0.1320468E+00
        -11   -1    0    0    0    0  0.00000000000E+00  0.00000000000E+00  0.45593999997E+02  0.45594000000E+02  0.51100000000E-03 0.  1.
         11   -1    0    0    0    0 -0.00000000000E+00 -0.00000000000E+00 -0.45593999997E+02  0.45594000000E+02  0.51100000000E-03 0. -1.
    9900012    2    1    2    0    0 -0.15536534746E+02 -0.37458956720E+02 -0.19610102429E+02  0.46142317990E+02  0.10000002090E+02 0.  0.
        -12    1    1    2    0    0  0.15536534746E+02  0.37458956720E+02  0.19610102429E+02  0.45045682010E+02  0.00000000000E+00 0.  1.
         11    1    3    3    0    0 -0.49696965443E+01 -0.64862279815E+01 -0.59012713334E+01  0.10079386925E+02  0.51100000000E-03 0. -1.
        -11    1    3    3    0    0 -0.33436668300E+01 -0.55829447750E+01 -0.45067107209E+00  0.65232265718E+01  0.51100000000E-03 0.  1.
         12    1    3    3    0    0 -0.72231713719E+01 -0.25389783963E+02 -0.13258160023E+02  0.29539704494E+02  0.00000000000E+00 0. -1.
</event>
<event>
 7    1  0.4081218E-008  0.4614232E+02  0.7816164E-02  0.1320468E+00
        -11   -1    0    0    0    0  0.00000000000E+00  0.00000000000E+00  0.45593999997E+02  0.45594000000E+02  0.51100000000E-03 0. -1.
         11   -1    0    0    0    0 -0.00000000000E+00 -0.00000000000E+00 -0.45593999997E+02  0.45594000000E+02  0.51100000000E-03 0.  1.
    9900012    2    1    2    0    0  0.22190110001E+02 -0.18078146887E+02  0.34783519826E+02  0.46142316209E+02  0.99999858451E+01 0.  0.
        -12    1    1    2    0    0 -0.22190110001E+02  0.18078146887E+02 -0.34783519826E+02  0.45045683791E+02  0.00000000000E+00 0.  1.
         11    1    3    3    0    0  0.28361897717E+01 -0.50443277667E+01  0.72274498284E+01  0.92587929193E+01  0.51100000000E-03 0. -1.
        -11    1    3    3    0    0  0.92664492323E+01 -0.87042693624E+01  0.99869506032E+01  0.16166959180E+02  0.51100000000E-03 0.  1.
        -12    1    3    3    0    0  0.10087470997E+02 -0.43295497582E+01  0.17569119395E+02  0.20716564110E+02  0.00000000000E+00 0.  1.
</event>
<event>
 7    1  0.4081218E-008  0.4614232E+02  0.7816164E-02  0.1320468E+00
        -11   -1    0    0    0    0  0.00000000000E+00  0.00000000000E+00  0.45593999997E+02  0.45594000000E+02  0.51100000000E-03 0. -1.
         11   -1    0    0    0    0 -0.00000000000E+00 -0.00000000000E+00 -0.45593999997E+02  0.45594000000E+02  0.51100000000E-03 0.  1.
    9900012    2    1    2    0    0  0.31290279428E+02 -0.29186652723E+02  0.14077328801E+02  0.46142317965E+02  0.10000001856E+02 0.  0.
        -12    1    1    2    0    0 -0.31290279428E+02  0.29186652723E+02 -0.14077328801E+02  0.45045682035E+02  0.00000000000E+00 0.  1.
         11    1    3    3    0    0  0.90529426343E+00 -0.22827424110E+01  0.11951533042E+01  0.27310917780E+01  0.51100000000E-03 0. -1.
        -11    1    3    3    0    0  0.13122732135E+02 -0.13887636657E+02  0.20115084415E+01  0.19212462546E+02  0.51100000000E-03 0.  1.
        -12    1    3    3    0    0  0.17262253030E+02 -0.13016273655E+02  0.10870667055E+02  0.24198763641E+02  0.00000000000E+00 0.  1.
</event>
<event>
 7    1  0.4081218E-008  0.4614232E+02  0.7816164E-02  0.1320468E+00
        -11   -1    0    0    0    0  0.00000000000E+00  0.00000000000E+00  0.45593999997E+02  0.45594000000E+02  0.51100000000E-03 0.  1.
         11   -1    0    0    0    0 -0.00000000000E+00 -0.00000000000E+00 -0.45593999997E+02  0.45594000000E+02  0.51100000000E-03 0. -1.
    9900012    2    1    2    0    0  0.22349542962E+02 -0.31839284438E+02 -0.22712799681E+02  0.46142319036E+02  0.10000011624E+02 0.  0.
        -12    1    1    2    0    0 -0.22349542962E+02  0.31839284438E+02  0.22712799681E+02  0.45045680964E+02  0.00000000000E+00 0.  1.
         11    1    3    3    0    0  0.63872333184E+01 -0.38914555184E+01 -0.27535164243E+01  0.79700707949E+01  0.51100000000E-03 0. -1.
        -11    1    3    3    0    0  0.24894912154E+00 -0.90596922830E-01  0.22907938343E+00  0.35023005664E+00  0.51100000000E-03 0.  1.
        -12    1    3    3    0    0  0.15713360523E+02 -0.27857231997E+02 -0.20188362640E+02  0.37822018184E+02  0.00000000000E+00 0.  1.
</event>
<event>
 7    1  0.4081218E-008  0.4614232E+02  0.7816164E-02  0.1320468E+00
        -11   -1    0    0    0    0  0.00000000000E+00  0.00000000000E+00  0.45593999997E+02  0.45594000000E+02  0.51100000000E-03 0.  1.
         11   -1    0    0    0    0 -0.00000000000E+00 -0.00000000000E+00 -0.45593999997E+02  0.45594000000E+02  0.51100000000E-03 0. -1.
    9900012    2    1    2    0    0  0.41275778504E+02 -0.37454386933E+01 -0.17646394171E+02  0.46142318416E+02  0.10000005974E+02 0.  0.
        -12    1    1    2    0    0 -0.41275778504E+02  0.37454386933E+01  0.17646394171E+02  0.45045681584E+02  0.00000000000E+00 0.  1.
         11    1    3    3    0    0  0.83412962036E+01 -0.33089015994E+01 -0.20645658657E+01  0.92080662805E+01  0.51100000000E-03 0. -1.
        -11    1    3    3    0    0  0.14981208681E+01 -0.13784934876E+01 -0.97763348651E+00  0.22584016308E+01  0.51100000000E-03 0.  1.
         12    1    3    3    0    0  0.31436361432E+02  0.94195639372E+00 -0.14604194819E+02  0.34675850505E+02  0.00000000000E+00 0. -1.
</event>
<event>
 7    1  0.4081218E-008  0.4614232E+02  0.7816164E-02  0.1320468E+00
        -11   -1    0    0    0    0  0.00000000000E+00  0.00000000000E+00  0.45593999997E+02  0.45594000000E+02  0.51100000000E-03 0. -1.
         11   -1    0    0    0    0 -0.00000000000E+00 -0.00000000000E+00 -0.45593999997E+02  0.45594000000E+02  0.51100000000E-03 0.  1.
    9900012    2    1    2    0    0 -0.32263427864E+02  0.30777247868E+02  0.63988902121E+01  0.46142316968E+02  0.99999927713E+01 0.  0.
        -12    1    1    2    0    0  0.32263427864E+02 -0.30777247868E+02 -0.63988902121E+01  0.45045683032E+02  0.00000000000E+00 0.  1.
         11    1    3    3    0    0 -0.39465238136E+01  0.49149425588E+01  0.63974995811E+00  0.63356918200E+01  0.51100000000E-03 0. -1.
        -11    1    3    3    0    0 -0.24226556851E+02  0.16908285425E+02  0.43864036472E+01  0.29867318428E+02  0.51100000000E-03 0.  1.
         12    1    3    3    0    0 -0.40903471997E+01  0.89540198839E+01  0.13727366068E+01  0.99393067207E+01  0.00000000000E+00 0. -1.
</event>
<event>
 7    1  0.4081218E-008  0.4614232E+02  0.7816164E-02  0.1320468E+00
        -11   -1    0    0    0    0  0.00000000000E+00  0.00000000000E+00  0.45593999997E+02  0.45594000000E+02  0.51100000000E-03 0.  1.
         11   -1    0    0    0    0 -0.00000000000E+00 -0.00000000000E+00 -0.45593999997E+02  0.45594000000E+02  0.51100000000E-03 0. -1.
    9900012    2    1    2    0    0 -0.10217992482E+02 -0.30950900587E+02 -0.31092569082E+02  0.46142317970E+02  0.10000001901E+02 0.  0.
        -12    1    1    2    0    0  0.10217992482E+02  0.30950900587E+02  0.31092569082E+02  0.45045682030E+02  0.00000000000E+00 0.  1.
         11    1    3    3    0    0 -0.58335825475E+01 -0.16114232837E+02 -0.10950568094E+02  0.20337505430E+02  0.51100000000E-03 0. -1.
        -11    1    3    3    0    0  0.81390178870E+00 -0.74315548726E+00 -0.11978078717E+01  0.16277162402E+01  0.51100000000E-03 0.  1.
         12    1    3    3    0    0 -0.51983117234E+01 -0.14093512263E+02 -0.18944193116E+02  0.24177096300E+02  0.00000000000E+00 0. -1.
</event>
<event>
 7    1  0.4081218E-008  0.4614232E+02  0.7816164E-02  0.1320468E+00
        -11   -1    0    0    0    0  0.00000000000E+00  0.00000000000E+00  0.45593999997E+02  0.45594000000E+02  0.51100000000E-03 0.  1.
         11   -1    0    0    0    0 -0.00000000000E+00 -0.00000000000E+00 -0.45593999997E+02  0.45594000000E+02  0.51100000000E-03 0. -1.
    9900012    2    1    2    0    0 -0.28155745460E+02 -0.17524950804E+02 -0.30483498415E+02  0.46142316758E+02  0.99999908528E+01 0.  0.
        -12    1    1    2    0    0  0.28155745460E+02  0.17524950804E+02  0.30483498415E+02  0.45045683242E+02  0.00000000000E+00 0.  1.
         11    1    3    3    0    0 -0.26816208686E+01 -0.76547922547E+00 -0.25017712451E+01  0.37464527959E+01  0.51100000000E-03 0. -1.
        -11    1    3    3    0    0 -0.22018671945E+02 -0.16789430636E+02 -0.27278778222E+02  0.38869507803E+02  0.51100000000E-03 0.  1.
        -12    1    3    3    0    0 -0.34554526468E+01  0.29959057383E-01 -0.70294894847E+00  0.35263561595E+01  0.00000000000E+00 0.  1.
</event>
<event>
 7    1  0.4081218E-008  0.4614232E+02  0.7816164E-02  0.1320468E+00
        -11   -1    0    0    0    0  0.00000000000E+00  0.00000000000E+00  0.45593999997E+02  0.45594000000E+02  0.51100000000E-03 0. -1.
         11   -1    0    0    0    0 -0.00000000000E+00 -0.00000000000E+00 -0.45593999997E+02  0.45594000000E+02  0.51100000000E-03 0.  1.
    9900012    2    1    2    0    0  0.69799700381E+01 -0.34490762123E+02  0.28120826644E+02  0.46142317136E+02  0.99999942991E+01 0.  0.
        -12    1    1    2    0    0 -0.69799700381E+01  0.34490762123E+02 -0.28120826644E+02  0.45045682864E+02  0.00000000000E+00 0.  1.
         11    1    3    3    0    0 -0.63051065443E+00 -0.11168909319E+02  0.91431108694E+01  0.14447787225E+02  0.51100000000E-03 0. -1.
        -11    1    3    3    0    0  0.36948031253E+01 -0.16461076410E+02  0.16003552626E+02  0.23253651404E+02  0.51100000000E-03 0.  1.
        -12    1    3    3    0    0  0.39156775673E+01 -0.68607763939E+01  0.29741631489E+01  0.84408785072E+01  0.00000000000E+00 0.  1.
</event>
<event>
 7    1  0.4081218E-008  0.4614232E+02  0.7816164E-02  0.1320468E+00
        -11   -1    0    0    0    0  0.00000000000E+00  0.00000000000E+00  0.45593999997E+02  0.45594000000E+02  0.51100000000E-03 0.  1.
         11   -1    0    0    0    0 -0.00000000000E+00 -0.00000000000E+00 -0.45593999997E+02  0.45594000000E+02  0.51100000000E-03 0. -1.
    9900012    2    1    2    0    0 -0.35830011264E+02  0.79592928798E+01 -0.26114622762E+02  0.46142316829E+02  0.99999915031E+01 0.  0.
        -12    1    1    2    0    0  0.35830011264E+02 -0.79592928798E+01  0.26114622762E+02  0.45045683171E+02  0.00000000000E+00 0.  1.
         11    1    3    3    0    0 -0.45383571061E+01 -0.70794986932E+00 -0.38388609883E+01  0.59862118396E+01  0.51100000000E-03 0. -1.
        -11    1    3    3    0    0 -0.25736461957E+02  0.77416251404E+01 -0.21608079772E+02  0.34484885756E+02  0.51100000000E-03 0.  1.
        -12    1    3    3    0    0 -0.55551922009E+01  0.92561760866E+00 -0.66768200148E+00  0.56712192341E+01  0.00000000000E+00 0.  1.
</event>
<event>
 7    1  0.4081218E-008  0.4614232E+02  0.7816164E-02  0.1320468E+00
        -11   -1    0    0    0    0  0.00000000000E+00  0.00000000000E+00  0.45593999997E+02  0.45594000000E+02  0.51100000000E-03 0. -1.
         11   -1    0    0    0    0 -0.00000000000E+00 -0.00000000000E+00 -0.45593999997E+02  0.45594000000E+02  0.51100000000E-03 0.  1.
    9900012    2    1    2    0    0  0.39813120236E+02 -0.15671756982E+02  0.14086342201E+02  0.46142317117E+02  0.99999941239E+01 0.  0.
        -12    1    1    2    0    0 -0.39813120236E+02  0.15671756982E+02 -0.14086342201E+02  0.45045682883E+02  0.00000000000E+00 0.  1.
         11    1    3    3    0    0  0.23386826400E+01 -0.22102179050E+01  0.33027158747E+01  0.46111204807E+01  0.51100000000E-03 0.  1.
        -11    1    3    3    0    0  0.21104872555E+02 -0.67568036663E+01  0.83224881065E+01  0.23671371948E+02  0.51100000000E-03 0. -1.
         12    1    3    3    0    0  0.16369565040E+02 -0.67047354111E+01  0.24611382200E+01  0.17859824688E+02  0.00000000000E+00 0. -1.
</event>
<event>
 7    1  0.4081218E-008  0.4614232E+02  0.7816164E-02  0.1320468E+00
        -11   -1    0    0    0    0  0.00000000000E+00  0.00000000000E+00  0.45593999997E+02  0.45594000000E+02  0.51100000000E-03 0. -1.
         11   -1    0    0    0    0 -0.00000000000E+00 -0.00000000000E+00 -0.45593999997E+02  0.45594000000E+02  0.51100000000E-03 0.  1.
    9900012    2    1    2    0    0  0.35512540056E+02 -0.91751075101E+01  0.26149384328E+02  0.46142318745E+02  0.10000008971E+02 0.  0.
        -12    1    1    2    0    0 -0.35512540056E+02  0.91751075101E+01 -0.26149384328E+02  0.45045681255E+02  0.00000000000E+00 0.  1.
         11    1    3    3    0    0  0.84750903751E+01 -0.25901331610E+01  0.62113145992E+01  0.10822031970E+02  0.51100000000E-03 0. -1.
        -11    1    3    3    0    0  0.17251581426E+01  0.12332152260E+01  0.36504107549E+01  0.42216690243E+01  0.51100000000E-03 0.  1.
        -12    1    3    3    0    0  0.25312291538E+02 -0.78181895751E+01  0.16287658973E+02  0.31098617750E+02  0.00000000000E+00 0.  1.
</event>
<event>
 7    1  0.4081218E-008  0.4614232E+02  0.7816164E-02  0.1320468E+00
        -11   -1    0    0    0    0  0.00000000000E+00  0.00000000000E+00  0.45593999997E+02  0.45594000000E+02  0.51100000000E-03 0.  1.
         11   -1    0    0    0    0 -0.00000000000E+00 -0.00000000000E+00 -0.45593999997E+02  0.45594000000E+02  0.51100000000E-03 0. -1.
    9900012    2    1    2    0    0  0.32129568861E+02  0.87106600277E+01 -0.30346809046E+02  0.46142316383E+02  0.99999874306E+01 0.  0.
        -12    1    1    2    0    0 -0.32129568861E+02 -0.87106600277E+01  0.30346809046E+02  0.45045683617E+02  0.00000000000E+00 0.  1.
         11    1    3    3    0    0  0.11235848291E+01  0.49905277758E+00 -0.28208293480E+01  0.30771049730E+01  0.51100000000E-03 0. -1.
        -11    1    3    3    0    0  0.85866466276E+01  0.57529432847E+01 -0.11078322523E+02  0.15151108439E+02  0.51100000000E-03 0.  1.
         12    1    3    3    0    0  0.22419337404E+02  0.24586639654E+01 -0.16447657175E+02  0.27914102971E+02  0.00000000000E+00 0. -1.
</event>
<event>
 7    1  0.4081218E-008  0.4614232E+02  0.7816164E-02  0.1320468E+00
        -11   -1    0    0    0    0  0.00000000000E+00  0.00000000000E+00  0.45593999997E+02  0.45594000000E+02  0.51100000000E-03 0.  1.
         11   -1    0    0    0    0 -0.00000000000E+00 -0.00000000000E+00 -0.45593999997E+02  0.45594000000E+02  0.51100000000E-03 0. -1.
    9900012    2    1    2    0    0 -0.38701494908E+02  0.10702458100E+02 -0.20414827317E+02  0.46142317722E+02  0.99999996433E+01 0.  0.
        -12    1    1    2    0    0  0.38701494908E+02 -0.10702458100E+02  0.20414827317E+02  0.45045682278E+02  0.00000000000E+00 0.  1.
         11    1    3    3    0    0 -0.50844666735E+01  0.39844056237E+01 -0.46715958440E+01  0.79718942240E+01  0.51100000000E-03 0.  1.
        -11    1    3    3    0    0 -0.24022539443E+02  0.20836212599E+01 -0.10628521053E+02  0.26351268259E+02  0.51100000000E-03 0. -1.
         12    1    3    3    0    0 -0.95944887917E+01  0.46344312162E+01 -0.51147104206E+01  0.11819155239E+02  0.00000000000E+00 0. -1.
</event>
<event>
 7    1  0.4081218E-008  0.4614232E+02  0.7816164E-02  0.1320468E+00
        -11   -1    0    0    0    0  0.00000000000E+00  0.00000000000E+00  0.45593999997E+02  0.45594000000E+02  0.51100000000E-03 0. -1.
         11   -1    0    0    0    0 -0.00000000000E+00 -0.00000000000E+00 -0.45593999997E+02  0.45594000000E+02  0.51100000000E-03 0.  1.
    9900012    2    1    2    0    0 -0.10553589462E+02 -0.11158035106E+01  0.43777736741E+02  0.46142317608E+02  0.99999986023E+01 0.  0.
        -12    1    1    2    0    0  0.10553589462E+02  0.11158035106E+01 -0.43777736741E+02  0.45045682392E+02  0.00000000000E+00 0.  1.
         11    1    3    3    0    0 -0.46187238436E+01 -0.42547468794E+01  0.11291354047E+02  0.12920145410E+02  0.51100000000E-03 0. -1.
        -11    1    3    3    0    0  0.47467430897E-01  0.27817360167E+00  0.77224199838E+00  0.82218712885E+00  0.51100000000E-03 0.  1.
        -12    1    3    3    0    0 -0.59823330492E+01  0.28607697671E+01  0.31714140696E+02  0.32399985069E+02  0.00000000000E+00 0.  1.
</event>
<event>
 7    1  0.4081218E-008  0.4614232E+02  0.7816164E-02  0.1320468E+00
        -11   -1    0    0    0    0  0.00000000000E+00  0.00000000000E+00  0.45593999997E+02  0.45594000000E+02  0.51100000000E-03 0. -1.
         11   -1    0    0    0    0 -0.00000000000E+00 -0.00000000000E+00 -0.45593999997E+02  0.45594000000E+02  0.51100000000E-03 0.  1.
    9900012    2    1    2    0    0  0.41643792835E+02 -0.91499990637E+01  0.14532224744E+02  0.46142317404E+02  0.99999967421E+01 0.  0.
        -12    1    1    2    0    0 -0.41643792835E+02  0.91499990637E+01 -0.14532224744E+02  0.45045682596E+02  0.00000000000E+00 0.  1.
         11    1    3    3    0    0  0.29697765384E+00  0.35991857314E+00 -0.61340493802E+00  0.77071589141E+00  0.51100000000E-03 0. -1.
        -11    1    3    3    0    0  0.79329833751E+01  0.94428033299E-01  0.18280490564E+01  0.81414314157E+01  0.51100000000E-03 0.  1.
         12    1    3    3    0    0  0.33413831806E+02 -0.96043456701E+01  0.13317580626E+02  0.37230170097E+02  0.00000000000E+00 0. -1.
</event>
<event>
 7    1  0.4081218E-008  0.4614232E+02  0.7816164E-02  0.1320468E+00
        -11   -1    0    0    0    0  0.00000000000E+00  0.00000000000E+00  0.45593999997E+02  0.45594000000E+02  0.51100000000E-03 0. -1.
         11   -1    0    0    0    0 -0.00000000000E+00 -0.00000000000E+00 -0.45593999997E+02  0.45594000000E+02  0.51100000000E-03 0.  1.
    9900012    2    1    2    0    0  0.23569412232E+02 -0.42411798372E+00  0.38385106389E+02  0.46142318059E+02  0.10000002715E+02 0.  0.
        -12    1    1    2    0    0 -0.23569412232E+02  0.42411798372E+00 -0.38385106389E+02  0.45045681941E+02  0.00000000000E+00 0.  1.
         11    1    3    3    0    0  0.83127726108E+01 -0.18601349292E+01  0.17648918373E+02  0.19597107195E+02  0.51100000000E-03 0. -1.
        -11    1    3    3    0    0  0.80751095059E+01  0.28766849944E+01  0.14858236732E+02  0.17153714150E+02  0.51100000000E-03 0.  1.
        -12    1    3    3    0    0  0.71815301153E+01 -0.14406680488E+01  0.58779512850E+01  0.93914967141E+01  0.00000000000E+00 0.  1.
</event>
<event>
 7    1  0.4081218E-008  0.4614232E+02  0.7816164E-02  0.1320468E+00
        -11   -1    0    0    0    0  0.00000000000E+00  0.00000000000E+00  0.45593999997E+02  0.45594000000E+02  0.51100000000E-03 0.  1.
         11   -1    0    0    0    0 -0.00000000000E+00 -0.00000000000E+00 -0.45593999997E+02  0.45594000000E+02  0.51100000000E-03 0. -1.
    9900012    2    1    2    0    0  0.26680611099E+02  0.36289449426E+02  0.57821649478E+00  0.46142317826E+02  0.10000000587E+02 0.  0.
        -12    1    1    2    0    0 -0.26680611099E+02 -0.36289449426E+02 -0.57821649478E+00  0.45045682174E+02  0.00000000000E+00 0.  1.
         11    1    3    3    0    0  0.68133704625E+00  0.12907059017E+01  0.59402156666E+00  0.15757549867E+01  0.51100000000E-03 0. -1.
        -11    1    3    3    0    0  0.12476447359E+01  0.29088731033E+00  0.14204473290E+01  0.19128261003E+01  0.51100000000E-03 0.  1.
        -12    1    3    3    0    0  0.24751629317E+02  0.34707856214E+02 -0.14362524009E+01  0.42653736739E+02  0.00000000000E+00 0.  1.
</event>
<event>
 7    1  0.4081218E-008  0.4614232E+02  0.7816164E-02  0.1320468E+00
        -11   -1    0    0    0    0  0.00000000000E+00  0.00000000000E+00  0.45593999997E+02  0.45594000000E+02  0.51100000000E-03 0.  1.
         11   -1    0    0    0    0 -0.00000000000E+00 -0.00000000000E+00 -0.45593999997E+02  0.45594000000E+02  0.51100000000E-03 0. -1.
    9900012    2    1    2    0    0 -0.36603530805E+02 -0.26241994316E+02  0.80792428332E+00  0.46142317913E+02  0.10000001384E+02 0.  0.
        -12    1    1    2    0    0  0.36603530805E+02  0.26241994316E+02 -0.80792428332E+00  0.45045682087E+02  0.00000000000E+00 0.  1.
         11    1    3    3    0    0 -0.73385845552E+01 -0.33341793807E+01  0.78910894533E+00  0.80990288681E+01  0.51100000000E-03 0. -1.
        -11    1    3    3    0    0 -0.26870325345E+01 -0.24002389744E+01  0.24943294713E+01  0.43821194356E+01  0.51100000000E-03 0.  1.
         12    1    3    3    0    0 -0.26577913715E+02 -0.20507575961E+02 -0.24755141333E+01  0.33661169609E+02  0.00000000000E+00 0. -1.
</event>
<event>
 7    1  0.5747457E-008  0.4614232E+02  0.7816164E-02  0.1320468E+00
        -11   -1    0    0    0    0  0.00000000000E+00  0.00000000000E+00  0.45593999997E+02  0.45594000000E+02  0.51100000000E-03 0.  1.
         11   -1    0    0    0    0 -0.00000000000E+00 -0.00000000000E+00 -0.45593999997E+02  0.45594000000E+02  0.51100000000E-03 0. -1.
    9900012    2    1    2    0    0 -0.27680281387E+01 -0.39605913225E+02 -0.21279642705E+02  0.46142317235E+02  0.99999951990E+01 0.  0.
        -12    1    1    2    0    0  0.27680281387E+01  0.39605913225E+02  0.21279642705E+02  0.45045682765E+02  0.00000000000E+00 0.  1.
         11    1    3    3    0    0 -0.32997768283E+00 -0.10154554167E+02 -0.78306343935E+01  0.12827419494E+02  0.51100000000E-03 0. -1.
        -11    1    3    3    0    0 -0.28916163689E+01 -0.25404412446E+02 -0.14088036648E+02  0.29192779824E+02  0.51100000000E-03 0.  1.
        -12    1    3    3    0    0  0.45356591306E+00 -0.40469466107E+01  0.63902833597E+00  0.41221179170E+01  0.00000000000E+00 0.  1.
</event>
<event>
 7    1  0.4081218E-008  0.4614232E+02  0.7816164E-02  0.1320468E+00
        -11   -1    0    0    0    0  0.00000000000E+00  0.00000000000E+00  0.45593999997E+02  0.45594000000E+02  0.51100000000E-03 0. -1.
         11   -1    0    0    0    0 -0.00000000000E+00 -0.00000000000E+00 -0.45593999997E+02  0.45594000000E+02  0.51100000000E-03 0.  1.
    9900012    2    1    2    0    0 -0.40237554294E+02 -0.61415964461E+01  0.19295942648E+02  0.46142318907E+02  0.10000010445E+02 0.  0.
        -12    1    1    2    0    0  0.40237554294E+02  0.61415964461E+01 -0.19295942648E+02  0.45045681093E+02  0.00000000000E+00 0.  1.
         11    1    3    3    0    0 -0.66131898346E+01  0.13556459455E+01  0.49090405523E+01  0.83468997312E+01  0.51100000000E-03 0. -1.
        -11    1    3    3    0    0 -0.35088412202E+01 -0.25424208608E+01  0.88860346664E+00  0.44232891522E+01  0.51100000000E-03 0.  1.
        -12    1    3    3    0    0 -0.30115523240E+02 -0.49548215308E+01  0.13498298629E+02  0.33372130023E+02  0.00000000000E+00 0.  1.
</event>
<event>
 7    1  0.4081218E-008  0.4614232E+02  0.7816164E-02  0.1320468E+00
        -11   -1    0    0    0    0  0.00000000000E+00  0.00000000000E+00  0.45593999997E+02  0.45594000000E+02  0.51100000000E-03 0. -1.
         11   -1    0    0    0    0 -0.00000000000E+00 -0.00000000000E+00 -0.45593999997E+02  0.45594000000E+02  0.51100000000E-03 0.  1.
    9900012    2    1    2    0    0  0.22812718440E+02 -0.31714506532E+02  0.22425067389E+02  0.46142315472E+02  0.99999791240E+01 0.  0.
        -12    1    1    2    0    0 -0.22812718440E+02  0.31714506532E+02 -0.22425067389E+02  0.45045684528E+02  0.00000000000E+00 0.  1.
         11    1    3    3    0    0  0.87143357176E+01 -0.17904441523E+02  0.11921991694E+02  0.23208674229E+02  0.51100000000E-03 0. -1.
        -11    1    3    3    0    0  0.11283321375E+02 -0.11912014722E+02  0.64089113621E+01  0.17614868183E+02  0.51100000000E-03 0.  1.
        -12    1    3    3    0    0  0.28150613477E+01 -0.18980502877E+01  0.40941643323E+01  0.53187730601E+01  0.00000000000E+00 0.  1.
</event>
<event>
 7    1  0.4081218E-008  0.4614232E+02  0.7816164E-02  0.1320468E+00
        -11   -1    0    0    0    0  0.00000000000E+00  0.00000000000E+00  0.45593999997E+02  0.45594000000E+02  0.51100000000E-03 0. -1.
         11   -1    0    0    0    0 -0.00000000000E+00 -0.00000000000E+00 -0.45593999997E+02  0.45594000000E+02  0.51100000000E-03 0.  1.
    9900012    2    1    2    0    0  0.84259323564E+01 -0.13577137227E+02  0.42116249712E+02  0.46142317841E+02  0.10000000729E+02 0.  0.
        -12    1    1    2    0    0 -0.84259323564E+01  0.13577137227E+02 -0.42116249712E+02  0.45045682159E+02  0.00000000000E+00 0.  1.
         11    1    3    3    0    0  0.25959915202E+01 -0.66870642393E+01  0.15543663860E+02  0.17119038716E+02  0.51100000000E-03 0. -1.
        -11    1    3    3    0    0  0.33698868224E+01 -0.79636973908E+01  0.16881940868E+02  0.18967776386E+02  0.51100000000E-03 0.  1.
         12    1    3    3    0    0  0.24600540138E+01  0.10736244028E+01  0.96906449847E+01  0.10055502739E+02  0.00000000000E+00 0. -1.
</event>
<event>
 7    1  0.4081218E-008  0.4614232E+02  0.7816164E-02  0.1320468E+00
        -11   -1    0    0    0    0  0.00000000000E+00  0.00000000000E+00  0.45593999997E+02  0.45594000000E+02  0.51100000000E-03 0.  1.
         11   -1    0    0    0    0 -0.00000000000E+00 -0.00000000000E+00 -0.45593999997E+02  0.45594000000E+02  0.51100000000E-03 0. -1.
    9900012    2    1    2    0    0 -0.64907643845E+01  0.26597819824E+02 -0.35770641543E+02  0.46142324980E+02  0.10000065823E+02 0.  0.
        -12    1    1    2    0    0  0.64907643845E+01 -0.26597819824E+02  0.35770641543E+02  0.45045675020E+02  0.00000000000E+00 0.  1.
         11    1    3    3    0    0 -0.31202184317E+01  0.76610486433E+01 -0.78906998844E+01  0.11431997826E+02  0.51100000000E-03 0. -1.
        -11    1    3    3    0    0 -0.26419603958E+01  0.13889362861E+02 -0.13889905285E+02  0.19819783664E+02  0.51100000000E-03 0.  1.
        -12    1    3    3    0    0 -0.72858555701E+00  0.50474083192E+01 -0.13990036373E+02  0.14890543489E+02  0.00000000000E+00 0.  1.
</event>
<event>
 7    1  0.4081218E-008  0.4614232E+02  0.7816164E-02  0.1320468E+00
        -11   -1    0    0    0    0  0.00000000000E+00  0.00000000000E+00  0.45593999997E+02  0.45594000000E+02  0.51100000000E-03 0.  1.
         11   -1    0    0    0    0 -0.00000000000E+00 -0.00000000000E+00 -0.45593999997E+02  0.45594000000E+02  0.51100000000E-03 0. -1.
    9900012    2    1    2    0    0 -0.78046747073E+01 -0.41944434377E+02 -0.14452160646E+02  0.46142317967E+02  0.10000001876E+02 0.  0.
        -12    1    1    2    0    0  0.78046747073E+01  0.41944434377E+02  0.14452160646E+02  0.45045682033E+02  0.00000000000E+00 0.  1.
         11    1    3    3    0    0 -0.36759428893E+01 -0.17587239964E+02 -0.64328216468E+01  0.19084149451E+02  0.51100000000E-03 0. -1.
        -11    1    3    3    0    0 -0.17850662596E+01 -0.23124000697E+02 -0.72823187623E+01  0.24309217112E+02  0.51100000000E-03 0.  1.
        -12    1    3    3    0    0 -0.23436655584E+01 -0.12331937166E+01 -0.73702023737E+00  0.27489514042E+01  0.00000000000E+00 0.  1.
</event>
<event>
 7    1  0.4081218E-008  0.4614232E+02  0.7816164E-02  0.1320468E+00
        -11   -1    0    0    0    0  0.00000000000E+00  0.00000000000E+00  0.45593999997E+02  0.45594000000E+02  0.51100000000E-03 0.  1.
         11   -1    0    0    0    0 -0.00000000000E+00 -0.00000000000E+00 -0.45593999997E+02  0.45594000000E+02  0.51100000000E-03 0. -1.
    9900012    2    1    2    0    0  0.39564564777E+02  0.38748193884E+00 -0.21531572345E+02  0.46142317234E+02  0.99999951909E+01 0.  0.
        -12    1    1    2    0    0 -0.39564564777E+02 -0.38748193884E+00  0.21531572345E+02  0.45045682766E+02  0.00000000000E+00 0.  1.
         11    1    3    3    0    0  0.34506555404E+01 -0.14907334364E+00  0.12369871811E+00  0.34560885629E+01  0.51100000000E-03 0. -1.
        -11    1    3    3    0    0  0.15251941244E+02 -0.11299823247E+01 -0.55179200855E+01  0.16258721170E+02  0.51100000000E-03 0.  1.
         12    1    3    3    0    0  0.20861967992E+02  0.16665376072E+01 -0.16137350978E+02  0.26427507501E+02  0.00000000000E+00 0. -1.
</event>
<event>
 7    1  0.4081218E-008  0.4614232E+02  0.7816164E-02  0.1320468E+00
        -11   -1    0    0    0    0  0.00000000000E+00  0.00000000000E+00  0.45593999997E+02  0.45594000000E+02  0.51100000000E-03 0. -1.
         11   -1    0    0    0    0 -0.00000000000E+00 -0.00000000000E+00 -0.45593999997E+02  0.45594000000E+02  0.51100000000E-03 0.  1.
    9900012    2    1    2    0    0  0.16804775056E+02  0.34906353869E+02  0.22983896234E+02  0.46142317729E+02  0.99999997086E+01 0.  0.
        -12    1    1    2    0    0 -0.16804775056E+02 -0.34906353869E+02 -0.22983896234E+02  0.45045682271E+02  0.00000000000E+00 0.  1.
         11    1    3    3    0    0  0.50563715840E+01  0.15264140726E+02  0.67456729925E+01  0.17437459393E+02  0.51100000000E-03 0. -1.
        -11    1    3    3    0    0  0.10187589883E+02  0.12211444708E+02  0.93198415147E+01  0.18432737604E+02  0.51100000000E-03 0.  1.
        -12    1    3    3    0    0  0.15608135890E+01  0.74307684353E+01  0.69183817271E+01  0.10272120731E+02  0.00000000000E+00 0.  1.
</event>
<event>
 7    1  0.4081218E-008  0.4614232E+02  0.7816164E-02  0.1320468E+00
        -11   -1    0    0    0    0  0.00000000000E+00  0.00000000000E+00  0.45593999997E+02  0.45594000000E+02  0.51100000000E-03 0. -1.
         11   -1    0    0    0    0 -0.00000000000E+00 -0.00000000000E+00 -0.45593999997E+02  0.45594000000E+02  0.51100000000E-03 0.  1.
    9900012    2    1    2    0    0  0.40013307826E+02  0.83780077981E+01  0.18917126132E+02  0.46142317865E+02  0.10000000950E+02 0.  0.
        -12    1    1    2    0    0 -0.40013307826E+02 -0.83780077981E+01 -0.18917126132E+02  0.45045682135E+02  0.00000000000E+00 0.  1.
         11    1    3    3    0    0  0.62091011651E+01  0.66438172637E+00  0.15318164929E+01  0.64296813596E+01  0.51100000000E-03 0. -1.
        -11    1    3    3    0    0  0.35316807805E+00  0.15872560391E+01  0.13540208267E+01  0.21160061638E+01  0.51100000000E-03 0.  1.
         12    1    3    3    0    0  0.33451038583E+02  0.61263700326E+01  0.16031288812E+02  0.37596630342E+02  0.00000000000E+00 0. -1.
</event>
<event>
 7    1  0.4081218E-008  0.4614232E+02  0.7816164E-02  0.1320468E+00
        -11   -1    0    0    0    0  0.00000000000E+00  0.00000000000E+00  0.45593999997E+02  0.45594000000E+02  0.51100000000E-03 0. -1.
         11   -1    0    0    0    0 -0.00000000000E+00 -0.00000000000E+00 -0.45593999997E+02  0.45594000000E+02  0.51100000000E-03 0.  1.
    9900012    2    1    2    0    0 -0.40797978546E+02 -0.19051142451E+02  0.13010098195E+01  0.46142315316E+02  0.99999777028E+01 0.  0.
        -12    1    1    2    0    0  0.40797978546E+02  0.19051142451E+02 -0.13010098195E+01  0.45045684684E+02  0.00000000000E+00 0.  1.
         11    1    3    3    0    0 -0.32898246465E+02 -0.14946893438E+02  0.95049257449E+00  0.36147028652E+02  0.51100000000E-03 0. -1.
        -11    1    3    3    0    0 -0.67555121740E+01 -0.35914925166E+01  0.20146380235E+01  0.79116704846E+01  0.51100000000E-03 0.  1.
        -12    1    3    3    0    0 -0.11442199065E+01 -0.51275649572E+00 -0.16641207785E+01  0.20836161796E+01  0.00000000000E+00 0.  1.
</event>
<event>
 7    1  0.4081218E-008  0.4614232E+02  0.7816164E-02  0.1320468E+00
        -11   -1    0    0    0    0  0.00000000000E+00  0.00000000000E+00  0.45593999997E+02  0.45594000000E+02  0.51100000000E-03 0. -1.
         11   -1    0    0    0    0 -0.00000000000E+00 -0.00000000000E+00 -0.45593999997E+02  0.45594000000E+02  0.51100000000E-03 0.  1.
    9900012    2    1    2    0    0 -0.15093684446E+02  0.51884651456E+01  0.42123317182E+02  0.46142319506E+02  0.10000015912E+02 0.  0.
        -12    1    1    2    0    0  0.15093684446E+02 -0.51884651456E+01 -0.42123317182E+02  0.45045680494E+02  0.00000000000E+00 0.  1.
         11    1    3    3    0    0 -0.12689331359E+01 -0.34127301971E+00  0.45868728117E+00  0.13917804642E+01  0.51100000000E-03 0. -1.
        -11    1    3    3    0    0 -0.37915916083E+01  0.40926214505E+01  0.21081660202E+02  0.21807386693E+02  0.51100000000E-03 0.  1.
         12    1    3    3    0    0 -0.10033159701E+02  0.14371167148E+01  0.20582969700E+02  0.22943152349E+02  0.00000000000E+00 0. -1.
</event>
<event>
 7    1  0.4081218E-008  0.4614232E+02  0.7816164E-02  0.1320468E+00
        -11   -1    0    0    0    0  0.00000000000E+00  0.00000000000E+00  0.45593999997E+02  0.45594000000E+02  0.51100000000E-03 0.  1.
         11   -1    0    0    0    0 -0.00000000000E+00 -0.00000000000E+00 -0.45593999997E+02  0.45594000000E+02  0.51100000000E-03 0. -1.
    9900012    2    1    2    0    0 -0.62215237339E+01 -0.28198653722E+02 -0.34572272083E+02  0.46142318451E+02  0.10000006287E+02 0.  0.
        -12    1    1    2    0    0  0.62215237339E+01  0.28198653722E+02  0.34572272083E+02  0.45045681549E+02  0.00000000000E+00 0.  1.
         11    1    3    3    0    0 -0.41128132018E+01 -0.11069624339E+02 -0.16230026319E+02  0.20071511403E+02  0.51100000000E-03 0. -1.
        -11    1    3    3    0    0 -0.17803656205E+01 -0.17700387839E+02 -0.18071172042E+02  0.25358246994E+02  0.51100000000E-03 0.  1.
        -12    1    3    3    0    0 -0.32834491164E+00  0.57135845624E+00 -0.27107372208E+00  0.71256005313E+00  0.00000000000E+00 0.  1.
</event>
<event>
 7    1  0.4081218E-008  0.4614232E+02  0.7816164E-02  0.1320468E+00
        -11   -1    0    0    0    0  0.00000000000E+00  0.00000000000E+00  0.45593999997E+02  0.45594000000E+02  0.51100000000E-03 0.  1.
         11   -1    0    0    0    0 -0.00000000000E+00 -0.00000000000E+00 -0.45593999997E+02  0.45594000000E+02  0.51100000000E-03 0. -1.
    9900012    2    1    2    0    0 -0.11638578045E+02 -0.16356552467E+02 -0.40325180277E+02  0.46142317945E+02  0.10000001673E+02 0.  0.
        -12    1    1    2    0    0  0.11638578045E+02  0.16356552467E+02  0.40325180277E+02  0.45045682055E+02  0.00000000000E+00 0.  1.
         11    1    3    3    0    0 -0.53058326872E+01 -0.70735077689E+01 -0.16745938466E+02  0.18937075488E+02  0.51100000000E-03 0. -1.
        -11    1    3    3    0    0 -0.16110606096E+01 -0.51079060850E+01 -0.41392587835E+01  0.67690238882E+01  0.51100000000E-03 0.  1.
         12    1    3    3    0    0 -0.47216847480E+01 -0.41751386126E+01 -0.19439983027E+02  0.20436218569E+02  0.00000000000E+00 0. -1.
</event>
<event>
 7    1  0.4081218E-008  0.4614232E+02  0.7816164E-02  0.1320468E+00
        -11   -1    0    0    0    0  0.00000000000E+00  0.00000000000E+00  0.45593999997E+02  0.45594000000E+02  0.51100000000E-03 0. -1.
         11   -1    0    0    0    0 -0.00000000000E+00 -0.00000000000E+00 -0.45593999997E+02  0.45594000000E+02  0.51100000000E-03 0.  1.
    9900012    2    1    2    0    0  0.80189490837E+01 -0.28838542968E+02  0.33662269784E+02  0.46142317500E+02  0.99999976199E+01 0.  0.
        -12    1    1    2    0    0 -0.80189490837E+01  0.28838542968E+02 -0.33662269784E+02  0.45045682500E+02  0.00000000000E+00 0.  1.
         11    1    3    3    0    0  0.66562731526E+01 -0.16570312883E+02  0.15195127930E+02  0.23447241936E+02  0.51100000000E-03 0. -1.
        -11    1    3    3    0    0 -0.17243754987E+01 -0.50311820379E+01  0.71241942074E+01  0.88904671938E+01  0.51100000000E-03 0.  1.
        -12    1    3    3    0    0  0.30870514297E+01 -0.72370480469E+01  0.11342947646E+02  0.13804608371E+02  0.00000000000E+00 0.  1.
</event>
<event>
 7    1  0.4081218E-008  0.4614232E+02  0.7816164E-02  0.1320468E+00
        -11   -1    0    0    0    0  0.00000000000E+00  0.00000000000E+00  0.45593999997E+02  0.45594000000E+02  0.51100000000E-03 0.  1.
         11   -1    0    0    0    0 -0.00000000000E+00 -0.00000000000E+00 -0.45593999997E+02  0.45594000000E+02  0.51100000000E-03 0. -1.
    9900012    2    1    2    0    0 -0.81983571102E+01  0.22881596566E+02 -0.37925361319E+02  0.46142317056E+02  0.99999935712E+01 0.  0.
        -12    1    1    2    0    0  0.81983571102E+01 -0.22881596566E+02  0.37925361319E+02  0.45045682944E+02  0.00000000000E+00 0.  1.
         11    1    3    3    0    0 -0.11020692292E+01  0.10723814969E+02 -0.14690286619E+02  0.18221396359E+02  0.51100000000E-03 0. -1.
        -11    1    3    3    0    0 -0.12429541892E+01 -0.28003550379E+00 -0.53232045269E+00  0.13808404417E+01  0.51100000000E-03 0.  1.
        -12    1    3    3    0    0 -0.58533336919E+01  0.12437817101E+02 -0.22702754247E+02  0.26540080255E+02  0.00000000000E+00 0.  1.
</event>
<event>
 7    1  0.4081218E-008  0.4614232E+02  0.7816164E-02  0.1320468E+00
        -11   -1    0    0    0    0  0.00000000000E+00  0.00000000000E+00  0.45593999997E+02  0.45594000000E+02  0.51100000000E-03 0.  1.
         11   -1    0    0    0    0 -0.00000000000E+00 -0.00000000000E+00 -0.45593999997E+02  0.45594000000E+02  0.51100000000E-03 0. -1.
    9900012    2    1    2    0    0  0.11302271119E+02 -0.12314860034E+02 -0.41829606126E+02  0.46142322530E+02  0.10000043486E+02 0.  0.
        -12    1    1    2    0    0 -0.11302271119E+02  0.12314860034E+02  0.41829606126E+02  0.45045677470E+02  0.00000000000E+00 0.  1.
         11    1    3    3    0    0  0.53005833144E+01 -0.98733742822E+01 -0.26726034452E+02  0.28980348876E+02  0.51100000000E-03 0. -1.
        -11    1    3    3    0    0  0.61082652470E+01 -0.33545955490E+01 -0.11532969147E+02  0.13474924610E+02  0.51100000000E-03 0.  1.
        -12    1    3    3    0    0 -0.10657744253E+00  0.91310979705E+00 -0.35706025260E+01  0.36870490438E+01  0.00000000000E+00 0.  1.
</event>
<event>
 7    1  0.4081218E-008  0.4614232E+02  0.7816164E-02  0.1320468E+00
        -11   -1    0    0    0    0  0.00000000000E+00  0.00000000000E+00  0.45593999997E+02  0.45594000000E+02  0.51100000000E-03 0. -1.
         11   -1    0    0    0    0 -0.00000000000E+00 -0.00000000000E+00 -0.45593999997E+02  0.45594000000E+02  0.51100000000E-03 0.  1.
    9900012    2    1    2    0    0  0.38754972062E+02 -0.13522898468E+02  0.18555238108E+02  0.46142317590E+02  0.99999984428E+01 0.  0.
        -12    1    1    2    0    0 -0.38754972062E+02  0.13522898468E+02 -0.18555238108E+02  0.45045682410E+02  0.00000000000E+00 0.  1.
         11    1    3    3    0    0  0.47726424156E+01 -0.24646693613E+01 -0.51734946984E+00  0.53963285133E+01  0.51100000000E-03 0. -1.
        -11    1    3    3    0    0  0.61797794137E+01 -0.13493018359E+01  0.52220380103E+01  0.82024368506E+01  0.51100000000E-03 0.  1.
        -12    1    3    3    0    0  0.27802550233E+02 -0.97089272708E+01  0.13850549568E+02  0.32543552226E+02  0.00000000000E+00 0.  1.
</event>
<event>
 7    1  0.4081218E-008  0.4614232E+02  0.7816164E-02  0.1320468E+00
        -11   -1    0    0    0    0  0.00000000000E+00  0.00000000000E+00  0.45593999997E+02  0.45594000000E+02  0.51100000000E-03 0. -1.
         11   -1    0    0    0    0 -0.00000000000E+00 -0.00000000000E+00 -0.45593999997E+02  0.45594000000E+02  0.51100000000E-03 0.  1.
    9900012    2    1    2    0    0 -0.71236391168E+01 -0.21316651628E+02  0.39038027514E+02  0.46142318042E+02  0.10000002563E+02 0.  0.
        -12    1    1    2    0    0  0.71236391168E+01  0.21316651628E+02 -0.39038027514E+02  0.45045681958E+02  0.00000000000E+00 0.  1.
         11    1    3    3    0    0 -0.31627883962E+01 -0.82200243708E+01  0.84559215610E+01  0.12209612639E+02  0.51100000000E-03 0. -1.
        -11    1    3    3    0    0 -0.43757511154E+01 -0.12605739802E+02  0.30491797454E+02  0.33283653436E+02  0.51100000000E-03 0.  1.
        -12    1    3    3    0    0  0.41490039479E+00 -0.49088745511E+00  0.90308498417E-01  0.64905196716E+00  0.00000000000E+00 0.  1.
</event>
<event>
 7    1  0.4081218E-008  0.4614232E+02  0.7816164E-02  0.1320468E+00
        -11   -1    0    0    0    0  0.00000000000E+00  0.00000000000E+00  0.45593999997E+02  0.45594000000E+02  0.51100000000E-03 0.  1.
         11   -1    0    0    0    0 -0.00000000000E+00 -0.00000000000E+00 -0.45593999997E+02  0.45594000000E+02  0.51100000000E-03 0. -1.
    9900012    2    1    2    0    0 -0.28132948990E+02  0.32383698466E+02 -0.13745779454E+02  0.46142320984E+02  0.10000029391E+02 0.  0.
        -12    1    1    2    0    0  0.28132948990E+02 -0.32383698466E+02  0.13745779454E+02  0.45045679016E+02  0.00000000000E+00 0.  1.
         11    1    3    3    0    0 -0.85780742236E+01  0.16279412362E+02 -0.55170496659E+01  0.19210425855E+02  0.51100000000E-03 0. -1.
        -11    1    3    3    0    0 -0.97393874651E+01  0.99946066424E+01 -0.58298725612E+01  0.15123995652E+02  0.51100000000E-03 0.  1.
        -12    1    3    3    0    0 -0.98154873012E+01  0.61096794609E+01 -0.23988572272E+01  0.11807899478E+02  0.00000000000E+00 0.  1.
</event>
<event>
 7    1  0.4081218E-008  0.4614232E+02  0.7816164E-02  0.1320468E+00
        -11   -1    0    0    0    0  0.00000000000E+00  0.00000000000E+00  0.45593999997E+02  0.45594000000E+02  0.51100000000E-03 0.  1.
         11   -1    0    0    0    0 -0.00000000000E+00 -0.00000000000E+00 -0.45593999997E+02  0.45594000000E+02  0.51100000000E-03 0. -1.
    9900012    2    1    2    0    0 -0.35842797658E+02 -0.23615686689E+02 -0.13664066774E+02  0.46142317381E+02  0.99999965379E+01 0.  0.
        -12    1    1    2    0    0  0.35842797658E+02  0.23615686689E+02  0.13664066774E+02  0.45045682619E+02  0.00000000000E+00 0.  1.
         11    1    3    3    0    0 -0.18363108741E+02 -0.10832229220E+02 -0.62207608603E+01  0.22208980581E+02  0.51100000000E-03 0. -1.
        -11    1    3    3    0    0 -0.88858570625E+01 -0.10009618314E+02 -0.24262625406E+01  0.13602855020E+02  0.51100000000E-03 0.  1.
        -12    1    3    3    0    0 -0.85938318545E+01 -0.27738391558E+01 -0.50170433727E+01  0.10330481780E+02  0.00000000000E+00 0.  1.
</event>
<event>
 7    1  0.4081218E-008  0.4614232E+02  0.7816164E-02  0.1320468E+00
        -11   -1    0    0    0    0  0.00000000000E+00  0.00000000000E+00  0.45593999997E+02  0.45594000000E+02  0.51100000000E-03 0. -1.
         11   -1    0    0    0    0 -0.00000000000E+00 -0.00000000000E+00 -0.45593999997E+02  0.45594000000E+02  0.51100000000E-03 0.  1.
    9900012    2    1    2    0    0  0.28111550460E+02 -0.32565701930E+02 -0.13353997432E+02  0.46142318088E+02  0.10000002982E+02 0.  0.
        -12    1    1    2    0    0 -0.28111550460E+02  0.32565701930E+02  0.13353997432E+02  0.45045681912E+02  0.00000000000E+00 0.  1.
         11    1    3    3    0    0  0.15804342355E+02 -0.17845928868E+02 -0.70578759712E+01  0.24860973994E+02  0.51100000000E-03 0. -1.
        -11    1    3    3    0    0  0.15670443129E+01 -0.64553150236E+01 -0.93795421156E+00  0.67086867788E+01  0.51100000000E-03 0.  1.
         12    1    3    3    0    0  0.10740163793E+02 -0.82644580382E+01 -0.53581672497E+01  0.14572657315E+02  0.00000000000E+00 0. -1.
</event>
<event>
 7    1  0.4081218E-008  0.4614232E+02  0.7816164E-02  0.1320468E+00
        -11   -1    0    0    0    0  0.00000000000E+00  0.00000000000E+00  0.45593999997E+02  0.45594000000E+02  0.51100000000E-03 0.  1.
         11   -1    0    0    0    0 -0.00000000000E+00 -0.00000000000E+00 -0.45593999997E+02  0.45594000000E+02  0.51100000000E-03 0. -1.
    9900012    2    1    2    0    0  0.39563323428E+02  0.17621709510E+02 -0.12382741803E+02  0.46142317618E+02  0.99999986932E+01 0.  0.
        -12    1    1    2    0    0 -0.39563323428E+02 -0.17621709510E+02  0.12382741803E+02  0.45045682382E+02  0.00000000000E+00 0.  1.
         11    1    3    3    0    0  0.26272918671E+02  0.10524922132E+02 -0.10143570584E+02  0.30065466333E+02  0.51100000000E-03 0. -1.
        -11    1    3    3    0    0  0.43955962726E+01  0.19226000499E+01  0.16539329774E+01  0.50747563585E+01  0.51100000000E-03 0.  1.
        -12    1    3    3    0    0  0.88948084841E+01  0.51741873280E+01 -0.38931041962E+01  0.11002094926E+02  0.00000000000E+00 0.  1.
</event>
<event>
 7    1  0.4081218E-008  0.4614232E+02  0.7816164E-02  0.1320468E+00
        -11   -1    0    0    0    0  0.00000000000E+00  0.00000000000E+00  0.45593999997E+02  0.45594000000E+02  0.51100000000E-03 0. -1.
         11   -1    0    0    0    0 -0.00000000000E+00 -0.00000000000E+00 -0.45593999997E+02  0.45594000000E+02  0.51100000000E-03 0.  1.
    9900012    2    1    2    0    0  0.26530240820E+02 -0.34620034410E+02 -0.11256690773E+02  0.46142317102E+02  0.99999939924E+01 0.  0.
        -12    1    1    2    0    0 -0.26530240820E+02  0.34620034410E+02  0.11256690773E+02  0.45045682898E+02  0.00000000000E+00 0.  1.
         11    1    3    3    0    0  0.14038765903E+02 -0.18288702573E+02 -0.95837945928E+01  0.24968233998E+02  0.51100000000E-03 0. -1.
        -11    1    3    3    0    0  0.59640511661E+01 -0.11011428250E+02 -0.22910976444E+01  0.12730694683E+02  0.51100000000E-03 0.  1.
        -12    1    3    3    0    0  0.65274237511E+01 -0.53199035865E+01  0.61820146376E+00  0.84433884221E+01  0.00000000000E+00 0.  1.
</event>
<event>
 7    1  0.4081218E-008  0.4614232E+02  0.7816164E-02  0.1320468E+00
        -11   -1    0    0    0    0  0.00000000000E+00  0.00000000000E+00  0.45593999997E+02  0.45594000000E+02  0.51100000000E-03 0.  1.
         11   -1    0    0    0    0 -0.00000000000E+00 -0.00000000000E+00 -0.45593999997E+02  0.45594000000E+02  0.51100000000E-03 0. -1.
    9900012    2    1    2    0    0  0.13231942217E+01  0.29858922477E+02 -0.33701741112E+02  0.46142318204E+02  0.10000004043E+02 0.  0.
        -12    1    1    2    0    0 -0.13231942217E+01 -0.29858922477E+02  0.33701741112E+02  0.45045681796E+02  0.00000000000E+00 0.  1.
         11    1    3    3    0    0 -0.10658295347E+01  0.26346025662E+01 -0.11870367177E+01  0.30799642382E+01  0.51100000000E-03 0.  1.
        -11    1    3    3    0    0  0.30381864122E+01  0.11056247889E+02 -0.17904565880E+02  0.21261342236E+02  0.51100000000E-03 0. -1.
         12    1    3    3    0    0 -0.64916265583E+00  0.16168072022E+02 -0.14610138514E+02  0.21801011730E+02  0.00000000000E+00 0. -1.
</event>
<event>
 7    1  0.4081218E-008  0.4614232E+02  0.7816164E-02  0.1320468E+00
        -11   -1    0    0    0    0  0.00000000000E+00  0.00000000000E+00  0.45593999997E+02  0.45594000000E+02  0.51100000000E-03 0.  1.
         11   -1    0    0    0    0 -0.00000000000E+00 -0.00000000000E+00 -0.45593999997E+02  0.45594000000E+02  0.51100000000E-03 0. -1.
    9900012    2    1    2    0    0 -0.16794301962E+02 -0.17091177962E+01 -0.41762947791E+02  0.46142317963E+02  0.10000001838E+02 0.  0.
        -12    1    1    2    0    0  0.16794301962E+02  0.17091177962E+01  0.41762947791E+02  0.45045682037E+02  0.00000000000E+00 0.  1.
         11    1    3    3    0    0 -0.89242733140E+01  0.46782619668E+00 -0.20978288517E+02  0.22802414453E+02  0.51100000000E-03 0. -1.
        -11    1    3    3    0    0 -0.71806694553E+01 -0.39140036261E+01 -0.19272610111E+02  0.20935972368E+02  0.51100000000E-03 0.  1.
        -12    1    3    3    0    0 -0.68935919269E+00  0.17370596332E+01 -0.15120491628E+01  0.24039311422E+01  0.00000000000E+00 0.  1.
</event>
<event>
 7    1  0.4081218E-008  0.4614232E+02  0.7816164E-02  0.1320468E+00
        -11   -1    0    0    0    0  0.00000000000E+00  0.00000000000E+00  0.45593999997E+02  0.45594000000E+02  0.51100000000E-03 0.  1.
         11   -1    0    0    0    0 -0.00000000000E+00 -0.00000000000E+00 -0.45593999997E+02  0.45594000000E+02  0.51100000000E-03 0. -1.
    9900012    2    1    2    0    0 -0.33121914089E+02 -0.29419756022E+02 -0.81566173725E+01  0.46142316031E+02  0.99999842224E+01 0.  0.
        -12    1    1    2    0    0  0.33121914089E+02  0.29419756022E+02  0.81566173725E+01  0.45045683969E+02  0.00000000000E+00 0.  1.
         11    1    3    3    0    0 -0.20082486187E+02 -0.13073640968E+02 -0.52799897692E+01  0.24537820438E+02  0.51100000000E-03 0. -1.
        -11    1    3    3    0    0 -0.27393268452E+01 -0.99644524292E+00 -0.14529656201E+00  0.29185486186E+01  0.51100000000E-03 0.  1.
         12    1    3    3    0    0 -0.10300101056E+02 -0.15349669811E+02 -0.27313310412E+01  0.18685946974E+02  0.00000000000E+00 0. -1.
</event>
<event>
 7    1  0.4081218E-008  0.4614232E+02  0.7816164E-02  0.1320468E+00
        -11   -1    0    0    0    0  0.00000000000E+00  0.00000000000E+00  0.45593999997E+02  0.45594000000E+02  0.51100000000E-03 0. -1.
         11   -1    0    0    0    0 -0.00000000000E+00 -0.00000000000E+00 -0.45593999997E+02  0.45594000000E+02  0.51100000000E-03 0.  1.
    9900012    2    1    2    0    0  0.76867444983E+01 -0.43902622854E+02  0.65258811956E+01  0.46142318078E+02  0.10000002891E+02 0.  0.
        -12    1    1    2    0    0 -0.76867444983E+01  0.43902622854E+02 -0.65258811956E+01  0.45045681922E+02  0.00000000000E+00 0.  1.
         11    1    3    3    0    0  0.32268273372E+01 -0.73443018587E+01  0.21715733815E+01  0.83106507367E+01  0.51100000000E-03 0. -1.
        -11    1    3    3    0    0  0.28928486431E+00 -0.24754739699E+01 -0.16286169164E+01  0.29772555197E+01  0.51100000000E-03 0.  1.
        -12    1    3    3    0    0  0.41706322968E+01 -0.34082847025E+02  0.59829247305E+01  0.34854411822E+02  0.00000000000E+00 0.  1.
</event>
<event>
 7    1  0.4081218E-008  0.4614232E+02  0.7816164E-02  0.1320468E+00
        -11   -1    0    0    0    0  0.00000000000E+00  0.00000000000E+00  0.45593999997E+02  0.45594000000E+02  0.51100000000E-03 0.  1.
         11   -1    0    0    0    0 -0.00000000000E+00 -0.00000000000E+00 -0.45593999997E+02  0.45594000000E+02  0.51100000000E-03 0. -1.
    9900012    2    1    2    0    0 -0.14486272440E+02 -0.42160444776E+02  0.64620696337E+01  0.46142317223E+02  0.99999950934E+01 0.  0.
        -12    1    1    2    0    0  0.14486272440E+02  0.42160444776E+02 -0.64620696337E+01  0.45045682777E+02  0.00000000000E+00 0.  1.
         11    1    3    3    0    0 -0.91953048676E+01 -0.31201056754E+02  0.72168157657E+01  0.33318793559E+02  0.51100000000E-03 0. -1.
        -11    1    3    3    0    0 -0.20640063547E+01 -0.71793260612E+01  0.10339144007E+01  0.75413410063E+01  0.51100000000E-03 0.  1.
        -12    1    3    3    0    0 -0.32269612180E+01 -0.37800619605E+01 -0.17886605327E+01  0.52821826576E+01  0.00000000000E+00 0.  1.
</event>
<event>
 7    1  0.4081218E-008  0.4614231E+02  0.7816164E-02  0.1320468E+00
        -11   -1    0    0    0    0  0.00000000000E+00  0.00000000000E+00  0.45593999997E+02  0.45594000000E+02  0.51100000000E-03 0. -1.
         11   -1    0    0    0    0 -0.00000000000E+00 -0.00000000000E+00 -0.45593999997E+02  0.45594000000E+02  0.51100000000E-03 0.  1.
    9900012    2    1    2    0    0 -0.32718236864E+02 -0.27323685459E+02 -0.14561837187E+02  0.46142313050E+02  0.99999570375E+01 0.  0.
        -12    1    1    2    0    0  0.32718236864E+02  0.27323685459E+02  0.14561837187E+02  0.45045686950E+02  0.00000000000E+00 0.  1.
         11    1    3    3    0    0 -0.12913229271E+02 -0.10902544585E+02 -0.69845546818E+01  0.18286633725E+02  0.51100000000E-03 0. -1.
        -11    1    3    3    0    0 -0.31284544012E+01 -0.10874920039E+01  0.12528086554E+01  0.35411009004E+01  0.51100000000E-03 0.  1.
        -12    1    3    3    0    0 -0.16676553192E+02 -0.15333648870E+02 -0.88300911610E+01  0.24314578425E+02  0.00000000000E+00 0.  1.
</event>
<event>
 7    1  0.4081218E-008  0.4614232E+02  0.7816164E-02  0.1320468E+00
        -11   -1    0    0    0    0  0.00000000000E+00  0.00000000000E+00  0.45593999997E+02  0.45594000000E+02  0.51100000000E-03 0.  1.
         11   -1    0    0    0    0 -0.00000000000E+00 -0.00000000000E+00 -0.45593999997E+02  0.45594000000E+02  0.51100000000E-03 0. -1.
    9900012    2    1    2    0    0  0.34622969428E+02  0.17949089970E+02 -0.22543151049E+02  0.46142317610E+02  0.99999986193E+01 0.  0.
        -12    1    1    2    0    0 -0.34622969428E+02 -0.17949089970E+02  0.22543151049E+02  0.45045682390E+02  0.00000000000E+00 0.  1.
         11    1    3    3    0    0  0.16207138944E+02  0.63556546456E+01 -0.94896848673E+01  0.19827249377E+02  0.51100000000E-03 0. -1.
        -11    1    3    3    0    0  0.97635772360E+01  0.72180063217E+01 -0.33450297278E+01  0.12594295528E+02  0.51100000000E-03 0.  1.
         12    1    3    3    0    0  0.86522532481E+01  0.43754290032E+01 -0.97084364538E+01  0.13720772705E+02  0.00000000000E+00 0. -1.
</event>
<event>
 7    1  0.4081218E-008  0.4614232E+02  0.7816164E-02  0.1320468E+00
        -11   -1    0    0    0    0  0.00000000000E+00  0.00000000000E+00  0.45593999997E+02  0.45594000000E+02  0.51100000000E-03 0.  1.
         11   -1    0    0    0    0 -0.00000000000E+00 -0.00000000000E+00 -0.45593999997E+02  0.45594000000E+02  0.51100000000E-03 0. -1.
    9900012    2    1    2    0    0  0.27433408235E+02 -0.22496249348E+02  0.27756806752E+02  0.46142318263E+02  0.10000004575E+02 0.  0.
        -12    1    1    2    0    0 -0.27433408235E+02  0.22496249348E+02 -0.27756806752E+02  0.45045681737E+02  0.00000000000E+00 0.  1.
         11    1    3    3    0    0  0.57973466526E+01 -0.21443576955E+01  0.77057207211E+01  0.98785439327E+01  0.51100000000E-03 0. -1.
        -11    1    3    3    0    0  0.54782220162E+01 -0.82975351337E+01  0.51655385326E+01  0.11204588094E+02  0.51100000000E-03 0.  1.
         12    1    3    3    0    0  0.16157839566E+02 -0.12054356519E+02  0.14885547498E+02  0.25059186237E+02  0.00000000000E+00 0. -1.
</event>
<event>
 7    1  0.4081218E-008  0.4614232E+02  0.7816164E-02  0.1320468E+00
        -11   -1    0    0    0    0  0.00000000000E+00  0.00000000000E+00  0.45593999997E+02  0.45594000000E+02  0.51100000000E-03 0. -1.
         11   -1    0    0    0    0 -0.00000000000E+00 -0.00000000000E+00 -0.45593999997E+02  0.45594000000E+02  0.51100000000E-03 0.  1.
    9900012    2    1    2    0    0  0.39143189554E+02  0.15245116801E+02  0.16263778751E+02  0.46142319031E+02  0.10000011577E+02 0.  0.
        -12    1    1    2    0    0 -0.39143189554E+02 -0.15245116801E+02 -0.16263778751E+02  0.45045680969E+02  0.00000000000E+00 0.  1.
         11    1    3    3    0    0  0.13818160638E+02  0.26119234408E+01  0.88357366248E+01  0.16608249440E+02  0.51100000000E-03 0. -1.
        -11    1    3    3    0    0  0.41021225005E+00  0.90466307532E+00 -0.65042202584E-01  0.99544970700E+00  0.51100000000E-03 0.  1.
         12    1    3    3    0    0  0.24914816666E+02  0.11728530285E+02  0.74930843285E+01  0.28538619884E+02  0.00000000000E+00 0. -1.
</event>
<event>
 7    1  0.4081218E-008  0.4614232E+02  0.7816164E-02  0.1320468E+00
        -11   -1    0    0    0    0  0.00000000000E+00  0.00000000000E+00  0.45593999997E+02  0.45594000000E+02  0.51100000000E-03 0.  1.
         11   -1    0    0    0    0 -0.00000000000E+00 -0.00000000000E+00 -0.45593999997E+02  0.45594000000E+02  0.51100000000E-03 0. -1.
    9900012    2    1    2    0    0  0.43540478835E+01  0.42446696698E+02 -0.14437230608E+02  0.46142318507E+02  0.10000006803E+02 0.  0.
        -12    1    1    2    0    0 -0.43540478835E+01 -0.42446696698E+02  0.14437230608E+02  0.45045681493E+02  0.00000000000E+00 0.  1.
         11    1    3    3    0    0  0.15582389965E+01  0.92961572617E+01 -0.50065686961E+01  0.10672974233E+02  0.51100000000E-03 0. -1.
        -11    1    3    3    0    0  0.30689648348E+01  0.31814965683E+02 -0.10598793267E+02  0.33674099922E+02  0.51100000000E-03 0.  1.
        -12    1    3    3    0    0 -0.27315594787E+00  0.13355737532E+01  0.11681313553E+01  0.17952443525E+01  0.00000000000E+00 0.  1.
</event>
<event>
 7    1  0.4081218E-008  0.4614232E+02  0.7816164E-02  0.1320468E+00
        -11   -1    0    0    0    0  0.00000000000E+00  0.00000000000E+00  0.45593999997E+02  0.45594000000E+02  0.51100000000E-03 0.  1.
         11   -1    0    0    0    0 -0.00000000000E+00 -0.00000000000E+00 -0.45593999997E+02  0.45594000000E+02  0.51100000000E-03 0. -1.
    9900012    2    1    2    0    0 -0.12837416924E+01 -0.25426315157E+02 -0.37161377676E+02  0.46142317788E+02  0.10000000244E+02 0.  0.
        -12    1    1    2    0    0  0.12837416924E+01  0.25426315157E+02  0.37161377676E+02  0.45045682212E+02  0.00000000000E+00 0.  1.
         11    1    3    3    0    0  0.51089167697E-01 -0.48099866260E+01 -0.95161113894E+01  0.10662783768E+02  0.51100000000E-03 0. -1.
        -11    1    3    3    0    0  0.23489116321E+01 -0.20703514596E+01 -0.24356991951E+01  0.39669096098E+01  0.51100000000E-03 0.  1.
        -12    1    3    3    0    0 -0.36837424922E+01 -0.18545977071E+02 -0.25209567091E+02  0.31512624410E+02  0.00000000000E+00 0.  1.
</event>
<event>
 7    1  0.4081218E-008  0.4614232E+02  0.7816164E-02  0.1320468E+00
        -11   -1    0    0    0    0  0.00000000000E+00  0.00000000000E+00  0.45593999997E+02  0.45594000000E+02  0.51100000000E-03 0.  1.
         11   -1    0    0    0    0 -0.00000000000E+00 -0.00000000000E+00 -0.45593999997E+02  0.45594000000E+02  0.51100000000E-03 0. -1.
    9900012    2    1    2    0    0 -0.88922714755E+01 -0.16640948792E+02 -0.40903786254E+02  0.46142318758E+02  0.10000009090E+02 0.  0.
        -12    1    1    2    0    0  0.88922714755E+01  0.16640948792E+02  0.40903786254E+02  0.45045681242E+02  0.00000000000E+00 0.  1.
         11    1    3    3    0    0 -0.54553597738E+01 -0.12584414776E+02 -0.30860347696E+02  0.33771134208E+02  0.51100000000E-03 0. -1.
        -11    1    3    3    0    0  0.72747907528E+00  0.22935716827E+00 -0.31825302123E+01  0.32726639499E+01  0.51100000000E-03 0.  1.
         12    1    3    3    0    0 -0.41643907770E+01 -0.42858911845E+01 -0.68609083448E+01  0.90985205998E+01  0.00000000000E+00 0. -1.
</event>
<event>
 7    1  0.4081218E-008  0.4614232E+02  0.7816164E-02  0.1320468E+00
        -11   -1    0    0    0    0  0.00000000000E+00  0.00000000000E+00  0.45593999997E+02  0.45594000000E+02  0.51100000000E-03 0. -1.
         11   -1    0    0    0    0 -0.00000000000E+00 -0.00000000000E+00 -0.45593999997E+02  0.45594000000E+02  0.51100000000E-03 0.  1.
    9900012    2    1    2    0    0  0.26173926011E+02 -0.21778426837E+01  0.36596394630E+02  0.46142317616E+02  0.99999986738E+01 0.  0.
        -12    1    1    2    0    0 -0.26173926011E+02  0.21778426837E+01 -0.36596394630E+02  0.45045682384E+02  0.00000000000E+00 0.  1.
         11    1    3    3    0    0  0.10121992895E+02 -0.20592540765E+01  0.10893316951E+02  0.15011982613E+02  0.51100000000E-03 0. -1.
        -11    1    3    3    0    0  0.31269426727E+01  0.67921537869E+00  0.12030428046E+01  0.34185400773E+01  0.51100000000E-03 0.  1.
         12    1    3    3    0    0  0.12924990443E+02 -0.79780398586E+00  0.24500034874E+02  0.27711794925E+02  0.00000000000E+00 0. -1.
</event>
<event>
 7    1  0.4081218E-008  0.4614232E+02  0.7816164E-02  0.1320468E+00
        -11   -1    0    0    0    0  0.00000000000E+00  0.00000000000E+00  0.45593999997E+02  0.45594000000E+02  0.51100000000E-03 0.  1.
         11   -1    0    0    0    0 -0.00000000000E+00 -0.00000000000E+00 -0.45593999997E+02  0.45594000000E+02  0.51100000000E-03 0. -1.
    9900012    2    1    2    0    0  0.41622509193E+02 -0.15414813884E+02 -0.76852941744E+01  0.46142317575E+02  0.99999983014E+01 0.  0.
        -12    1    1    2    0    0 -0.41622509193E+02  0.15414813884E+02  0.76852941744E+01  0.45045682425E+02  0.00000000000E+00 0.  1.
         11    1    3    3    0    0  0.22166921156E+02 -0.67253019623E+01 -0.83252560397E+01  0.24615279165E+02  0.51100000000E-03 0. -1.
        -11    1    3    3    0    0  0.27204573756E+01 -0.13923161327E+00  0.25919698117E-01  0.27241413081E+01  0.51100000000E-03 0.  1.
         12    1    3    3    0    0  0.16735130662E+02 -0.85502803083E+01  0.61404216718E+00  0.18802897101E+02  0.00000000000E+00 0. -1.
</event>
<event>
 7    1  0.4081218E-008  0.4614232E+02  0.7816164E-02  0.1320468E+00
        -11   -1    0    0    0    0  0.00000000000E+00  0.00000000000E+00  0.45593999997E+02  0.45594000000E+02  0.51100000000E-03 0.  1.
         11   -1    0    0    0    0 -0.00000000000E+00 -0.00000000000E+00 -0.45593999997E+02  0.45594000000E+02  0.51100000000E-03 0. -1.
    9900012    2    1    2    0    0 -0.28667245990E+02 -0.13596420975E+02 -0.31975612200E+02  0.46142318392E+02  0.10000005754E+02 0.  0.
        -12    1    1    2    0    0  0.28667245990E+02  0.13596420975E+02  0.31975612200E+02  0.45045681608E+02  0.00000000000E+00 0.  1.
         11    1    3    3    0    0 -0.26691222553E+02 -0.13542033150E+02 -0.31793252280E+02  0.43664847578E+02  0.51100000000E-03 0. -1.
        -11    1    3    3    0    0 -0.92419187249E+00  0.93181005351E-01 -0.81965902030E+00  0.12388117240E+01  0.51100000000E-03 0.  1.
         12    1    3    3    0    0 -0.10518315643E+01 -0.14756883004E+00  0.63729910004E+00  0.12386590904E+01  0.00000000000E+00 0. -1.
</event>
<event>
 7    1  0.4081218E-008  0.4614232E+02  0.7816164E-02  0.1320468E+00
        -11   -1    0    0    0    0  0.00000000000E+00  0.00000000000E+00  0.45593999997E+02  0.45594000000E+02  0.51100000000E-03 0.  1.
         11   -1    0    0    0    0 -0.00000000000E+00 -0.00000000000E+00 -0.45593999997E+02  0.45594000000E+02  0.51100000000E-03 0. -1.
    9900012    2    1    2    0    0 -0.21923006995E+02 -0.58917482039E+01 -0.38907359348E+02  0.46142317144E+02  0.99999943700E+01 0.  0.
        -12    1    1    2    0    0  0.21923006995E+02  0.58917482039E+01  0.38907359348E+02  0.45045682856E+02  0.00000000000E+00 0.  1.
         11    1    3    3    0    0 -0.49748408470E+01 -0.26033166708E+01 -0.16990669946E+02  0.17894389194E+02  0.51100000000E-03 0. -1.
        -11    1    3    3    0    0 -0.79579142387E+01 -0.12249405201E+01 -0.67983793100E+01  0.10537876437E+02  0.51100000000E-03 0.  1.
         12    1    3    3    0    0 -0.89902519091E+01 -0.20634910130E+01 -0.15118310091E+02  0.17710051512E+02  0.00000000000E+00 0. -1.
</event>
<event>
 7    1  0.4081218E-008  0.4614232E+02  0.7816164E-02  0.1320468E+00
        -11   -1    0    0    0    0  0.00000000000E+00  0.00000000000E+00  0.45593999997E+02  0.45594000000E+02  0.51100000000E-03 0. -1.
         11   -1    0    0    0    0 -0.00000000000E+00 -0.00000000000E+00 -0.45593999997E+02  0.45594000000E+02  0.51100000000E-03 0.  1.
    9900012    2    1    2    0    0 -0.94239266007E+01 -0.89133755989E+01  0.43137625790E+02  0.46142318565E+02  0.10000007335E+02 0.  0.
        -12    1    1    2    0    0  0.94239266007E+01  0.89133755989E+01 -0.43137625790E+02  0.45045681435E+02  0.00000000000E+00 0.  1.
         11    1    3    3    0    0  0.27569637055E+00  0.47533169399E+00  0.13786045781E+00  0.56652844147E+00  0.51100000000E-03 0. -1.
        -11    1    3    3    0    0  0.47190586311E+00  0.57607143311E+00  0.11513457110E+01  0.13711858543E+01  0.51100000000E-03 0.  1.
         12    1    3    3    0    0 -0.10171528834E+02 -0.99647787260E+01  0.41848419621E+02  0.44204604270E+02  0.00000000000E+00 0. -1.
</event>
<event>
 7    1  0.4081218E-008  0.4614232E+02  0.7816164E-02  0.1320468E+00
        -11   -1    0    0    0    0  0.00000000000E+00  0.00000000000E+00  0.45593999997E+02  0.45594000000E+02  0.51100000000E-03 0.  1.
         11   -1    0    0    0    0 -0.00000000000E+00 -0.00000000000E+00 -0.45593999997E+02  0.45594000000E+02  0.51100000000E-03 0. -1.
    9900012    2    1    2    0    0 -0.38243178799E+01 -0.25729235701E+02 -0.36776274998E+02  0.46142318967E+02  0.10000010993E+02 0.  0.
        -12    1    1    2    0    0  0.38243178799E+01  0.25729235701E+02  0.36776274998E+02  0.45045681033E+02  0.00000000000E+00 0.  1.
         11    1    3    3    0    0  0.63413553334E+00 -0.91020661183E+01 -0.16224505344E+02  0.18614089003E+02  0.51100000000E-03 0. -1.
        -11    1    3    3    0    0 -0.36699560259E+01 -0.10773399112E+02 -0.88393541011E+01  0.14410721246E+02  0.51100000000E-03 0.  1.
        -12    1    3    3    0    0 -0.78849738729E+00 -0.58537704710E+01 -0.11712415554E+02  0.13117508718E+02  0.00000000000E+00 0.  1.
</event>
<event>
 7    1  0.4081218E-008  0.4614232E+02  0.7816164E-02  0.1320468E+00
        -11   -1    0    0    0    0  0.00000000000E+00  0.00000000000E+00  0.45593999997E+02  0.45594000000E+02  0.51100000000E-03 0. -1.
         11   -1    0    0    0    0 -0.00000000000E+00 -0.00000000000E+00 -0.45593999997E+02  0.45594000000E+02  0.51100000000E-03 0.  1.
    9900012    2    1    2    0    0  0.25141712580E+02 -0.15538817936E+02  0.33993423932E+02  0.46142318244E+02  0.10000004402E+02 0.  0.
        -12    1    1    2    0    0 -0.25141712580E+02  0.15538817936E+02 -0.33993423932E+02  0.45045681756E+02  0.00000000000E+00 0.  1.
         11    1    3    3    0    0  0.44081892944E+01  0.64109979377E+00  0.55964901509E+01  0.71528906094E+01  0.51100000000E-03 0. -1.
        -11    1    3    3    0    0  0.16070319455E+01 -0.29613162057E+01  0.25586834583E+01  0.42306981274E+01  0.51100000000E-03 0.  1.
         12    1    3    3    0    0  0.19126491340E+02 -0.13218601524E+02  0.25838250322E+02  0.34758729507E+02  0.00000000000E+00 0. -1.
</event>
<event>
 7    1  0.4081218E-008  0.4614232E+02  0.7816164E-02  0.1320468E+00
        -11   -1    0    0    0    0  0.00000000000E+00  0.00000000000E+00  0.45593999997E+02  0.45594000000E+02  0.51100000000E-03 0.  1.
         11   -1    0    0    0    0 -0.00000000000E+00 -0.00000000000E+00 -0.45593999997E+02  0.45594000000E+02  0.51100000000E-03 0. -1.
    9900012    2    1    2    0    0  0.29962312860E+02 -0.32984501711E+02 -0.65875649764E+01  0.46142316995E+02  0.99999930170E+01 0.  0.
        -12    1    1    2    0    0 -0.29962312860E+02  0.32984501711E+02  0.65875649764E+01  0.45045683005E+02  0.00000000000E+00 0.  1.
         11    1    3    3    0    0  0.69451791749E+00 -0.32589322506E+01  0.25895973048E+00  0.33421632149E+01  0.51100000000E-03 0. -1.
        -11    1    3    3    0    0  0.12113926742E+02 -0.14255584639E+02 -0.61428281142E+01  0.19690181614E+02  0.51100000000E-03 0.  1.
         12    1    3    3    0    0  0.17153868201E+02 -0.15469984821E+02 -0.70369659269E+00  0.23109972166E+02  0.00000000000E+00 0. -1.
</event>
<event>
 7    1  0.4081218E-008  0.4614232E+02  0.7816164E-02  0.1320468E+00
        -11   -1    0    0    0    0  0.00000000000E+00  0.00000000000E+00  0.45593999997E+02  0.45594000000E+02  0.51100000000E-03 0.  1.
         11   -1    0    0    0    0 -0.00000000000E+00 -0.00000000000E+00 -0.45593999997E+02  0.45594000000E+02  0.51100000000E-03 0. -1.
    9900012    2    1    2    0    0 -0.20629738029E+02  0.28218597875E+02 -0.28411937658E+02  0.46142316981E+02  0.99999928870E+01 0.  0.
        -12    1    1    2    0    0  0.20629738029E+02 -0.28218597875E+02  0.28411937658E+02  0.45045683019E+02  0.00000000000E+00 0.  1.
         11    1    3    3    0    0 -0.37518176984E+01  0.89707400435E+01 -0.43262943471E+01  0.10642703416E+02  0.51100000000E-03 0. -1.
        -11    1    3    3    0    0 -0.49129711793E+01  0.27529639806E+01 -0.41825166586E+01  0.70149513432E+01  0.51100000000E-03 0.  1.
        -12    1    3    3    0    0 -0.11964949151E+02  0.16494893851E+02 -0.19903126652E+02  0.28484662222E+02  0.00000000000E+00 0.  1.
</event>
<event>
 7    1  0.4081218E-008  0.4614232E+02  0.7816164E-02  0.1320468E+00
        -11   -1    0    0    0    0  0.00000000000E+00  0.00000000000E+00  0.45593999997E+02  0.45594000000E+02  0.51100000000E-03 0.  1.
         11   -1    0    0    0    0 -0.00000000000E+00 -0.00000000000E+00 -0.45593999997E+02  0.45594000000E+02  0.51100000000E-03 0. -1.
    9900012    2    1    2    0    0  0.75939977829E+01 -0.20876692785E+01 -0.44351845811E+02  0.46142318828E+02  0.10000009732E+02 0.  0.
        -12    1    1    2    0    0 -0.75939977829E+01  0.20876692785E+01  0.44351845811E+02  0.45045681172E+02  0.00000000000E+00 0.  1.
         11    1    3    3    0    0  0.54581900345E+00  0.62119936105E+00 -0.77891402679E+01  0.78329121918E+01  0.51100000000E-03 0. -1.
        -11    1    3    3    0    0 -0.82260383385E-01 -0.20697598838E+01 -0.21844110838E+02  0.21942102254E+02  0.51100000000E-03 0.  1.
         12    1    3    3    0    0  0.71304391629E+01 -0.63910875579E+00 -0.14718594705E+02  0.16367304382E+02  0.00000000000E+00 0. -1.
</event>
<event>
 7    1  0.4081218E-008  0.4614232E+02  0.7816164E-02  0.1320468E+00
        -11   -1    0    0    0    0  0.00000000000E+00  0.00000000000E+00  0.45593999997E+02  0.45594000000E+02  0.51100000000E-03 0.  1.
         11   -1    0    0    0    0 -0.00000000000E+00 -0.00000000000E+00 -0.45593999997E+02  0.45594000000E+02  0.51100000000E-03 0. -1.
    9900012    2    1    2    0    0  0.36274490497E+02  0.11046385349E+02 -0.24315677600E+02  0.46142317996E+02  0.10000002138E+02 0.  0.
        -12    1    1    2    0    0 -0.36274490497E+02 -0.11046385349E+02  0.24315677600E+02  0.45045682004E+02  0.00000000000E+00 0.  1.
         11    1    3    3    0    0  0.83304431881E+01  0.27221113614E+01 -0.68764847463E+01  0.11139668608E+02  0.51100000000E-03 0. -1.
        -11    1    3    3    0    0  0.85522842628E+01  0.52386935339E+01 -0.95265564876E+01  0.13832597544E+02  0.51100000000E-03 0.  1.
        -12    1    3    3    0    0  0.19391763046E+02  0.30855804533E+01 -0.79126363664E+01  0.21170051843E+02  0.00000000000E+00 0.  1.
</event>
<event>
 7    1  0.4081218E-008  0.4614232E+02  0.7816164E-02  0.1320468E+00
        -11   -1    0    0    0    0  0.00000000000E+00  0.00000000000E+00  0.45593999997E+02  0.45594000000E+02  0.51100000000E-03 0.  1.
         11   -1    0    0    0    0 -0.00000000000E+00 -0.00000000000E+00 -0.45593999997E+02  0.45594000000E+02  0.51100000000E-03 0. -1.
    9900012    2    1    2    0    0  0.25455876825E+02 -0.29634320695E+02 -0.22425851278E+02  0.46142318370E+02  0.10000005553E+02 0.  0.
        -12    1    1    2    0    0 -0.25455876825E+02  0.29634320695E+02  0.22425851278E+02  0.45045681630E+02  0.00000000000E+00 0.  1.
         11    1    3    3    0    0  0.13008574458E+02 -0.11353461182E+02 -0.12309724026E+02  0.21205032329E+02  0.51100000000E-03 0.  1.
        -11    1    3    3    0    0  0.43693752355E+01 -0.42989092193E+01 -0.52547554693E+01  0.80736928186E+01  0.51100000000E-03 0. -1.
         12    1    3    3    0    0  0.80779271319E+01 -0.13981950294E+02 -0.48613717831E+01  0.16863593223E+02  0.00000000000E+00 0. -1.
</event>
<event>
 7    1  0.4081218E-008  0.4614232E+02  0.7816164E-02  0.1320468E+00
        -11   -1    0    0    0    0  0.00000000000E+00  0.00000000000E+00  0.45593999997E+02  0.45594000000E+02  0.51100000000E-03 0.  1.
         11   -1    0    0    0    0 -0.00000000000E+00 -0.00000000000E+00 -0.45593999997E+02  0.45594000000E+02  0.51100000000E-03 0. -1.
    9900012    2    1    2    0    0 -0.11540551923E+02  0.12590330676E+02 -0.41682283014E+02  0.46142317826E+02  0.10000000596E+02 0.  0.
        -12    1    1    2    0    0  0.11540551923E+02 -0.12590330676E+02  0.41682283014E+02  0.45045682174E+02  0.00000000000E+00 0.  1.
         11    1    3    3    0    0  0.79843029792E+00  0.74708942382E+00 -0.89035288164E+00  0.14100929270E+01  0.51100000000E-03 0. -1.
        -11    1    3    3    0    0 -0.46251371803E+00 -0.73393489281E+00 -0.37669392329E+01  0.38655414643E+01  0.51100000000E-03 0.  1.
        -12    1    3    3    0    0 -0.11876468503E+02  0.12577176145E+02 -0.37024990900E+02  0.40866683435E+02  0.00000000000E+00 0.  1.
</event>
<event>
 7    1  0.4081218E-008  0.4614232E+02  0.7816164E-02  0.1320468E+00
        -11   -1    0    0    0    0  0.00000000000E+00  0.00000000000E+00  0.45593999997E+02  0.45594000000E+02  0.51100000000E-03 0. -1.
         11   -1    0    0    0    0 -0.00000000000E+00 -0.00000000000E+00 -0.45593999997E+02  0.45594000000E+02  0.51100000000E-03 0.  1.
    9900012    2    1    2    0    0 -0.26198430920E+02 -0.35998264862E+02  0.68469472839E+01  0.46142317157E+02  0.99999944867E+01 0.  0.
        -12    1    1    2    0    0  0.26198430920E+02  0.35998264862E+02 -0.68469472839E+01  0.45045682843E+02  0.00000000000E+00 0.  1.
         11    1    3    3    0    0 -0.27866732100E+01 -0.18214607223E+01  0.27579036313E+01  0.43231122404E+01  0.51100000000E-03 0. -1.
        -11    1    3    3    0    0 -0.13858298583E+01 -0.16905145166E+01 -0.66077566006E+00  0.22836349229E+01  0.51100000000E-03 0.  1.
        -12    1    3    3    0    0 -0.22025927852E+02 -0.32486289623E+02  0.47498193127E+01  0.39535569993E+02  0.00000000000E+00 0.  1.
</event>
<event>
 7    1  0.4081218E-008  0.4614232E+02  0.7816164E-02  0.1320468E+00
        -11   -1    0    0    0    0  0.00000000000E+00  0.00000000000E+00  0.45593999997E+02  0.45594000000E+02  0.51100000000E-03 0.  1.
         11   -1    0    0    0    0 -0.00000000000E+00 -0.00000000000E+00 -0.45593999997E+02  0.45594000000E+02  0.51100000000E-03 0. -1.
    9900012    2    1    2    0    0  0.43579608832E+02 -0.89195235309E+01  0.70974152269E+01  0.46142317533E+02  0.99999979242E+01 0.  0.
        -12    1    1    2    0    0 -0.43579608832E+02  0.89195235309E+01 -0.70974152269E+01  0.45045682467E+02  0.00000000000E+00 0.  1.
         11    1    3    3    0    0  0.14215978319E+02 -0.45074558277E+01  0.25653647030E+01  0.15132491333E+02  0.51100000000E-03 0. -1.
        -11    1    3    3    0    0  0.79120544854E+01 -0.21896265998E+01  0.46664153104E+01  0.94430134458E+01  0.51100000000E-03 0.  1.
         12    1    3    3    0    0  0.21451576027E+02 -0.22224411034E+01 -0.13436478645E+00  0.21566812755E+02  0.00000000000E+00 0. -1.
</event>
<event>
 7    1  0.4081218E-008  0.4614232E+02  0.7816164E-02  0.1320468E+00
        -11   -1    0    0    0    0  0.00000000000E+00  0.00000000000E+00  0.45593999997E+02  0.45594000000E+02  0.51100000000E-03 0.  1.
         11   -1    0    0    0    0 -0.00000000000E+00 -0.00000000000E+00 -0.45593999997E+02  0.45594000000E+02  0.51100000000E-03 0. -1.
    9900012    2    1    2    0    0  0.23061351830E+01 -0.53651909641E+01 -0.44665533676E+02  0.46142318386E+02  0.10000005695E+02 0.  0.
        -12    1    1    2    0    0 -0.23061351830E+01  0.53651909641E+01  0.44665533676E+02  0.45045681614E+02  0.00000000000E+00 0.  1.
         11    1    3    3    0    0  0.20859664998E+00  0.40590510053E+00 -0.26742273233E+01  0.27128884147E+01  0.51100000000E-03 0. -1.
        -11    1    3    3    0    0 -0.25665891780E+01 -0.92441670992E+00 -0.25104508071E+02  0.25252292015E+02  0.51100000000E-03 0.  1.
         12    1    3    3    0    0  0.46641277111E+01 -0.48466793547E+01 -0.16886798282E+02  0.18177137956E+02  0.00000000000E+00 0. -1.
</event>
<event>
 7    1  0.4081218E-008  0.4614232E+02  0.7816164E-02  0.1320468E+00
        -11   -1    0    0    0    0  0.00000000000E+00  0.00000000000E+00  0.45593999997E+02  0.45594000000E+02  0.51100000000E-03 0. -1.
         11   -1    0    0    0    0 -0.00000000000E+00 -0.00000000000E+00 -0.45593999997E+02  0.45594000000E+02  0.51100000000E-03 0.  1.
    9900012    2    1    2    0    0 -0.27600759195E+02  0.24389284383E+02  0.25932111973E+02  0.46142317274E+02  0.99999955597E+01 0.  0.
        -12    1    1    2    0    0  0.27600759195E+02 -0.24389284383E+02 -0.25932111973E+02  0.45045682726E+02  0.00000000000E+00 0.  1.
         11    1    3    3    0    0 -0.14856861549E+01  0.19747701187E+01  0.22985837954E+01  0.33749767552E+01  0.51100000000E-03 0.  1.
        -11    1    3    3    0    0 -0.30677218545E+01  0.29952903516E+00  0.84499251825E-01  0.30834680806E+01  0.51100000000E-03 0. -1.
         12    1    3    3    0    0 -0.23047351186E+02  0.22114985229E+02  0.23549028926E+02  0.39683872438E+02  0.00000000000E+00 0. -1.
</event>
<event>
 7    1  0.4081218E-008  0.4614232E+02  0.7816164E-02  0.1320468E+00
        -11   -1    0    0    0    0  0.00000000000E+00  0.00000000000E+00  0.45593999997E+02  0.45594000000E+02  0.51100000000E-03 0. -1.
         11   -1    0    0    0    0 -0.00000000000E+00 -0.00000000000E+00 -0.45593999997E+02  0.45594000000E+02  0.51100000000E-03 0.  1.
    9900012    2    1    2    0    0 -0.43236615421E+02  0.10233815080E+02  0.74146882654E+01  0.46142317785E+02  0.10000000215E+02 0.  0.
        -12    1    1    2    0    0  0.43236615421E+02 -0.10233815080E+02 -0.74146882654E+01  0.45045682215E+02  0.00000000000E+00 0.  1.
         11    1    3    3    0    0 -0.81456290590E+01  0.14549619272E+01  0.94065813906E+00  0.83278463586E+01  0.51100000000E-03 0. -1.
        -11    1    3    3    0    0 -0.25169608691E+02  0.41190154250E+01  0.90690081950E+00  0.25520539945E+02  0.51100000000E-03 0.  1.
        -12    1    3    3    0    0 -0.99213776716E+01  0.46598377277E+01  0.55671293068E+01  0.12293931481E+02  0.00000000000E+00 0.  1.
</event>
<event>
 7    1  0.4081218E-008  0.4614232E+02  0.7816164E-02  0.1320468E+00
        -11   -1    0    0    0    0  0.00000000000E+00  0.00000000000E+00  0.45593999997E+02  0.45594000000E+02  0.51100000000E-03 0.  1.
         11   -1    0    0    0    0 -0.00000000000E+00 -0.00000000000E+00 -0.45593999997E+02  0.45594000000E+02  0.51100000000E-03 0. -1.
    9900012    2    1    2    0    0 -0.18389735688E+02 -0.11434395902E+02 -0.39499186405E+02  0.46142317466E+02  0.99999973094E+01 0.  0.
        -12    1    1    2    0    0  0.18389735688E+02  0.11434395902E+02  0.39499186405E+02  0.45045682534E+02  0.00000000000E+00 0.  1.
         11    1    3    3    0    0 -0.28242545793E+01 -0.91303686758E+00 -0.40695188814E+01  0.50369667894E+01  0.51100000000E-03 0. -1.
        -11    1    3    3    0    0 -0.13322261327E+02 -0.40355935560E+01 -0.22240101856E+02  0.26237202462E+02  0.51100000000E-03 0.  1.
        -12    1    3    3    0    0 -0.22432197811E+01 -0.64857654787E+01 -0.13189565667E+02  0.14868148214E+02  0.00000000000E+00 0.  1.
</event>
<event>
 7    1  0.4081218E-008  0.4614232E+02  0.7816164E-02  0.1320468E+00
        -11   -1    0    0    0    0  0.00000000000E+00  0.00000000000E+00  0.45593999997E+02  0.45594000000E+02  0.51100000000E-03 0.  1.
         11   -1    0    0    0    0 -0.00000000000E+00 -0.00000000000E+00 -0.45593999997E+02  0.45594000000E+02  0.51100000000E-03 0. -1.
    9900012    2    1    2    0    0 -0.20504131271E+02 -0.33250753333E+02 -0.22429479584E+02  0.46142317068E+02  0.99999936762E+01 0.  0.
        -12    1    1    2    0    0  0.20504131271E+02  0.33250753333E+02  0.22429479584E+02  0.45045682932E+02  0.00000000000E+00 0.  1.
         11    1    3    3    0    0 -0.58097001666E+01 -0.85211399861E+01 -0.72196976574E+01  0.12589141242E+02  0.51100000000E-03 0. -1.
        -11    1    3    3    0    0  0.10147663996E+01 -0.18796978302E+01 -0.64276256190E+00  0.22307305419E+01  0.51100000000E-03 0.  1.
        -12    1    3    3    0    0 -0.15709197504E+02 -0.22849915517E+02 -0.14567019365E+02  0.31322445284E+02  0.00000000000E+00 0.  1.
</event>
<event>
 7    1  0.4081218E-008  0.4614232E+02  0.7816164E-02  0.1320468E+00
        -11   -1    0    0    0    0  0.00000000000E+00  0.00000000000E+00  0.45593999997E+02  0.45594000000E+02  0.51100000000E-03 0. -1.
         11   -1    0    0    0    0 -0.00000000000E+00 -0.00000000000E+00 -0.45593999997E+02  0.45594000000E+02  0.51100000000E-03 0.  1.
    9900012    2    1    2    0    0 -0.25852279263E+02 -0.35327610627E+01  0.36719105459E+02  0.46142318192E+02  0.10000003931E+02 0.  0.
        -12    1    1    2    0    0  0.25852279263E+02  0.35327610627E+01 -0.36719105459E+02  0.45045681808E+02  0.00000000000E+00 0.  1.
         11    1    3    3    0    0 -0.10606415882E+02 -0.27460412026E+01  0.14282681583E+02  0.18000883134E+02  0.51100000000E-03 0. -1.
        -11    1    3    3    0    0 -0.83865680246E+01 -0.40143412883E+01  0.13921952393E+02  0.16741272888E+02  0.51100000000E-03 0.  1.
         12    1    3    3    0    0 -0.68592953560E+01  0.32276214282E+01  0.85144714834E+01  0.11400162170E+02  0.00000000000E+00 0. -1.
</event>
<event>
 7    1  0.4081218E-008  0.4614232E+02  0.7816164E-02  0.1320468E+00
        -11   -1    0    0    0    0  0.00000000000E+00  0.00000000000E+00  0.45593999997E+02  0.45594000000E+02  0.51100000000E-03 0. -1.
         11   -1    0    0    0    0 -0.00000000000E+00 -0.00000000000E+00 -0.45593999997E+02  0.45594000000E+02  0.51100000000E-03 0.  1.
    9900012    2    1    2    0    0  0.64317160229E+00 -0.30607156250E+02  0.33043939066E+02  0.46142316606E+02  0.99999894668E+01 0.  0.
        -12    1    1    2    0    0 -0.64317160229E+00  0.30607156250E+02 -0.33043939066E+02  0.45045683394E+02  0.00000000000E+00 0.  1.
         11    1    3    3    0    0  0.42493078407E+00 -0.23045489519E+02  0.24689916603E+02  0.33776724759E+02  0.51100000000E-03 0. -1.
        -11    1    3    3    0    0 -0.74165811282E+00 -0.73559983047E+01  0.86123589744E+01  0.11350484359E+02  0.51100000000E-03 0.  1.
        -12    1    3    3    0    0  0.95989893104E+00 -0.20566842608E+00 -0.25833651084E+00  0.10151074880E+01  0.00000000000E+00 0.  1.
</event>
<event>
 7    1  0.4081218E-008  0.4614232E+02  0.7816164E-02  0.1320468E+00
        -11   -1    0    0    0    0  0.00000000000E+00  0.00000000000E+00  0.45593999997E+02  0.45594000000E+02  0.51100000000E-03 0. -1.
         11   -1    0    0    0    0 -0.00000000000E+00 -0.00000000000E+00 -0.45593999997E+02  0.45594000000E+02  0.51100000000E-03 0.  1.
    9900012    2    1    2    0    0  0.88969335124E+01 -0.30404510684E+02  0.32023798544E+02  0.46142319086E+02  0.10000012083E+02 0.  0.
        -12    1    1    2    0    0 -0.88969335124E+01  0.30404510684E+02 -0.32023798544E+02  0.45045680914E+02  0.00000000000E+00 0.  1.
         11    1    3    3    0    0  0.79498267767E+01 -0.24626597429E+02  0.27729144372E+02  0.37928544588E+02  0.51100000000E-03 0. -1.
        -11    1    3    3    0    0  0.12150665827E+01 -0.22283698163E+01  0.38711600220E+01  0.46290278694E+01  0.51100000000E-03 0.  1.
        -12    1    3    3    0    0 -0.26795984700E+00 -0.35495434380E+01  0.42349415009E+00  0.35847466289E+01  0.00000000000E+00 0.  1.
</event>
<event>
 7    1  0.4081218E-008  0.4614232E+02  0.7816164E-02  0.1320468E+00
        -11   -1    0    0    0    0  0.00000000000E+00  0.00000000000E+00  0.45593999997E+02  0.45594000000E+02  0.51100000000E-03 0.  1.
         11   -1    0    0    0    0 -0.00000000000E+00 -0.00000000000E+00 -0.45593999997E+02  0.45594000000E+02  0.51100000000E-03 0. -1.
    9900012    2    1    2    0    0  0.15993815548E+02  0.17136646610E+02 -0.38466176228E+02  0.46142317561E+02  0.99999981711E+01 0.  0.
        -12    1    1    2    0    0 -0.15993815548E+02 -0.17136646610E+02  0.38466176228E+02  0.45045682439E+02  0.00000000000E+00 0.  1.
         11    1    3    3    0    0  0.10855568916E+01  0.85434791268E+00 -0.64140930252E+01  0.65611686244E+01  0.51100000000E-03 0. -1.
        -11    1    3    3    0    0  0.40177632570E+01  0.90063702349E+01 -0.10871009582E+02  0.14677737428E+02  0.51100000000E-03 0.  1.
         12    1    3    3    0    0  0.10890495399E+02  0.72759284624E+01 -0.21181073621E+02  0.24903411508E+02  0.00000000000E+00 0. -1.
</event>
<event>
 7    1  0.4081218E-008  0.4614232E+02  0.7816164E-02  0.1320468E+00
        -11   -1    0    0    0    0  0.00000000000E+00  0.00000000000E+00  0.45593999997E+02  0.45594000000E+02  0.51100000000E-03 0.  1.
         11   -1    0    0    0    0 -0.00000000000E+00 -0.00000000000E+00 -0.45593999997E+02  0.45594000000E+02  0.51100000000E-03 0. -1.
    9900012    2    1    2    0    0 -0.14115602640E+02  0.70633936233E+01 -0.42189709262E+02  0.46142319463E+02  0.10000015520E+02 0.  0.
        -12    1    1    2    0    0  0.14115602640E+02 -0.70633936233E+01  0.42189709262E+02  0.45045680537E+02  0.00000000000E+00 0.  1.
         11    1    3    3    0    0 -0.13694431167E+01  0.38673860201E+01 -0.15083675818E+02  0.15631676990E+02  0.51100000000E-03 0. -1.
        -11    1    3    3    0    0 -0.30438315957E+01  0.10669696748E+01 -0.28677382473E+01  0.43159307207E+01  0.51100000000E-03 0.  1.
         12    1    3    3    0    0 -0.97023279282E+01  0.21290379284E+01 -0.24238295197E+02  0.26194711752E+02  0.00000000000E+00 0. -1.
</event>
<event>
 7    1  0.4081218E-008  0.4614232E+02  0.7816164E-02  0.1320468E+00
        -11   -1    0    0    0    0  0.00000000000E+00  0.00000000000E+00  0.45593999997E+02  0.45594000000E+02  0.51100000000E-03 0.  1.
         11   -1    0    0    0    0 -0.00000000000E+00 -0.00000000000E+00 -0.45593999997E+02  0.45594000000E+02  0.51100000000E-03 0. -1.
    9900012    2    1    2    0    0 -0.18339612403E+02 -0.10005955069E+02 -0.39908055622E+02  0.46142318481E+02  0.10000006566E+02 0.  0.
        -12    1    1    2    0    0  0.18339612403E+02  0.10005955069E+02  0.39908055622E+02  0.45045681519E+02  0.00000000000E+00 0.  1.
         11    1    3    3    0    0 -0.42924256652E+01 -0.11730291788E+01 -0.29427599058E+01  0.53348619166E+01  0.51100000000E-03 0. -1.
        -11    1    3    3    0    0 -0.43718166790E+00  0.14356538209E+00 -0.40457278233E+01  0.40718119690E+01  0.51100000000E-03 0.  1.
         12    1    3    3    0    0 -0.13610005070E+02 -0.89764912727E+01 -0.32919567893E+02  0.36735644596E+02  0.00000000000E+00 0. -1.
</event>
<event>
 7    1  0.4081218E-008  0.4614232E+02  0.7816164E-02  0.1320468E+00
        -11   -1    0    0    0    0  0.00000000000E+00  0.00000000000E+00  0.45593999997E+02  0.45594000000E+02  0.51100000000E-03 0. -1.
         11   -1    0    0    0    0 -0.00000000000E+00 -0.00000000000E+00 -0.45593999997E+02  0.45594000000E+02  0.51100000000E-03 0.  1.
    9900012    2    1    2    0    0  0.35751946765E+02  0.24046881153E+02 -0.13139988106E+02  0.46142317875E+02  0.10000001041E+02 0.  0.
        -12    1    1    2    0    0 -0.35751946765E+02 -0.24046881153E+02  0.13139988106E+02  0.45045682125E+02  0.00000000000E+00 0.  1.
         11    1    3    3    0    0  0.75933936931E+01  0.66558693162E+01 -0.28754742052E+01  0.10498979774E+02  0.51100000000E-03 0. -1.
        -11    1    3    3    0    0  0.33121338489E+01  0.31649080663E+01 -0.45323242728E+01  0.64442871814E+01  0.51100000000E-03 0.  1.
         12    1    3    3    0    0  0.24846419223E+02  0.14226103771E+02 -0.57321896282E+01  0.29199050920E+02  0.00000000000E+00 0. -1.
</event>
<event>
 7    1  0.4081218E-008  0.4614232E+02  0.7816164E-02  0.1320468E+00
        -11   -1    0    0    0    0  0.00000000000E+00  0.00000000000E+00  0.45593999997E+02  0.45594000000E+02  0.51100000000E-03 0. -1.
         11   -1    0    0    0    0 -0.00000000000E+00 -0.00000000000E+00 -0.45593999997E+02  0.45594000000E+02  0.51100000000E-03 0.  1.
    9900012    2    1    2    0    0  0.28338105156E+02 -0.34997549675E+02 -0.11121293880E+01  0.46142317423E+02  0.99999969125E+01 0.  0.
        -12    1    1    2    0    0 -0.28338105156E+02  0.34997549675E+02  0.11121293880E+01  0.45045682577E+02  0.00000000000E+00 0.  1.
         11    1    3    3    0    0  0.31503142542E+01 -0.43802654030E+01 -0.25134220778E+01  0.59521841120E+01  0.51100000000E-03 0. -1.
        -11    1    3    3    0    0  0.60949639830E+01 -0.51761242452E+01 -0.18751045185E+01  0.82132128532E+01  0.51100000000E-03 0.  1.
         12    1    3    3    0    0  0.19092826919E+02 -0.25441160027E+02  0.32763972083E+01  0.31976920457E+02  0.00000000000E+00 0. -1.
</event>
<event>
 7    1  0.4081218E-008  0.4614231E+02  0.7816164E-02  0.1320468E+00
        -11   -1    0    0    0    0  0.00000000000E+00  0.00000000000E+00  0.45593999997E+02  0.45594000000E+02  0.51100000000E-03 0.  1.
         11   -1    0    0    0    0 -0.00000000000E+00 -0.00000000000E+00 -0.45593999997E+02  0.45594000000E+02  0.51100000000E-03 0. -1.
    9900012    2    1    2    0    0 -0.17274350247E+02  0.32856997236E+02 -0.25517218822E+02  0.46142313189E+02  0.99999583098E+01 0.  0.
        -12    1    1    2    0    0  0.17274350247E+02 -0.32856997236E+02  0.25517218822E+02  0.45045686811E+02  0.00000000000E+00 0.  1.
         11    1    3    3    0    0 -0.59784251335E+01  0.73546655287E+01 -0.11108090893E+02  0.14602135312E+02  0.51100000000E-03 0. -1.
        -11    1    3    3    0    0 -0.91815150732E+01  0.18184705109E+02 -0.94926441884E+01  0.22474296716E+02  0.51100000000E-03 0.  1.
        -12    1    3    3    0    0 -0.21144100400E+01  0.73176265985E+01 -0.49164837407E+01  0.90658811610E+01  0.00000000000E+00 0.  1.
</event>
<event>
 7    1  0.4081218E-008  0.4614232E+02  0.7816164E-02  0.1320468E+00
        -11   -1    0    0    0    0  0.00000000000E+00  0.00000000000E+00  0.45593999997E+02  0.45594000000E+02  0.51100000000E-03 0.  1.
         11   -1    0    0    0    0 -0.00000000000E+00 -0.00000000000E+00 -0.45593999997E+02  0.45594000000E+02  0.51100000000E-03 0. -1.
    9900012    2    1    2    0    0  0.34740983914E+02 -0.39466357479E+01 -0.28400732278E+02  0.46142317732E+02  0.99999997342E+01 0.  0.
        -12    1    1    2    0    0 -0.34740983914E+02  0.39466357479E+01  0.28400732278E+02  0.45045682268E+02  0.00000000000E+00 0.  1.
         11    1    3    3    0    0  0.21920567399E+02 -0.28466264873E+01 -0.15554460549E+02  0.27028795768E+02  0.51100000000E-03 0. -1.
        -11    1    3    3    0    0  0.99275116935E+01  0.10171254294E+01 -0.67718853834E+01  0.12060201676E+02  0.51100000000E-03 0.  1.
        -12    1    3    3    0    0  0.28929048220E+01 -0.21171346900E+01 -0.60743863453E+01  0.70533202874E+01  0.00000000000E+00 0.  1.
</event>
<event>
 7    1  0.4081218E-008  0.4614232E+02  0.7816164E-02  0.1320468E+00
        -11   -1    0    0    0    0  0.00000000000E+00  0.00000000000E+00  0.45593999997E+02  0.45594000000E+02  0.51100000000E-03 0.  1.
         11   -1    0    0    0    0 -0.00000000000E+00 -0.00000000000E+00 -0.45593999997E+02  0.45594000000E+02  0.51100000000E-03 0. -1.
    9900012    2    1    2    0    0  0.42248969565E+01  0.44041282803E+02 -0.84633945440E+01  0.46142318826E+02  0.10000009710E+02 0.  0.
        -12    1    1    2    0    0 -0.42248969565E+01 -0.44041282803E+02  0.84633945440E+01  0.45045681174E+02  0.00000000000E+00 0.  1.
         11    1    3    3    0    0  0.30514957066E+01  0.82149817312E+01 -0.93857184419E+00  0.88135389180E+01  0.51100000000E-03 0. -1.
        -11    1    3    3    0    0 -0.11819394040E+01  0.23685312554E+01  0.80981835923E+00  0.27681631271E+01  0.51100000000E-03 0.  1.
         12    1    3    3    0    0  0.23553406539E+01  0.33457769816E+02 -0.83346410590E+01  0.34560616781E+02  0.00000000000E+00 0. -1.
</event>
<event>
 7    1  0.4081218E-008  0.4614232E+02  0.7816164E-02  0.1320468E+00
        -11   -1    0    0    0    0  0.00000000000E+00  0.00000000000E+00  0.45593999997E+02  0.45594000000E+02  0.51100000000E-03 0.  1.
         11   -1    0    0    0    0 -0.00000000000E+00 -0.00000000000E+00 -0.45593999997E+02  0.45594000000E+02  0.51100000000E-03 0. -1.
    9900012    2    1    2    0    0  0.27215735189E+02 -0.20471545599E+01 -0.35836103739E+02  0.46142318577E+02  0.10000007442E+02 0.  0.
        -12    1    1    2    0    0 -0.27215735189E+02  0.20471545599E+01  0.35836103739E+02  0.45045681423E+02  0.00000000000E+00 0.  1.
         11    1    3    3    0    0  0.90297628190E+01 -0.11890129157E+01 -0.14148497500E+02  0.16826477648E+02  0.51100000000E-03 0. -1.
        -11    1    3    3    0    0  0.14248300748E+02  0.69736326939E+00 -0.20395489666E+02  0.24889282608E+02  0.51100000000E-03 0.  1.
        -12    1    3    3    0    0  0.39376716214E+01 -0.15555049137E+01 -0.12921165732E+01  0.44265583214E+01  0.00000000000E+00 0.  1.
</event>
<event>
 7    1  0.4081218E-008  0.4614231E+02  0.7816164E-02  0.1320468E+00
        -11   -1    0    0    0    0  0.00000000000E+00  0.00000000000E+00  0.45593999997E+02  0.45594000000E+02  0.51100000000E-03 0. -1.
         11   -1    0    0    0    0 -0.00000000000E+00 -0.00000000000E+00 -0.45593999997E+02  0.45594000000E+02  0.51100000000E-03 0.  1.
    9900012    2    1    2    0    0 -0.22390635031E+01 -0.43199063259E+02 -0.12567480713E+02  0.46142311601E+02  0.99999438285E+01 0.  0.
        -12    1    1    2    0    0  0.22390635031E+01  0.43199063259E+02  0.12567480713E+02  0.45045688399E+02  0.00000000000E+00 0.  1.
         11    1    3    3    0    0  0.13661287372E+01 -0.18591399829E+02 -0.58732262913E+01  0.19544852076E+02  0.51100000000E-03 0. -1.
        -11    1    3    3    0    0 -0.43109046025E+01 -0.10579891667E+02 -0.10942590360E+01  0.11476733388E+02  0.51100000000E-03 0.  1.
        -12    1    3    3    0    0  0.70571236215E+00 -0.14027771763E+02 -0.55999953861E+01  0.15120726137E+02  0.00000000000E+00 0.  1.
</event>
<event>
 7    1  0.4081218E-008  0.4614232E+02  0.7816164E-02  0.1320468E+00
        -11   -1    0    0    0    0  0.00000000000E+00  0.00000000000E+00  0.45593999997E+02  0.45594000000E+02  0.51100000000E-03 0.  1.
         11   -1    0    0    0    0 -0.00000000000E+00 -0.00000000000E+00 -0.45593999997E+02  0.45594000000E+02  0.51100000000E-03 0. -1.
    9900012    2    1    2    0    0 -0.12099179199E+02  0.43172247235E+02 -0.43451648527E+01  0.46142317341E+02  0.99999961676E+01 0.  0.
        -12    1    1    2    0    0  0.12099179199E+02 -0.43172247235E+02  0.43451648527E+01  0.45045682659E+02  0.00000000000E+00 0.  1.
         11    1    3    3    0    0 -0.28481978343E+01  0.15490703932E+02 -0.52309281579E+01  0.16596287201E+02  0.51100000000E-03 0. -1.
        -11    1    3    3    0    0 -0.71098632378E+01  0.23853300091E+02 -0.64936907856E+00  0.24898830514E+02  0.51100000000E-03 0.  1.
        -12    1    3    3    0    0 -0.21411181273E+01  0.38282432119E+01  0.15351323837E+01  0.46471996256E+01  0.00000000000E+00 0.  1.
</event>
<event>
 7    1  0.4081218E-008  0.4614232E+02  0.7816164E-02  0.1320468E+00
        -11   -1    0    0    0    0  0.00000000000E+00  0.00000000000E+00  0.45593999997E+02  0.45594000000E+02  0.51100000000E-03 0.  1.
         11   -1    0    0    0    0 -0.00000000000E+00 -0.00000000000E+00 -0.45593999997E+02  0.45594000000E+02  0.51100000000E-03 0. -1.
    9900012    2    1    2    0    0 -0.23525400246E+02 -0.35501500559E+02 -0.14673534140E+02  0.46142316491E+02  0.99999884138E+01 0.  0.
        -12    1    1    2    0    0  0.23525400246E+02  0.35501500559E+02  0.14673534140E+02  0.45045683509E+02  0.00000000000E+00 0.  1.
         11    1    3    3    0    0 -0.65545429767E+01 -0.80064983514E+01 -0.47700151404E+01  0.11393818244E+02  0.51100000000E-03 0.  1.
        -11    1    3    3    0    0 -0.16694700524E+02 -0.27977257631E+02 -0.92035886639E+01  0.33854778314E+02  0.51100000000E-03 0. -1.
        -12    1    3    3    0    0 -0.27615674508E+00  0.48225542377E+00 -0.69993033557E+00  0.89371993167E+00  0.00000000000E+00 0.  1.
</event>
<event>
 7    1  0.4081218E-008  0.4614232E+02  0.7816164E-02  0.1320468E+00
        -11   -1    0    0    0    0  0.00000000000E+00  0.00000000000E+00  0.45593999997E+02  0.45594000000E+02  0.51100000000E-03 0. -1.
         11   -1    0    0    0    0 -0.00000000000E+00 -0.00000000000E+00 -0.45593999997E+02  0.45594000000E+02  0.51100000000E-03 0.  1.
    9900012    2    1    2    0    0  0.24640837290E+02 -0.26313569841E+02  0.27009976650E+02  0.46142315870E+02  0.99999827562E+01 0.  0.
        -12    1    1    2    0    0 -0.24640837290E+02  0.26313569841E+02 -0.27009976650E+02  0.45045684130E+02  0.00000000000E+00 0.  1.
         11    1    3    3    0    0  0.63557122071E+01 -0.12364126571E+02  0.10016749243E+02  0.17134817454E+02  0.51100000000E-03 0. -1.
        -11    1    3    3    0    0  0.13944176953E-01 -0.69921789252E+00  0.14299429906E+01  0.15918031658E+01  0.51100000000E-03 0.  1.
         12    1    3    3    0    0  0.18271180906E+02 -0.13250225378E+02  0.15563284416E+02  0.27415695250E+02  0.00000000000E+00 0. -1.
</event>
<event>
 7    1  0.4081218E-008  0.4614232E+02  0.7816164E-02  0.1320468E+00
        -11   -1    0    0    0    0  0.00000000000E+00  0.00000000000E+00  0.45593999997E+02  0.45594000000E+02  0.51100000000E-03 0. -1.
         11   -1    0    0    0    0 -0.00000000000E+00 -0.00000000000E+00 -0.45593999997E+02  0.45594000000E+02  0.51100000000E-03 0.  1.
    9900012    2    1    2    0    0  0.17774333266E+02  0.34150879680E+01  0.41249527785E+02  0.46142319948E+02  0.10000019945E+02 0.  0.
        -12    1    1    2    0    0 -0.17774333266E+02 -0.34150879680E+01 -0.41249527785E+02  0.45045680052E+02  0.00000000000E+00 0.  1.
         11    1    3    3    0    0  0.10222523672E+02  0.43442681415E+01  0.30106964002E+02  0.32090527225E+02  0.51100000000E-03 0. -1.
        -11    1    3    3    0    0 -0.50467336934E-01 -0.92733960630E+00  0.16139532201E+01  0.18620824244E+01  0.51100000000E-03 0.  1.
        -12    1    3    3    0    0  0.76022769308E+01 -0.18405672045E-02  0.95286105628E+01  0.12189710299E+02  0.00000000000E+00 0.  1.
</event>
<event>
 7    1  0.4081218E-008  0.4614232E+02  0.7816164E-02  0.1320468E+00
        -11   -1    0    0    0    0  0.00000000000E+00  0.00000000000E+00  0.45593999997E+02  0.45594000000E+02  0.51100000000E-03 0.  1.
         11   -1    0    0    0    0 -0.00000000000E+00 -0.00000000000E+00 -0.45593999997E+02  0.45594000000E+02  0.51100000000E-03 0. -1.
    9900012    2    1    2    0    0 -0.32647609332E+02 -0.30797723344E+02  0.38402251379E+01  0.46142317772E+02  0.10000000095E+02 0.  0.
        -12    1    1    2    0    0  0.32647609332E+02  0.30797723344E+02 -0.38402251379E+01  0.45045682228E+02  0.00000000000E+00 0.  1.
         11    1    3    3    0    0 -0.12894272114E+02 -0.14307139388E+02  0.39194339667E+01  0.19654985467E+02  0.51100000000E-03 0. -1.
        -11    1    3    3    0    0 -0.88487235837E+01 -0.10548638261E+02 -0.20273283390E+01  0.13917030527E+02  0.51100000000E-03 0.  1.
        -12    1    3    3    0    0 -0.10904613634E+02 -0.59419456951E+01  0.19481195102E+01  0.12570301778E+02  0.00000000000E+00 0.  1.
</event>
<event>
 7    1  0.4081218E-008  0.4614232E+02  0.7816164E-02  0.1320468E+00
        -11   -1    0    0    0    0  0.00000000000E+00  0.00000000000E+00  0.45593999997E+02  0.45594000000E+02  0.51100000000E-03 0.  1.
         11   -1    0    0    0    0 -0.00000000000E+00 -0.00000000000E+00 -0.45593999997E+02  0.45594000000E+02  0.51100000000E-03 0. -1.
    9900012    2    1    2    0    0 -0.44470262279E+02  0.68996135429E+01  0.19760083251E+01  0.46142317598E+02  0.99999985094E+01 0.  0.
        -12    1    1    2    0    0  0.44470262279E+02 -0.68996135429E+01 -0.19760083251E+01  0.45045682402E+02  0.00000000000E+00 0.  1.
         11    1    3    3    0    0 -0.16549082966E+01 -0.10983079192E+01  0.62246743014E+00  0.20814580751E+01  0.51100000000E-03 0. -1.
        -11    1    3    3    0    0 -0.23278340321E+02  0.71313225410E+01 -0.97999262430E+00  0.24365903946E+02  0.51100000000E-03 0.  1.
         12    1    3    3    0    0 -0.19537013661E+02  0.86659892110E+00  0.23335335192E+01  0.19694955577E+02  0.00000000000E+00 0. -1.
</event>
<event>
 7    1  0.4081218E-008  0.4614232E+02  0.7816164E-02  0.1320468E+00
        -11   -1    0    0    0    0  0.00000000000E+00  0.00000000000E+00  0.45593999997E+02  0.45594000000E+02  0.51100000000E-03 0.  1.
         11   -1    0    0    0    0 -0.00000000000E+00 -0.00000000000E+00 -0.45593999997E+02  0.45594000000E+02  0.51100000000E-03 0. -1.
    9900012    2    1    2    0    0 -0.21306372987E+02 -0.16695976794E+02 -0.36005504315E+02  0.46142317499E+02  0.99999976144E+01 0.  0.
        -12    1    1    2    0    0  0.21306372987E+02  0.16695976794E+02  0.36005504315E+02  0.45045682501E+02  0.00000000000E+00 0.  1.
         11    1    3    3    0    0 -0.12924235340E+02 -0.69898968584E+01 -0.21018019591E+02  0.25644720022E+02  0.51100000000E-03 0. -1.
        -11    1    3    3    0    0 -0.72955741886E+00 -0.93191327058E-01 -0.38321245132E+01  0.39020657602E+01  0.51100000000E-03 0.  1.
         12    1    3    3    0    0 -0.76525802278E+01 -0.96128886090E+01 -0.11155360211E+02  0.16595531717E+02  0.00000000000E+00 0. -1.
</event>
<event>
 7    1  0.4081218E-008  0.4614232E+02  0.7816164E-02  0.1320468E+00
        -11   -1    0    0    0    0  0.00000000000E+00  0.00000000000E+00  0.45593999997E+02  0.45594000000E+02  0.51100000000E-03 0.  1.
         11   -1    0    0    0    0 -0.00000000000E+00 -0.00000000000E+00 -0.45593999997E+02  0.45594000000E+02  0.51100000000E-03 0. -1.
    9900012    2    1    2    0    0  0.56233750817E+00  0.48041638710E+01 -0.44785234382E+02  0.46142318380E+02  0.10000005639E+02 0.  0.
        -12    1    1    2    0    0 -0.56233750817E+00 -0.48041638710E+01  0.44785234382E+02  0.45045681620E+02  0.00000000000E+00 0.  1.
         11    1    3    3    0    0  0.32835293850E+01  0.45777965358E+01 -0.29267483651E+02  0.29804754417E+02  0.51100000000E-03 0. -1.
        -11    1    3    3    0    0 -0.26405454091E+01  0.11392424846E+01 -0.15023653641E+02  0.15296421885E+02  0.51100000000E-03 0.  1.
         12    1    3    3    0    0 -0.80646467722E-01 -0.91287514944E+00 -0.49409709076E+00  0.10411420779E+01  0.00000000000E+00 0. -1.
</event>
<event>
 7    1  0.4081218E-008  0.4614232E+02  0.7816164E-02  0.1320468E+00
        -11   -1    0    0    0    0  0.00000000000E+00  0.00000000000E+00  0.45593999997E+02  0.45594000000E+02  0.51100000000E-03 0.  1.
         11   -1    0    0    0    0 -0.00000000000E+00 -0.00000000000E+00 -0.45593999997E+02  0.45594000000E+02  0.51100000000E-03 0. -1.
    9900012    2    1    2    0    0 -0.24968975735E+02  0.28672843019E+02 -0.24156402010E+02  0.46142318364E+02  0.10000005494E+02 0.  0.
        -12    1    1    2    0    0  0.24968975735E+02 -0.28672843019E+02  0.24156402010E+02  0.45045681636E+02  0.00000000000E+00 0.  1.
         11    1    3    3    0    0 -0.83337751503E+01  0.11877158720E+02 -0.85475267250E+01  0.16839801688E+02  0.51100000000E-03 0. -1.
        -11    1    3    3    0    0 -0.71822786198E+00  0.35396146350E+01 -0.45880892697E+01  0.58391169225E+01  0.51100000000E-03 0.  1.
        -12    1    3    3    0    0 -0.15916972723E+02  0.13256069663E+02 -0.11020786015E+02  0.23463399753E+02  0.00000000000E+00 0.  1.
</event>
<event>
 7    1  0.4081218E-008  0.4614232E+02  0.7816164E-02  0.1320468E+00
        -11   -1    0    0    0    0  0.00000000000E+00  0.00000000000E+00  0.45593999997E+02  0.45594000000E+02  0.51100000000E-03 0.  1.
         11   -1    0    0    0    0 -0.00000000000E+00 -0.00000000000E+00 -0.45593999997E+02  0.45594000000E+02  0.51100000000E-03 0. -1.
    9900012    2    1    2    0    0 -0.65835060324E+01 -0.37353346517E+02 -0.24300173721E+02  0.46142317737E+02  0.99999997762E+01 0.  0.
        -12    1    1    2    0    0  0.65835060324E+01  0.37353346517E+02  0.24300173721E+02  0.45045682263E+02  0.00000000000E+00 0.  1.
         11    1    3    3    0    0 -0.32576766971E+01 -0.21564631481E+02 -0.12192716135E+02  0.24986158476E+02  0.51100000000E-03 0. -1.
        -11    1    3    3    0    0  0.16570007222E+01 -0.54214936987E+01 -0.26174211199E+01  0.62441283538E+01  0.51100000000E-03 0.  1.
         12    1    3    3    0    0 -0.49828300575E+01 -0.10367221337E+02 -0.94900364654E+01  0.14912030906E+02  0.00000000000E+00 0. -1.
</event>
<event>
 7    1  0.4081218E-008  0.4614232E+02  0.7816164E-02  0.1320468E+00
        -11   -1    0    0    0    0  0.00000000000E+00  0.00000000000E+00  0.45593999997E+02  0.45594000000E+02  0.51100000000E-03 0. -1.
         11   -1    0    0    0    0 -0.00000000000E+00 -0.00000000000E+00 -0.45593999997E+02  0.45594000000E+02  0.51100000000E-03 0.  1.
    9900012    2    1    2    0    0 -0.41738446470E+02 -0.15875395276E+02  0.59150112417E+01  0.46142318221E+02  0.10000004194E+02 0.  0.
        -12    1    1    2    0    0  0.41738446470E+02  0.15875395276E+02 -0.59150112417E+01  0.45045681779E+02  0.00000000000E+00 0.  1.
         11    1    3    3    0    0 -0.20518288091E+01  0.58991842835E+00  0.88541679160E+00  0.23112698609E+01  0.51100000000E-03 0. -1.
        -11    1    3    3    0    0 -0.84457540946E+00 -0.18200718974E+01  0.53870610569E+00  0.20775403398E+01  0.51100000000E-03 0.  1.
         12    1    3    3    0    0 -0.38842042252E+02 -0.14645241807E+02  0.44908883444E+01  0.41753508020E+02  0.00000000000E+00 0. -1.
</event>
<event>
 7    1  0.4081218E-008  0.4614233E+02  0.7816164E-02  0.1320468E+00
        -11   -1    0    0    0    0  0.00000000000E+00  0.00000000000E+00  0.45593999997E+02  0.45594000000E+02  0.51100000000E-03 0.  1.
         11   -1    0    0    0    0 -0.00000000000E+00 -0.00000000000E+00 -0.45593999997E+02  0.45594000000E+02  0.51100000000E-03 0. -1.
    9900012    2    1    2    0    0 -0.14040279840E+02  0.32902178713E+02 -0.27375705979E+02  0.46142333173E+02  0.10000140537E+02 0.  0.
        -12    1    1    2    0    0  0.14040279840E+02 -0.32902178713E+02  0.27375705979E+02  0.45045666827E+02  0.00000000000E+00 0.  1.
         11    1    3    3    0    0 -0.27927587543E+01  0.28112181009E+01 -0.16694824522E+01  0.42999558824E+01  0.51100000000E-03 0. -1.
        -11    1    3    3    0    0 -0.25685164815E+00  0.28351987562E+01 -0.76092188602E-01  0.28478263708E+01  0.51100000000E-03 0.  1.
         12    1    3    3    0    0 -0.10990669438E+02  0.27255761856E+02 -0.25630131338E+02  0.38994550920E+02  0.00000000000E+00 0. -1.
</event>
<event>
 7    1  0.4081218E-008  0.4614232E+02  0.7816164E-02  0.1320468E+00
        -11   -1    0    0    0    0  0.00000000000E+00  0.00000000000E+00  0.45593999997E+02  0.45594000000E+02  0.51100000000E-03 0.  1.
         11   -1    0    0    0    0 -0.00000000000E+00 -0.00000000000E+00 -0.45593999997E+02  0.45594000000E+02  0.51100000000E-03 0. -1.
    9900012    2    1    2    0    0 -0.20744636253E+02  0.22848261185E+02 -0.32813563713E+02  0.46142323892E+02  0.10000055906E+02 0.  0.
        -12    1    1    2    0    0  0.20744636253E+02 -0.22848261185E+02  0.32813563713E+02  0.45045676108E+02  0.00000000000E+00 0.  1.
         11    1    3    3    0    0 -0.80640845903E+01  0.82119975103E+01 -0.16048746306E+02  0.19749142301E+02  0.51100000000E-03 0. -1.
        -11    1    3    3    0    0 -0.29311199871E+01  0.21121181418E+01 -0.46507317123E+00  0.36426365093E+01  0.51100000000E-03 0.  1.
        -12    1    3    3    0    0 -0.97494316758E+01  0.12524145533E+02 -0.16299744236E+02  0.22750545082E+02  0.00000000000E+00 0.  1.
</event>
<event>
 7    1  0.4081218E-008  0.4614232E+02  0.7816164E-02  0.1320468E+00
        -11   -1    0    0    0    0  0.00000000000E+00  0.00000000000E+00  0.45593999997E+02  0.45594000000E+02  0.51100000000E-03 0. -1.
         11   -1    0    0    0    0 -0.00000000000E+00 -0.00000000000E+00 -0.45593999997E+02  0.45594000000E+02  0.51100000000E-03 0.  1.
    9900012    2    1    2    0    0  0.13071390750E+02  0.22345949988E+02  0.36863405815E+02  0.46142318461E+02  0.10000006384E+02 0.  0.
        -12    1    1    2    0    0 -0.13071390750E+02 -0.22345949988E+02 -0.36863405815E+02  0.45045681539E+02  0.00000000000E+00 0.  1.
         11    1    3    3    0    0  0.69872766310E+00  0.26249356061E+01  0.68912976695E+01  0.74073268535E+01  0.51100000000E-03 0.  1.
        -11    1    3    3    0    0  0.52856038582E+01  0.11281098195E+02  0.10208778916E+02  0.16106518924E+02  0.51100000000E-03 0. -1.
         12    1    3    3    0    0  0.70870592291E+01  0.84399161870E+01  0.19763329229E+02  0.22628472684E+02  0.00000000000E+00 0. -1.
</event>
<event>
 7    1  0.4081218E-008  0.4614232E+02  0.7816164E-02  0.1320468E+00
        -11   -1    0    0    0    0  0.00000000000E+00  0.00000000000E+00  0.45593999997E+02  0.45594000000E+02  0.51100000000E-03 0.  1.
         11   -1    0    0    0    0 -0.00000000000E+00 -0.00000000000E+00 -0.45593999997E+02  0.45594000000E+02  0.51100000000E-03 0. -1.
    9900012    2    1    2    0    0  0.57428331880E+01 -0.24531408939E+02 -0.37340907463E+02  0.46142317324E+02  0.99999960152E+01 0.  0.
        -12    1    1    2    0    0 -0.57428331880E+01  0.24531408939E+02  0.37340907463E+02  0.45045682676E+02  0.00000000000E+00 0.  1.
         11    1    3    3    0    0  0.12462129835E+01 -0.43772031226E+01 -0.13345645997E+02  0.14100326993E+02  0.51100000000E-03 0. -1.
        -11    1    3    3    0    0 -0.76218802497E+00 -0.49192178799E+01 -0.41828404167E+01  0.65019834933E+01  0.51100000000E-03 0.  1.
         12    1    3    3    0    0  0.52588082295E+01 -0.15234987936E+02 -0.19812421050E+02  0.25540006838E+02  0.00000000000E+00 0. -1.
</event>
<event>
 7    1  0.4081218E-008  0.4614232E+02  0.7816164E-02  0.1320468E+00
        -11   -1    0    0    0    0  0.00000000000E+00  0.00000000000E+00  0.45593999997E+02  0.45594000000E+02  0.51100000000E-03 0. -1.
         11   -1    0    0    0    0 -0.00000000000E+00 -0.00000000000E+00 -0.45593999997E+02  0.45594000000E+02  0.51100000000E-03 0.  1.
    9900012    2    1    2    0    0  0.25092334362E+02  0.31001443764E+02  0.20937971372E+02  0.46142318694E+02  0.10000008503E+02 0.  0.
        -12    1    1    2    0    0 -0.25092334362E+02 -0.31001443764E+02 -0.20937971372E+02  0.45045681306E+02  0.00000000000E+00 0.  1.
         11    1    3    3    0    0  0.58225226346E+01  0.95313905926E+01  0.49090788603E+01  0.12200337371E+02  0.51100000000E-03 0. -1.
        -11    1    3    3    0    0  0.11382425123E+02  0.71402634978E+01  0.87781543723E+01  0.16049889686E+02  0.51100000000E-03 0.  1.
        -12    1    3    3    0    0  0.78873866047E+01  0.14329789673E+02  0.72507381396E+01  0.17892091636E+02  0.00000000000E+00 0.  1.
</event>
<event>
 7    1  0.4081218E-008  0.4614232E+02  0.7816164E-02  0.1320468E+00
        -11   -1    0    0    0    0  0.00000000000E+00  0.00000000000E+00  0.45593999997E+02  0.45594000000E+02  0.51100000000E-03 0.  1.
         11   -1    0    0    0    0 -0.00000000000E+00 -0.00000000000E+00 -0.45593999997E+02  0.45594000000E+02  0.51100000000E-03 0. -1.
    9900012    2    1    2    0    0 -0.19669674210E+02 -0.29063833167E+02 -0.28240237371E+02  0.46142317758E+02  0.99999999734E+01 0.  0.
        -12    1    1    2    0    0  0.19669674210E+02  0.29063833167E+02  0.28240237371E+02  0.45045682242E+02  0.00000000000E+00 0.  1.
         11    1    3    3    0    0 -0.70601761666E+01 -0.59914390827E+01 -0.70666918141E+01  0.11648242925E+02  0.51100000000E-03 0. -1.
        -11    1    3    3    0    0 -0.49280656893E+00  0.32985770361E+00 -0.14834204276E+01  0.15975609050E+01  0.51100000000E-03 0.  1.
        -12    1    3    3    0    0 -0.12116691474E+02 -0.23402251788E+02 -0.19690125129E+02  0.32896513928E+02  0.00000000000E+00 0.  1.
</event>
<event>
 7    1  0.4081218E-008  0.4614232E+02  0.7816164E-02  0.1320468E+00
        -11   -1    0    0    0    0  0.00000000000E+00  0.00000000000E+00  0.45593999997E+02  0.45594000000E+02  0.51100000000E-03 0.  1.
         11   -1    0    0    0    0 -0.00000000000E+00 -0.00000000000E+00 -0.45593999997E+02  0.45594000000E+02  0.51100000000E-03 0. -1.
    9900012    2    1    2    0    0 -0.12064138214E+02 -0.33189168144E+02 -0.27965141972E+02  0.46142317871E+02  0.10000001003E+02 0.  0.
        -12    1    1    2    0    0  0.12064138214E+02  0.33189168144E+02  0.27965141972E+02  0.45045682129E+02  0.00000000000E+00 0.  1.
         11    1    3    3    0    0 -0.14755017591E+01 -0.62962023817E+01 -0.21439161442E+01  0.68129029471E+01  0.51100000000E-03 0. -1.
        -11    1    3    3    0    0 -0.78709562341E+01 -0.12209788615E+02 -0.10419537788E+02  0.17877294483E+02  0.51100000000E-03 0.  1.
        -12    1    3    3    0    0 -0.27176802206E+01 -0.14683177148E+02 -0.15401688040E+02  0.21452120441E+02  0.00000000000E+00 0.  1.
</event>
<event>
 7    1  0.4081218E-008  0.4614232E+02  0.7816164E-02  0.1320468E+00
        -11   -1    0    0    0    0  0.00000000000E+00  0.00000000000E+00  0.45593999997E+02  0.45594000000E+02  0.51100000000E-03 0.  1.
         11   -1    0    0    0    0 -0.00000000000E+00 -0.00000000000E+00 -0.45593999997E+02  0.45594000000E+02  0.51100000000E-03 0. -1.
    9900012    2    1    2    0    0  0.59144356369E+01 -0.27964716335E+02 -0.34815334880E+02  0.46142318172E+02  0.10000003745E+02 0.  0.
        -12    1    1    2    0    0 -0.59144356369E+01  0.27964716335E+02  0.34815334880E+02  0.45045681828E+02  0.00000000000E+00 0.  1.
         11    1    3    3    0    0 -0.73186464607E+00 -0.80659290035E+01 -0.95322940496E+01  0.12508375860E+02  0.51100000000E-03 0. -1.
        -11    1    3    3    0    0  0.32046266736E+01 -0.17934410635E+02 -0.20753229364E+02  0.27615380610E+02  0.51100000000E-03 0.  1.
        -12    1    3    3    0    0  0.34416736093E+01 -0.19643766964E+01 -0.45298114657E+01  0.60185617014E+01  0.00000000000E+00 0.  1.
</event>
<event>
 7    1  0.4081218E-008  0.4614232E+02  0.7816164E-02  0.1320468E+00
        -11   -1    0    0    0    0  0.00000000000E+00  0.00000000000E+00  0.45593999997E+02  0.45594000000E+02  0.51100000000E-03 0. -1.
         11   -1    0    0    0    0 -0.00000000000E+00 -0.00000000000E+00 -0.45593999997E+02  0.45594000000E+02  0.51100000000E-03 0.  1.
    9900012    2    1    2    0    0 -0.28904354691E+02  0.32907537245E+02  0.10523578285E+02  0.46142318436E+02  0.10000006156E+02 0.  0.
        -12    1    1    2    0    0  0.28904354691E+02 -0.32907537245E+02 -0.10523578285E+02  0.45045681564E+02  0.00000000000E+00 0.  1.
         11    1    3    3    0    0 -0.12416172372E+02  0.15121492869E+02  0.38393625692E+01  0.19938946516E+02  0.51100000000E-03 0. -1.
        -11    1    3    3    0    0 -0.10875542038E+02  0.15571173072E+02  0.67850322627E+01  0.20168676420E+02  0.51100000000E-03 0.  1.
        -12    1    3    3    0    0 -0.56126402798E+01  0.22148713046E+01 -0.10081654733E+00  0.60346955004E+01  0.00000000000E+00 0.  1.
</event>
<event>
 7    1  0.4081218E-008  0.4614232E+02  0.7816164E-02  0.1320468E+00
        -11   -1    0    0    0    0  0.00000000000E+00  0.00000000000E+00  0.45593999997E+02  0.45594000000E+02  0.51100000000E-03 0.  1.
         11   -1    0    0    0    0 -0.00000000000E+00 -0.00000000000E+00 -0.45593999997E+02  0.45594000000E+02  0.51100000000E-03 0. -1.
    9900012    2    1    2    0    0 -0.11936567078E+02 -0.25911302406E+02 -0.34860237148E+02  0.46142319186E+02  0.10000012990E+02 0.  0.
        -12    1    1    2    0    0  0.11936567078E+02  0.25911302406E+02  0.34860237148E+02  0.45045680814E+02  0.00000000000E+00 0.  1.
         11    1    3    3    0    0 -0.32082943902E+01 -0.89152265175E+01 -0.11158422552E+02  0.14638470237E+02  0.51100000000E-03 0. -1.
        -11    1    3    3    0    0 -0.13870582128E+01 -0.87028123296E+01 -0.61382712267E+01  0.10739704225E+02  0.51100000000E-03 0.  1.
        -12    1    3    3    0    0 -0.73412144750E+01 -0.82932635589E+01 -0.17563543370E+02  0.20764144724E+02  0.00000000000E+00 0.  1.
</event>
<event>
 7    1  0.4081218E-008  0.4614232E+02  0.7816164E-02  0.1320468E+00
        -11   -1    0    0    0    0  0.00000000000E+00  0.00000000000E+00  0.45593999997E+02  0.45594000000E+02  0.51100000000E-03 0.  1.
         11   -1    0    0    0    0 -0.00000000000E+00 -0.00000000000E+00 -0.45593999997E+02  0.45594000000E+02  0.51100000000E-03 0. -1.
    9900012    2    1    2    0    0  0.13250729888E+02 -0.37976394890E+02 -0.20281151022E+02  0.46142317652E+02  0.99999990072E+01 0.  0.
        -12    1    1    2    0    0 -0.13250729888E+02  0.37976394890E+02  0.20281151022E+02  0.45045682348E+02  0.00000000000E+00 0.  1.
         11    1    3    3    0    0  0.92043094474E+01 -0.12500584791E+02 -0.76596036098E+01  0.17310501444E+02  0.51100000000E-03 0.  1.
        -11    1    3    3    0    0  0.34814115077E+01 -0.14232294592E+02 -0.75853228817E+01  0.16498956298E+02  0.51100000000E-03 0. -1.
        -12    1    3    3    0    0  0.56500893309E+00 -0.11243515507E+02 -0.50362245308E+01  0.12332859911E+02  0.00000000000E+00 0.  1.
</event>
<event>
 7    1  0.4081218E-008  0.4614232E+02  0.7816164E-02  0.1320468E+00
        -11   -1    0    0    0    0  0.00000000000E+00  0.00000000000E+00  0.45593999997E+02  0.45594000000E+02  0.51100000000E-03 0.  1.
         11   -1    0    0    0    0 -0.00000000000E+00 -0.00000000000E+00 -0.45593999997E+02  0.45594000000E+02  0.51100000000E-03 0. -1.
    9900012    2    1    2    0    0  0.10001645538E+02  0.34623481680E+02 -0.27023972571E+02  0.46142317735E+02  0.99999997648E+01 0.  0.
        -12    1    1    2    0    0 -0.10001645538E+02 -0.34623481680E+02  0.27023972571E+02  0.45045682265E+02  0.00000000000E+00 0.  1.
         11    1    3    3    0    0  0.10847871766E+01  0.90448325518E+01 -0.84970111298E+01  0.12457325456E+02  0.51100000000E-03 0. -1.
        -11    1    3    3    0    0  0.55879542034E+01  0.16639120332E+02 -0.74536316902E+01  0.19069404375E+02  0.51100000000E-03 0.  1.
        -12    1    3    3    0    0  0.33289041583E+01  0.89395287969E+01 -0.11073329751E+02  0.14615587904E+02  0.00000000000E+00 0.  1.
</event>
<event>
 7    1  0.4081218E-008  0.4614232E+02  0.7816164E-02  0.1320468E+00
        -11   -1    0    0    0    0  0.00000000000E+00  0.00000000000E+00  0.45593999997E+02  0.45594000000E+02  0.51100000000E-03 0.  1.
         11   -1    0    0    0    0 -0.00000000000E+00 -0.00000000000E+00 -0.45593999997E+02  0.45594000000E+02  0.51100000000E-03 0. -1.
    9900012    2    1    2    0    0 -0.30047383115E+02 -0.18049496348E+02 -0.28292828330E+02  0.46142315574E+02  0.99999800583E+01 0.  0.
        -12    1    1    2    0    0  0.30047383115E+02  0.18049496348E+02  0.28292828330E+02  0.45045684426E+02  0.00000000000E+00 0.  1.
         11    1    3    3    0    0 -0.50359037248E+01 -0.50351948549E+01 -0.49680966615E+01  0.86830581163E+01  0.51100000000E-03 0. -1.
        -11    1    3    3    0    0 -0.20664520077E+02 -0.12338533625E+02 -0.15953760896E+02  0.28875323185E+02  0.51100000000E-03 0.  1.
        -12    1    3    3    0    0 -0.43469593134E+01 -0.67576786819E+00 -0.73709707722E+01  0.85839342733E+01  0.00000000000E+00 0.  1.
</event>
<event>
 7    1  0.4081218E-008  0.4614232E+02  0.7816164E-02  0.1320468E+00
        -11   -1    0    0    0    0  0.00000000000E+00  0.00000000000E+00  0.45593999997E+02  0.45594000000E+02  0.51100000000E-03 0. -1.
         11   -1    0    0    0    0 -0.00000000000E+00 -0.00000000000E+00 -0.45593999997E+02  0.45594000000E+02  0.51100000000E-03 0.  1.
    9900012    2    1    2    0    0 -0.31556705130E+02  0.17462989770E+02  0.26987622043E+02  0.46142318810E+02  0.10000009562E+02 0.  0.
        -12    1    1    2    0    0  0.31556705130E+02 -0.17462989770E+02 -0.26987622043E+02  0.45045681190E+02  0.00000000000E+00 0.  1.
         11    1    3    3    0    0 -0.37698255296E+01  0.19901303879E+01  0.80623177143E+01  0.91199326024E+01  0.51100000000E-03 0. -1.
        -11    1    3    3    0    0 -0.90045424605E+01  0.49078924627E+01  0.55807344377E+01  0.11675349694E+02  0.51100000000E-03 0.  1.
         12    1    3    3    0    0 -0.18782337140E+02  0.10564966919E+02  0.13344569891E+02  0.25347036514E+02  0.00000000000E+00 0. -1.
</event>
<event>
 7    1  0.4081218E-008  0.4614232E+02  0.7816164E-02  0.1320468E+00
        -11   -1    0    0    0    0  0.00000000000E+00  0.00000000000E+00  0.45593999997E+02  0.45594000000E+02  0.51100000000E-03 0. -1.
         11   -1    0    0    0    0 -0.00000000000E+00 -0.00000000000E+00 -0.45593999997E+02  0.45594000000E+02  0.51100000000E-03 0.  1.
    9900012    2    1    2    0    0  0.47964438291E+01  0.44014030285E+02  0.82989558812E+01  0.46142318697E+02  0.10000008530E+02 0.  0.
        -12    1    1    2    0    0 -0.47964438291E+01 -0.44014030285E+02 -0.82989558812E+01  0.45045681303E+02  0.00000000000E+00 0.  1.
         11    1    3    3    0    0  0.35616337043E+01  0.18779765291E+02  0.30912173427E+01  0.19362862494E+02  0.51100000000E-03 0. -1.
        -11    1    3    3    0    0 -0.19082204582E+01  0.12278222910E+02  0.51418116106E+01  0.13447464074E+02  0.51100000000E-03 0.  1.
        -12    1    3    3    0    0  0.31430305830E+01  0.12956042085E+02  0.65926927877E-01  0.13331992128E+02  0.00000000000E+00 0.  1.
</event>
<event>
 7    1  0.4081218E-008  0.4614232E+02  0.7816164E-02  0.1320468E+00
        -11   -1    0    0    0    0  0.00000000000E+00  0.00000000000E+00  0.45593999997E+02  0.45594000000E+02  0.51100000000E-03 0.  1.
         11   -1    0    0    0    0 -0.00000000000E+00 -0.00000000000E+00 -0.45593999997E+02  0.45594000000E+02  0.51100000000E-03 0. -1.
    9900012    2    1    2    0    0  0.61943220419E+01 -0.26567361345E+02 -0.35845768356E+02  0.46142318482E+02  0.10000006575E+02 0.  0.
        -12    1    1    2    0    0 -0.61943220419E+01  0.26567361345E+02  0.35845768356E+02  0.45045681518E+02  0.00000000000E+00 0.  1.
         11    1    3    3    0    0  0.39109669077E+01 -0.88107147728E+01 -0.11527564188E+02  0.15026945575E+02  0.51100000000E-03 0. -1.
        -11    1    3    3    0    0  0.18448515753E+01 -0.14985678734E+02 -0.23912966874E+02  0.28280806733E+02  0.51100000000E-03 0.  1.
        -12    1    3    3    0    0  0.43850355895E+00 -0.27709678382E+01 -0.40523729369E+00  0.28345661742E+01  0.00000000000E+00 0.  1.
</event>
<event>
 7    1  0.4081218E-008  0.4614232E+02  0.7816164E-02  0.1320468E+00
        -11   -1    0    0    0    0  0.00000000000E+00  0.00000000000E+00  0.45593999997E+02  0.45594000000E+02  0.51100000000E-03 0.  1.
         11   -1    0    0    0    0 -0.00000000000E+00 -0.00000000000E+00 -0.45593999997E+02  0.45594000000E+02  0.51100000000E-03 0. -1.
    9900012    2    1    2    0    0  0.21793164288E+02  0.31242382912E+02 -0.24043396643E+02  0.46142318500E+02  0.10000006735E+02 0.  0.
        -12    1    1    2    0    0 -0.21793164288E+02 -0.31242382912E+02  0.24043396643E+02  0.45045681500E+02  0.00000000000E+00 0.  1.
         11    1    3    3    0    0 -0.12047993060E+00  0.14478770870E+01 -0.17386230391E+01  0.22657611979E+01  0.51100000000E-03 0.  1.
        -11    1    3    3    0    0  0.65664822995E+01  0.12023143831E+02 -0.12084615723E+02  0.18267802681E+02  0.51100000000E-03 0. -1.
         12    1    3    3    0    0  0.15347161920E+02  0.17771361994E+02 -0.10220157880E+02  0.25608754620E+02  0.00000000000E+00 0. -1.
</event>
<event>
 7    1  0.4081218E-008  0.4614232E+02  0.7816164E-02  0.1320468E+00
        -11   -1    0    0    0    0  0.00000000000E+00  0.00000000000E+00  0.45593999997E+02  0.45594000000E+02  0.51100000000E-03 0.  1.
         11   -1    0    0    0    0 -0.00000000000E+00 -0.00000000000E+00 -0.45593999997E+02  0.45594000000E+02  0.51100000000E-03 0. -1.
    9900012    2    1    2    0    0  0.34032284757E+02 -0.14464795026E+02 -0.25723271998E+02  0.46142318484E+02  0.10000006594E+02 0.  0.
        -12    1    1    2    0    0 -0.34032284757E+02  0.14464795026E+02  0.25723271998E+02  0.45045681516E+02  0.00000000000E+00 0.  1.
         11    1    3    3    0    0  0.20126785389E+02 -0.10494922701E+02 -0.13592441766E+02  0.26457236553E+02  0.51100000000E-03 0. -1.
        -11    1    3    3    0    0  0.60061948093E+01 -0.35046055104E+01 -0.84908746931E+01  0.10975043926E+02  0.51100000000E-03 0.  1.
        -12    1    3    3    0    0  0.78993045587E+01 -0.46526681463E+00 -0.36399555388E+01  0.87100380048E+01  0.00000000000E+00 0.  1.
</event>
<event>
 7    1  0.4081218E-008  0.4614232E+02  0.7816164E-02  0.1320468E+00
        -11   -1    0    0    0    0  0.00000000000E+00  0.00000000000E+00  0.45593999997E+02  0.45594000000E+02  0.51100000000E-03 0.  1.
         11   -1    0    0    0    0 -0.00000000000E+00 -0.00000000000E+00 -0.45593999997E+02  0.45594000000E+02  0.51100000000E-03 0. -1.
    9900012    2    1    2    0    0  0.56870281470E+01  0.20172893604E+02 -0.39872616627E+02  0.46142317830E+02  0.10000000631E+02 0.  0.
        -12    1    1    2    0    0 -0.56870281470E+01 -0.20172893604E+02  0.39872616627E+02  0.45045682170E+02  0.00000000000E+00 0.  1.
         11    1    3    3    0    0  0.15393499758E+01  0.50984002328E+00 -0.19148587019E+01  0.25092268344E+01  0.51100000000E-03 0. -1.
        -11    1    3    3    0    0 -0.17497388921E+00  0.12134801539E+02 -0.16472821887E+02  0.20460642352E+02  0.51100000000E-03 0.  1.
        -12    1    3    3    0    0  0.43226520604E+01  0.75282520412E+01 -0.21484936037E+02  0.23172448644E+02  0.00000000000E+00 0.  1.
</event>
<event>
 7    1  0.4081218E-008  0.4614232E+02  0.7816164E-02  0.1320468E+00
        -11   -1    0    0    0    0  0.00000000000E+00  0.00000000000E+00  0.45593999997E+02  0.45594000000E+02  0.51100000000E-03 0.  1.
         11   -1    0    0    0    0 -0.00000000000E+00 -0.00000000000E+00 -0.45593999997E+02  0.45594000000E+02  0.51100000000E-03 0. -1.
    9900012    2    1    2    0    0  0.19204642722E+02 -0.17799222226E+02 -0.36653548113E+02  0.46142320926E+02  0.10000028858E+02 0.  0.
        -12    1    1    2    0    0 -0.19204642722E+02  0.17799222226E+02  0.36653548113E+02  0.45045679074E+02  0.00000000000E+00 0.  1.
         11    1    3    3    0    0  0.79717133191E+01 -0.58151242584E+01 -0.92684130908E+01  0.13537627741E+02  0.51100000000E-03 0. -1.
        -11    1    3    3    0    0  0.22103743838E+01 -0.51717860903E+01 -0.49949682741E+01  0.75221562468E+01  0.51100000000E-03 0.  1.
         12    1    3    3    0    0  0.90225550195E+01 -0.68123118775E+01 -0.22390166749E+02  0.25082536938E+02  0.00000000000E+00 0. -1.
</event>
<event>
 7    1  0.4081218E-008  0.4614232E+02  0.7816164E-02  0.1320468E+00
        -11   -1    0    0    0    0  0.00000000000E+00  0.00000000000E+00  0.45593999997E+02  0.45594000000E+02  0.51100000000E-03 0. -1.
         11   -1    0    0    0    0 -0.00000000000E+00 -0.00000000000E+00 -0.45593999997E+02  0.45594000000E+02  0.51100000000E-03 0.  1.
    9900012    2    1    2    0    0  0.32421056664E+02 -0.47924582603E+01  0.30903404588E+02  0.46142323332E+02  0.10000050798E+02 0.  0.
        -12    1    1    2    0    0 -0.32421056664E+02  0.47924582603E+01 -0.30903404588E+02  0.45045676668E+02  0.00000000000E+00 0.  1.
         11    1    3    3    0    0  0.24454682169E+01 -0.23017589336E+01  0.59771211040E+01  0.68559744706E+01  0.51100000000E-03 0. -1.
        -11    1    3    3    0    0  0.13943893586E+02  0.42655256675E+00  0.97603486424E+01  0.17025819255E+02  0.51100000000E-03 0.  1.
         12    1    3    3    0    0  0.16031694861E+02 -0.29172518934E+01  0.15165934841E+02  0.22260529606E+02  0.00000000000E+00 0. -1.
</event>
<event>
 7    1  0.4081218E-008  0.4614232E+02  0.7816164E-02  0.1320468E+00
        -11   -1    0    0    0    0  0.00000000000E+00  0.00000000000E+00  0.45593999997E+02  0.45594000000E+02  0.51100000000E-03 0.  1.
         11   -1    0    0    0    0 -0.00000000000E+00 -0.00000000000E+00 -0.45593999997E+02  0.45594000000E+02  0.51100000000E-03 0. -1.
    9900012    2    1    2    0    0  0.39051064125E+02  0.21930871058E+02  0.48130039666E+01  0.46142315169E+02  0.99999763659E+01 0.  0.
        -12    1    1    2    0    0 -0.39051064125E+02 -0.21930871058E+02 -0.48130039666E+01  0.45045684831E+02  0.00000000000E+00 0.  1.
         11    1    3    3    0    0  0.96599074579E+01  0.35849942329E+01  0.17181822825E+01  0.10445963161E+02  0.51100000000E-03 0. -1.
        -11    1    3    3    0    0  0.25640329377E+02  0.12485969595E+02  0.14994857639E+01  0.28558262992E+02  0.51100000000E-03 0.  1.
        -12    1    3    3    0    0  0.37508272905E+01  0.58599072303E+01  0.15953359202E+01  0.71380890166E+01  0.00000000000E+00 0.  1.
</event>
<event>
 7    1  0.4081218E-008  0.4614232E+02  0.7816164E-02  0.1320468E+00
        -11   -1    0    0    0    0  0.00000000000E+00  0.00000000000E+00  0.45593999997E+02  0.45594000000E+02  0.51100000000E-03 0.  1.
         11   -1    0    0    0    0 -0.00000000000E+00 -0.00000000000E+00 -0.45593999997E+02  0.45594000000E+02  0.51100000000E-03 0. -1.
    9900012    2    1    2    0    0 -0.25961971605E+02 -0.36797685639E+02  0.10098780180E+01  0.46142317725E+02  0.99999996718E+01 0.  0.
        -12    1    1    2    0    0  0.25961971605E+02  0.36797685639E+02 -0.10098780180E+01  0.45045682275E+02  0.00000000000E+00 0.  1.
         11    1    3    3    0    0 -0.62908982045E+01 -0.10590560963E+02 -0.17450115575E+01  0.12441079026E+02  0.51100000000E-03 0. -1.
        -11    1    3    3    0    0 -0.17818597338E+01 -0.52838340355E+00  0.14863934168E+01  0.23798274691E+01  0.51100000000E-03 0.  1.
        -12    1    3    3    0    0 -0.17889213666E+02 -0.25678741273E+02  0.12684961586E+01  0.31321411230E+02  0.00000000000E+00 0.  1.
</event>
<event>
 7    1  0.4081218E-008  0.4614232E+02  0.7816164E-02  0.1320468E+00
        -11   -1    0    0    0    0  0.00000000000E+00  0.00000000000E+00  0.45593999997E+02  0.45594000000E+02  0.51100000000E-03 0.  1.
         11   -1    0    0    0    0 -0.00000000000E+00 -0.00000000000E+00 -0.45593999997E+02  0.45594000000E+02  0.51100000000E-03 0. -1.
    9900012    2    1    2    0    0  0.35798674193E+02  0.10474225433E+02 -0.25255874321E+02  0.46142315855E+02  0.99999826177E+01 0.  0.
        -12    1    1    2    0    0 -0.35798674193E+02 -0.10474225433E+02  0.25255874321E+02  0.45045684145E+02  0.00000000000E+00 0.  1.
         11    1    3    3    0    0  0.17347850535E+02  0.48339399864E+01 -0.11263010313E+02  0.21240769656E+02  0.51100000000E-03 0. -1.
        -11    1    3    3    0    0  0.18517266422E+02  0.54549720470E+01 -0.11642915740E+02  0.22543366274E+02  0.51100000000E-03 0.  1.
        -12    1    3    3    0    0 -0.66442764512E-01  0.18531339935E+00 -0.23499482684E+01  0.23581799255E+01  0.00000000000E+00 0.  1.
</event>
<event>
 7    1  0.4081218E-008  0.4614232E+02  0.7816164E-02  0.1320468E+00
        -11   -1    0    0    0    0  0.00000000000E+00  0.00000000000E+00  0.45593999997E+02  0.45594000000E+02  0.51100000000E-03 0.  1.
         11   -1    0    0    0    0 -0.00000000000E+00 -0.00000000000E+00 -0.45593999997E+02  0.45594000000E+02  0.51100000000E-03 0. -1.
    9900012    2    1    2    0    0 -0.75510161636E+01  0.39056086467E+02 -0.21135701340E+02  0.46142316451E+02  0.99999880574E+01 0.  0.
        -12    1    1    2    0    0  0.75510161636E+01 -0.39056086467E+02  0.21135701340E+02  0.45045683549E+02  0.00000000000E+00 0.  1.
         11    1    3    3    0    0 -0.34907237418E+01  0.24028800452E+02 -0.14809048570E+02  0.28440751102E+02  0.51100000000E-03 0. -1.
        -11    1    3    3    0    0  0.10399315380E+01  0.54589495778E+00 -0.55825002164E+00  0.13004238757E+01  0.51100000000E-03 0.  1.
         12    1    3    3    0    0 -0.51002239598E+01  0.14481391057E+02 -0.57684027486E+01  0.16401141474E+02  0.00000000000E+00 0. -1.
</event>
<event>
 7    1  0.4081218E-008  0.4614232E+02  0.7816164E-02  0.1320468E+00
        -11   -1    0    0    0    0  0.00000000000E+00  0.00000000000E+00  0.45593999997E+02  0.45594000000E+02  0.51100000000E-03 0.  1.
         11   -1    0    0    0    0 -0.00000000000E+00 -0.00000000000E+00 -0.45593999997E+02  0.45594000000E+02  0.51100000000E-03 0. -1.
    9900012    2    1    2    0    0  0.40561828977E+02  0.55321457038E+01 -0.18794866922E+02  0.46142316204E+02  0.99999858008E+01 0.  0.
        -12    1    1    2    0    0 -0.40561828977E+02 -0.55321457038E+01  0.18794866922E+02  0.45045683796E+02  0.00000000000E+00 0.  1.
         11    1    3    3    0    0  0.82631962194E+01 -0.10244045496E+01 -0.52016655939E+01  0.98176953331E+01  0.51100000000E-03 0. -1.
        -11    1    3    3    0    0  0.15532022306E+02  0.20119815513E+01 -0.29068498056E+01  0.15929267489E+02  0.51100000000E-03 0.  1.
         12    1    3    3    0    0  0.16766610452E+02  0.45445687021E+01 -0.10686351522E+02  0.20395353382E+02  0.00000000000E+00 0. -1.
</event>
<event>
 7    1  0.4081218E-008  0.4614232E+02  0.7816164E-02  0.1320468E+00
        -11   -1    0    0    0    0  0.00000000000E+00  0.00000000000E+00  0.45593999997E+02  0.45594000000E+02  0.51100000000E-03 0. -1.
         11   -1    0    0    0    0 -0.00000000000E+00 -0.00000000000E+00 -0.45593999997E+02  0.45594000000E+02  0.51100000000E-03 0.  1.
    9900012    2    1    2    0    0  0.78926477122E+01  0.41954376594E+00  0.44346855312E+02  0.46142317843E+02  0.10000000750E+02 0.  0.
        -12    1    1    2    0    0 -0.78926477122E+01 -0.41954376594E+00 -0.44346855312E+02  0.45045682157E+02  0.00000000000E+00 0.  1.
         11    1    3    3    0    0  0.14298568130E+00  0.25535691506E+00  0.21269009300E+02  0.21271022752E+02  0.51100000000E-03 0. -1.
        -11    1    3    3    0    0  0.77995142776E+01 -0.39604903501E+00  0.23016727203E+02  0.24305534539E+02  0.51100000000E-03 0.  1.
         12    1    3    3    0    0 -0.49852246689E-01  0.56023588590E+00  0.61118809347E-01  0.56576055289E+00  0.00000000000E+00 0. -1.
</event>
<event>
 7    1  0.4081218E-008  0.4614232E+02  0.7816164E-02  0.1320468E+00
        -11   -1    0    0    0    0  0.00000000000E+00  0.00000000000E+00  0.45593999997E+02  0.45594000000E+02  0.51100000000E-03 0.  1.
         11   -1    0    0    0    0 -0.00000000000E+00 -0.00000000000E+00 -0.45593999997E+02  0.45594000000E+02  0.51100000000E-03 0. -1.
    9900012    2    1    2    0    0  0.39749150457E+02 -0.18674728158E+02 -0.10018634499E+02  0.46142317953E+02  0.10000001753E+02 0.  0.
        -12    1    1    2    0    0 -0.39749150457E+02  0.18674728158E+02  0.10018634499E+02  0.45045682047E+02  0.00000000000E+00 0.  1.
         11    1    3    3    0    0  0.15763508992E+02 -0.40580338700E+01 -0.25260832957E+01  0.16472308634E+02  0.51100000000E-03 0. -1.
        -11    1    3    3    0    0  0.10469683165E+01 -0.19178070820E+01  0.53489867003E+00  0.22494985014E+01  0.51100000000E-03 0.  1.
        -12    1    3    3    0    0  0.22938673148E+02 -0.12698887206E+02 -0.80274498734E+01  0.27420510818E+02  0.00000000000E+00 0.  1.
</event>
<event>
 7    1  0.4081218E-008  0.4614232E+02  0.7816164E-02  0.1320468E+00
        -11   -1    0    0    0    0  0.00000000000E+00  0.00000000000E+00  0.45593999997E+02  0.45594000000E+02  0.51100000000E-03 0.  1.
         11   -1    0    0    0    0 -0.00000000000E+00 -0.00000000000E+00 -0.45593999997E+02  0.45594000000E+02  0.51100000000E-03 0. -1.
    9900012    2    1    2    0    0 -0.35796029162E+02 -0.12163637761E+02 -0.24490887787E+02  0.46142319053E+02  0.10000011784E+02 0.  0.
        -12    1    1    2    0    0  0.35796029162E+02  0.12163637761E+02  0.24490887787E+02  0.45045680947E+02  0.00000000000E+00 0.  1.
         11    1    3    3    0    0 -0.51096852538E+01  0.56545252509E+00 -0.50281771676E+01  0.71910490084E+01  0.51100000000E-03 0.  1.
        -11    1    3    3    0    0 -0.27881302708E+02 -0.12712597956E+02 -0.16244985710E+02  0.34682513583E+02  0.51100000000E-03 0. -1.
         12    1    3    3    0    0 -0.28050412005E+01 -0.16492329445E-01 -0.32177249101E+01  0.42687564619E+01  0.00000000000E+00 0. -1.
</event>
<event>
 7    1  0.4081218E-008  0.4614232E+02  0.7816164E-02  0.1320468E+00
        -11   -1    0    0    0    0  0.00000000000E+00  0.00000000000E+00  0.45593999997E+02  0.45594000000E+02  0.51100000000E-03 0.  1.
         11   -1    0    0    0    0 -0.00000000000E+00 -0.00000000000E+00 -0.45593999997E+02  0.45594000000E+02  0.51100000000E-03 0. -1.
    9900012    2    1    2    0    0 -0.26525095082E+02  0.28566036666E+02 -0.22572425929E+02  0.46142317274E+02  0.99999955610E+01 0.  0.
        -12    1    1    2    0    0  0.26525095082E+02 -0.28566036666E+02  0.22572425929E+02  0.45045682726E+02  0.00000000000E+00 0.  1.
         11    1    3    3    0    0 -0.24851559702E+02  0.24037499586E+02 -0.18851730509E+02  0.39380060302E+02  0.51100000000E-03 0. -1.
        -11    1    3    3    0    0 -0.20994175456E+01  0.14848909894E+01 -0.16083310417E+01  0.30330157075E+01  0.51100000000E-03 0.  1.
        -12    1    3    3    0    0  0.42588216548E+00  0.30436460904E+01 -0.21123643780E+01  0.37292412644E+01  0.00000000000E+00 0.  1.
</event>
<event>
 7    1  0.4081218E-008  0.4614232E+02  0.7816164E-02  0.1320468E+00
        -11   -1    0    0    0    0  0.00000000000E+00  0.00000000000E+00  0.45593999997E+02  0.45594000000E+02  0.51100000000E-03 0. -1.
         11   -1    0    0    0    0 -0.00000000000E+00 -0.00000000000E+00 -0.45593999997E+02  0.45594000000E+02  0.51100000000E-03 0.  1.
    9900012    2    1    2    0    0 -0.21929702413E+02 -0.38596260684E+02 -0.76504960850E+01  0.46142320107E+02  0.10000021391E+02 0.  0.
        -12    1    1    2    0    0  0.21929702413E+02  0.38596260684E+02  0.76504960850E+01  0.45045679893E+02  0.00000000000E+00 0.  1.
         11    1    3    3    0    0 -0.10961462111E+02 -0.22625863030E+02 -0.80776625080E+01  0.26407043782E+02  0.51100000000E-03 0. -1.
        -11    1    3    3    0    0  0.29321566490E+00 -0.35148334858E+00  0.13658170890E+00  0.47767226715E+00  0.51100000000E-03 0.  1.
         12    1    3    3    0    0 -0.11261455967E+02 -0.15618914305E+02  0.29058471402E+00  0.19257604057E+02  0.00000000000E+00 0. -1.
</event>
<event>
 7    1  0.4081218E-008  0.4614232E+02  0.7816164E-02  0.1320468E+00
        -11   -1    0    0    0    0  0.00000000000E+00  0.00000000000E+00  0.45593999997E+02  0.45594000000E+02  0.51100000000E-03 0.  1.
         11   -1    0    0    0    0 -0.00000000000E+00 -0.00000000000E+00 -0.45593999997E+02  0.45594000000E+02  0.51100000000E-03 0. -1.
    9900012    2    1    2    0    0  0.10255460252E+02  0.38282474107E+02 -0.21410072117E+02  0.46142317890E+02  0.10000001173E+02 0.  0.
        -12    1    1    2    0    0 -0.10255460252E+02 -0.38282474107E+02  0.21410072117E+02  0.45045682110E+02  0.00000000000E+00 0.  1.
         11    1    3    3    0    0  0.28389120266E+01  0.98707170109E+01 -0.81459137807E+01  0.13109019315E+02  0.51100000000E-03 0. -1.
        -11    1    3    3    0    0  0.33095155607E+01  0.22015665468E+02 -0.74952783651E+01  0.23490883706E+02  0.51100000000E-03 0.  1.
        -12    1    3    3    0    0  0.41070326645E+01  0.63960916280E+01 -0.57688799710E+01  0.95424148695E+01  0.00000000000E+00 0.  1.
</event>
<event>
 7    1  0.4081218E-008  0.4614232E+02  0.7816164E-02  0.1320468E+00
        -11   -1    0    0    0    0  0.00000000000E+00  0.00000000000E+00  0.45593999997E+02  0.45594000000E+02  0.51100000000E-03 0.  1.
         11   -1    0    0    0    0 -0.00000000000E+00 -0.00000000000E+00 -0.45593999997E+02  0.45594000000E+02  0.51100000000E-03 0. -1.
    9900012    2    1    2    0    0 -0.38699988051E+02  0.47370123325E+01 -0.22560699469E+02  0.46142317393E+02  0.99999966429E+01 0.  0.
        -12    1    1    2    0    0  0.38699988051E+02 -0.47370123325E+01  0.22560699469E+02  0.45045682607E+02  0.00000000000E+00 0.  1.
         11    1    3    3    0    0 -0.14664782160E+02  0.13152561082E+01 -0.11785358053E+02  0.18859490957E+02  0.51100000000E-03 0. -1.
        -11    1    3    3    0    0 -0.36512127471E+00  0.84349475076E+00 -0.14394208075E+01  0.17078435121E+01  0.51100000000E-03 0.  1.
         12    1    3    3    0    0 -0.23670084616E+02  0.25782614736E+01 -0.93359206081E+01  0.25574982924E+02  0.00000000000E+00 0. -1.
</event>
<event>
 7    1  0.4081218E-008  0.4614232E+02  0.7816164E-02  0.1320468E+00
        -11   -1    0    0    0    0  0.00000000000E+00  0.00000000000E+00  0.45593999997E+02  0.45594000000E+02  0.51100000000E-03 0.  1.
         11   -1    0    0    0    0 -0.00000000000E+00 -0.00000000000E+00 -0.45593999997E+02  0.45594000000E+02  0.51100000000E-03 0. -1.
    9900012    2    1    2    0    0  0.20884212392E+02 -0.83934960093E+01 -0.39019385371E+02  0.46142317219E+02  0.99999950555E+01 0.  0.
        -12    1    1    2    0    0 -0.20884212392E+02  0.83934960093E+01  0.39019385371E+02  0.45045682781E+02  0.00000000000E+00 0.  1.
         11    1    3    3    0    0  0.11296413440E+02 -0.30461588287E+01 -0.17849106282E+02  0.21341945449E+02  0.51100000000E-03 0. -1.
        -11    1    3    3    0    0 -0.91988769055E+00 -0.24616469103E+00 -0.54469110376E+00  0.10970319403E+01  0.51100000000E-03 0.  1.
         12    1    3    3    0    0  0.10507686642E+02 -0.51011724896E+01 -0.20625587985E+02  0.23703339829E+02  0.00000000000E+00 0. -1.
</event>
<event>
 7    1  0.4081218E-008  0.4614232E+02  0.7816164E-02  0.1320468E+00
        -11   -1    0    0    0    0  0.00000000000E+00  0.00000000000E+00  0.45593999997E+02  0.45594000000E+02  0.51100000000E-03 0. -1.
         11   -1    0    0    0    0 -0.00000000000E+00 -0.00000000000E+00 -0.45593999997E+02  0.45594000000E+02  0.51100000000E-03 0.  1.
    9900012    2    1    2    0    0 -0.43747496275E+02  0.68690607764E+01 -0.82514157051E+01  0.46142319992E+02  0.10000020339E+02 0.  0.
        -12    1    1    2    0    0  0.43747496275E+02 -0.68690607764E+01  0.82514157051E+01  0.45045680008E+02  0.00000000000E+00 0.  1.
         11    1    3    3    0    0 -0.26678787264E+02  0.57332056142E+01 -0.76181011434E+01  0.28331304272E+02  0.51100000000E-03 0. -1.
        -11    1    3    3    0    0 -0.48877415320E+01  0.21950338967E+01  0.10766159729E+01  0.54650977398E+01  0.51100000000E-03 0.  1.
        -12    1    3    3    0    0 -0.12180967479E+02 -0.10591787346E+01 -0.17099305346E+01  0.12345917979E+02  0.00000000000E+00 0.  1.
</event>
<event>
 7    1  0.4081218E-008  0.4614233E+02  0.7816164E-02  0.1320468E+00
        -11   -1    0    0    0    0  0.00000000000E+00  0.00000000000E+00  0.45593999997E+02  0.45594000000E+02  0.51100000000E-03 0.  1.
         11   -1    0    0    0    0 -0.00000000000E+00 -0.00000000000E+00 -0.45593999997E+02  0.45594000000E+02  0.51100000000E-03 0. -1.
    9900012    2    1    2    0    0  0.23580998063E+02 -0.19968788513E+02 -0.32776460826E+02  0.46142330190E+02  0.10000113338E+02 0.  0.
        -12    1    1    2    0    0 -0.23580998063E+02  0.19968788513E+02  0.32776460826E+02  0.45045669810E+02  0.00000000000E+00 0.  1.
         11    1    3    3    0    0  0.22751815320E+02 -0.18500995128E+02 -0.30111237235E+02  0.42031161407E+02  0.51100000000E-03 0. -1.
        -11    1    3    3    0    0  0.11278165915E+00 -0.62195860932E-01 -0.25239347746E+01  0.25272188341E+01  0.51100000000E-03 0.  1.
        -12    1    3    3    0    0  0.71640108364E+00 -0.14055975244E+01 -0.14128881609E+00  0.15839499496E+01  0.00000000000E+00 0.  1.
</event>
<event>
 7    1  0.4081218E-008  0.4614232E+02  0.7816164E-02  0.1320468E+00
        -11   -1    0    0    0    0  0.00000000000E+00  0.00000000000E+00  0.45593999997E+02  0.45594000000E+02  0.51100000000E-03 0.  1.
         11   -1    0    0    0    0 -0.00000000000E+00 -0.00000000000E+00 -0.45593999997E+02  0.45594000000E+02  0.51100000000E-03 0. -1.
    9900012    2    1    2    0    0  0.25900901662E+02  0.28650148942E+02 -0.23182447393E+02  0.46142316428E+02  0.99999878441E+01 0.  0.
        -12    1    1    2    0    0 -0.25900901662E+02 -0.28650148942E+02  0.23182447393E+02  0.45045683572E+02  0.00000000000E+00 0.  1.
         11    1    3    3    0    0  0.24364043207E+02  0.26751927561E+02 -0.21660804162E+02  0.42171823138E+02  0.51100000000E-03 0. -1.
        -11    1    3    3    0    0 -0.31010403235E+00  0.17625461966E+01 -0.98296364379E+00  0.20418010168E+01  0.51100000000E-03 0.  1.
         12    1    3    3    0    0  0.18469624873E+01  0.13567518486E+00 -0.53867958766E+00  0.19286922729E+01  0.00000000000E+00 0. -1.
</event>
<event>
 7    1  0.4081218E-008  0.4614232E+02  0.7816164E-02  0.1320468E+00
        -11   -1    0    0    0    0  0.00000000000E+00  0.00000000000E+00  0.45593999997E+02  0.45594000000E+02  0.51100000000E-03 0.  1.
         11   -1    0    0    0    0 -0.00000000000E+00 -0.00000000000E+00 -0.45593999997E+02  0.45594000000E+02  0.51100000000E-03 0. -1.
    9900012    2    1    2    0    0 -0.18250584764E+02 -0.25500897260E+02 -0.32337809745E+02  0.46142317139E+02  0.99999943270E+01 0.  0.
        -12    1    1    2    0    0  0.18250584764E+02  0.25500897260E+02  0.32337809745E+02  0.45045682861E+02  0.00000000000E+00 0.  1.
         11    1    3    3    0    0 -0.38547728234E+01 -0.12130771986E+02 -0.10997385499E+02  0.16821337360E+02  0.51100000000E-03 0. -1.
        -11    1    3    3    0    0 -0.11244920394E+02 -0.97459569277E+01 -0.18498156155E+02  0.23740549541E+02  0.51100000000E-03 0.  1.
         12    1    3    3    0    0 -0.31508915466E+01 -0.36241683459E+01 -0.28422680906E+01  0.55804302376E+01  0.00000000000E+00 0. -1.
</event>
<event>
 7    1  0.4081218E-008  0.4614232E+02  0.7816164E-02  0.1320468E+00
        -11   -1    0    0    0    0  0.00000000000E+00  0.00000000000E+00  0.45593999997E+02  0.45594000000E+02  0.51100000000E-03 0.  1.
         11   -1    0    0    0    0 -0.00000000000E+00 -0.00000000000E+00 -0.45593999997E+02  0.45594000000E+02  0.51100000000E-03 0. -1.
    9900012    2    1    2    0    0  0.86390695975E+01  0.14561530182E+02 -0.41742565705E+02  0.46142317894E+02  0.10000001212E+02 0.  0.
        -12    1    1    2    0    0 -0.86390695975E+01 -0.14561530182E+02  0.41742565705E+02  0.45045682106E+02  0.00000000000E+00 0.  1.
         11    1    3    3    0    0  0.56448300039E+01  0.10315139030E+02 -0.16854749347E+02  0.20551125876E+02  0.51100000000E-03 0. -1.
        -11    1    3    3    0    0  0.17099297432E+01  0.40314773275E+01 -0.15266280318E+02  0.15881938930E+02  0.51100000000E-03 0.  1.
         12    1    3    3    0    0  0.12843098504E+01  0.21491382447E+00 -0.96215360404E+01  0.97092530877E+01  0.00000000000E+00 0. -1.
</event>
<event>
 7    1  0.4081218E-008  0.4614232E+02  0.7816164E-02  0.1320468E+00
        -11   -1    0    0    0    0  0.00000000000E+00  0.00000000000E+00  0.45593999997E+02  0.45594000000E+02  0.51100000000E-03 0.  1.
         11   -1    0    0    0    0 -0.00000000000E+00 -0.00000000000E+00 -0.45593999997E+02  0.45594000000E+02  0.51100000000E-03 0. -1.
    9900012    2    1    2    0    0  0.42632356590E+02 -0.52957307751E+01  0.13548092575E+02  0.46142318683E+02  0.10000008405E+02 0.  0.
        -12    1    1    2    0    0 -0.42632356590E+02  0.52957307751E+01 -0.13548092575E+02  0.45045681317E+02  0.00000000000E+00 0.  1.
         11    1    3    3    0    0  0.36048234955E+02 -0.24641240290E+01  0.10391308420E+02  0.37596894041E+02  0.51100000000E-03 0. -1.
        -11    1    3    3    0    0  0.13430580525E+01  0.73813960663E+00  0.10719368247E+01  0.18702149151E+01  0.51100000000E-03 0.  1.
         12    1    3    3    0    0  0.52410635832E+01 -0.35697463527E+01  0.20848473303E+01  0.66752097268E+01  0.00000000000E+00 0. -1.
</event>
<event>
 7    1  0.4081218E-008  0.4614232E+02  0.7816164E-02  0.1320468E+00
        -11   -1    0    0    0    0  0.00000000000E+00  0.00000000000E+00  0.45593999997E+02  0.45594000000E+02  0.51100000000E-03 0. -1.
         11   -1    0    0    0    0 -0.00000000000E+00 -0.00000000000E+00 -0.45593999997E+02  0.45594000000E+02  0.51100000000E-03 0.  1.
    9900012    2    1    2    0    0 -0.11721697602E+02  0.41351338848E+01  0.43296830878E+02  0.46142322172E+02  0.10000040219E+02 0.  0.
        -12    1    1    2    0    0  0.11721697602E+02 -0.41351338848E+01 -0.43296830878E+02  0.45045677828E+02  0.00000000000E+00 0.  1.
         11    1    3    3    0    0 -0.32147752005E+01 -0.91736225732E+00  0.12350483977E+02  0.12794951654E+02  0.51100000000E-03 0. -1.
        -11    1    3    3    0    0 -0.29787345480E+01 -0.65537644554E+00  0.17210947842E+02  0.17479104773E+02  0.51100000000E-03 0.  1.
         12    1    3    3    0    0 -0.55281878531E+01  0.57078725877E+01  0.13735399060E+02  0.15868265745E+02  0.00000000000E+00 0. -1.
</event>
<event>
 7    1  0.4081218E-008  0.4614232E+02  0.7816164E-02  0.1320468E+00
        -11   -1    0    0    0    0  0.00000000000E+00  0.00000000000E+00  0.45593999997E+02  0.45594000000E+02  0.51100000000E-03 0.  1.
         11   -1    0    0    0    0 -0.00000000000E+00 -0.00000000000E+00 -0.45593999997E+02  0.45594000000E+02  0.51100000000E-03 0. -1.
    9900012    2    1    2    0    0 -0.11023434880E+02 -0.17382294710E+02 -0.40068103458E+02  0.46142320954E+02  0.10000029117E+02 0.  0.
        -12    1    1    2    0    0  0.11023434880E+02  0.17382294710E+02  0.40068103458E+02  0.45045679046E+02  0.00000000000E+00 0.  1.
         11    1    3    3    0    0  0.31058346615E+00 -0.27896993213E+01 -0.10920862598E+02  0.11275820348E+02  0.51100000000E-03 0. -1.
        -11    1    3    3    0    0  0.19537002341E+00  0.21784696996E+00 -0.94793882187E+00  0.99207611577E+00  0.51100000000E-03 0.  1.
         12    1    3    3    0    0 -0.11529388369E+02 -0.14810442359E+02 -0.28199302039E+02  0.33874424490E+02  0.00000000000E+00 0. -1.
</event>
<event>
 7    1  0.4081218E-008  0.4614232E+02  0.7816164E-02  0.1320468E+00
        -11   -1    0    0    0    0  0.00000000000E+00  0.00000000000E+00  0.45593999997E+02  0.45594000000E+02  0.51100000000E-03 0.  1.
         11   -1    0    0    0    0 -0.00000000000E+00 -0.00000000000E+00 -0.45593999997E+02  0.45594000000E+02  0.51100000000E-03 0. -1.
    9900012    2    1    2    0    0  0.27407958110E+02  0.23928177406E+02 -0.26558608302E+02  0.46142317447E+02  0.99999971366E+01 0.  0.
        -12    1    1    2    0    0 -0.27407958110E+02 -0.23928177406E+02  0.26558608302E+02  0.45045682553E+02  0.00000000000E+00 0.  1.
         11    1    3    3    0    0  0.12691274330E+02  0.67644732147E+01 -0.80115674532E+01  0.16462434671E+02  0.51100000000E-03 0.  1.
        -11    1    3    3    0    0  0.76181806610E+01  0.12332061778E+02 -0.10373074217E+02  0.17824620424E+02  0.51100000000E-03 0. -1.
         12    1    3    3    0    0  0.70985031192E+01  0.48316424133E+01 -0.81739666316E+01  0.11855262352E+02  0.00000000000E+00 0. -1.
</event>
<event>
 7    1  0.4081218E-008  0.4614232E+02  0.7816164E-02  0.1320468E+00
        -11   -1    0    0    0    0  0.00000000000E+00  0.00000000000E+00  0.45593999997E+02  0.45594000000E+02  0.51100000000E-03 0. -1.
         11   -1    0    0    0    0 -0.00000000000E+00 -0.00000000000E+00 -0.45593999997E+02  0.45594000000E+02  0.51100000000E-03 0.  1.
    9900012    2    1    2    0    0  0.42328190118E+02 -0.30653969399E+01  0.15101030343E+02  0.46142318137E+02  0.10000003425E+02 0.  0.
        -12    1    1    2    0    0 -0.42328190118E+02  0.30653969399E+01 -0.15101030343E+02  0.45045681863E+02  0.00000000000E+00 0.  1.
         11    1    3    3    0    0  0.85722116532E+01 -0.75780196715E+00  0.61338337839E+01  0.10567922861E+02  0.51100000000E-03 0. -1.
        -11    1    3    3    0    0  0.11221481936E+02  0.12635758837E+01  0.72528524407E+00  0.11315667006E+02  0.51100000000E-03 0.  1.
         12    1    3    3    0    0  0.22534496530E+02 -0.35711708565E+01  0.82419113150E+01  0.24258728269E+02  0.00000000000E+00 0. -1.
</event>
<event>
 7    1  0.4081218E-008  0.4614232E+02  0.7816164E-02  0.1320468E+00
        -11   -1    0    0    0    0  0.00000000000E+00  0.00000000000E+00  0.45593999997E+02  0.45594000000E+02  0.51100000000E-03 0. -1.
         11   -1    0    0    0    0 -0.00000000000E+00 -0.00000000000E+00 -0.45593999997E+02  0.45594000000E+02  0.51100000000E-03 0.  1.
    9900012    2    1    2    0    0  0.29501167366E+02 -0.10868180773E+02  0.32259530443E+02  0.46142317258E+02  0.99999954159E+01 0.  0.
        -12    1    1    2    0    0 -0.29501167366E+02  0.10868180773E+02 -0.32259530443E+02  0.45045682742E+02  0.00000000000E+00 0.  1.
         11    1    3    3    0    0  0.10167945457E+01 -0.24411835603E+01  0.27347784889E+01  0.38042426274E+01  0.51100000000E-03 0. -1.
        -11    1    3    3    0    0  0.22539616889E+02 -0.89529322416E+01  0.25147768972E+02  0.34937080727E+02  0.51100000000E-03 0.  1.
        -12    1    3    3    0    0  0.59447559311E+01  0.52593502929E+00  0.43769829823E+01  0.74009939037E+01  0.00000000000E+00 0.  1.
</event>
<event>
 7    1  0.4081218E-008  0.4614232E+02  0.7816164E-02  0.1320468E+00
        -11   -1    0    0    0    0  0.00000000000E+00  0.00000000000E+00  0.45593999997E+02  0.45594000000E+02  0.51100000000E-03 0.  1.
         11   -1    0    0    0    0 -0.00000000000E+00 -0.00000000000E+00 -0.45593999997E+02  0.45594000000E+02  0.51100000000E-03 0. -1.
    9900012    2    1    2    0    0  0.83663658366E+01 -0.12422555335E+02 -0.42482908244E+02  0.46142318174E+02  0.10000003762E+02 0.  0.
        -12    1    1    2    0    0 -0.83663658366E+01  0.12422555335E+02  0.42482908244E+02  0.45045681826E+02  0.00000000000E+00 0.  1.
         11    1    3    3    0    0  0.24645988221E+01 -0.25674248722E+01 -0.85285715746E+01  0.92413446636E+01  0.51100000000E-03 0. -1.
        -11    1    3    3    0    0  0.29482920044E+01  0.10657449935E+01 -0.75639380936E+01  0.81878811593E+01  0.51100000000E-03 0.  1.
        -12    1    3    3    0    0  0.29534750101E+01 -0.10920875456E+02 -0.26390398575E+02  0.28713092351E+02  0.00000000000E+00 0.  1.
</event>
<event>
 7    1  0.4081218E-008  0.4614232E+02  0.7816164E-02  0.1320468E+00
        -11   -1    0    0    0    0  0.00000000000E+00  0.00000000000E+00  0.45593999997E+02  0.45594000000E+02  0.51100000000E-03 0.  1.
         11   -1    0    0    0    0 -0.00000000000E+00 -0.00000000000E+00 -0.45593999997E+02  0.45594000000E+02  0.51100000000E-03 0. -1.
    9900012    2    1    2    0    0 -0.42452535484E+02  0.58683526854E+01 -0.13872929495E+02  0.46142317577E+02  0.99999983173E+01 0.  0.
        -12    1    1    2    0    0  0.42452535484E+02 -0.58683526854E+01  0.13872929495E+02  0.45045682423E+02  0.00000000000E+00 0.  1.
         11    1    3    3    0    0 -0.30441507597E+02  0.58805999025E+01 -0.86774702141E+01  0.32195734648E+02  0.51100000000E-03 0. -1.
        -11    1    3    3    0    0 -0.71372026974E+01 -0.17796432675E+01 -0.47212873525E+01  0.87405575926E+01  0.51100000000E-03 0.  1.
        -12    1    3    3    0    0 -0.48738251895E+01  0.17673960504E+01 -0.47417192795E+00  0.52060253355E+01  0.00000000000E+00 0.  1.
</event>
<event>
 7    1  0.4081218E-008  0.4614232E+02  0.7816164E-02  0.1320468E+00
        -11   -1    0    0    0    0  0.00000000000E+00  0.00000000000E+00  0.45593999997E+02  0.45594000000E+02  0.51100000000E-03 0.  1.
         11   -1    0    0    0    0 -0.00000000000E+00 -0.00000000000E+00 -0.45593999997E+02  0.45594000000E+02  0.51100000000E-03 0. -1.
    9900012    2    1    2    0    0  0.18883407842E+02 -0.21780087441E+02 -0.34614421338E+02  0.46142318018E+02  0.10000002339E+02 0.  0.
        -12    1    1    2    0    0 -0.18883407842E+02  0.21780087441E+02  0.34614421338E+02  0.45045681982E+02  0.00000000000E+00 0.  1.
         11    1    3    3    0    0  0.53220332231E+01 -0.40068406337E+01 -0.64604424036E+01  0.92798774670E+01  0.51100000000E-03 0. -1.
        -11    1    3    3    0    0  0.10239750397E+01  0.85929920215E+00 -0.16101906125E+01  0.20927575278E+01  0.51100000000E-03 0.  1.
         12    1    3    3    0    0  0.12537399579E+02 -0.18632546010E+02 -0.26543788322E+02  0.34769683023E+02  0.00000000000E+00 0. -1.
</event>
<event>
 7    1  0.4081218E-008  0.4614232E+02  0.7816164E-02  0.1320468E+00
        -11   -1    0    0    0    0  0.00000000000E+00  0.00000000000E+00  0.45593999997E+02  0.45594000000E+02  0.51100000000E-03 0. -1.
         11   -1    0    0    0    0 -0.00000000000E+00 -0.00000000000E+00 -0.45593999997E+02  0.45594000000E+02  0.51100000000E-03 0.  1.
    9900012    2    1    2    0    0 -0.33809881651E+02  0.20868038719E+02  0.21225701359E+02  0.46142317239E+02  0.99999952389E+01 0.  0.
        -12    1    1    2    0    0  0.33809881651E+02 -0.20868038719E+02 -0.21225701359E+02  0.45045682761E+02  0.00000000000E+00 0.  1.
         11    1    3    3    0    0 -0.15862910721E+02  0.76218432378E+01  0.58617614955E+01  0.18549519643E+02  0.51100000000E-03 0. -1.
        -11    1    3    3    0    0 -0.18227167149E+02  0.13261666660E+02  0.14807722677E+02  0.26969799332E+02  0.51100000000E-03 0.  1.
        -12    1    3    3    0    0  0.28019621916E+00 -0.15471178248E-01  0.55621718705E+00  0.62299826465E+00  0.00000000000E+00 0.  1.
</event>
<event>
 7    1  0.4081218E-008  0.4614232E+02  0.7816164E-02  0.1320468E+00
        -11   -1    0    0    0    0  0.00000000000E+00  0.00000000000E+00  0.45593999997E+02  0.45594000000E+02  0.51100000000E-03 0.  1.
         11   -1    0    0    0    0 -0.00000000000E+00 -0.00000000000E+00 -0.45593999997E+02  0.45594000000E+02  0.51100000000E-03 0. -1.
    9900012    2    1    2    0    0  0.32254091539E+02 -0.30591287893E+02 -0.72773711061E+01  0.46142318230E+02  0.10000004272E+02 0.  0.
        -12    1    1    2    0    0 -0.32254091539E+02  0.30591287893E+02  0.72773711061E+01  0.45045681770E+02  0.00000000000E+00 0.  1.
         11    1    3    3    0    0  0.26558674799E+02 -0.23769723977E+02 -0.68274210769E+01  0.36290173103E+02  0.51100000000E-03 0. -1.
        -11    1    3    3    0    0  0.29178373447E+01 -0.57183670844E+01  0.10551466761E+01  0.65059074426E+01  0.51100000000E-03 0.  1.
        -12    1    3    3    0    0  0.27775793956E+01 -0.11031968314E+01 -0.15050967053E+01  0.33462376844E+01  0.00000000000E+00 0.  1.
</event>
<event>
 7    1  0.4081218E-008  0.4614232E+02  0.7816164E-02  0.1320468E+00
        -11   -1    0    0    0    0  0.00000000000E+00  0.00000000000E+00  0.45593999997E+02  0.45594000000E+02  0.51100000000E-03 0. -1.
         11   -1    0    0    0    0 -0.00000000000E+00 -0.00000000000E+00 -0.45593999997E+02  0.45594000000E+02  0.51100000000E-03 0.  1.
    9900012    2    1    2    0    0 -0.63768326286E+01  0.58190339193E+00  0.44588237776E+02  0.46142317033E+02  0.99999933636E+01 0.  0.
        -12    1    1    2    0    0  0.63768326286E+01 -0.58190339193E+00 -0.44588237776E+02  0.45045682967E+02  0.00000000000E+00 0.  1.
         11    1    3    3    0    0 -0.29363435300E+01  0.36836011913E+01  0.13987376500E+02  0.14759326973E+02  0.51100000000E-03 0. -1.
        -11    1    3    3    0    0  0.13206106902E+01 -0.84153294214E-01  0.54878213692E+01  0.56451109833E+01  0.51100000000E-03 0.  1.
         12    1    3    3    0    0 -0.47610997888E+01 -0.30175445052E+01  0.25113039907E+02  0.25737879077E+02  0.00000000000E+00 0. -1.
</event>
<event>
 7    1  0.4081218E-008  0.4614232E+02  0.7816164E-02  0.1320468E+00
        -11   -1    0    0    0    0  0.00000000000E+00  0.00000000000E+00  0.45593999997E+02  0.45594000000E+02  0.51100000000E-03 0.  1.
         11   -1    0    0    0    0 -0.00000000000E+00 -0.00000000000E+00 -0.45593999997E+02  0.45594000000E+02  0.51100000000E-03 0. -1.
    9900012    2    1    2    0    0  0.55995140348E+01  0.24680505988E+02 -0.37264345390E+02  0.46142319068E+02  0.10000011918E+02 0.  0.
        -12    1    1    2    0    0 -0.55995140348E+01 -0.24680505988E+02  0.37264345390E+02  0.45045680932E+02  0.00000000000E+00 0.  1.
         11    1    3    3    0    0 -0.52344282515E+00  0.10163774141E+02 -0.18395251787E+02  0.21022882431E+02  0.51100000000E-03 0. -1.
        -11    1    3    3    0    0  0.54202261634E+01  0.11779090098E+02 -0.11901199121E+02  0.17600123749E+02  0.51100000000E-03 0.  1.
         12    1    3    3    0    0  0.70273069658E+00  0.27376417493E+01 -0.69678944830E+01  0.75193128878E+01  0.00000000000E+00 0. -1.
</event>
<event>
 7    1  0.4081218E-008  0.4614232E+02  0.7816164E-02  0.1320468E+00
        -11   -1    0    0    0    0  0.00000000000E+00  0.00000000000E+00  0.45593999997E+02  0.45594000000E+02  0.51100000000E-03 0. -1.
         11   -1    0    0    0    0 -0.00000000000E+00 -0.00000000000E+00 -0.45593999997E+02  0.45594000000E+02  0.51100000000E-03 0.  1.
    9900012    2    1    2    0    0 -0.20240062876E+01 -0.43446800501E+02  0.11721451881E+02  0.46142317527E+02  0.99999978696E+01 0.  0.
        -12    1    1    2    0    0  0.20240062876E+01  0.43446800501E+02 -0.11721451881E+02  0.45045682473E+02  0.00000000000E+00 0.  1.
         11    1    3    3    0    0 -0.33082559719E+01 -0.26805886162E+02  0.79427434642E+01  0.28152926393E+02  0.51100000000E-03 0. -1.
        -11    1    3    3    0    0  0.11283308007E+01 -0.18709481868E+01 -0.10837059663E+01  0.24388514502E+01  0.51100000000E-03 0.  1.
        -12    1    3    3    0    0  0.15591888351E+00 -0.14769966152E+02  0.48624143833E+01  0.15550539684E+02  0.00000000000E+00 0.  1.
</event>
<event>
 7    1  0.4081218E-008  0.4614232E+02  0.7816164E-02  0.1320468E+00
        -11   -1    0    0    0    0  0.00000000000E+00  0.00000000000E+00  0.45593999997E+02  0.45594000000E+02  0.51100000000E-03 0. -1.
         11   -1    0    0    0    0 -0.00000000000E+00 -0.00000000000E+00 -0.45593999997E+02  0.45594000000E+02  0.51100000000E-03 0.  1.
    9900012    2    1    2    0    0  0.20079355121E+02 -0.36034585566E+02  0.18095343936E+02  0.46142319507E+02  0.10000015917E+02 0.  0.
        -12    1    1    2    0    0 -0.20079355121E+02  0.36034585566E+02 -0.18095343936E+02  0.45045680493E+02  0.00000000000E+00 0.  1.
         11    1    3    3    0    0  0.28792193626E+00  0.21285482320E+00  0.97487704390E-02  0.35819201106E+00  0.51100000000E-03 0. -1.
        -11    1    3    3    0    0 -0.15325333842E+00  0.63457893710E-01  0.92981588608E+00  0.94449527958E+00  0.51100000000E-03 0.  1.
         12    1    3    3    0    0  0.19944686523E+02 -0.36310898283E+02  0.17155779280E+02  0.44839632216E+02  0.00000000000E+00 0. -1.
</event>
<event>
 7    1  0.4081218E-008  0.4614232E+02  0.7816164E-02  0.1320468E+00
        -11   -1    0    0    0    0  0.00000000000E+00  0.00000000000E+00  0.45593999997E+02  0.45594000000E+02  0.51100000000E-03 0.  1.
         11   -1    0    0    0    0 -0.00000000000E+00 -0.00000000000E+00 -0.45593999997E+02  0.45594000000E+02  0.51100000000E-03 0. -1.
    9900012    2    1    2    0    0 -0.40855302839E+02 -0.14732696099E+02 -0.11954302457E+02  0.46142318168E+02  0.10000003712E+02 0.  0.
        -12    1    1    2    0    0  0.40855302839E+02  0.14732696099E+02  0.11954302457E+02  0.45045681832E+02  0.00000000000E+00 0.  1.
         11    1    3    3    0    0 -0.82959211279E+01 -0.41491850019E+01 -0.42985719513E+01  0.10223295194E+02  0.51100000000E-03 0. -1.
        -11    1    3    3    0    0 -0.75983414708E+01 -0.59825483481E+01 -0.13376173035E+01  0.97629349151E+01  0.51100000000E-03 0.  1.
        -12    1    3    3    0    0 -0.24961040241E+02 -0.46009627491E+01 -0.63181132024E+01  0.26156088059E+02  0.00000000000E+00 0.  1.
</event>
<event>
 7    1  0.4081218E-008  0.4614232E+02  0.7816164E-02  0.1320468E+00
        -11   -1    0    0    0    0  0.00000000000E+00  0.00000000000E+00  0.45593999997E+02  0.45594000000E+02  0.51100000000E-03 0.  1.
         11   -1    0    0    0    0 -0.00000000000E+00 -0.00000000000E+00 -0.45593999997E+02  0.45594000000E+02  0.51100000000E-03 0. -1.
    9900012    2    1    2    0    0 -0.40404112851E+02 -0.17674205865E+02 -0.91784315017E+01  0.46142317709E+02  0.99999995241E+01 0.  0.
        -12    1    1    2    0    0  0.40404112851E+02  0.17674205865E+02  0.91784315017E+01  0.45045682291E+02  0.00000000000E+00 0.  1.
         11    1    3    3    0    0 -0.12619132801E+02 -0.59568806529E+01 -0.37015652731E+01  0.14437053907E+02  0.51100000000E-03 0.  1.
        -11    1    3    3    0    0 -0.54444346182E+01 -0.39083305917E+01  0.18112568254E+01  0.69424468219E+01  0.51100000000E-03 0. -1.
         12    1    3    3    0    0 -0.22340545431E+02 -0.78089946208E+01 -0.72881230540E+01  0.24762816980E+02  0.00000000000E+00 0. -1.
</event>
<event>
 7    1  0.4081218E-008  0.4614232E+02  0.7816164E-02  0.1320468E+00
        -11   -1    0    0    0    0  0.00000000000E+00  0.00000000000E+00  0.45593999997E+02  0.45594000000E+02  0.51100000000E-03 0.  1.
         11   -1    0    0    0    0 -0.00000000000E+00 -0.00000000000E+00 -0.45593999997E+02  0.45594000000E+02  0.51100000000E-03 0. -1.
    9900012    2    1    2    0    0  0.20844806713E+02  0.39789891875E+02 -0.33722446973E+01  0.46142317669E+02  0.99999991645E+01 0.  0.
        -12    1    1    2    0    0 -0.20844806713E+02 -0.39789891875E+02  0.33722446973E+01  0.45045682331E+02  0.00000000000E+00 0.  1.
         11    1    3    3    0    0  0.98953892136E+01  0.22053262698E+02  0.21069272630E+01  0.24263228682E+02  0.51100000000E-03 0. -1.
        -11    1    3    3    0    0  0.55615134285E+00 -0.70984528497E-01 -0.91250049177E-01  0.56804044930E+00  0.51100000000E-03 0.  1.
         12    1    3    3    0    0  0.10393266157E+02  0.17807613706E+02 -0.53879219111E+01  0.21311048539E+02  0.00000000000E+00 0. -1.
</event>
<event>
 7    1  0.4081218E-008  0.4614232E+02  0.7816164E-02  0.1320468E+00
        -11   -1    0    0    0    0  0.00000000000E+00  0.00000000000E+00  0.45593999997E+02  0.45594000000E+02  0.51100000000E-03 0. -1.
         11   -1    0    0    0    0 -0.00000000000E+00 -0.00000000000E+00 -0.45593999997E+02  0.45594000000E+02  0.51100000000E-03 0.  1.
    9900012    2    1    2    0    0  0.26149468917E+01 -0.43386339270E+02  0.11827977535E+02  0.46142318352E+02  0.10000005392E+02 0.  0.
        -12    1    1    2    0    0 -0.26149468917E+01  0.43386339270E+02 -0.11827977535E+02  0.45045681648E+02  0.00000000000E+00 0.  1.
         11    1    3    3    0    0  0.44387992874E+01 -0.17433714092E+02  0.33747129800E+01  0.18303715855E+02  0.51100000000E-03 0. -1.
        -11    1    3    3    0    0  0.92979780892E+00 -0.69723848156E+01  0.42438948338E+00  0.70468986567E+01  0.51100000000E-03 0.  1.
        -12    1    3    3    0    0 -0.27536502046E+01 -0.18980240363E+02  0.80288750712E+01  0.20791703840E+02  0.00000000000E+00 0.  1.
</event>
<event>
 7    1  0.4081218E-008  0.4614232E+02  0.7816164E-02  0.1320468E+00
        -11   -1    0    0    0    0  0.00000000000E+00  0.00000000000E+00  0.45593999997E+02  0.45594000000E+02  0.51100000000E-03 0.  1.
         11   -1    0    0    0    0 -0.00000000000E+00 -0.00000000000E+00 -0.45593999997E+02  0.45594000000E+02  0.51100000000E-03 0. -1.
    9900012    2    1    2    0    0  0.29896854514E+02 -0.68833086732E+01 -0.32983504184E+02  0.46142318782E+02  0.10000009309E+02 0.  0.
        -12    1    1    2    0    0 -0.29896854514E+02  0.68833086732E+01  0.32983504184E+02  0.45045681218E+02  0.00000000000E+00 0.  1.
         11    1    3    3    0    0  0.28429442058E+01  0.67663429257E+00 -0.19990790872E+01  0.35406896476E+01  0.51100000000E-03 0. -1.
        -11    1    3    3    0    0  0.22995123895E+02 -0.61549587371E+01 -0.21043219487E+02  0.31772257186E+02  0.51100000000E-03 0.  1.
        -12    1    3    3    0    0  0.40587864132E+01 -0.14049842287E+01 -0.99412056094E+01  0.10829371949E+02  0.00000000000E+00 0.  1.
</event>
<event>
 7    1  0.4081218E-008  0.4614232E+02  0.7816164E-02  0.1320468E+00
        -11   -1    0    0    0    0  0.00000000000E+00  0.00000000000E+00  0.45593999997E+02  0.45594000000E+02  0.51100000000E-03 0.  1.
         11   -1    0    0    0    0 -0.00000000000E+00 -0.00000000000E+00 -0.45593999997E+02  0.45594000000E+02  0.51100000000E-03 0. -1.
    9900012    2    1    2    0    0 -0.29496249954E+02 -0.18832995029E+02  0.28361998967E+02  0.46142318204E+02  0.10000004035E+02 0.  0.
        -12    1    1    2    0    0  0.29496249954E+02  0.18832995029E+02 -0.28361998967E+02  0.45045681796E+02  0.00000000000E+00 0.  1.
         11    1    3    3    0    0 -0.59338469911E+01 -0.49777547328E+01  0.94072127630E+01  0.12185410724E+02  0.51100000000E-03 0.  1.
        -11    1    3    3    0    0 -0.11384643456E+02 -0.10345269487E+02  0.11928762902E+02  0.19466126785E+02  0.51100000000E-03 0. -1.
         12    1    3    3    0    0 -0.12177759507E+02 -0.35099708086E+01  0.70260233018E+01  0.14490780694E+02  0.00000000000E+00 0. -1.
</event>
<event>
 7    1  0.4081218E-008  0.4614232E+02  0.7816164E-02  0.1320468E+00
        -11   -1    0    0    0    0  0.00000000000E+00  0.00000000000E+00  0.45593999997E+02  0.45594000000E+02  0.51100000000E-03 0.  1.
         11   -1    0    0    0    0 -0.00000000000E+00 -0.00000000000E+00 -0.45593999997E+02  0.45594000000E+02  0.51100000000E-03 0. -1.
    9900012    2    1    2    0    0  0.69454612237E+00  0.79646189979E+01 -0.44330528963E+02  0.46142319317E+02  0.10000014184E+02 0.  0.
        -12    1    1    2    0    0 -0.69454612237E+00 -0.79646189979E+01  0.44330528963E+02  0.45045680683E+02  0.00000000000E+00 0.  1.
         11    1    3    3    0    0  0.28518807333E+00  0.49078169276E+01 -0.14023831826E+02  0.14860547049E+02  0.51100000000E-03 0. -1.
        -11    1    3    3    0    0  0.33948193474E+01  0.80894214879E+00 -0.90596768152E+01  0.97086008291E+01  0.51100000000E-03 0.  1.
        -12    1    3    3    0    0 -0.29854612983E+01  0.22478599215E+01 -0.21247020321E+02  0.21573171439E+02  0.00000000000E+00 0.  1.
</event>
<event>
 7    1  0.4081218E-008  0.4614232E+02  0.7816164E-02  0.1320468E+00
        -11   -1    0    0    0    0  0.00000000000E+00  0.00000000000E+00  0.45593999997E+02  0.45594000000E+02  0.51100000000E-03 0.  1.
         11   -1    0    0    0    0 -0.00000000000E+00 -0.00000000000E+00 -0.45593999997E+02  0.45594000000E+02  0.51100000000E-03 0. -1.
    9900012    2    1    2    0    0 -0.12214182761E+02 -0.32687020267E+02 -0.28486589485E+02  0.46142319465E+02  0.10000015534E+02 0.  0.
        -12    1    1    2    0    0  0.12214182761E+02  0.32687020267E+02  0.28486589485E+02  0.45045680535E+02  0.00000000000E+00 0.  1.
         11    1    3    3    0    0 -0.33131977394E+01 -0.55755812117E+01 -0.20588604041E+01  0.68046521979E+01  0.51100000000E-03 0. -1.
        -11    1    3    3    0    0 -0.16023543208E+01 -0.79633478560E+01 -0.43457770586E+01  0.92123952884E+01  0.51100000000E-03 0.  1.
         12    1    3    3    0    0 -0.72986307008E+01 -0.19148091199E+02 -0.22081952022E+02  0.30125271978E+02  0.00000000000E+00 0. -1.
</event>
<event>
 7    1  0.4081218E-008  0.4614232E+02  0.7816164E-02  0.1320468E+00
        -11   -1    0    0    0    0  0.00000000000E+00  0.00000000000E+00  0.45593999997E+02  0.45594000000E+02  0.51100000000E-03 0.  1.
         11   -1    0    0    0    0 -0.00000000000E+00 -0.00000000000E+00 -0.45593999997E+02  0.45594000000E+02  0.51100000000E-03 0. -1.
    9900012    2    1    2    0    0 -0.11375750805E+02 -0.26399849131E+02 -0.34680741952E+02  0.46142316491E+02  0.99999884167E+01 0.  0.
        -12    1    1    2    0    0  0.11375750805E+02  0.26399849131E+02  0.34680741952E+02  0.45045683509E+02  0.00000000000E+00 0.  1.
         11    1    3    3    0    0 -0.36488542974E+01 -0.19913092773E+01 -0.25882428030E+01  0.48967796959E+01  0.51100000000E-03 0. -1.
        -11    1    3    3    0    0 -0.24604018098E+01 -0.11987632883E+02 -0.17698926972E+02  0.21517642423E+02  0.51100000000E-03 0.  1.
         12    1    3    3    0    0 -0.52664946979E+01 -0.12420906970E+02 -0.14393572176E+02  0.19727894372E+02  0.00000000000E+00 0. -1.
</event>
<event>
 7    1  0.4081218E-008  0.4614232E+02  0.7816164E-02  0.1320468E+00
        -11   -1    0    0    0    0  0.00000000000E+00  0.00000000000E+00  0.45593999997E+02  0.45594000000E+02  0.51100000000E-03 0.  1.
         11   -1    0    0    0    0 -0.00000000000E+00 -0.00000000000E+00 -0.45593999997E+02  0.45594000000E+02  0.51100000000E-03 0. -1.
    9900012    2    1    2    0    0  0.17484054139E+02  0.17267384266E+02 -0.37752599185E+02  0.46142318145E+02  0.10000003504E+02 0.  0.
        -12    1    1    2    0    0 -0.17484054139E+02 -0.17267384266E+02  0.37752599185E+02  0.45045681855E+02  0.00000000000E+00 0.  1.
         11    1    3    3    0    0  0.11754790033E+02  0.53394301514E+01 -0.17655482706E+02  0.21872372365E+02  0.51100000000E-03 0. -1.
        -11    1    3    3    0    0  0.24472445900E+01  0.22876264333E+01 -0.39445637842E+01  0.51751158915E+01  0.51100000000E-03 0.  1.
        -12    1    3    3    0    0  0.32820195168E+01  0.96403276813E+01 -0.16152552695E+02  0.19094829889E+02  0.00000000000E+00 0.  1.
</event>
<event>
 7    1  0.4081218E-008  0.4614232E+02  0.7816164E-02  0.1320468E+00
        -11   -1    0    0    0    0  0.00000000000E+00  0.00000000000E+00  0.45593999997E+02  0.45594000000E+02  0.51100000000E-03 0.  1.
         11   -1    0    0    0    0 -0.00000000000E+00 -0.00000000000E+00 -0.45593999997E+02  0.45594000000E+02  0.51100000000E-03 0. -1.
    9900012    2    1    2    0    0  0.39287222427E+02  0.60640595470E+01 -0.21186195063E+02  0.46142317349E+02  0.99999962421E+01 0.  0.
        -12    1    1    2    0    0 -0.39287222427E+02 -0.60640595470E+01  0.21186195063E+02  0.45045682651E+02  0.00000000000E+00 0.  1.
         11    1    3    3    0    0  0.97918498046E+01  0.95906249459E+00 -0.19004483143E+01  0.10020570219E+02  0.51100000000E-03 0. -1.
        -11    1    3    3    0    0  0.13646644945E+02  0.23876110203E+01 -0.53763750886E+01  0.14860585923E+02  0.51100000000E-03 0.  1.
         12    1    3    3    0    0  0.15848727678E+02  0.27173860321E+01 -0.13909371660E+02  0.21261161206E+02  0.00000000000E+00 0. -1.
</event>
<event>
 7    1  0.4081218E-008  0.4614232E+02  0.7816164E-02  0.1320468E+00
        -11   -1    0    0    0    0  0.00000000000E+00  0.00000000000E+00  0.45593999997E+02  0.45594000000E+02  0.51100000000E-03 0. -1.
         11   -1    0    0    0    0 -0.00000000000E+00 -0.00000000000E+00 -0.45593999997E+02  0.45594000000E+02  0.51100000000E-03 0.  1.
    9900012    2    1    2    0    0  0.22766788027E+02 -0.28752752416E+02  0.26154657465E+02  0.46142317458E+02  0.99999972376E+01 0.  0.
        -12    1    1    2    0    0 -0.22766788027E+02  0.28752752416E+02 -0.26154657465E+02  0.45045682542E+02  0.00000000000E+00 0.  1.
         11    1    3    3    0    0  0.60353673355E+01 -0.12871554161E+02  0.77835713352E+01  0.16207607732E+02  0.51100000000E-03 0. -1.
        -11    1    3    3    0    0  0.10033188325E+02 -0.73293667947E+01  0.12332041914E+02  0.17506105896E+02  0.51100000000E-03 0.  1.
         12    1    3    3    0    0  0.66982323656E+01 -0.85518314600E+01  0.60390442155E+01  0.12428603831E+02  0.00000000000E+00 0. -1.
</event>
<event>
 7    1  0.4081218E-008  0.4614232E+02  0.7816164E-02  0.1320468E+00
        -11   -1    0    0    0    0  0.00000000000E+00  0.00000000000E+00  0.45593999997E+02  0.45594000000E+02  0.51100000000E-03 0.  1.
         11   -1    0    0    0    0 -0.00000000000E+00 -0.00000000000E+00 -0.45593999997E+02  0.45594000000E+02  0.51100000000E-03 0. -1.
    9900012    2    1    2    0    0 -0.49479263777E+01 -0.79099043431E+01 -0.44068865018E+02  0.46142318452E+02  0.10000006299E+02 0.  0.
        -12    1    1    2    0    0  0.49479263777E+01  0.79099043431E+01  0.44068865018E+02  0.45045681548E+02  0.00000000000E+00 0.  1.
         11    1    3    3    0    0  0.12890576694E+01 -0.18338553790E+01 -0.14117453500E+02  0.14294306167E+02  0.51100000000E-03 0. -1.
        -11    1    3    3    0    0 -0.27547816870E+01  0.11648980153E+00 -0.34804785122E+01  0.44402841072E+01  0.51100000000E-03 0.  1.
         12    1    3    3    0    0 -0.34822023600E+01 -0.61925387656E+01 -0.26470933006E+02  0.27407728177E+02  0.00000000000E+00 0. -1.
</event>
<event>
 7    1  0.4081218E-008  0.4614232E+02  0.7816164E-02  0.1320468E+00
        -11   -1    0    0    0    0  0.00000000000E+00  0.00000000000E+00  0.45593999997E+02  0.45594000000E+02  0.51100000000E-03 0.  1.
         11   -1    0    0    0    0 -0.00000000000E+00 -0.00000000000E+00 -0.45593999997E+02  0.45594000000E+02  0.51100000000E-03 0. -1.
    9900012    2    1    2    0    0  0.34157977575E+02 -0.12356000273E+02 -0.26639732629E+02  0.46142317306E+02  0.99999958527E+01 0.  0.
        -12    1    1    2    0    0 -0.34157977575E+02  0.12356000273E+02  0.26639732629E+02  0.45045682694E+02  0.00000000000E+00 0.  1.
         11    1    3    3    0    0  0.14308061812E+02 -0.27279417225E+01 -0.12224627973E+02  0.19015883577E+02  0.51100000000E-03 0. -1.
        -11    1    3    3    0    0  0.10713548141E+02 -0.18138746266E+01 -0.56418097503E+01  0.12243376677E+02  0.51100000000E-03 0.  1.
         12    1    3    3    0    0  0.91363676214E+01 -0.78141839242E+01 -0.87732949061E+01  0.14883057052E+02  0.00000000000E+00 0. -1.
</event>
<event>
 7    1  0.4081218E-008  0.4614232E+02  0.7816164E-02  0.1320468E+00
        -11   -1    0    0    0    0  0.00000000000E+00  0.00000000000E+00  0.45593999997E+02  0.45594000000E+02  0.51100000000E-03 0.  1.
         11   -1    0    0    0    0 -0.00000000000E+00 -0.00000000000E+00 -0.45593999997E+02  0.45594000000E+02  0.51100000000E-03 0. -1.
    9900012    2    1    2    0    0 -0.13782036536E+01  0.12912504012E+02 -0.43133296393E+02  0.46142318043E+02  0.10000002573E+02 0.  0.
        -12    1    1    2    0    0  0.13782036536E+01 -0.12912504012E+02  0.43133296393E+02  0.45045681957E+02  0.00000000000E+00 0.  1.
         11    1    3    3    0    0 -0.13180457527E+01  0.17227169365E+01 -0.51846948821E+01  0.56201476432E+01  0.51100000000E-03 0.  1.
        -11    1    3    3    0    0  0.27159514870E+00 -0.62535573219E+00  0.91639887636E-01  0.68791848841E+00  0.51100000000E-03 0. -1.
         12    1    3    3    0    0 -0.33175304959E+00  0.11815142808E+02 -0.38040241399E+02  0.39834251912E+02  0.00000000000E+00 0. -1.
</event>
<event>
 7    1  0.4081218E-008  0.4614232E+02  0.7816164E-02  0.1320468E+00
        -11   -1    0    0    0    0  0.00000000000E+00  0.00000000000E+00  0.45593999997E+02  0.45594000000E+02  0.51100000000E-03 0. -1.
         11   -1    0    0    0    0 -0.00000000000E+00 -0.00000000000E+00 -0.45593999997E+02  0.45594000000E+02  0.51100000000E-03 0.  1.
    9900012    2    1    2    0    0  0.30357001580E+02  0.32760583189E+02 -0.58574911611E+01  0.46142316982E+02  0.99999928985E+01 0.  0.
        -12    1    1    2    0    0 -0.30357001580E+02 -0.32760583189E+02  0.58574911611E+01  0.45045683018E+02  0.00000000000E+00 0.  1.
         11    1    3    3    0    0  0.23291442364E+02  0.25777739405E+02 -0.49036339765E+01  0.35086019476E+02  0.51100000000E-03 0. -1.
        -11    1    3    3    0    0  0.13747198669E+01  0.44145870572E+01  0.48521949854E+00  0.46490721463E+01  0.51100000000E-03 0.  1.
         12    1    3    3    0    0  0.56908393498E+01  0.25682567268E+01 -0.14390766832E+01  0.64072253604E+01  0.00000000000E+00 0. -1.
</event>
<event>
 7    1  0.4081218E-008  0.4614232E+02  0.7816164E-02  0.1320468E+00
        -11   -1    0    0    0    0  0.00000000000E+00  0.00000000000E+00  0.45593999997E+02  0.45594000000E+02  0.51100000000E-03 0.  1.
         11   -1    0    0    0    0 -0.00000000000E+00 -0.00000000000E+00 -0.45593999997E+02  0.45594000000E+02  0.51100000000E-03 0. -1.
    9900012    2    1    2    0    0 -0.27285995977E+02 -0.35305461605E+02 -0.61735114051E+01  0.46142318313E+02  0.10000005033E+02 0.  0.
        -12    1    1    2    0    0  0.27285995977E+02  0.35305461605E+02  0.61735114051E+01  0.45045681687E+02  0.00000000000E+00 0.  1.
         11    1    3    3    0    0 -0.22186419082E+01 -0.45009695540E+01 -0.18771383968E+01  0.53576811836E+01  0.51100000000E-03 0. -1.
        -11    1    3    3    0    0 -0.60672599940E+01 -0.64973681896E+01  0.24134462945E+01  0.92115232455E+01  0.51100000000E-03 0.  1.
        -12    1    3    3    0    0 -0.19000094075E+02 -0.24307123861E+02 -0.67098193027E+01  0.31573113884E+02  0.00000000000E+00 0.  1.
</event>
<event>
 7    1  0.4081218E-008  0.4614232E+02  0.7816164E-02  0.1320468E+00
        -11   -1    0    0    0    0  0.00000000000E+00  0.00000000000E+00  0.45593999997E+02  0.45594000000E+02  0.51100000000E-03 0.  1.
         11   -1    0    0    0    0 -0.00000000000E+00 -0.00000000000E+00 -0.45593999997E+02  0.45594000000E+02  0.51100000000E-03 0. -1.
    9900012    2    1    2    0    0  0.13704312397E+02  0.88836619903E+01 -0.41980779531E+02  0.46142317869E+02  0.10000000983E+02 0.  0.
        -12    1    1    2    0    0 -0.13704312397E+02 -0.88836619903E+01  0.41980779531E+02  0.45045682131E+02  0.00000000000E+00 0.  1.
         11    1    3    3    0    0  0.16919292628E+00 -0.70978591163E+00 -0.25503966495E+01  0.26527241880E+01  0.51100000000E-03 0. -1.
        -11    1    3    3    0    0  0.24464603625E+01 -0.39048680557E+00 -0.12103738919E+02  0.12354681070E+02  0.51100000000E-03 0.  1.
         12    1    3    3    0    0  0.11088659109E+02  0.99839347075E+01 -0.27326643962E+02  0.31134912611E+02  0.00000000000E+00 0. -1.
</event>
<event>
 7    1  0.4081218E-008  0.4614232E+02  0.7816164E-02  0.1320468E+00
        -11   -1    0    0    0    0  0.00000000000E+00  0.00000000000E+00  0.45593999997E+02  0.45594000000E+02  0.51100000000E-03 0.  1.
         11   -1    0    0    0    0 -0.00000000000E+00 -0.00000000000E+00 -0.45593999997E+02  0.45594000000E+02  0.51100000000E-03 0. -1.
    9900012    2    1    2    0    0 -0.15575146543E+02 -0.28174001678E+02 -0.31507996177E+02  0.46142318925E+02  0.10000010614E+02 0.  0.
        -12    1    1    2    0    0  0.15575146543E+02  0.28174001678E+02  0.31507996177E+02  0.45045681075E+02  0.00000000000E+00 0.  1.
         11    1    3    3    0    0 -0.19435396529E+01 -0.68139810130E+01 -0.11526259248E+02  0.13530053073E+02  0.51100000000E-03 0. -1.
        -11    1    3    3    0    0 -0.59732115093E+01 -0.13666751704E+02 -0.11828211619E+02  0.19035912067E+02  0.51100000000E-03 0.  1.
         12    1    3    3    0    0 -0.76583953811E+01 -0.76932689617E+01 -0.81535253093E+01  0.13576353785E+02  0.00000000000E+00 0. -1.
</event>
<event>
 7    1  0.4081218E-008  0.4614232E+02  0.7816164E-02  0.1320468E+00
        -11   -1    0    0    0    0  0.00000000000E+00  0.00000000000E+00  0.45593999997E+02  0.45594000000E+02  0.51100000000E-03 0.  1.
         11   -1    0    0    0    0 -0.00000000000E+00 -0.00000000000E+00 -0.45593999997E+02  0.45594000000E+02  0.51100000000E-03 0. -1.
    9900012    2    1    2    0    0  0.17320203914E+02 -0.91109794214E+01 -0.40572331444E+02  0.46142317760E+02  0.99999999888E+01 0.  0.
        -12    1    1    2    0    0 -0.17320203914E+02  0.91109794214E+01  0.40572331444E+02  0.45045682240E+02  0.00000000000E+00 0.  1.
         11    1    3    3    0    0  0.13851916534E+02 -0.53651840223E+01 -0.26725841948E+02  0.30576648269E+02  0.51100000000E-03 0. -1.
        -11    1    3    3    0    0  0.39052158494E+01 -0.34513804849E+01 -0.71468703950E+01  0.88453657237E+01  0.51100000000E-03 0.  1.
         12    1    3    3    0    0 -0.43692846846E+00 -0.29441491410E+00 -0.66996191010E+01  0.67203037675E+01  0.00000000000E+00 0. -1.
</event>
<event>
 7    1  0.4081218E-008  0.4614231E+02  0.7816164E-02  0.1320468E+00
        -11   -1    0    0    0    0  0.00000000000E+00  0.00000000000E+00  0.45593999997E+02  0.45594000000E+02  0.51100000000E-03 0.  1.
         11   -1    0    0    0    0 -0.00000000000E+00 -0.00000000000E+00 -0.45593999997E+02  0.45594000000E+02  0.51100000000E-03 0. -1.
    9900012    2    1    2    0    0  0.39579704006E+02 -0.18231094993E+02 -0.11410025507E+02  0.46142306800E+02  0.99999000439E+01 0.  0.
        -12    1    1    2    0    0 -0.39579704006E+02  0.18231094993E+02  0.11410025507E+02  0.45045693200E+02  0.00000000000E+00 0.  1.
         11    1    3    3    0    0  0.21286189970E+02 -0.83077964509E+01 -0.69113249079E+01  0.23872322417E+02  0.51100000000E-03 0. -1.
        -11    1    3    3    0    0  0.18488479950E+02 -0.86217849060E+01 -0.37066628564E+01  0.20733991792E+02  0.51100000000E-03 0.  1.
         12    1    3    3    0    0 -0.19496591495E+00 -0.13015136361E+01 -0.79203774295E+00  0.15359925909E+01  0.00000000000E+00 0. -1.
</event>
<event>
 7    1  0.4081218E-008  0.4614232E+02  0.7816164E-02  0.1320468E+00
        -11   -1    0    0    0    0  0.00000000000E+00  0.00000000000E+00  0.45593999997E+02  0.45594000000E+02  0.51100000000E-03 0.  1.
         11   -1    0    0    0    0 -0.00000000000E+00 -0.00000000000E+00 -0.45593999997E+02  0.45594000000E+02  0.51100000000E-03 0. -1.
    9900012    2    1    2    0    0  0.17877021609E+01  0.58912344012E+01 -0.44622987070E+02  0.46142317667E+02  0.99999991425E+01 0.  0.
        -12    1    1    2    0    0 -0.17877021609E+01 -0.58912344012E+01  0.44622987070E+02  0.45045682333E+02  0.00000000000E+00 0.  1.
         11    1    3    3    0    0  0.14029435665E+01  0.81298056832E+01 -0.33100520667E+02  0.34113142039E+02  0.51100000000E-03 0. -1.
        -11    1    3    3    0    0  0.46461466364E+00  0.21561120855E+00 -0.43177524486E+00  0.66991424982E+00  0.51100000000E-03 0.  1.
         12    1    3    3    0    0 -0.79856069237E-01 -0.24541824906E+01 -0.11090691159E+02  0.11359261379E+02  0.00000000000E+00 0. -1.
</event>
<event>
 7    1  0.4081218E-008  0.4614232E+02  0.7816164E-02  0.1320468E+00
        -11   -1    0    0    0    0  0.00000000000E+00  0.00000000000E+00  0.45593999997E+02  0.45594000000E+02  0.51100000000E-03 0. -1.
         11   -1    0    0    0    0 -0.00000000000E+00 -0.00000000000E+00 -0.45593999997E+02  0.45594000000E+02  0.51100000000E-03 0.  1.
    9900012    2    1    2    0    0 -0.20175148876E+02  0.20676703816E+02  0.34562276724E+02  0.46142315577E+02  0.99999800810E+01 0.  0.
        -12    1    1    2    0    0  0.20175148876E+02 -0.20676703816E+02 -0.34562276724E+02  0.45045684423E+02  0.00000000000E+00 0.  1.
         11    1    3    3    0    0 -0.15229497270E+02  0.12176754169E+02  0.23965261177E+02  0.30895706380E+02  0.51100000000E-03 0. -1.
        -11    1    3    3    0    0 -0.11283909363E+01  0.42523670599E+00  0.39028050200E+01  0.40848475671E+01  0.51100000000E-03 0.  1.
        -12    1    3    3    0    0 -0.38172606688E+01  0.80747129412E+01  0.66942105272E+01  0.11161761630E+02  0.00000000000E+00 0.  1.
</event>
<event>
 7    1  0.4081218E-008  0.4614232E+02  0.7816164E-02  0.1320468E+00
        -11   -1    0    0    0    0  0.00000000000E+00  0.00000000000E+00  0.45593999997E+02  0.45594000000E+02  0.51100000000E-03 0.  1.
         11   -1    0    0    0    0 -0.00000000000E+00 -0.00000000000E+00 -0.45593999997E+02  0.45594000000E+02  0.51100000000E-03 0. -1.
    9900012    2    1    2    0    0 -0.46247665762E+01  0.36348968938E+02 -0.26200716837E+02  0.46142316839E+02  0.99999915874E+01 0.  0.
        -12    1    1    2    0    0  0.46247665762E+01 -0.36348968938E+02  0.26200716837E+02  0.45045683161E+02  0.00000000000E+00 0.  1.
         11    1    3    3    0    0 -0.99293875108E+00  0.14971169930E+02 -0.74602960258E+01  0.16756427826E+02  0.51100000000E-03 0. -1.
        -11    1    3    3    0    0 -0.15671158013E+01  0.90786914007E+01 -0.39087962436E+01  0.10007855805E+02  0.51100000000E-03 0.  1.
         12    1    3    3    0    0 -0.20647120238E+01  0.12299107607E+02 -0.14831624568E+02  0.19378033207E+02  0.00000000000E+00 0. -1.
</event>
<event>
 7    1  0.4081218E-008  0.4614232E+02  0.7816164E-02  0.1320468E+00
        -11   -1    0    0    0    0  0.00000000000E+00  0.00000000000E+00  0.45593999997E+02  0.45594000000E+02  0.51100000000E-03 0.  1.
         11   -1    0    0    0    0 -0.00000000000E+00 -0.00000000000E+00 -0.45593999997E+02  0.45594000000E+02  0.51100000000E-03 0. -1.
    9900012    2    1    2    0    0  0.10830092842E+02 -0.90688053038E+00 -0.43714987990E+02  0.46142317430E+02  0.99999969793E+01 0.  0.
        -12    1    1    2    0    0 -0.10830092842E+02  0.90688053038E+00  0.43714987990E+02  0.45045682570E+02  0.00000000000E+00 0.  1.
         11    1    3    3    0    0  0.11768898192E+02 -0.21646520326E+01 -0.33458912340E+02  0.35534370661E+02  0.51100000000E-03 0. -1.
        -11    1    3    3    0    0  0.50389621931E+00  0.11585146220E+01 -0.48118842112E+01  0.49749670805E+01  0.51100000000E-03 0.  1.
         12    1    3    3    0    0 -0.14427015687E+01  0.99256880159E-01 -0.54441914388E+01  0.56329796881E+01  0.00000000000E+00 0. -1.
</event>
<event>
 7    1  0.4081218E-008  0.4614232E+02  0.7816164E-02  0.1320468E+00
        -11   -1    0    0    0    0  0.00000000000E+00  0.00000000000E+00  0.45593999997E+02  0.45594000000E+02  0.51100000000E-03 0. -1.
         11   -1    0    0    0    0 -0.00000000000E+00 -0.00000000000E+00 -0.45593999997E+02  0.45594000000E+02  0.51100000000E-03 0.  1.
    9900012    2    1    2    0    0 -0.22050556680E+02 -0.36382811026E+02 -0.14804644732E+02  0.46142317702E+02  0.99999994576E+01 0.  0.
        -12    1    1    2    0    0  0.22050556680E+02  0.36382811026E+02  0.14804644732E+02  0.45045682298E+02  0.00000000000E+00 0.  1.
         11    1    3    3    0    0 -0.12105370252E+02 -0.13856438780E+02 -0.24093400364E+01  0.18556556908E+02  0.51100000000E-03 0.  1.
        -11    1    3    3    0    0 -0.57820032148E+01 -0.13010550540E+02 -0.66176274636E+01  0.15700285986E+02  0.51100000000E-03 0. -1.
        -12    1    3    3    0    0 -0.41631832137E+01 -0.95158217065E+01 -0.57776772316E+01  0.11885474808E+02  0.00000000000E+00 0.  1.
</event>
<event>
 7    1  0.4081218E-008  0.4614232E+02  0.7816164E-02  0.1320468E+00
        -11   -1    0    0    0    0  0.00000000000E+00  0.00000000000E+00  0.45593999997E+02  0.45594000000E+02  0.51100000000E-03 0. -1.
         11   -1    0    0    0    0 -0.00000000000E+00 -0.00000000000E+00 -0.45593999997E+02  0.45594000000E+02  0.51100000000E-03 0.  1.
    9900012    2    1    2    0    0  0.89915312122E+01 -0.22861766794E+02  0.37757190362E+02  0.46142318315E+02  0.10000005047E+02 0.  0.
        -12    1    1    2    0    0 -0.89915312122E+01  0.22861766794E+02 -0.37757190362E+02  0.45045681685E+02  0.00000000000E+00 0.  1.
         11    1    3    3    0    0  0.50680150322E+01 -0.12113894668E+02  0.20638149381E+02  0.24461488723E+02  0.51100000000E-03 0. -1.
        -11    1    3    3    0    0  0.12089752467E+01 -0.95930787655E+01  0.96960328407E+01  0.13693130922E+02  0.51100000000E-03 0.  1.
         12    1    3    3    0    0  0.27145409333E+01 -0.11547933598E+01  0.74230081405E+01  0.79876986696E+01  0.00000000000E+00 0. -1.
</event>
<event>
 7    1  0.4081218E-008  0.4614232E+02  0.7816164E-02  0.1320468E+00
        -11   -1    0    0    0    0  0.00000000000E+00  0.00000000000E+00  0.45593999997E+02  0.45594000000E+02  0.51100000000E-03 0. -1.
         11   -1    0    0    0    0 -0.00000000000E+00 -0.00000000000E+00 -0.45593999997E+02  0.45594000000E+02  0.51100000000E-03 0.  1.
    9900012    2    1    2    0    0 -0.16188967032E+01  0.41777783901E+02  0.16766315766E+02  0.46142318758E+02  0.10000009094E+02 0.  0.
        -12    1    1    2    0    0  0.16188967032E+01 -0.41777783901E+02 -0.16766315766E+02  0.45045681242E+02  0.00000000000E+00 0.  1.
         11    1    3    3    0    0 -0.45017522536E+01  0.28879440263E+02  0.98082351256E+01  0.30830006809E+02  0.51100000000E-03 0. -1.
        -11    1    3    3    0    0 -0.29811592954E+00  0.12038850547E+01  0.16930027638E+01  0.20986831471E+01  0.51100000000E-03 0.  1.
        -12    1    3    3    0    0  0.31809714800E+01  0.11694458582E+02  0.52650778761E+01  0.13213628803E+02  0.00000000000E+00 0.  1.
</event>
<event>
 7    1  0.4081218E-008  0.4614232E+02  0.7816164E-02  0.1320468E+00
        -11   -1    0    0    0    0  0.00000000000E+00  0.00000000000E+00  0.45593999997E+02  0.45594000000E+02  0.51100000000E-03 0.  1.
         11   -1    0    0    0    0 -0.00000000000E+00 -0.00000000000E+00 -0.45593999997E+02  0.45594000000E+02  0.51100000000E-03 0. -1.
    9900012    2    1    2    0    0  0.19708691125E+02  0.13946307499E+02 -0.38028694071E+02  0.46142316839E+02  0.99999915919E+01 0.  0.
        -12    1    1    2    0    0 -0.19708691125E+02 -0.13946307499E+02  0.38028694071E+02  0.45045683161E+02  0.00000000000E+00 0.  1.
         11    1    3    3    0    0  0.82509582555E+01  0.65315029716E+01 -0.23603482067E+02  0.25843049532E+02  0.51100000000E-03 0. -1.
        -11    1    3    3    0    0  0.59262614064E+01  0.16468490196E+01 -0.48889615544E+01  0.78571388745E+01  0.51100000000E-03 0.  1.
        -12    1    3    3    0    0  0.55314714629E+01  0.57679555076E+01 -0.95362504497E+01  0.12442128432E+02  0.00000000000E+00 0.  1.
</event>
<event>
 7    1  0.4081218E-008  0.4614232E+02  0.7816164E-02  0.1320468E+00
        -11   -1    0    0    0    0  0.00000000000E+00  0.00000000000E+00  0.45593999997E+02  0.45594000000E+02  0.51100000000E-03 0.  1.
         11   -1    0    0    0    0 -0.00000000000E+00 -0.00000000000E+00 -0.45593999997E+02  0.45594000000E+02  0.51100000000E-03 0. -1.
    9900012    2    1    2    0    0  0.85571474024E+00  0.43758976623E+02  0.10655183436E+02  0.46142320775E+02  0.10000027484E+02 0.  0.
        -12    1    1    2    0    0 -0.85571474024E+00 -0.43758976623E+02 -0.10655183436E+02  0.45045679225E+02  0.00000000000E+00 0.  1.
         11    1    3    3    0    0  0.23480490962E+01  0.16834027921E+02  0.28649698756E+01  0.17236759650E+02  0.51100000000E-03 0. -1.
        -11    1    3    3    0    0  0.19983966090E+00  0.47717462134E-01  0.11504653968E+01  0.11686675047E+01  0.51100000000E-03 0.  1.
         12    1    3    3    0    0 -0.16921740169E+01  0.26877231240E+02  0.66397481639E+01  0.27736893620E+02  0.00000000000E+00 0. -1.
</event>
<event>
 7    1  0.4081218E-008  0.4614232E+02  0.7816164E-02  0.1320468E+00
        -11   -1    0    0    0    0  0.00000000000E+00  0.00000000000E+00  0.45593999997E+02  0.45594000000E+02  0.51100000000E-03 0. -1.
         11   -1    0    0    0    0 -0.00000000000E+00 -0.00000000000E+00 -0.45593999997E+02  0.45594000000E+02  0.51100000000E-03 0.  1.
    9900012    2    1    2    0    0 -0.27575641971E+02  0.35485918818E+02 -0.30735766513E+01  0.46142319431E+02  0.10000015229E+02 0.  0.
        -12    1    1    2    0    0  0.27575641971E+02 -0.35485918818E+02  0.30735766513E+01  0.45045680569E+02  0.00000000000E+00 0.  1.
         11    1    3    3    0    0 -0.13176557826E+02  0.13233675777E+02 -0.13380339169E+01  0.18722771850E+02  0.51100000000E-03 0. -1.
        -11    1    3    3    0    0 -0.30566633348E+00 -0.20554604215E+00  0.70328586976E+00  0.79390954056E+00  0.51100000000E-03 0.  1.
         12    1    3    3    0    0 -0.14093417811E+02  0.22457789083E+02 -0.24388286042E+01  0.26625638041E+02  0.00000000000E+00 0. -1.
</event>
<event>
 7    1  0.4081218E-008  0.4614232E+02  0.7816164E-02  0.1320468E+00
        -11   -1    0    0    0    0  0.00000000000E+00  0.00000000000E+00  0.45593999997E+02  0.45594000000E+02  0.51100000000E-03 0.  1.
         11   -1    0    0    0    0 -0.00000000000E+00 -0.00000000000E+00 -0.45593999997E+02  0.45594000000E+02  0.51100000000E-03 0. -1.
    9900012    2    1    2    0    0  0.18767543113E+02 -0.24693444928E+02 -0.32666903124E+02  0.46142318113E+02  0.10000003212E+02 0.  0.
        -12    1    1    2    0    0 -0.18767543113E+02  0.24693444928E+02  0.32666903124E+02  0.45045681887E+02  0.00000000000E+00 0.  1.
         11    1    3    3    0    0  0.57371896920E+01 -0.11022625998E+02 -0.13231980627E+02  0.18152105691E+02  0.51100000000E-03 0. -1.
        -11    1    3    3    0    0  0.63851908282E+01 -0.62849950387E+01 -0.44316128891E+01  0.99955498903E+01  0.51100000000E-03 0.  1.
        -12    1    3    3    0    0  0.66451625931E+01 -0.73858238911E+01 -0.15003309608E+02  0.17994662532E+02  0.00000000000E+00 0.  1.
</event>
<event>
 7    1  0.4081218E-008  0.4614232E+02  0.7816164E-02  0.1320468E+00
        -11   -1    0    0    0    0  0.00000000000E+00  0.00000000000E+00  0.45593999997E+02  0.45594000000E+02  0.51100000000E-03 0. -1.
         11   -1    0    0    0    0 -0.00000000000E+00 -0.00000000000E+00 -0.45593999997E+02  0.45594000000E+02  0.51100000000E-03 0.  1.
    9900012    2    1    2    0    0  0.30882478892E+02 -0.19452168295E+02  0.26400740969E+02  0.46142317881E+02  0.10000001089E+02 0.  0.
        -12    1    1    2    0    0 -0.30882478892E+02  0.19452168295E+02 -0.26400740969E+02  0.45045682119E+02  0.00000000000E+00 0.  1.
         11    1    3    3    0    0  0.15354376605E+02 -0.63509516512E+01  0.16126553530E+02  0.23155068491E+02  0.51100000000E-03 0. -1.
        -11    1    3    3    0    0  0.39174049683E+01 -0.16352723239E+01  0.21821702541E+01  0.47730540054E+01  0.51100000000E-03 0.  1.
         12    1    3    3    0    0  0.11610697319E+02 -0.11465944320E+02  0.80920171850E+01  0.18214195384E+02  0.00000000000E+00 0. -1.
</event>
<event>
 7    1  0.4081218E-008  0.4614232E+02  0.7816164E-02  0.1320468E+00
        -11   -1    0    0    0    0  0.00000000000E+00  0.00000000000E+00  0.45593999997E+02  0.45594000000E+02  0.51100000000E-03 0. -1.
         11   -1    0    0    0    0 -0.00000000000E+00 -0.00000000000E+00 -0.45593999997E+02  0.45594000000E+02  0.51100000000E-03 0.  1.
    9900012    2    1    2    0    0  0.17274198461E+02 -0.41144144648E+02  0.61542604624E+01  0.46142317708E+02  0.99999995144E+01 0.  0.
        -12    1    1    2    0    0 -0.17274198461E+02  0.41144144648E+02 -0.61542604624E+01  0.45045682292E+02  0.00000000000E+00 0.  1.
         11    1    3    3    0    0  0.14234346938E+02 -0.29549233642E+02  0.54929347034E+01  0.33255769026E+02  0.51100000000E-03 0. -1.
        -11    1    3    3    0    0  0.29929514889E+01 -0.49514345728E+01  0.19764617752E+01  0.61139892340E+01  0.51100000000E-03 0.  1.
        -12    1    3    3    0    0  0.46900034606E-01 -0.66434764337E+01 -0.13151360163E+01  0.67725594482E+01  0.00000000000E+00 0.  1.
</event>
<event>
 7    1  0.4081218E-008  0.4614232E+02  0.7816164E-02  0.1320468E+00
        -11   -1    0    0    0    0  0.00000000000E+00  0.00000000000E+00  0.45593999997E+02  0.45594000000E+02  0.51100000000E-03 0. -1.
         11   -1    0    0    0    0 -0.00000000000E+00 -0.00000000000E+00 -0.45593999997E+02  0.45594000000E+02  0.51100000000E-03 0.  1.
    9900012    2    1    2    0    0 -0.15406856063E+02  0.38264868252E+02  0.18098126403E+02  0.46142317239E+02  0.99999952423E+01 0.  0.
        -12    1    1    2    0    0  0.15406856063E+02 -0.38264868252E+02 -0.18098126403E+02  0.45045682761E+02  0.00000000000E+00 0.  1.
         11    1    3    3    0    0 -0.12558071890E+02  0.28743936371E+02  0.14110033117E+02  0.34394942688E+02  0.51100000000E-03 0. -1.
        -11    1    3    3    0    0 -0.86188776553E+00  0.12504516491E+01 -0.10639948430E+01  0.18543368448E+01  0.51100000000E-03 0.  1.
         12    1    3    3    0    0 -0.19868964074E+01  0.82704802321E+01  0.50520881289E+01  0.98930377066E+01  0.00000000000E+00 0. -1.
</event>
<event>
 7    1  0.4081218E-008  0.4614232E+02  0.7816164E-02  0.1320468E+00
        -11   -1    0    0    0    0  0.00000000000E+00  0.00000000000E+00  0.45593999997E+02  0.45594000000E+02  0.51100000000E-03 0. -1.
         11   -1    0    0    0    0 -0.00000000000E+00 -0.00000000000E+00 -0.45593999997E+02  0.45594000000E+02  0.51100000000E-03 0.  1.
    9900012    2    1    2    0    0  0.75995104723E+01 -0.82402357982E+01  0.43628653832E+02  0.46142317847E+02  0.10000000781E+02 0.  0.
        -12    1    1    2    0    0 -0.75995104723E+01  0.82402357982E+01 -0.43628653832E+02  0.45045682153E+02  0.00000000000E+00 0.  1.
         11    1    3    3    0    0  0.11024897289E+01 -0.22186990004E+01  0.72815958987E+01  0.76915374244E+01  0.51100000000E-03 0. -1.
        -11    1    3    3    0    0  0.28760868334E+01 -0.10219185805E+01  0.22308905383E+01  0.37806171340E+01  0.51100000000E-03 0.  1.
         12    1    3    3    0    0  0.36209339100E+01 -0.49996182172E+01  0.34116167395E+02  0.34670163288E+02  0.00000000000E+00 0. -1.
</event>
<event>
 7    1  0.4081218E-008  0.4614232E+02  0.7816164E-02  0.1320468E+00
        -11   -1    0    0    0    0  0.00000000000E+00  0.00000000000E+00  0.45593999997E+02  0.45594000000E+02  0.51100000000E-03 0.  1.
         11   -1    0    0    0    0 -0.00000000000E+00 -0.00000000000E+00 -0.45593999997E+02  0.45594000000E+02  0.51100000000E-03 0. -1.
    9900012    2    1    2    0    0  0.22250293193E+02 -0.25850459485E+01 -0.39081395545E+02  0.46142317771E+02  0.10000000087E+02 0.  0.
        -12    1    1    2    0    0 -0.22250293193E+02  0.25850459485E+01  0.39081395545E+02  0.45045682229E+02  0.00000000000E+00 0.  1.
         11    1    3    3    0    0  0.10384599574E+02  0.62666512967E+00 -0.23935738025E+02  0.26098892171E+02  0.51100000000E-03 0. -1.
        -11    1    3    3    0    0  0.88958406132E+01 -0.11015787141E+01 -0.13075963287E+02  0.15853399383E+02  0.51100000000E-03 0.  1.
         12    1    3    3    0    0  0.29698530057E+01 -0.21101323641E+01 -0.20696942341E+01  0.41900262162E+01  0.00000000000E+00 0. -1.
</event>
<event>
 7    1  0.4081218E-008  0.4614232E+02  0.7816164E-02  0.1320468E+00
        -11   -1    0    0    0    0  0.00000000000E+00  0.00000000000E+00  0.45593999997E+02  0.45594000000E+02  0.51100000000E-03 0.  1.
         11   -1    0    0    0    0 -0.00000000000E+00 -0.00000000000E+00 -0.45593999997E+02  0.45594000000E+02  0.51100000000E-03 0. -1.
    9900012    2    1    2    0    0  0.82415135858E+01 -0.14422833941E+02 -0.41870906344E+02  0.46142317819E+02  0.10000000530E+02 0.  0.
        -12    1    1    2    0    0 -0.82415135858E+01  0.14422833941E+02  0.41870906344E+02  0.45045682181E+02  0.00000000000E+00 0.  1.
         11    1    3    3    0    0 -0.28616662756E+00 -0.15823669126E+01 -0.76743414567E+01  0.78410007933E+01  0.51100000000E-03 0. -1.
        -11    1    3    3    0    0  0.35590020900E+01 -0.63745019595E+01 -0.78436178931E+01  0.10715554723E+02  0.51100000000E-03 0.  1.
        -12    1    3    3    0    0  0.49686781235E+01 -0.64659650694E+01 -0.26352946994E+02  0.27585762303E+02  0.00000000000E+00 0.  1.
</event>
<event>
 7    1  0.4081218E-008  0.4614232E+02  0.7816164E-02  0.1320468E+00
        -11   -1    0    0    0    0  0.00000000000E+00  0.00000000000E+00  0.45593999997E+02  0.45594000000E+02  0.51100000000E-03 0.  1.
         11   -1    0    0    0    0 -0.00000000000E+00 -0.00000000000E+00 -0.45593999997E+02  0.45594000000E+02  0.51100000000E-03 0. -1.
    9900012    2    1    2    0    0  0.12341979831E+02  0.32756144791E+02 -0.28351784155E+02  0.46142321490E+02  0.10000033999E+02 0.  0.
        -12    1    1    2    0    0 -0.12341979831E+02 -0.32756144791E+02  0.28351784155E+02  0.45045678510E+02  0.00000000000E+00 0.  1.
         11    1    3    3    0    0  0.10262216946E+02  0.28206676829E+02 -0.19938635466E+02  0.36034412704E+02  0.51100000000E-03 0. -1.
        -11    1    3    3    0    0  0.26700091835E+01  0.38460248078E+01 -0.69235003196E+01  0.83579730078E+01  0.51100000000E-03 0.  1.
         12    1    3    3    0    0 -0.59024629876E+00  0.70344315418E+00 -0.14896483689E+01  0.17499357781E+01  0.00000000000E+00 0. -1.
</event>
<event>
 7    1  0.4081218E-008  0.4614232E+02  0.7816164E-02  0.1320468E+00
        -11   -1    0    0    0    0  0.00000000000E+00  0.00000000000E+00  0.45593999997E+02  0.45594000000E+02  0.51100000000E-03 0.  1.
         11   -1    0    0    0    0 -0.00000000000E+00 -0.00000000000E+00 -0.45593999997E+02  0.45594000000E+02  0.51100000000E-03 0. -1.
    9900012    2    1    2    0    0 -0.44123760487E+02  0.84654726387E+01  0.32469486084E+01  0.46142321608E+02  0.10000035081E+02 0.  0.
        -12    1    1    2    0    0  0.44123760487E+02 -0.84654726387E+01 -0.32469486084E+01  0.45045678392E+02  0.00000000000E+00 0.  1.
         11    1    3    3    0    0 -0.70729404082E+01 -0.16277187334E+00  0.46938933448E+00  0.70903672196E+01  0.51100000000E-03 0. -1.
        -11    1    3    3    0    0 -0.13525081714E+02 -0.93315528999E+00  0.11196658205E+01  0.13603391708E+02  0.51100000000E-03 0.  1.
        -12    1    3    3    0    0 -0.23525738365E+02  0.95613998020E+01  0.16578934534E+01  0.25448562680E+02  0.00000000000E+00 0.  1.
</event>
<event>
 7    1  0.4081218E-008  0.4614232E+02  0.7816164E-02  0.1320468E+00
        -11   -1    0    0    0    0  0.00000000000E+00  0.00000000000E+00  0.45593999997E+02  0.45594000000E+02  0.51100000000E-03 0. -1.
         11   -1    0    0    0    0 -0.00000000000E+00 -0.00000000000E+00 -0.45593999997E+02  0.45594000000E+02  0.51100000000E-03 0.  1.
    9900012    2    1    2    0    0 -0.14795121348E-01  0.44534963799E+02  0.67638917579E+01  0.46142318174E+02  0.10000003761E+02 0.  0.
        -12    1    1    2    0    0  0.14795121348E-01 -0.44534963799E+02 -0.67638917579E+01  0.45045681826E+02  0.00000000000E+00 0.  1.
         11    1    3    3    0    0 -0.22506904977E+00  0.97050102609E+01 -0.45271703496E-01  0.97077252757E+01  0.51100000000E-03 0. -1.
        -11    1    3    3    0    0 -0.26830494051E+01  0.39581355574E+01  0.73052529531E+00  0.48372780228E+01  0.51100000000E-03 0.  1.
         12    1    3    3    0    0  0.28933233335E+01  0.30871817981E+02  0.60786381661E+01  0.31597314875E+02  0.00000000000E+00 0. -1.
</event>
<event>
 7    1  0.4081218E-008  0.4614231E+02  0.7816164E-02  0.1320468E+00
        -11   -1    0    0    0    0  0.00000000000E+00  0.00000000000E+00  0.45593999997E+02  0.45594000000E+02  0.51100000000E-03 0.  1.
         11   -1    0    0    0    0 -0.00000000000E+00 -0.00000000000E+00 -0.45593999997E+02  0.45594000000E+02  0.51100000000E-03 0. -1.
    9900012    2    1    2    0    0 -0.38218244239E+02  0.22901250595E+02 -0.66341807483E+01  0.46142314016E+02  0.99999658515E+01 0.  0.
        -12    1    1    2    0    0  0.38218244239E+02 -0.22901250595E+02  0.66341807483E+01  0.45045685984E+02  0.00000000000E+00 0.  1.
         11    1    3    3    0    0 -0.85930375383E+01  0.15674326797E+01 -0.96426400511E+00  0.87878862460E+01  0.51100000000E-03 0. -1.
        -11    1    3    3    0    0 -0.91746488390E+01  0.78389177127E+01  0.53461682140E+00  0.12079264366E+02  0.51100000000E-03 0.  1.
         12    1    3    3    0    0 -0.20450557862E+02  0.13494900202E+02 -0.62045335646E+01  0.25275163404E+02  0.00000000000E+00 0. -1.
</event>
<event>
 7    1  0.4081218E-008  0.4614232E+02  0.7816164E-02  0.1320468E+00
        -11   -1    0    0    0    0  0.00000000000E+00  0.00000000000E+00  0.45593999997E+02  0.45594000000E+02  0.51100000000E-03 0.  1.
         11   -1    0    0    0    0 -0.00000000000E+00 -0.00000000000E+00 -0.45593999997E+02  0.45594000000E+02  0.51100000000E-03 0. -1.
    9900012    2    1    2    0    0 -0.34450133087E+02  0.18952671197E+02 -0.21979493865E+02  0.46142316902E+02  0.99999921624E+01 0.  0.
        -12    1    1    2    0    0  0.34450133087E+02 -0.18952671197E+02  0.21979493865E+02  0.45045683098E+02  0.00000000000E+00 0.  1.
         11    1    3    3    0    0 -0.20792085577E+02  0.11529308638E+02 -0.92683923802E+01  0.25517423026E+02  0.51100000000E-03 0. -1.
        -11    1    3    3    0    0 -0.77903801847E+00  0.15565755436E+01 -0.29756922473E+01  0.34474007990E+01  0.51100000000E-03 0.  1.
        -12    1    3    3    0    0 -0.12879009492E+02  0.58667870155E+01 -0.97354092378E+01  0.17177493077E+02  0.00000000000E+00 0.  1.
</event>
<event>
 7    1  0.4081218E-008  0.4614232E+02  0.7816164E-02  0.1320468E+00
        -11   -1    0    0    0    0  0.00000000000E+00  0.00000000000E+00  0.45593999997E+02  0.45594000000E+02  0.51100000000E-03 0.  1.
         11   -1    0    0    0    0 -0.00000000000E+00 -0.00000000000E+00 -0.45593999997E+02  0.45594000000E+02  0.51100000000E-03 0. -1.
    9900012    2    1    2    0    0  0.18339906072E+02 -0.26758298871E+02 -0.31253076512E+02  0.46142317580E+02  0.99999983510E+01 0.  0.
        -12    1    1    2    0    0 -0.18339906072E+02  0.26758298871E+02  0.31253076512E+02  0.45045682420E+02  0.00000000000E+00 0.  1.
         11    1    3    3    0    0  0.70219669961E+01 -0.99710348951E+01 -0.92299892053E+01  0.15294517265E+02  0.51100000000E-03 0. -1.
        -11    1    3    3    0    0  0.10096424683E+01 -0.74872746614E+01 -0.60083115254E+01  0.96528994305E+01  0.51100000000E-03 0.  1.
         12    1    3    3    0    0  0.10308296607E+02 -0.92999893149E+01 -0.16014775781E+02  0.21194900885E+02  0.00000000000E+00 0. -1.
</event>
<event>
 7    1  0.4081218E-008  0.4614232E+02  0.7816164E-02  0.1320468E+00
        -11   -1    0    0    0    0  0.00000000000E+00  0.00000000000E+00  0.45593999997E+02  0.45594000000E+02  0.51100000000E-03 0.  1.
         11   -1    0    0    0    0 -0.00000000000E+00 -0.00000000000E+00 -0.45593999997E+02  0.45594000000E+02  0.51100000000E-03 0. -1.
    9900012    2    1    2    0    0 -0.32060779701E+02 -0.30618632729E+02 -0.79824476535E+01  0.46142315015E+02  0.99999749570E+01 0.  0.
        -12    1    1    2    0    0  0.32060779701E+02  0.30618632729E+02  0.79824476535E+01  0.45045684985E+02  0.00000000000E+00 0.  1.
         11    1    3    3    0    0 -0.20055566212E+00 -0.72055969044E+00 -0.95422105737E+00  0.12124219268E+01  0.51100000000E-03 0. -1.
        -11    1    3    3    0    0 -0.58735881634E+01 -0.74947139444E+01 -0.44842686392E+01  0.10525133753E+02  0.51100000000E-03 0.  1.
         12    1    3    3    0    0 -0.25986635876E+02 -0.22403359094E+02 -0.25439579570E+01  0.34404759335E+02  0.00000000000E+00 0. -1.
</event>
<event>
 7    1  0.4081218E-008  0.4614232E+02  0.7816164E-02  0.1320468E+00
        -11   -1    0    0    0    0  0.00000000000E+00  0.00000000000E+00  0.45593999997E+02  0.45594000000E+02  0.51100000000E-03 0. -1.
         11   -1    0    0    0    0 -0.00000000000E+00 -0.00000000000E+00 -0.45593999997E+02  0.45594000000E+02  0.51100000000E-03 0.  1.
    9900012    2    1    2    0    0 -0.37427263363E+02 -0.11682230328E+02  0.22177438538E+02  0.46142319537E+02  0.10000016196E+02 0.  0.
        -12    1    1    2    0    0  0.37427263363E+02  0.11682230328E+02 -0.22177438538E+02  0.45045680463E+02  0.00000000000E+00 0.  1.
         11    1    3    3    0    0 -0.25782489385E+02 -0.58510654826E+01  0.15600214506E+02  0.30697531156E+02  0.51100000000E-03 0. -1.
        -11    1    3    3    0    0 -0.97233413820E+01 -0.36964733434E+01  0.29388873087E+01  0.10809456123E+02  0.51100000000E-03 0.  1.
        -12    1    3    3    0    0 -0.19214325953E+01 -0.21346915021E+01  0.36383367232E+01  0.46353322577E+01  0.00000000000E+00 0.  1.
</event>
<event>
 7    1  0.4081218E-008  0.4614232E+02  0.7816164E-02  0.1320468E+00
        -11   -1    0    0    0    0  0.00000000000E+00  0.00000000000E+00  0.45593999997E+02  0.45594000000E+02  0.51100000000E-03 0.  1.
         11   -1    0    0    0    0 -0.00000000000E+00 -0.00000000000E+00 -0.45593999997E+02  0.45594000000E+02  0.51100000000E-03 0. -1.
    9900012    2    1    2    0    0 -0.17579970449E+02 -0.20637818216E+02 -0.35974138636E+02  0.46142317052E+02  0.99999935294E+01 0.  0.
        -12    1    1    2    0    0  0.17579970449E+02  0.20637818216E+02  0.35974138636E+02  0.45045682948E+02  0.00000000000E+00 0.  1.
         11    1    3    3    0    0 -0.74108292902E+01 -0.79101051714E+01 -0.19009425725E+02  0.21882605449E+02  0.51100000000E-03 0.  1.
        -11    1    3    3    0    0 -0.88865201273E+01 -0.12412393699E+02 -0.17110964336E+02  0.22930827679E+02  0.51100000000E-03 0. -1.
        -12    1    3    3    0    0 -0.12826210316E+01 -0.31531934591E+00  0.14625142514E+00  0.13288839226E+01  0.00000000000E+00 0.  1.
</event>
<event>
 7    1  0.4081218E-008  0.4614232E+02  0.7816164E-02  0.1320468E+00
        -11   -1    0    0    0    0  0.00000000000E+00  0.00000000000E+00  0.45593999997E+02  0.45594000000E+02  0.51100000000E-03 0.  1.
         11   -1    0    0    0    0 -0.00000000000E+00 -0.00000000000E+00 -0.45593999997E+02  0.45594000000E+02  0.51100000000E-03 0. -1.
    9900012    2    1    2    0    0  0.44689810007E+02 -0.22793215454E+01 -0.51709875129E+01  0.46142317221E+02  0.99999950740E+01 0.  0.
        -12    1    1    2    0    0 -0.44689810007E+02  0.22793215454E+01  0.51709875129E+01  0.45045682779E+02  0.00000000000E+00 0.  1.
         11    1    3    3    0    0  0.44671864597E+00  0.90386327682E+00  0.29772375562E+00  0.10512687894E+01  0.51100000000E-03 0. -1.
        -11    1    3    3    0    0  0.51964594013E+01 -0.18355479647E+01 -0.20184395270E+01  0.58691162048E+01  0.51100000000E-03 0.  1.
         12    1    3    3    0    0  0.39046631960E+02 -0.13476368575E+01 -0.34502717415E+01  0.39221932227E+02  0.00000000000E+00 0. -1.
</event>
<event>
 7    1  0.4081218E-008  0.4614232E+02  0.7816164E-02  0.1320468E+00
        -11   -1    0    0    0    0  0.00000000000E+00  0.00000000000E+00  0.45593999997E+02  0.45594000000E+02  0.51100000000E-03 0.  1.
         11   -1    0    0    0    0 -0.00000000000E+00 -0.00000000000E+00 -0.45593999997E+02  0.45594000000E+02  0.51100000000E-03 0. -1.
    9900012    2    1    2    0    0  0.19224652517E+02  0.15510156153E+02 -0.37669101837E+02  0.46142318282E+02  0.10000004748E+02 0.  0.
        -12    1    1    2    0    0 -0.19224652517E+02 -0.15510156153E+02  0.37669101837E+02  0.45045681718E+02  0.00000000000E+00 0.  1.
         11    1    3    3    0    0  0.55952626715E+01  0.64103688857E+01 -0.20471326747E+02  0.22169235726E+02  0.51100000000E-03 0. -1.
        -11    1    3    3    0    0  0.95087512932E+01  0.48690607297E+01 -0.12375241830E+02  0.16348416259E+02  0.51100000000E-03 0.  1.
        -12    1    3    3    0    0  0.41206385521E+01  0.42307265375E+01 -0.48225332590E+01  0.76246662973E+01  0.00000000000E+00 0.  1.
</event>
<event>
 7    1  0.4081218E-008  0.4614232E+02  0.7816164E-02  0.1320468E+00
        -11   -1    0    0    0    0  0.00000000000E+00  0.00000000000E+00  0.45593999997E+02  0.45594000000E+02  0.51100000000E-03 0.  1.
         11   -1    0    0    0    0 -0.00000000000E+00 -0.00000000000E+00 -0.45593999997E+02  0.45594000000E+02  0.51100000000E-03 0. -1.
    9900012    2    1    2    0    0 -0.41988868695E+02 -0.14743577440E+01 -0.16244211355E+02  0.46142320656E+02  0.10000026395E+02 0.  0.
        -12    1    1    2    0    0  0.41988868695E+02  0.14743577440E+01  0.16244211355E+02  0.45045679344E+02  0.00000000000E+00 0.  1.
         11    1    3    3    0    0 -0.82153959644E+01  0.23198032082E+01 -0.44249508868E+01  0.96153215437E+01  0.51100000000E-03 0. -1.
        -11    1    3    3    0    0 -0.33879235039E+02 -0.40717087526E+01 -0.11330363316E+02  0.35954951149E+02  0.51100000000E-03 0.  1.
        -12    1    3    3    0    0  0.10576230803E+00  0.27754780045E+00 -0.48889715163E+00  0.57204796320E+00  0.00000000000E+00 0.  1.
</event>
<event>
 7    1  0.4081218E-008  0.4614232E+02  0.7816164E-02  0.1320468E+00
        -11   -1    0    0    0    0  0.00000000000E+00  0.00000000000E+00  0.45593999997E+02  0.45594000000E+02  0.51100000000E-03 0. -1.
         11   -1    0    0    0    0 -0.00000000000E+00 -0.00000000000E+00 -0.45593999997E+02  0.45594000000E+02  0.51100000000E-03 0.  1.
    9900012    2    1    2    0    0  0.31272055393E+02 -0.11905509487E+02  0.30156771052E+02  0.46142318243E+02  0.10000004397E+02 0.  0.
        -12    1    1    2    0    0 -0.31272055393E+02  0.11905509487E+02 -0.30156771052E+02  0.45045681757E+02  0.00000000000E+00 0.  1.
         11    1    3    3    0    0  0.11867617749E+01 -0.74415755934E+00  0.27042327708E+01  0.30454965314E+01  0.51100000000E-03 0. -1.
        -11    1    3    3    0    0  0.11841360927E+02 -0.26781065789E+01  0.55284406828E+01  0.13339930288E+02  0.51100000000E-03 0.  1.
        -12    1    3    3    0    0  0.18243932691E+02 -0.84832453483E+01  0.21924097599E+02  0.29756891423E+02  0.00000000000E+00 0.  1.
</event>
<event>
 7    1  0.4081218E-008  0.4614232E+02  0.7816164E-02  0.1320468E+00
        -11   -1    0    0    0    0  0.00000000000E+00  0.00000000000E+00  0.45593999997E+02  0.45594000000E+02  0.51100000000E-03 0.  1.
         11   -1    0    0    0    0 -0.00000000000E+00 -0.00000000000E+00 -0.45593999997E+02  0.45594000000E+02  0.51100000000E-03 0. -1.
    9900012    2    1    2    0    0  0.14851985930E+02  0.17284420926E+02 -0.38855897763E+02  0.46142317812E+02  0.10000000465E+02 0.  0.
        -12    1    1    2    0    0 -0.14851985930E+02 -0.17284420926E+02  0.38855897763E+02  0.45045682188E+02  0.00000000000E+00 0.  1.
         11    1    3    3    0    0  0.88419920971E+01  0.86061607223E+01 -0.25403934402E+02  0.28241931768E+02  0.51100000000E-03 0. -1.
        -11    1    3    3    0    0  0.25510097580E+01  0.37604584691E+01 -0.19972791389E+01  0.49636501592E+01  0.51100000000E-03 0.  1.
        -12    1    3    3    0    0  0.34589840745E+01  0.49178017342E+01 -0.11454684222E+02  0.12936735885E+02  0.00000000000E+00 0.  1.
</event>
<event>
 7    1  0.4081218E-008  0.4614232E+02  0.7816164E-02  0.1320468E+00
        -11   -1    0    0    0    0  0.00000000000E+00  0.00000000000E+00  0.45593999997E+02  0.45594000000E+02  0.51100000000E-03 0.  1.
         11   -1    0    0    0    0 -0.00000000000E+00 -0.00000000000E+00 -0.45593999997E+02  0.45594000000E+02  0.51100000000E-03 0. -1.
    9900012    2    1    2    0    0 -0.24598913357E+01 -0.40995954530E+02 -0.18503899274E+02  0.46142316061E+02  0.99999844925E+01 0.  0.
        -12    1    1    2    0    0  0.24598913357E+01  0.40995954530E+02  0.18503899274E+02  0.45045683939E+02  0.00000000000E+00 0.  1.
         11    1    3    3    0    0 -0.17405596384E+01 -0.39480099354E+02 -0.15411796994E+02  0.42417346448E+02  0.51100000000E-03 0. -1.
        -11    1    3    3    0    0 -0.54436137841E+00  0.54771818666E-02 -0.87073364847E+00  0.10269063529E+01  0.51100000000E-03 0.  1.
         12    1    3    3    0    0 -0.17497031894E+00 -0.15213323585E+01 -0.22213686312E+01  0.26980632597E+01  0.00000000000E+00 0. -1.
</event>
<event>
 7    1  0.4081218E-008  0.4614232E+02  0.7816164E-02  0.1320468E+00
        -11   -1    0    0    0    0  0.00000000000E+00  0.00000000000E+00  0.45593999997E+02  0.45594000000E+02  0.51100000000E-03 0.  1.
         11   -1    0    0    0    0 -0.00000000000E+00 -0.00000000000E+00 -0.45593999997E+02  0.45594000000E+02  0.51100000000E-03 0. -1.
    9900012    2    1    2    0    0 -0.79921251834E+01 -0.11926907471E+02 -0.42696468232E+02  0.46142316675E+02  0.99999900935E+01 0.  0.
        -12    1    1    2    0    0  0.79921251834E+01  0.11926907471E+02  0.42696468232E+02  0.45045683325E+02  0.00000000000E+00 0.  1.
         11    1    3    3    0    0  0.15732537745E+01 -0.18723771112E+01 -0.76698880224E+01  0.80503481927E+01  0.51100000000E-03 0. -1.
        -11    1    3    3    0    0 -0.67362910850E+01 -0.62884545579E+01 -0.29083815805E+02  0.30508861342E+02  0.51100000000E-03 0.  1.
        -12    1    3    3    0    0 -0.28290878728E+01 -0.37660758023E+01 -0.59427644039E+01  0.75831071403E+01  0.00000000000E+00 0.  1.
</event>
<event>
 7    1  0.4081218E-008  0.4614232E+02  0.7816164E-02  0.1320468E+00
        -11   -1    0    0    0    0  0.00000000000E+00  0.00000000000E+00  0.45593999997E+02  0.45594000000E+02  0.51100000000E-03 0.  1.
         11   -1    0    0    0    0 -0.00000000000E+00 -0.00000000000E+00 -0.45593999997E+02  0.45594000000E+02  0.51100000000E-03 0. -1.
    9900012    2    1    2    0    0 -0.24492677401E+02 -0.33663757756E+02 -0.17203882668E+02  0.46142318615E+02  0.10000007791E+02 0.  0.
        -12    1    1    2    0    0  0.24492677401E+02  0.33663757756E+02  0.17203882668E+02  0.45045681385E+02  0.00000000000E+00 0.  1.
         11    1    3    3    0    0  0.20075041255E+00 -0.16443118223E+01 -0.21428473671E+01  0.27084787607E+01  0.51100000000E-03 0. -1.
        -11    1    3    3    0    0 -0.71414535943E+01 -0.60459399558E+01 -0.42155471293E+01  0.10262776781E+02  0.51100000000E-03 0.  1.
         12    1    3    3    0    0 -0.17551974219E+02 -0.25973505978E+02 -0.10845488172E+02  0.33171063074E+02  0.00000000000E+00 0. -1.
</event>
<event>
 7    1  0.4081218E-008  0.4614232E+02  0.7816164E-02  0.1320468E+00
        -11   -1    0    0    0    0  0.00000000000E+00  0.00000000000E+00  0.45593999997E+02  0.45594000000E+02  0.51100000000E-03 0.  1.
         11   -1    0    0    0    0 -0.00000000000E+00 -0.00000000000E+00 -0.45593999997E+02  0.45594000000E+02  0.51100000000E-03 0. -1.
    9900012    2    1    2    0    0  0.55921883056E+01 -0.65448442564E+01 -0.44215443032E+02  0.46142323638E+02  0.10000053587E+02 0.  0.
        -12    1    1    2    0    0 -0.55921883056E+01  0.65448442564E+01  0.44215443032E+02  0.45045676362E+02  0.00000000000E+00 0.  1.
         11    1    3    3    0    0  0.29422595721E+01 -0.60171847592E+01 -0.34988386914E+02  0.35623736790E+02  0.51100000000E-03 0. -1.
        -11    1    3    3    0    0 -0.10196942069E+01  0.20855301205E+00 -0.36994109176E+01  0.38430342222E+01  0.51100000000E-03 0.  1.
         12    1    3    3    0    0  0.36696229404E+01 -0.73621250924E+00 -0.55276452011E+01  0.66755526253E+01  0.00000000000E+00 0. -1.
</event>
<event>
 7    1  0.4081218E-008  0.4614232E+02  0.7816164E-02  0.1320468E+00
        -11   -1    0    0    0    0  0.00000000000E+00  0.00000000000E+00  0.45593999997E+02  0.45594000000E+02  0.51100000000E-03 0.  1.
         11   -1    0    0    0    0 -0.00000000000E+00 -0.00000000000E+00 -0.45593999997E+02  0.45594000000E+02  0.51100000000E-03 0. -1.
    9900012    2    1    2    0    0  0.23313657105E+02  0.23765053321E+02 -0.30344836979E+02  0.46142317652E+02  0.99999990044E+01 0.  0.
        -12    1    1    2    0    0 -0.23313657105E+02 -0.23765053321E+02  0.30344836979E+02  0.45045682348E+02  0.00000000000E+00 0.  1.
         11    1    3    3    0    0 -0.47152277637E+00  0.31645445684E+01 -0.19928063907E+01  0.37693439251E+01  0.51100000000E-03 0.  1.
        -11    1    3    3    0    0  0.69124128728E+01  0.52624534881E+01 -0.77510577127E+01  0.11642755875E+02  0.51100000000E-03 0. -1.
        -12    1    3    3    0    0  0.16872767008E+02  0.15338055264E+02 -0.20600972875E+02  0.30730217852E+02  0.00000000000E+00 0.  1.
</event>
<event>
 7    1  0.4081218E-008  0.4614232E+02  0.7816164E-02  0.1320468E+00
        -11   -1    0    0    0    0  0.00000000000E+00  0.00000000000E+00  0.45593999997E+02  0.45594000000E+02  0.51100000000E-03 0.  1.
         11   -1    0    0    0    0 -0.00000000000E+00 -0.00000000000E+00 -0.45593999997E+02  0.45594000000E+02  0.51100000000E-03 0. -1.
    9900012    2    1    2    0    0 -0.12745618525E+01 -0.47637162766E+01 -0.44774948532E+02  0.46142317446E+02  0.99999971293E+01 0.  0.
        -12    1    1    2    0    0  0.12745618525E+01  0.47637162766E+01  0.44774948532E+02  0.45045682554E+02  0.00000000000E+00 0.  1.
         11    1    3    3    0    0  0.11132371245E+01  0.78816169973E+00 -0.21438536004E+02  0.21481883577E+02  0.51100000000E-03 0. -1.
        -11    1    3    3    0    0  0.15408596700E-01 -0.54885195911E+01 -0.14539718195E+02  0.15541154725E+02  0.51100000000E-03 0.  1.
         12    1    3    3    0    0 -0.24032075738E+01 -0.63358385264E-01 -0.87966943331E+01  0.91192791446E+01  0.00000000000E+00 0. -1.
</event>
<event>
 7    1  0.4081218E-008  0.4614232E+02  0.7816164E-02  0.1320468E+00
        -11   -1    0    0    0    0  0.00000000000E+00  0.00000000000E+00  0.45593999997E+02  0.45594000000E+02  0.51100000000E-03 0.  1.
         11   -1    0    0    0    0 -0.00000000000E+00 -0.00000000000E+00 -0.45593999997E+02  0.45594000000E+02  0.51100000000E-03 0. -1.
    9900012    2    1    2    0    0  0.18176543671E+02 -0.35857999170E+02  0.20320694645E+02  0.46142317908E+02  0.10000001337E+02 0.  0.
        -12    1    1    2    0    0 -0.18176543671E+02  0.35857999170E+02 -0.20320694645E+02  0.45045682092E+02  0.00000000000E+00 0.  1.
         11    1    3    3    0    0  0.31444152514E+01 -0.45521860558E+01  0.53095035952E+01  0.76681532228E+01  0.51100000000E-03 0. -1.
        -11    1    3    3    0    0  0.11851568750E+02 -0.16730398392E+02  0.84141074736E+01  0.22162200185E+02  0.51100000000E-03 0.  1.
         12    1    3    3    0    0  0.31805596693E+01 -0.14575414722E+02  0.65970835758E+01  0.16311964500E+02  0.00000000000E+00 0. -1.
</event>
<event>
 7    1  0.4081218E-008  0.4614232E+02  0.7816164E-02  0.1320468E+00
        -11   -1    0    0    0    0  0.00000000000E+00  0.00000000000E+00  0.45593999997E+02  0.45594000000E+02  0.51100000000E-03 0. -1.
         11   -1    0    0    0    0 -0.00000000000E+00 -0.00000000000E+00 -0.45593999997E+02  0.45594000000E+02  0.51100000000E-03 0.  1.
    9900012    2    1    2    0    0 -0.36140143445E+02 -0.26709186281E+02  0.31020638427E+01  0.46142318741E+02  0.10000008934E+02 0.  0.
        -12    1    1    2    0    0  0.36140143445E+02  0.26709186281E+02 -0.31020638427E+01  0.45045681259E+02  0.00000000000E+00 0.  1.
         11    1    3    3    0    0 -0.22469786545E+02 -0.18413505292E+02  0.59132024840E+01  0.29646491333E+02  0.51100000000E-03 0. -1.
        -11    1    3    3    0    0 -0.80598896082E+01 -0.32263707954E+01 -0.18109815928E+01  0.88685367224E+01  0.51100000000E-03 0.  1.
         12    1    3    3    0    0 -0.56104672922E+01 -0.50693101935E+01 -0.10001570485E+01  0.76272906852E+01  0.00000000000E+00 0. -1.
</event>
<event>
 7    1  0.4081218E-008  0.4614232E+02  0.7816164E-02  0.1320468E+00
        -11   -1    0    0    0    0  0.00000000000E+00  0.00000000000E+00  0.45593999997E+02  0.45594000000E+02  0.51100000000E-03 0.  1.
         11   -1    0    0    0    0 -0.00000000000E+00 -0.00000000000E+00 -0.45593999997E+02  0.45594000000E+02  0.51100000000E-03 0. -1.
    9900012    2    1    2    0    0  0.24389831351E+02  0.89199458616E+01 -0.36806034642E+02  0.46142317703E+02  0.99999994716E+01 0.  0.
        -12    1    1    2    0    0 -0.24389831351E+02 -0.89199458616E+01  0.36806034642E+02  0.45045682297E+02  0.00000000000E+00 0.  1.
         11    1    3    3    0    0  0.62171636218E+01  0.54346022952E+01 -0.11792073156E+02  0.14395867990E+02  0.51100000000E-03 0. -1.
        -11    1    3    3    0    0  0.22536252371E+01 -0.10692620428E+01 -0.12694300417E+01  0.27988570734E+01  0.51100000000E-03 0.  1.
         12    1    3    3    0    0  0.15919042492E+02  0.45546056092E+01 -0.23744531444E+02  0.28947592640E+02  0.00000000000E+00 0. -1.
</event>
<event>
 7    1  0.4081218E-008  0.4614232E+02  0.7816164E-02  0.1320468E+00
        -11   -1    0    0    0    0  0.00000000000E+00  0.00000000000E+00  0.45593999997E+02  0.45594000000E+02  0.51100000000E-03 0.  1.
         11   -1    0    0    0    0 -0.00000000000E+00 -0.00000000000E+00 -0.45593999997E+02  0.45594000000E+02  0.51100000000E-03 0. -1.
    9900012    2    1    2    0    0 -0.75645245706E+01  0.22264302416E+02 -0.38421241868E+02  0.46142322951E+02  0.10000047330E+02 0.  0.
        -12    1    1    2    0    0  0.75645245706E+01 -0.22264302416E+02  0.38421241868E+02  0.45045677049E+02  0.00000000000E+00 0.  1.
         11    1    3    3    0    0 -0.23940711339E+01  0.15164515864E+02 -0.27083919169E+02  0.31132503848E+02  0.51100000000E-03 0. -1.
        -11    1    3    3    0    0 -0.73232112551E+00  0.10864943698E+00 -0.36046526485E+01  0.36798940078E+01  0.51100000000E-03 0.  1.
         12    1    3    3    0    0 -0.44381323112E+01  0.69911371152E+01 -0.77326700503E+01  0.11329925096E+02  0.00000000000E+00 0. -1.
</event>
<event>
 7    1  0.4081218E-008  0.4614232E+02  0.7816164E-02  0.1320468E+00
        -11   -1    0    0    0    0  0.00000000000E+00  0.00000000000E+00  0.45593999997E+02  0.45594000000E+02  0.51100000000E-03 0. -1.
         11   -1    0    0    0    0 -0.00000000000E+00 -0.00000000000E+00 -0.45593999997E+02  0.45594000000E+02  0.51100000000E-03 0.  1.
    9900012    2    1    2    0    0 -0.21072787115E+02  0.27453402484E+02  0.28833346384E+02  0.46142317316E+02  0.99999959405E+01 0.  0.
        -12    1    1    2    0    0  0.21072787115E+02 -0.27453402484E+02 -0.28833346384E+02  0.45045682684E+02  0.00000000000E+00 0.  1.
         11    1    3    3    0    0 -0.95300244512E+01  0.12215655119E+02  0.71134321781E+01  0.17048299436E+02  0.51100000000E-03 0. -1.
        -11    1    3    3    0    0 -0.41191186103E+01  0.76545636720E+01  0.10854711133E+02  0.13906266112E+02  0.51100000000E-03 0.  1.
         12    1    3    3    0    0 -0.74236440535E+01  0.75831836928E+01  0.10865203074E+02  0.15187751768E+02  0.00000000000E+00 0. -1.
</event>
<event>
 7    1  0.4081218E-008  0.4614232E+02  0.7816164E-02  0.1320468E+00
        -11   -1    0    0    0    0  0.00000000000E+00  0.00000000000E+00  0.45593999997E+02  0.45594000000E+02  0.51100000000E-03 0.  1.
         11   -1    0    0    0    0 -0.00000000000E+00 -0.00000000000E+00 -0.45593999997E+02  0.45594000000E+02  0.51100000000E-03 0. -1.
    9900012    2    1    2    0    0  0.22854200670E+02  0.24153249777E+02 -0.30387819338E+02  0.46142317331E+02  0.99999960735E+01 0.  0.
        -12    1    1    2    0    0 -0.22854200670E+02 -0.24153249777E+02  0.30387819338E+02  0.45045682669E+02  0.00000000000E+00 0.  1.
         11    1    3    3    0    0  0.59307738906E+01  0.80275722306E+01 -0.91686782028E+01  0.13552883645E+02  0.51100000000E-03 0. -1.
        -11    1    3    3    0    0  0.16726452260E+02  0.12478829145E+02 -0.16393486204E+02  0.26537553998E+02  0.51100000000E-03 0.  1.
        -12    1    3    3    0    0  0.19697451873E+00  0.36468484021E+01 -0.48256549310E+01  0.60518796866E+01  0.00000000000E+00 0.  1.
</event>
<event>
 7    1  0.4081218E-008  0.4614232E+02  0.7816164E-02  0.1320468E+00
        -11   -1    0    0    0    0  0.00000000000E+00  0.00000000000E+00  0.45593999997E+02  0.45594000000E+02  0.51100000000E-03 0. -1.
         11   -1    0    0    0    0 -0.00000000000E+00 -0.00000000000E+00 -0.45593999997E+02  0.45594000000E+02  0.51100000000E-03 0.  1.
    9900012    2    1    2    0    0 -0.24450769605E+02  0.29389682392E+02  0.23822675619E+02  0.46142318309E+02  0.10000004993E+02 0.  0.
        -12    1    1    2    0    0  0.24450769605E+02 -0.29389682392E+02 -0.23822675619E+02  0.45045681691E+02  0.00000000000E+00 0.  1.
         11    1    3    3    0    0 -0.14413339207E+01  0.19333872403E+00  0.35505321601E+00  0.14969590443E+01  0.51100000000E-03 0. -1.
        -11    1    3    3    0    0 -0.16072923364E+02  0.24984169620E+02  0.16709074889E+02  0.34084318696E+02  0.51100000000E-03 0.  1.
        -12    1    3    3    0    0 -0.69365123201E+01  0.42121740478E+01  0.67585475146E+01  0.10561040568E+02  0.00000000000E+00 0.  1.
</event>
<event>
 7    1  0.4081218E-008  0.4614232E+02  0.7816164E-02  0.1320468E+00
        -11   -1    0    0    0    0  0.00000000000E+00  0.00000000000E+00  0.45593999997E+02  0.45594000000E+02  0.51100000000E-03 0.  1.
         11   -1    0    0    0    0 -0.00000000000E+00 -0.00000000000E+00 -0.45593999997E+02  0.45594000000E+02  0.51100000000E-03 0. -1.
    9900012    2    1    2    0    0 -0.87956175955E+01 -0.22863318405E+02 -0.37802371238E+02  0.46142317759E+02  0.99999999821E+01 0.  0.
        -12    1    1    2    0    0  0.87956175955E+01  0.22863318405E+02  0.37802371238E+02  0.45045682241E+02  0.00000000000E+00 0.  1.
         11    1    3    3    0    0  0.75289283742E+00  0.43110158173E+00 -0.11927251053E+01  0.14748863130E+01  0.51100000000E-03 0. -1.
        -11    1    3    3    0    0 -0.82769703398E+00 -0.10765232658E+01 -0.42220844019E+01  0.44350853069E+01  0.51100000000E-03 0.  1.
         12    1    3    3    0    0 -0.87208133989E+01 -0.22217896720E+02 -0.32387561731E+02  0.40232346139E+02  0.00000000000E+00 0. -1.
</event>
<event>
 7    1  0.4081218E-008  0.4614231E+02  0.7816164E-02  0.1320468E+00
        -11   -1    0    0    0    0  0.00000000000E+00  0.00000000000E+00  0.45593999997E+02  0.45594000000E+02  0.51100000000E-03 0. -1.
         11   -1    0    0    0    0 -0.00000000000E+00 -0.00000000000E+00 -0.45593999997E+02  0.45594000000E+02  0.51100000000E-03 0.  1.
    9900012    2    1    2    0    0 -0.38362559550E+02 -0.21251361624E+02 -0.10286284874E+02  0.46142312053E+02  0.99999479500E+01 0.  0.
        -12    1    1    2    0    0  0.38362559550E+02  0.21251361624E+02  0.10286284874E+02  0.45045687947E+02  0.00000000000E+00 0.  1.
         11    1    3    3    0    0 -0.66202156133E+01 -0.97183534765E+00  0.74491282699E+00  0.67325042956E+01  0.51100000000E-03 0. -1.
        -11    1    3    3    0    0 -0.37035600899E+01 -0.13050860649E+01 -0.52638807642E+00  0.39619050524E+01  0.51100000000E-03 0.  1.
         12    1    3    3    0    0 -0.28038783847E+02 -0.18974440211E+02 -0.10504809625E+02  0.35447902705E+02  0.00000000000E+00 0. -1.
</event>
<event>
 7    1  0.4081218E-008  0.4614233E+02  0.7816164E-02  0.1320468E+00
        -11   -1    0    0    0    0  0.00000000000E+00  0.00000000000E+00  0.45593999997E+02  0.45594000000E+02  0.51100000000E-03 0.  1.
         11   -1    0    0    0    0 -0.00000000000E+00 -0.00000000000E+00 -0.45593999997E+02  0.45594000000E+02  0.51100000000E-03 0. -1.
    9900012    2    1    2    0    0 -0.70657125800E+00 -0.44972229694E+02 -0.24722429422E+01  0.46142326825E+02  0.10000082652E+02 0.  0.
        -12    1    1    2    0    0  0.70657125800E+00  0.44972229694E+02  0.24722429422E+01  0.45045673175E+02  0.00000000000E+00 0.  1.
         11    1    3    3    0    0 -0.16767076054E+01 -0.93268783994E+01 -0.26136923471E+01  0.98302287368E+01  0.51100000000E-03 0. -1.
        -11    1    3    3    0    0  0.12465587968E+01 -0.29994040879E+02 -0.23871939813E+01  0.30114698943E+02  0.51100000000E-03 0.  1.
        -12    1    3    3    0    0 -0.27642244937E+00 -0.56513104159E+01  0.25286433862E+01  0.61973991449E+01  0.00000000000E+00 0.  1.
</event>
<event>
 7    1  0.4081218E-008  0.4614232E+02  0.7816164E-02  0.1320468E+00
        -11   -1    0    0    0    0  0.00000000000E+00  0.00000000000E+00  0.45593999997E+02  0.45594000000E+02  0.51100000000E-03 0. -1.
         11   -1    0    0    0    0 -0.00000000000E+00 -0.00000000000E+00 -0.45593999997E+02  0.45594000000E+02  0.51100000000E-03 0.  1.
    9900012    2    1    2    0    0  0.27224730617E+02  0.25247719824E+02  0.25504512743E+02  0.46142317813E+02  0.10000000469E+02 0.  0.
        -12    1    1    2    0    0 -0.27224730617E+02 -0.25247719824E+02 -0.25504512743E+02  0.45045682187E+02  0.00000000000E+00 0.  1.
         11    1    3    3    0    0 -0.61365502330E-01  0.69781968156E+00 -0.31541493571E+00  0.76824792589E+00  0.51100000000E-03 0. -1.
        -11    1    3    3    0    0  0.82718531696E+01  0.51238976861E+01  0.40139807041E+01  0.10525679252E+02  0.51100000000E-03 0.  1.
         12    1    3    3    0    0  0.19014242949E+02  0.19426002456E+02  0.21805946975E+02  0.34848390635E+02  0.00000000000E+00 0. -1.
</event>
<event>
 7    1  0.4081218E-008  0.4614232E+02  0.7816164E-02  0.1320468E+00
        -11   -1    0    0    0    0  0.00000000000E+00  0.00000000000E+00  0.45593999997E+02  0.45594000000E+02  0.51100000000E-03 0. -1.
         11   -1    0    0    0    0 -0.00000000000E+00 -0.00000000000E+00 -0.45593999997E+02  0.45594000000E+02  0.51100000000E-03 0.  1.
    9900012    2    1    2    0    0  0.56485050708E+01 -0.81423043508E+01  0.43942127649E+02  0.46142319718E+02  0.10000017848E+02 0.  0.
        -12    1    1    2    0    0 -0.56485050708E+01  0.81423043508E+01 -0.43942127649E+02  0.45045680282E+02  0.00000000000E+00 0.  1.
         11    1    3    3    0    0  0.30598793691E+01 -0.18658491395E+01  0.19856854024E+02  0.20177683385E+02  0.51100000000E-03 0. -1.
        -11    1    3    3    0    0  0.24759665338E+01 -0.77489280070E+01  0.18975093732E+02  0.20645350032E+02  0.51100000000E-03 0.  1.
         12    1    3    3    0    0  0.11265916796E+00  0.14724727958E+01  0.51101798929E+01  0.53192863018E+01  0.00000000000E+00 0. -1.
</event>
<event>
 7    1  0.4081218E-008  0.4614232E+02  0.7816164E-02  0.1320468E+00
        -11   -1    0    0    0    0  0.00000000000E+00  0.00000000000E+00  0.45593999997E+02  0.45594000000E+02  0.51100000000E-03 0. -1.
         11   -1    0    0    0    0 -0.00000000000E+00 -0.00000000000E+00 -0.45593999997E+02  0.45594000000E+02  0.51100000000E-03 0.  1.
    9900012    2    1    2    0    0  0.51965883073E+01  0.39798944774E+02  0.20448788690E+02  0.46142317697E+02  0.99999994192E+01 0.  0.
        -12    1    1    2    0    0 -0.51965883073E+01 -0.39798944774E+02 -0.20448788690E+02  0.45045682303E+02  0.00000000000E+00 0.  1.
         11    1    3    3    0    0  0.39698979199E+00  0.93654434285E+01  0.60754895300E+01  0.11170528403E+02  0.51100000000E-03 0. -1.
        -11    1    3    3    0    0  0.65595445873E+01  0.18322321429E+02  0.69879437848E+01  0.20677679907E+02  0.51100000000E-03 0.  1.
        -12    1    3    3    0    0 -0.17599460720E+01  0.12111179917E+02  0.73853553756E+01  0.14294109388E+02  0.00000000000E+00 0.  1.
</event>
<event>
 7    1  0.4081218E-008  0.4614232E+02  0.7816164E-02  0.1320468E+00
        -11   -1    0    0    0    0  0.00000000000E+00  0.00000000000E+00  0.45593999997E+02  0.45594000000E+02  0.51100000000E-03 0.  1.
         11   -1    0    0    0    0 -0.00000000000E+00 -0.00000000000E+00 -0.45593999997E+02  0.45594000000E+02  0.51100000000E-03 0. -1.
    9900012    2    1    2    0    0  0.36591488978E+01 -0.22342352824E+02 -0.38942823317E+02  0.46142316652E+02  0.99999898858E+01 0.  0.
        -12    1    1    2    0    0 -0.36591488978E+01  0.22342352824E+02  0.38942823317E+02  0.45045683348E+02  0.00000000000E+00 0.  1.
         11    1    3    3    0    0 -0.24376621571E+01 -0.33618941353E+01 -0.84611167498E+01  0.94252334658E+01  0.51100000000E-03 0. -1.
        -11    1    3    3    0    0  0.24186707134E+01 -0.14333154340E+02 -0.21206712590E+02  0.25710191374E+02  0.51100000000E-03 0.  1.
        -12    1    3    3    0    0  0.36781403415E+01 -0.46473043486E+01 -0.92749939772E+01  0.11006891812E+02  0.00000000000E+00 0.  1.
</event>
<event>
 7    1  0.4081218E-008  0.4614232E+02  0.7816164E-02  0.1320468E+00
        -11   -1    0    0    0    0  0.00000000000E+00  0.00000000000E+00  0.45593999997E+02  0.45594000000E+02  0.51100000000E-03 0.  1.
         11   -1    0    0    0    0 -0.00000000000E+00 -0.00000000000E+00 -0.45593999997E+02  0.45594000000E+02  0.51100000000E-03 0. -1.
    9900012    2    1    2    0    0  0.29763249497E+02 -0.15058369715E+02 -0.30273884422E+02  0.46142316554E+02  0.99999889946E+01 0.  0.
        -12    1    1    2    0    0 -0.29763249497E+02  0.15058369715E+02  0.30273884422E+02  0.45045683446E+02  0.00000000000E+00 0.  1.
         11    1    3    3    0    0  0.18303313945E+02 -0.96410301350E+01 -0.21797536869E+02  0.30051512062E+02  0.51100000000E-03 0. -1.
        -11    1    3    3    0    0 -0.13999478140E+00  0.51461320683E+00 -0.82253817698E+00  0.98030332304E+00  0.51100000000E-03 0.  1.
         12    1    3    3    0    0  0.11599930333E+02 -0.59319527869E+01 -0.76538093768E+01  0.15110501169E+02  0.00000000000E+00 0. -1.
</event>
<event>
 7    1  0.4081218E-008  0.4614232E+02  0.7816164E-02  0.1320468E+00
        -11   -1    0    0    0    0  0.00000000000E+00  0.00000000000E+00  0.45593999997E+02  0.45594000000E+02  0.51100000000E-03 0.  1.
         11   -1    0    0    0    0 -0.00000000000E+00 -0.00000000000E+00 -0.45593999997E+02  0.45594000000E+02  0.51100000000E-03 0. -1.
    9900012    2    1    2    0    0 -0.17338313589E+02 -0.34782175588E+02 -0.22774912567E+02  0.46142317641E+02  0.99999989050E+01 0.  0.
        -12    1    1    2    0    0  0.17338313589E+02  0.34782175588E+02  0.22774912567E+02  0.45045682359E+02  0.00000000000E+00 0.  1.
         11    1    3    3    0    0 -0.10708994953E+02 -0.28622224467E+02 -0.19044093678E+02  0.36008218654E+02  0.51100000000E-03 0. -1.
        -11    1    3    3    0    0 -0.31893499346E+01 -0.39617079385E+01 -0.89672572726E+00  0.51644167228E+01  0.51100000000E-03 0.  1.
         12    1    3    3    0    0 -0.34399687022E+01 -0.21982431824E+01 -0.28340931618E+01  0.49696822646E+01  0.00000000000E+00 0. -1.
</event>
<event>
 7    1  0.4081218E-008  0.4614233E+02  0.7816164E-02  0.1320468E+00
        -11   -1    0    0    0    0  0.00000000000E+00  0.00000000000E+00  0.45593999997E+02  0.45594000000E+02  0.51100000000E-03 0. -1.
         11   -1    0    0    0    0 -0.00000000000E+00 -0.00000000000E+00 -0.45593999997E+02  0.45594000000E+02  0.51100000000E-03 0.  1.
    9900012    2    1    2    0    0 -0.48147222099E+01 -0.44444541857E+02  0.55329791265E+01  0.46142326414E+02  0.10000078904E+02 0.  0.
        -12    1    1    2    0    0  0.48147222099E+01  0.44444541857E+02 -0.55329791265E+01  0.45045673586E+02  0.00000000000E+00 0.  1.
         11    1    3    3    0    0 -0.37998644055E+01 -0.16280760148E+02  0.20440761147E+01  0.16842813539E+02  0.51100000000E-03 0. -1.
        -11    1    3    3    0    0 -0.84841209723E+00 -0.99016244247E+01  0.47065068604E+01  0.10996052766E+02  0.51100000000E-03 0.  1.
        -12    1    3    3    0    0 -0.16644570711E+00 -0.18262157284E+02 -0.12176038486E+01  0.18303460109E+02  0.00000000000E+00 0.  1.
</event>
<event>
 7    1  0.4081218E-008  0.4614232E+02  0.7816164E-02  0.1320468E+00
        -11   -1    0    0    0    0  0.00000000000E+00  0.00000000000E+00  0.45593999997E+02  0.45594000000E+02  0.51100000000E-03 0. -1.
         11   -1    0    0    0    0 -0.00000000000E+00 -0.00000000000E+00 -0.45593999997E+02  0.45594000000E+02  0.51100000000E-03 0.  1.
    9900012    2    1    2    0    0  0.29622973394E+02  0.33142833522E+02 -0.72900957728E+01  0.46142318043E+02  0.10000002573E+02 0.  0.
        -12    1    1    2    0    0 -0.29622973394E+02 -0.33142833522E+02  0.72900957728E+01  0.45045681957E+02  0.00000000000E+00 0.  1.
         11    1    3    3    0    0  0.21989430239E+01  0.46372863438E+01 -0.93831763398E+00  0.52172996176E+01  0.51100000000E-03 0. -1.
        -11    1    3    3    0    0  0.16533679417E+02  0.21497666717E+02 -0.17327183588E+01  0.27175624050E+02  0.51100000000E-03 0.  1.
        -12    1    3    3    0    0  0.10890350953E+02  0.70078804614E+01 -0.46190597801E+01  0.13749394376E+02  0.00000000000E+00 0.  1.
</event>
<event>
 7    1  0.4081218E-008  0.4614232E+02  0.7816164E-02  0.1320468E+00
        -11   -1    0    0    0    0  0.00000000000E+00  0.00000000000E+00  0.45593999997E+02  0.45594000000E+02  0.51100000000E-03 0.  1.
         11   -1    0    0    0    0 -0.00000000000E+00 -0.00000000000E+00 -0.45593999997E+02  0.45594000000E+02  0.51100000000E-03 0. -1.
    9900012    2    1    2    0    0 -0.18236205285E+02  0.41185973713E+02  0.51950956508E+00  0.46142317587E+02  0.99999984141E+01 0.  0.
        -12    1    1    2    0    0  0.18236205285E+02 -0.41185973713E+02 -0.51950956508E+00  0.45045682413E+02  0.00000000000E+00 0.  1.
         11    1    3    3    0    0 -0.80576356885E+01  0.21672325892E+02 -0.29536410706E+01  0.23309637455E+02  0.51100000000E-03 0. -1.
        -11    1    3    3    0    0  0.54760082898E+00  0.54479278663E+00  0.18783118521E+00  0.79495073025E+00  0.51100000000E-03 0.  1.
         12    1    3    3    0    0 -0.10726170425E+02  0.18968855034E+02  0.32853194505E+01  0.22037729402E+02  0.00000000000E+00 0. -1.
</event>
<event>
 7    1  0.4081218E-008  0.4614232E+02  0.7816164E-02  0.1320468E+00
        -11   -1    0    0    0    0  0.00000000000E+00  0.00000000000E+00  0.45593999997E+02  0.45594000000E+02  0.51100000000E-03 0.  1.
         11   -1    0    0    0    0 -0.00000000000E+00 -0.00000000000E+00 -0.45593999997E+02  0.45594000000E+02  0.51100000000E-03 0. -1.
    9900012    2    1    2    0    0 -0.32355762194E+02  0.30350080930E+02 -0.78160544976E+01  0.46142317992E+02  0.10000002108E+02 0.  0.
        -12    1    1    2    0    0  0.32355762194E+02 -0.30350080930E+02  0.78160544976E+01  0.45045682008E+02  0.00000000000E+00 0.  1.
         11    1    3    3    0    0 -0.77542510370E+01  0.13322260107E+02 -0.30867931702E+01  0.15720665248E+02  0.51100000000E-03 0. -1.
        -11    1    3    3    0    0 -0.24394279556E+01  0.25458434180E+01  0.13452757255E-01  0.35259479148E+01  0.51100000000E-03 0.  1.
        -12    1    3    3    0    0 -0.22162083202E+02  0.14481977405E+02 -0.47427140846E+01  0.26895704830E+02  0.00000000000E+00 0.  1.
</event>
<event>
 7    1  0.4081218E-008  0.4614232E+02  0.7816164E-02  0.1320468E+00
        -11   -1    0    0    0    0  0.00000000000E+00  0.00000000000E+00  0.45593999997E+02  0.45594000000E+02  0.51100000000E-03 0.  1.
         11   -1    0    0    0    0 -0.00000000000E+00 -0.00000000000E+00 -0.45593999997E+02  0.45594000000E+02  0.51100000000E-03 0. -1.
    9900012    2    1    2    0    0 -0.59859474490E+01 -0.25982132219E+02 -0.36307171829E+02  0.46142317768E+02  0.10000000064E+02 0.  0.
        -12    1    1    2    0    0  0.59859474490E+01  0.25982132219E+02  0.36307171829E+02  0.45045682232E+02  0.00000000000E+00 0.  1.
         11    1    3    3    0    0 -0.29614005973E+01 -0.20133977281E+02 -0.20571926014E+02  0.28937019108E+02  0.51100000000E-03 0. -1.
        -11    1    3    3    0    0  0.81537006014E-01 -0.11683070349E+01 -0.44219162603E+01  0.45743779123E+01  0.51100000000E-03 0.  1.
         12    1    3    3    0    0 -0.31060838577E+01 -0.46798479027E+01 -0.11313329555E+02  0.12630920748E+02  0.00000000000E+00 0. -1.
</event>
<event>
 7    1  0.4081218E-008  0.4614232E+02  0.7816164E-02  0.1320468E+00
        -11   -1    0    0    0    0  0.00000000000E+00  0.00000000000E+00  0.45593999997E+02  0.45594000000E+02  0.51100000000E-03 0.  1.
         11   -1    0    0    0    0 -0.00000000000E+00 -0.00000000000E+00 -0.45593999997E+02  0.45594000000E+02  0.51100000000E-03 0. -1.
    9900012    2    1    2    0    0  0.28663694805E+02 -0.38175256638E+01 -0.34538855866E+02  0.46142318002E+02  0.10000002200E+02 0.  0.
        -12    1    1    2    0    0 -0.28663694805E+02  0.38175256638E+01  0.34538855866E+02  0.45045681998E+02  0.00000000000E+00 0.  1.
         11    1    3    3    0    0  0.86898029438E+01 -0.56543628219E+01 -0.96401693181E+01  0.14156883798E+02  0.51100000000E-03 0. -1.
        -11    1    3    3    0    0  0.35482525513E+01  0.63265238346E+00 -0.47187595246E+01  0.59377636294E+01  0.51100000000E-03 0.  1.
         12    1    3    3    0    0  0.16425639310E+02  0.12041847746E+01 -0.20179927024E+02  0.26047670575E+02  0.00000000000E+00 0. -1.
</event>
<event>
 7    1  0.4081218E-008  0.4614232E+02  0.7816164E-02  0.1320468E+00
        -11   -1    0    0    0    0  0.00000000000E+00  0.00000000000E+00  0.45593999997E+02  0.45594000000E+02  0.51100000000E-03 0.  1.
         11   -1    0    0    0    0 -0.00000000000E+00 -0.00000000000E+00 -0.45593999997E+02  0.45594000000E+02  0.51100000000E-03 0. -1.
    9900012    2    1    2    0    0  0.53752806520E+01  0.23042892057E+02 -0.38330730261E+02  0.46142318755E+02  0.10000009064E+02 0.  0.
        -12    1    1    2    0    0 -0.53752806520E+01 -0.23042892057E+02  0.38330730261E+02  0.45045681245E+02  0.00000000000E+00 0.  1.
         11    1    3    3    0    0  0.50278968413E+01  0.67275608257E+01 -0.16900727122E+02  0.18872583257E+02  0.51100000000E-03 0. -1.
        -11    1    3    3    0    0  0.33843254231E+00  0.11101623590E+02 -0.17555775020E+02  0.20774162311E+02  0.51100000000E-03 0.  1.
         12    1    3    3    0    0  0.89512683312E-02  0.52137076411E+01 -0.38742281198E+01  0.64955731862E+01  0.00000000000E+00 0. -1.
</event>
<event>
 7    1  0.4081218E-008  0.4614232E+02  0.7816164E-02  0.1320468E+00
        -11   -1    0    0    0    0  0.00000000000E+00  0.00000000000E+00  0.45593999997E+02  0.45594000000E+02  0.51100000000E-03 0. -1.
         11   -1    0    0    0    0 -0.00000000000E+00 -0.00000000000E+00 -0.45593999997E+02  0.45594000000E+02  0.51100000000E-03 0.  1.
    9900012    2    1    2    0    0 -0.11835208606E+02  0.28197167551E+02  0.33075078344E+02  0.46142320649E+02  0.10000026337E+02 0.  0.
        -12    1    1    2    0    0  0.11835208606E+02 -0.28197167551E+02 -0.33075078344E+02  0.45045679351E+02  0.00000000000E+00 0.  1.
         11    1    3    3    0    0 -0.10445617925E+02  0.23556902631E+02  0.23870161529E+02  0.35125819664E+02  0.51100000000E-03 0. -1.
        -11    1    3    3    0    0 -0.26734921775E+00 -0.21481179747E+00 -0.18249233294E+00  0.38848864239E+00  0.51100000000E-03 0.  1.
        -12    1    3    3    0    0 -0.11222414638E+01  0.48550767182E+01  0.93874091486E+01  0.10628012343E+02  0.00000000000E+00 0.  1.
</event>
<event>
 7    1  0.4081218E-008  0.4614232E+02  0.7816164E-02  0.1320468E+00
        -11   -1    0    0    0    0  0.00000000000E+00  0.00000000000E+00  0.45593999997E+02  0.45594000000E+02  0.51100000000E-03 0.  1.
         11   -1    0    0    0    0 -0.00000000000E+00 -0.00000000000E+00 -0.45593999997E+02  0.45594000000E+02  0.51100000000E-03 0. -1.
    9900012    2    1    2    0    0 -0.28599473347E+02 -0.27455857836E+02 -0.21385964628E+02  0.46142317762E+02  0.10000000007E+02 0.  0.
        -12    1    1    2    0    0  0.28599473347E+02  0.27455857836E+02  0.21385964628E+02  0.45045682238E+02  0.00000000000E+00 0.  1.
         11    1    3    3    0    0 -0.20274245679E+02 -0.15383716933E+02 -0.10571290626E+02  0.27558228722E+02  0.51100000000E-03 0. -1.
        -11    1    3    3    0    0 -0.40177810383E+01 -0.34527409547E+01 -0.25041486271E+01  0.58595857515E+01  0.51100000000E-03 0.  1.
        -12    1    3    3    0    0 -0.43074466300E+01 -0.86193999484E+01 -0.83105253746E+01  0.12724503289E+02  0.00000000000E+00 0.  1.
</event>
<event>
 7    1  0.4081218E-008  0.4614232E+02  0.7816164E-02  0.1320468E+00
        -11   -1    0    0    0    0  0.00000000000E+00  0.00000000000E+00  0.45593999997E+02  0.45594000000E+02  0.51100000000E-03 0. -1.
         11   -1    0    0    0    0 -0.00000000000E+00 -0.00000000000E+00 -0.45593999997E+02  0.45594000000E+02  0.51100000000E-03 0.  1.
    9900012    2    1    2    0    0  0.38535113230E+02  0.22341143729E+02 -0.67105742047E+01  0.46142318065E+02  0.10000002773E+02 0.  0.
        -12    1    1    2    0    0 -0.38535113230E+02 -0.22341143729E+02  0.67105742047E+01  0.45045681935E+02  0.00000000000E+00 0.  1.
         11    1    3    3    0    0  0.13255008612E+02  0.49326629065E+01  0.16144049281E+00  0.14143990949E+02  0.51100000000E-03 0. -1.
        -11    1    3    3    0    0  0.10559919080E+02  0.45051432113E+01 -0.42793694129E+01  0.12252396058E+02  0.51100000000E-03 0.  1.
         12    1    3    3    0    0  0.14720185538E+02  0.12903337612E+02 -0.25926452846E+01  0.19745931058E+02  0.00000000000E+00 0. -1.
</event>
<event>
 7    1  0.4081218E-008  0.4614232E+02  0.7816164E-02  0.1320468E+00
        -11   -1    0    0    0    0  0.00000000000E+00  0.00000000000E+00  0.45593999997E+02  0.45594000000E+02  0.51100000000E-03 0.  1.
         11   -1    0    0    0    0 -0.00000000000E+00 -0.00000000000E+00 -0.45593999997E+02  0.45594000000E+02  0.51100000000E-03 0. -1.
    9900012    2    1    2    0    0  0.35201790678E+02 -0.98776921829E+01 -0.26313086279E+02  0.46142318972E+02  0.10000011039E+02 0.  0.
        -12    1    1    2    0    0 -0.35201790678E+02  0.98776921829E+01  0.26313086279E+02  0.45045681028E+02  0.00000000000E+00 0.  1.
         11    1    3    3    0    0  0.51249043027E+01  0.38762796024E+00 -0.37406864858E+01  0.63567000238E+01  0.51100000000E-03 0. -1.
        -11    1    3    3    0    0  0.96674368508E+01 -0.17697230859E+01 -0.30444871029E+01  0.10288836525E+02  0.51100000000E-03 0.  1.
         12    1    3    3    0    0  0.20409449524E+02 -0.84955970573E+01 -0.19527912690E+02  0.29496782422E+02  0.00000000000E+00 0. -1.
</event>
<event>
 7    1  0.4081218E-008  0.4614232E+02  0.7816164E-02  0.1320468E+00
        -11   -1    0    0    0    0  0.00000000000E+00  0.00000000000E+00  0.45593999997E+02  0.45594000000E+02  0.51100000000E-03 0.  1.
         11   -1    0    0    0    0 -0.00000000000E+00 -0.00000000000E+00 -0.45593999997E+02  0.45594000000E+02  0.51100000000E-03 0. -1.
    9900012    2    1    2    0    0 -0.39440760418E+02 -0.44203834151E+01 -0.21307280254E+02  0.46142316924E+02  0.99999923706E+01 0.  0.
        -12    1    1    2    0    0  0.39440760418E+02  0.44203834151E+01  0.21307280254E+02  0.45045683076E+02  0.00000000000E+00 0.  1.
         11    1    3    3    0    0 -0.11306935712E+02 -0.51103083470E+01 -0.77816766258E+01  0.14646383102E+02  0.51100000000E-03 0. -1.
        -11    1    3    3    0    0 -0.10692097943E+02 -0.17388491645E+01 -0.50081306906E+01  0.11934233453E+02  0.51100000000E-03 0.  1.
        -12    1    3    3    0    0 -0.17441726763E+02  0.24287740963E+01 -0.85174729375E+01  0.19561700369E+02  0.00000000000E+00 0.  1.
</event>
<event>
 7    1  0.4081218E-008  0.4614232E+02  0.7816164E-02  0.1320468E+00
        -11   -1    0    0    0    0  0.00000000000E+00  0.00000000000E+00  0.45593999997E+02  0.45594000000E+02  0.51100000000E-03 0. -1.
         11   -1    0    0    0    0 -0.00000000000E+00 -0.00000000000E+00 -0.45593999997E+02  0.45594000000E+02  0.51100000000E-03 0.  1.
    9900012    2    1    2    0    0 -0.36320661152E+02  0.14226786751E+02 -0.22528239076E+02  0.46142318257E+02  0.10000004526E+02 0.  0.
        -12    1    1    2    0    0  0.36320661152E+02 -0.14226786751E+02  0.22528239076E+02  0.45045681743E+02  0.00000000000E+00 0.  1.
         11    1    3    3    0    0 -0.70639667343E+01 -0.90264603622E+00 -0.37823272112E+01  0.80635225109E+01  0.51100000000E-03 0. -1.
        -11    1    3    3    0    0 -0.93242694957E+01  0.55556743943E+01 -0.80628224763E+01  0.13520969867E+02  0.51100000000E-03 0.  1.
        -12    1    3    3    0    0 -0.19932424922E+02  0.95737583925E+01 -0.10683089388E+02  0.24557825879E+02  0.00000000000E+00 0.  1.
</event>
<event>
 7    1  0.4081218E-008  0.4614232E+02  0.7816164E-02  0.1320468E+00
        -11   -1    0    0    0    0  0.00000000000E+00  0.00000000000E+00  0.45593999997E+02  0.45594000000E+02  0.51100000000E-03 0.  1.
         11   -1    0    0    0    0 -0.00000000000E+00 -0.00000000000E+00 -0.45593999997E+02  0.45594000000E+02  0.51100000000E-03 0. -1.
    9900012    2    1    2    0    0 -0.28077847787E+02 -0.33169226882E+02 -0.11855395780E+02  0.46142316995E+02  0.99999930105E+01 0.  0.
        -12    1    1    2    0    0  0.28077847787E+02  0.33169226882E+02  0.11855395780E+02  0.45045683005E+02  0.00000000000E+00 0.  1.
         11    1    3    3    0    0 -0.75186138699E+01 -0.11501403811E+02 -0.56944517467E+01  0.14874092413E+02  0.51100000000E-03 0. -1.
        -11    1    3    3    0    0 -0.42427235770E+01 -0.30030611020E+01 -0.36473044974E+01  0.63499535188E+01  0.51100000000E-03 0.  1.
        -12    1    3    3    0    0 -0.16316510340E+02 -0.18664761969E+02 -0.25136395357E+01  0.24918271063E+02  0.00000000000E+00 0.  1.
</event>
<event>
 7    1  0.4081218E-008  0.4614232E+02  0.7816164E-02  0.1320468E+00
        -11   -1    0    0    0    0  0.00000000000E+00  0.00000000000E+00  0.45593999997E+02  0.45594000000E+02  0.51100000000E-03 0. -1.
         11   -1    0    0    0    0 -0.00000000000E+00 -0.00000000000E+00 -0.45593999997E+02  0.45594000000E+02  0.51100000000E-03 0.  1.
    9900012    2    1    2    0    0  0.22780057027E+02 -0.36646961463E+02  0.12929913134E+02  0.46142318340E+02  0.10000005276E+02 0.  0.
        -12    1    1    2    0    0 -0.22780057027E+02  0.36646961463E+02 -0.12929913134E+02  0.45045681660E+02  0.00000000000E+00 0.  1.
         11    1    3    3    0    0 -0.11553159791E+00 -0.37646341105E+01  0.23202781113E+00  0.37735467007E+01  0.51100000000E-03 0. -1.
        -11    1    3    3    0    0  0.16380847158E+01 -0.19009651627E+01  0.22496673693E+01  0.33701622542E+01  0.51100000000E-03 0.  1.
         12    1    3    3    0    0  0.21257503909E+02 -0.30981362190E+02  0.10448217953E+02  0.38998609385E+02  0.00000000000E+00 0. -1.
</event>
<event>
 7    1  0.4081218E-008  0.4614232E+02  0.7816164E-02  0.1320468E+00
        -11   -1    0    0    0    0  0.00000000000E+00  0.00000000000E+00  0.45593999997E+02  0.45594000000E+02  0.51100000000E-03 0. -1.
         11   -1    0    0    0    0 -0.00000000000E+00 -0.00000000000E+00 -0.45593999997E+02  0.45594000000E+02  0.51100000000E-03 0.  1.
    9900012    2    1    2    0    0 -0.19674451703E+02  0.35684177372E+02  0.19200752726E+02  0.46142317967E+02  0.10000001881E+02 0.  0.
        -12    1    1    2    0    0  0.19674451703E+02 -0.35684177372E+02 -0.19200752726E+02  0.45045682033E+02  0.00000000000E+00 0.  1.
         11    1    3    3    0    0 -0.63036949075E+01  0.11565103486E+02  0.25508333668E+01  0.13416219261E+02  0.51100000000E-03 0. -1.
        -11    1    3    3    0    0 -0.85911591533E+01  0.18061700463E+02  0.14538262118E+02  0.24726384792E+02  0.51100000000E-03 0.  1.
        -12    1    3    3    0    0 -0.47795976425E+01  0.60573734225E+01  0.21116572414E+01  0.79997139141E+01  0.00000000000E+00 0.  1.
</event>
<event>
 7    1  0.4081218E-008  0.4614232E+02  0.7816164E-02  0.1320468E+00
        -11   -1    0    0    0    0  0.00000000000E+00  0.00000000000E+00  0.45593999997E+02  0.45594000000E+02  0.51100000000E-03 0.  1.
         11   -1    0    0    0    0 -0.00000000000E+00 -0.00000000000E+00 -0.45593999997E+02  0.45594000000E+02  0.51100000000E-03 0. -1.
    9900012    2    1    2    0    0  0.26334021109E+02  0.79947772624E+01 -0.35661128552E+02  0.46142320731E+02  0.10000027079E+02 0.  0.
        -12    1    1    2    0    0 -0.26334021109E+02 -0.79947772624E+01  0.35661128552E+02  0.45045679269E+02  0.00000000000E+00 0.  1.
         11    1    3    3    0    0  0.27445314523E+01 -0.50656543983E+00 -0.35977025985E+01  0.45532983304E+01  0.51100000000E-03 0. -1.
        -11    1    3    3    0    0  0.56659392351E+01  0.34744117167E+01 -0.35446231950E+01  0.75325133952E+01  0.51100000000E-03 0.  1.
         12    1    3    3    0    0  0.17923550421E+02  0.50269309855E+01 -0.28518802758E+02  0.34056509005E+02  0.00000000000E+00 0. -1.
</event>
<event>
 7    1  0.4081218E-008  0.4614232E+02  0.7816164E-02  0.1320468E+00
        -11   -1    0    0    0    0  0.00000000000E+00  0.00000000000E+00  0.45593999997E+02  0.45594000000E+02  0.51100000000E-03 0.  1.
         11   -1    0    0    0    0 -0.00000000000E+00 -0.00000000000E+00 -0.45593999997E+02  0.45594000000E+02  0.51100000000E-03 0. -1.
    9900012    2    1    2    0    0 -0.14501920308E+02 -0.41987039551E+02  0.74763802239E+01  0.46142318252E+02  0.10000004473E+02 0.  0.
        -12    1    1    2    0    0  0.14501920308E+02  0.41987039551E+02 -0.74763802239E+01  0.45045681748E+02  0.00000000000E+00 0.  1.
         11    1    3    3    0    0 -0.72193791047E+01 -0.19235337628E+02  0.13690358925E+01  0.20591063786E+02  0.51100000000E-03 0. -1.
        -11    1    3    3    0    0  0.57199725222E+00  0.90163008789E-01  0.47431250462E+00  0.74852043249E+00  0.51100000000E-03 0.  1.
        -12    1    3    3    0    0 -0.78545384558E+01 -0.22841864933E+02  0.56330318268E+01  0.24802734033E+02  0.00000000000E+00 0.  1.
</event>
<event>
 7    1  0.4081218E-008  0.4614232E+02  0.7816164E-02  0.1320468E+00
        -11   -1    0    0    0    0  0.00000000000E+00  0.00000000000E+00  0.45593999997E+02  0.45594000000E+02  0.51100000000E-03 0. -1.
         11   -1    0    0    0    0 -0.00000000000E+00 -0.00000000000E+00 -0.45593999997E+02  0.45594000000E+02  0.51100000000E-03 0.  1.
    9900012    2    1    2    0    0 -0.79060486332E+01 -0.43872641479E+02  0.64652397911E+01  0.46142316512E+02  0.99999886063E+01 0.  0.
        -12    1    1    2    0    0  0.79060486332E+01  0.43872641479E+02 -0.64652397911E+01  0.45045683488E+02  0.00000000000E+00 0.  1.
         11    1    3    3    0    0 -0.89036454641E+00 -0.45272181973E+01 -0.61174002081E+00  0.46543183976E+01  0.51100000000E-03 0. -1.
        -11    1    3    3    0    0 -0.75681446804E+01 -0.33184754284E+02  0.31975152378E+01  0.34186676275E+02  0.51100000000E-03 0.  1.
        -12    1    3    3    0    0  0.55246059364E+00 -0.61606689983E+01  0.38794645741E+01  0.73013218390E+01  0.00000000000E+00 0.  1.
</event>
<event>
 7    1  0.4081218E-008  0.4614232E+02  0.7816164E-02  0.1320468E+00
        -11   -1    0    0    0    0  0.00000000000E+00  0.00000000000E+00  0.45593999997E+02  0.45594000000E+02  0.51100000000E-03 0.  1.
         11   -1    0    0    0    0 -0.00000000000E+00 -0.00000000000E+00 -0.45593999997E+02  0.45594000000E+02  0.51100000000E-03 0. -1.
    9900012    2    1    2    0    0  0.38449053437E+02 -0.89458997723E+01 -0.21696878679E+02  0.46142318993E+02  0.10000011233E+02 0.  0.
        -12    1    1    2    0    0 -0.38449053437E+02  0.89458997723E+01  0.21696878679E+02  0.45045681007E+02  0.00000000000E+00 0.  1.
         11    1    3    3    0    0  0.16030790567E+02 -0.37479124125E+01 -0.10316599441E+02  0.19428466691E+02  0.51100000000E-03 0. -1.
        -11    1    3    3    0    0  0.19365906672E+02 -0.40743391426E+01 -0.12340790097E+02  0.23322385838E+02  0.51100000000E-03 0.  1.
        -12    1    3    3    0    0  0.30523561977E+01 -0.11236482172E+01  0.96051085802E+00  0.33914664649E+01  0.00000000000E+00 0.  1.
</event>
<event>
 7    1  0.4081218E-008  0.4614232E+02  0.7816164E-02  0.1320468E+00
        -11   -1    0    0    0    0  0.00000000000E+00  0.00000000000E+00  0.45593999997E+02  0.45594000000E+02  0.51100000000E-03 0. -1.
         11   -1    0    0    0    0 -0.00000000000E+00 -0.00000000000E+00 -0.45593999997E+02  0.45594000000E+02  0.51100000000E-03 0.  1.
    9900012    2    1    2    0    0 -0.33484631932E+02 -0.33167479516E+00  0.30129435828E+02  0.46142317775E+02  0.10000000126E+02 0.  0.
        -12    1    1    2    0    0  0.33484631932E+02  0.33167479516E+00 -0.30129435828E+02  0.45045682225E+02  0.00000000000E+00 0.  1.
         11    1    3    3    0    0 -0.17253539612E+02  0.11984203871E+01  0.13457982372E+02  0.21914336183E+02  0.51100000000E-03 0. -1.
        -11    1    3    3    0    0 -0.14650520231E+02 -0.28096675013E+01  0.12041351240E+02  0.19170970618E+02  0.51100000000E-03 0.  1.
        -12    1    3    3    0    0 -0.15805720890E+01  0.12795723191E+01  0.46301022168E+01  0.50570109736E+01  0.00000000000E+00 0.  1.
</event>
<event>
 7    1  0.4081218E-008  0.4614232E+02  0.7816164E-02  0.1320468E+00
        -11   -1    0    0    0    0  0.00000000000E+00  0.00000000000E+00  0.45593999997E+02  0.45594000000E+02  0.51100000000E-03 0.  1.
         11   -1    0    0    0    0 -0.00000000000E+00 -0.00000000000E+00 -0.45593999997E+02  0.45594000000E+02  0.51100000000E-03 0. -1.
    9900012    2    1    2    0    0 -0.85828425306E+01 -0.20857275273E+02 -0.38992593677E+02  0.46142317861E+02  0.10000000908E+02 0.  0.
        -12    1    1    2    0    0  0.85828425306E+01  0.20857275273E+02  0.38992593677E+02  0.45045682139E+02  0.00000000000E+00 0.  1.
         11    1    3    3    0    0 -0.47924365118E+01 -0.13725843750E+02 -0.24749750509E+02  0.28703943717E+02  0.51100000000E-03 0. -1.
        -11    1    3    3    0    0  0.89958893048E+00  0.46047004118E+00 -0.24459012655E+01  0.26464553962E+01  0.51100000000E-03 0.  1.
         12    1    3    3    0    0 -0.46899949493E+01 -0.75919015643E+01 -0.11796941903E+02  0.14791918748E+02  0.00000000000E+00 0. -1.
</event>
<event>
 7    1  0.4081218E-008  0.4614232E+02  0.7816164E-02  0.1320468E+00
        -11   -1    0    0    0    0  0.00000000000E+00  0.00000000000E+00  0.45593999997E+02  0.45594000000E+02  0.51100000000E-03 0.  1.
         11   -1    0    0    0    0 -0.00000000000E+00 -0.00000000000E+00 -0.45593999997E+02  0.45594000000E+02  0.51100000000E-03 0. -1.
    9900012    2    1    2    0    0 -0.19870880931E+02 -0.31197569968E+02 -0.25709400401E+02  0.46142317079E+02  0.99999937794E+01 0.  0.
        -12    1    1    2    0    0  0.19870880931E+02  0.31197569968E+02  0.25709400401E+02  0.45045682921E+02  0.00000000000E+00 0.  1.
         11    1    3    3    0    0 -0.48302911347E+01 -0.56325616428E+01 -0.10357672216E+02  0.12741225887E+02  0.51100000000E-03 0. -1.
        -11    1    3    3    0    0 -0.33921662536E+01 -0.56008073532E+01 -0.32227019735E+01  0.72980574930E+01  0.51100000000E-03 0.  1.
         12    1    3    3    0    0 -0.11648423543E+02 -0.19964200972E+02 -0.12129026211E+02  0.26103033699E+02  0.00000000000E+00 0. -1.
</event>
<event>
 7    1  0.5397668E-008  0.4614232E+02  0.7816164E-02  0.1320468E+00
        -11   -1    0    0    0    0  0.00000000000E+00  0.00000000000E+00  0.45593999997E+02  0.45594000000E+02  0.51100000000E-03 0.  1.
         11   -1    0    0    0    0 -0.00000000000E+00 -0.00000000000E+00 -0.45593999997E+02  0.45594000000E+02  0.51100000000E-03 0. -1.
    9900012    2    1    2    0    0  0.41201606670E+02 -0.16844099796E+02 -0.69150103374E+01  0.46142318098E+02  0.10000003070E+02 0.  0.
        -12    1    1    2    0    0 -0.41201606670E+02  0.16844099796E+02  0.69150103374E+01  0.45045681902E+02  0.00000000000E+00 0.  1.
         11    1    3    3    0    0  0.19082384337E+02 -0.78498075396E+01 -0.64383406918E+01  0.21615020276E+02  0.51100000000E-03 0. -1.
        -11    1    3    3    0    0  0.39057726899E+01 -0.96699234356E-01 -0.16085147201E+01  0.42251308752E+01  0.51100000000E-03 0.  1.
        -12    1    3    3    0    0  0.18213449643E+02 -0.88975930216E+01  0.11318450745E+01  0.20302166947E+02  0.00000000000E+00 0.  1.
</event>
<event>
 7    1  0.4081218E-008  0.4614232E+02  0.7816164E-02  0.1320468E+00
        -11   -1    0    0    0    0  0.00000000000E+00  0.00000000000E+00  0.45593999997E+02  0.45594000000E+02  0.51100000000E-03 0.  1.
         11   -1    0    0    0    0 -0.00000000000E+00 -0.00000000000E+00 -0.45593999997E+02  0.45594000000E+02  0.51100000000E-03 0. -1.
    9900012    2    1    2    0    0  0.30552056078E+02 -0.22318777958E+01 -0.33025808414E+02  0.46142318404E+02  0.10000005859E+02 0.  0.
        -12    1    1    2    0    0 -0.30552056078E+02  0.22318777958E+01  0.33025808414E+02  0.45045681596E+02  0.00000000000E+00 0.  1.
         11    1    3    3    0    0  0.70047975740E+01  0.21170366159E+01 -0.57804606567E+01  0.93253824989E+01  0.51100000000E-03 0. -1.
        -11    1    3    3    0    0  0.78484567069E+01  0.14684486511E+01 -0.97373897903E+01  0.12592512629E+02  0.51100000000E-03 0.  1.
        -12    1    3    3    0    0  0.15698801797E+02 -0.58173630629E+01 -0.17507957967E+02  0.24224423276E+02  0.00000000000E+00 0.  1.
</event>
<event>
 7    1  0.4081218E-008  0.4614232E+02  0.7816164E-02  0.1320468E+00
        -11   -1    0    0    0    0  0.00000000000E+00  0.00000000000E+00  0.45593999997E+02  0.45594000000E+02  0.51100000000E-03 0.  1.
         11   -1    0    0    0    0 -0.00000000000E+00 -0.00000000000E+00 -0.45593999997E+02  0.45594000000E+02  0.51100000000E-03 0. -1.
    9900012    2    1    2    0    0  0.35035985860E+02 -0.27920198789E+02  0.46963545196E+01  0.46142317062E+02  0.99999936241E+01 0.  0.
        -12    1    1    2    0    0 -0.35035985860E+02  0.27920198789E+02 -0.46963545196E+01  0.45045682938E+02  0.00000000000E+00 0.  1.
         11    1    3    3    0    0  0.48196002029E+01 -0.58897320501E+01  0.10018580653E+01  0.76760152151E+01  0.51100000000E-03 0. -1.
        -11    1    3    3    0    0  0.24497302539E+02 -0.16263249093E+02  0.60276444100E+01  0.30015722549E+02  0.51100000000E-03 0.  1.
         12    1    3    3    0    0  0.57190831180E+01 -0.57672176463E+01 -0.23331479557E+01  0.84505792981E+01  0.00000000000E+00 0. -1.
</event>
<event>
 7    1  0.4081218E-008  0.4614232E+02  0.7816164E-02  0.1320468E+00
        -11   -1    0    0    0    0  0.00000000000E+00  0.00000000000E+00  0.45593999997E+02  0.45594000000E+02  0.51100000000E-03 0.  1.
         11   -1    0    0    0    0 -0.00000000000E+00 -0.00000000000E+00 -0.45593999997E+02  0.45594000000E+02  0.51100000000E-03 0. -1.
    9900012    2    1    2    0    0  0.97367926090E+01  0.38414947820E+02 -0.21414956166E+02  0.46142315479E+02  0.99999791932E+01 0.  0.
        -12    1    1    2    0    0 -0.97367926090E+01 -0.38414947820E+02  0.21414956166E+02  0.45045684521E+02  0.00000000000E+00 0.  1.
         11    1    3    3    0    0  0.57200836964E+01  0.21608671846E+02 -0.14631893940E+02  0.26716032209E+02  0.51100000000E-03 0. -1.
        -11    1    3    3    0    0  0.14430036420E+01  0.88804139156E+01 -0.64798787565E+01  0.11087508277E+02  0.51100000000E-03 0.  1.
        -12    1    3    3    0    0  0.25737052705E+01  0.79258620581E+01 -0.30318347008E+00  0.83387749940E+01  0.00000000000E+00 0.  1.
</event>
<event>
 7    1  0.4081218E-008  0.4614231E+02  0.7816164E-02  0.1320468E+00
        -11   -1    0    0    0    0  0.00000000000E+00  0.00000000000E+00  0.45593999997E+02  0.45594000000E+02  0.51100000000E-03 0.  1.
         11   -1    0    0    0    0 -0.00000000000E+00 -0.00000000000E+00 -0.45593999997E+02  0.45594000000E+02  0.51100000000E-03 0. -1.
    9900012    2    1    2    0    0 -0.22642510901E+01 -0.32474202210E+02 -0.31135411392E+02  0.46142306702E+02  0.99998991547E+01 0.  0.
        -12    1    1    2    0    0  0.22642510901E+01  0.32474202210E+02  0.31135411392E+02  0.45045693298E+02  0.00000000000E+00 0.  1.
         11    1    3    3    0    0 -0.20087524647E+01 -0.13686395020E+02 -0.16312378587E+02  0.21387991737E+02  0.51100000000E-03 0. -1.
        -11    1    3    3    0    0  0.60145762682E+00 -0.13220139347E+01 -0.38375108393E+01  0.41031648545E+01  0.51100000000E-03 0.  1.
         12    1    3    3    0    0 -0.85695625220E+00 -0.17465793255E+02 -0.10985521965E+02  0.20651150110E+02  0.00000000000E+00 0. -1.
</event>
<event>
 7    1  0.4081218E-008  0.4614232E+02  0.7816164E-02  0.1320468E+00
        -11   -1    0    0    0    0  0.00000000000E+00  0.00000000000E+00  0.45593999997E+02  0.45594000000E+02  0.51100000000E-03 0.  1.
         11   -1    0    0    0    0 -0.00000000000E+00 -0.00000000000E+00 -0.45593999997E+02  0.45594000000E+02  0.51100000000E-03 0. -1.
    9900012    2    1    2    0    0  0.26628040818E+02  0.57226651590E+01 -0.35879130371E+02  0.46142318181E+02  0.10000003829E+02 0.  0.
        -12    1    1    2    0    0 -0.26628040818E+02 -0.57226651590E+01  0.35879130371E+02  0.45045681819E+02  0.00000000000E+00 0.  1.
         11    1    3    3    0    0  0.77516212146E+01  0.19985898900E+01 -0.12069931398E+02  0.14483274396E+02  0.51100000000E-03 0. -1.
        -11    1    3    3    0    0 -0.81287731328E+00  0.35437508497E+00 -0.11466004816E+01  0.14494978968E+01  0.51100000000E-03 0.  1.
        -12    1    3    3    0    0  0.19689296917E+02  0.33697001840E+01 -0.22662598492E+02  0.30209545889E+02  0.00000000000E+00 0.  1.
</event>
<event>
 7    1  0.4081218E-008  0.4614232E+02  0.7816164E-02  0.1320468E+00
        -11   -1    0    0    0    0  0.00000000000E+00  0.00000000000E+00  0.45593999997E+02  0.45594000000E+02  0.51100000000E-03 0.  1.
         11   -1    0    0    0    0 -0.00000000000E+00 -0.00000000000E+00 -0.45593999997E+02  0.45594000000E+02  0.51100000000E-03 0. -1.
    9900012    2    1    2    0    0 -0.81184893993E+01 -0.16169307138E+02 -0.41252359839E+02  0.46142317013E+02  0.99999931812E+01 0.  0.
        -12    1    1    2    0    0  0.81184893993E+01  0.16169307138E+02  0.41252359839E+02  0.45045682987E+02  0.00000000000E+00 0.  1.
         11    1    3    3    0    0  0.12984837018E+01 -0.70098927512E+00 -0.22985311833E+01  0.27314266876E+01  0.51100000000E-03 0. -1.
        -11    1    3    3    0    0 -0.59615260588E+01 -0.45075527826E+01 -0.12423469011E+02  0.14498289815E+02  0.51100000000E-03 0.  1.
         12    1    3    3    0    0 -0.34554470423E+01 -0.10960765081E+02 -0.26530359645E+02  0.28912600511E+02  0.00000000000E+00 0. -1.
</event>
<event>
 7    1  0.4081218E-008  0.4614232E+02  0.7816164E-02  0.1320468E+00
        -11   -1    0    0    0    0  0.00000000000E+00  0.00000000000E+00  0.45593999997E+02  0.45594000000E+02  0.51100000000E-03 0.  1.
         11   -1    0    0    0    0 -0.00000000000E+00 -0.00000000000E+00 -0.45593999997E+02  0.45594000000E+02  0.51100000000E-03 0. -1.
    9900012    2    1    2    0    0 -0.11082796696E+02 -0.43397073237E+02 -0.47936716867E+01  0.46142316118E+02  0.99999850160E+01 0.  0.
        -12    1    1    2    0    0  0.11082796696E+02  0.43397073237E+02  0.47936716867E+01  0.45045683882E+02  0.00000000000E+00 0.  1.
         11    1    3    3    0    0 -0.56983891022E+01 -0.33661787738E+02 -0.45947285819E+01  0.34448499576E+02  0.51100000000E-03 0. -1.
        -11    1    3    3    0    0  0.31935635213E+00  0.83563937633E-01  0.60259100431E-01  0.33556345395E+00  0.51100000000E-03 0.  1.
         12    1    3    3    0    0 -0.57037639456E+01 -0.98188494372E+01 -0.25920220524E+00  0.11358253088E+02  0.00000000000E+00 0. -1.
</event>
<event>
 7    1  0.4081218E-008  0.4614232E+02  0.7816164E-02  0.1320468E+00
        -11   -1    0    0    0    0  0.00000000000E+00  0.00000000000E+00  0.45593999997E+02  0.45594000000E+02  0.51100000000E-03 0. -1.
         11   -1    0    0    0    0 -0.00000000000E+00 -0.00000000000E+00 -0.45593999997E+02  0.45594000000E+02  0.51100000000E-03 0.  1.
    9900012    2    1    2    0    0  0.14862971217E+02  0.38706802561E+02  0.17606508007E+02  0.46142316499E+02  0.99999884892E+01 0.  0.
        -12    1    1    2    0    0 -0.14862971217E+02 -0.38706802561E+02 -0.17606508007E+02  0.45045683501E+02  0.00000000000E+00 0.  1.
         11    1    3    3    0    0  0.76656284767E+01  0.15640548711E+02  0.39028420922E+01  0.17849952397E+02  0.51100000000E-03 0. -1.
        -11    1    3    3    0    0 -0.11930863172E+00  0.33625542686E+01  0.33177398667E+00  0.33809880210E+01  0.51100000000E-03 0.  1.
        -12    1    3    3    0    0  0.73166513722E+01  0.19703699582E+02  0.13371891928E+02  0.24911376081E+02  0.00000000000E+00 0.  1.
</event>
<event>
 7    1  0.4081218E-008  0.4614232E+02  0.7816164E-02  0.1320468E+00
        -11   -1    0    0    0    0  0.00000000000E+00  0.00000000000E+00  0.45593999997E+02  0.45594000000E+02  0.51100000000E-03 0.  1.
         11   -1    0    0    0    0 -0.00000000000E+00 -0.00000000000E+00 -0.45593999997E+02  0.45594000000E+02  0.51100000000E-03 0. -1.
    9900012    2    1    2    0    0 -0.14737027939E+02 -0.29395367006E+02 -0.30787107183E+02  0.46142316937E+02  0.99999924873E+01 0.  0.
        -12    1    1    2    0    0  0.14737027939E+02  0.29395367006E+02  0.30787107183E+02  0.45045683063E+02  0.00000000000E+00 0.  1.
         11    1    3    3    0    0 -0.43822073709E+01 -0.87813272407E+01 -0.83228791929E+01  0.12868013361E+02  0.51100000000E-03 0. -1.
        -11    1    3    3    0    0 -0.11619192129E+02 -0.18733859269E+02 -0.18831527745E+02  0.28992922349E+02  0.51100000000E-03 0.  1.
        -12    1    3    3    0    0  0.12643715608E+01 -0.18801804963E+01 -0.36327002446E+01  0.42813812269E+01  0.00000000000E+00 0.  1.
</event>
<event>
 7    1  0.4081218E-008  0.4614232E+02  0.7816164E-02  0.1320468E+00
        -11   -1    0    0    0    0  0.00000000000E+00  0.00000000000E+00  0.45593999997E+02  0.45594000000E+02  0.51100000000E-03 0.  1.
         11   -1    0    0    0    0 -0.00000000000E+00 -0.00000000000E+00 -0.45593999997E+02  0.45594000000E+02  0.51100000000E-03 0. -1.
    9900012    2    1    2    0    0 -0.28777752043E+00 -0.27519665257E+02 -0.35660884350E+02  0.46142318028E+02  0.10000002429E+02 0.  0.
        -12    1    1    2    0    0  0.28777752043E+00  0.27519665257E+02  0.35660884350E+02  0.45045681972E+02  0.00000000000E+00 0.  1.
         11    1    3    3    0    0  0.11933047403E+01 -0.16136795243E+02 -0.24476737113E+02  0.29341622261E+02  0.51100000000E-03 0. -1.
        -11    1    3    3    0    0 -0.18208499405E+01 -0.11654162631E+02 -0.11316510776E+02  0.16346204989E+02  0.51100000000E-03 0.  1.
        -12    1    3    3    0    0  0.33976767984E+00  0.27129261734E+00  0.13236353938E+00  0.45449077773E+00  0.00000000000E+00 0.  1.
</event>
<event>
 7    1  0.4081218E-008  0.4614232E+02  0.7816164E-02  0.1320468E+00
        -11   -1    0    0    0    0  0.00000000000E+00  0.00000000000E+00  0.45593999997E+02  0.45594000000E+02  0.51100000000E-03 0. -1.
         11   -1    0    0    0    0 -0.00000000000E+00 -0.00000000000E+00 -0.45593999997E+02  0.45594000000E+02  0.51100000000E-03 0.  1.
    9900012    2    1    2    0    0 -0.34636744881E+02  0.14027544432E+01  0.28765287382E+02  0.46142316808E+02  0.99999913131E+01 0.  0.
        -12    1    1    2    0    0  0.34636744881E+02 -0.14027544432E+01 -0.28765287382E+02  0.45045683192E+02  0.00000000000E+00 0.  1.
         11    1    3    3    0    0 -0.20961178677E+02 -0.98798472796E+00  0.18568943689E+02  0.28020578069E+02  0.51100000000E-03 0. -1.
        -11    1    3    3    0    0 -0.19195704529E+01 -0.13540666399E+01  0.30966286181E+01  0.38868182681E+01  0.51100000000E-03 0.  1.
         12    1    3    3    0    0 -0.11755995752E+02  0.37448058111E+01  0.70997150755E+01  0.14234920472E+02  0.00000000000E+00 0. -1.
</event>
<event>
 7    1  0.4081218E-008  0.4614232E+02  0.7816164E-02  0.1320468E+00
        -11   -1    0    0    0    0  0.00000000000E+00  0.00000000000E+00  0.45593999997E+02  0.45594000000E+02  0.51100000000E-03 0.  1.
         11   -1    0    0    0    0 -0.00000000000E+00 -0.00000000000E+00 -0.45593999997E+02  0.45594000000E+02  0.51100000000E-03 0. -1.
    9900012    2    1    2    0    0  0.17861916766E+02 -0.18209446058E+02 -0.37127908110E+02  0.46142317000E+02  0.99999930630E+01 0.  0.
        -12    1    1    2    0    0 -0.17861916766E+02  0.18209446058E+02  0.37127908110E+02  0.45045683000E+02  0.00000000000E+00 0.  1.
         11    1    3    3    0    0  0.39510132211E+01 -0.25293330702E+01 -0.13501620313E+02  0.14293417457E+02  0.51100000000E-03 0. -1.
        -11    1    3    3    0    0  0.77106878695E+01 -0.99476368175E+01 -0.16793897461E+02  0.20986785791E+02  0.51100000000E-03 0.  1.
        -12    1    3    3    0    0  0.62002156751E+01 -0.57324761701E+01 -0.68323903362E+01  0.10862113752E+02  0.00000000000E+00 0.  1.
</event>
<event>
 7    1  0.4081218E-008  0.4614232E+02  0.7816164E-02  0.1320468E+00
        -11   -1    0    0    0    0  0.00000000000E+00  0.00000000000E+00  0.45593999997E+02  0.45594000000E+02  0.51100000000E-03 0. -1.
         11   -1    0    0    0    0 -0.00000000000E+00 -0.00000000000E+00 -0.45593999997E+02  0.45594000000E+02  0.51100000000E-03 0.  1.
    9900012    2    1    2    0    0  0.19090539388E+02 -0.34945529101E+02  0.21058835364E+02  0.46142320461E+02  0.10000024616E+02 0.  0.
        -12    1    1    2    0    0 -0.19090539388E+02  0.34945529101E+02 -0.21058835364E+02  0.45045679539E+02  0.00000000000E+00 0.  1.
         11    1    3    3    0    0  0.16721960015E+02 -0.21621010639E+02  0.13669548810E+02  0.30560572847E+02  0.51100000000E-03 0. -1.
        -11    1    3    3    0    0  0.87949180791E+00 -0.79077681999E+01  0.32086025784E+01  0.85791278409E+01  0.51100000000E-03 0.  1.
        -12    1    3    3    0    0  0.14890875652E+01 -0.54167502624E+01  0.41806839760E+01  0.70026197732E+01  0.00000000000E+00 0.  1.
</event>
<event>
 7    1  0.4081218E-008  0.4614232E+02  0.7816164E-02  0.1320468E+00
        -11   -1    0    0    0    0  0.00000000000E+00  0.00000000000E+00  0.45593999997E+02  0.45594000000E+02  0.51100000000E-03 0. -1.
         11   -1    0    0    0    0 -0.00000000000E+00 -0.00000000000E+00 -0.45593999997E+02  0.45594000000E+02  0.51100000000E-03 0.  1.
    9900012    2    1    2    0    0 -0.26693300654E+02  0.15459427132E+01  0.36251775397E+02  0.46142318098E+02  0.10000003068E+02 0.  0.
        -12    1    1    2    0    0  0.26693300654E+02 -0.15459427132E+01 -0.36251775397E+02  0.45045681902E+02  0.00000000000E+00 0.  1.
         11    1    3    3    0    0 -0.18262255489E+00  0.87581543356E+00  0.24680338552E+01  0.26251847636E+01  0.51100000000E-03 0. -1.
        -11    1    3    3    0    0 -0.15757111985E+02  0.14193953195E+00  0.14411766237E+02  0.21354290700E+02  0.51100000000E-03 0.  1.
        -12    1    3    3    0    0 -0.10753566114E+02  0.52818774772E+00  0.19371975304E+02  0.22162842634E+02  0.00000000000E+00 0.  1.
</event>
<event>
 7    1  0.4081218E-008  0.4614232E+02  0.7816164E-02  0.1320468E+00
        -11   -1    0    0    0    0  0.00000000000E+00  0.00000000000E+00  0.45593999997E+02  0.45594000000E+02  0.51100000000E-03 0.  1.
         11   -1    0    0    0    0 -0.00000000000E+00 -0.00000000000E+00 -0.45593999997E+02  0.45594000000E+02  0.51100000000E-03 0. -1.
    9900012    2    1    2    0    0 -0.20702140776E+02 -0.30496636337E+02 -0.25893823365E+02  0.46142317087E+02  0.99999938573E+01 0.  0.
        -12    1    1    2    0    0  0.20702140776E+02  0.30496636337E+02  0.25893823365E+02  0.45045682913E+02  0.00000000000E+00 0.  1.
         11    1    3    3    0    0 -0.61783933784E+01 -0.10951353887E+02 -0.10694832586E+02  0.16507093657E+02  0.51100000000E-03 0. -1.
        -11    1    3    3    0    0 -0.65891341253E+01 -0.95593535856E+01 -0.30124827872E+01  0.11994706428E+02  0.51100000000E-03 0.  1.
        -12    1    3    3    0    0 -0.79346132724E+01 -0.99859288646E+01 -0.12186507992E+02  0.17640517002E+02  0.00000000000E+00 0.  1.
</event>
<event>
 7    1  0.4081218E-008  0.4614232E+02  0.7816164E-02  0.1320468E+00
        -11   -1    0    0    0    0  0.00000000000E+00  0.00000000000E+00  0.45593999997E+02  0.45594000000E+02  0.51100000000E-03 0. -1.
         11   -1    0    0    0    0 -0.00000000000E+00 -0.00000000000E+00 -0.45593999997E+02  0.45594000000E+02  0.51100000000E-03 0.  1.
    9900012    2    1    2    0    0  0.33615880441E+01 -0.11119313914E+02  0.43522109530E+02  0.46142318365E+02  0.10000005503E+02 0.  0.
        -12    1    1    2    0    0 -0.33615880441E+01  0.11119313914E+02 -0.43522109530E+02  0.45045681635E+02  0.00000000000E+00 0.  1.
         11    1    3    3    0    0  0.36308103704E+01 -0.10674314156E+01  0.11577090827E+02  0.12179951808E+02  0.51100000000E-03 0.  1.
        -11    1    3    3    0    0  0.19246284429E+01 -0.50628593522E+01  0.21609108891E+02  0.22277574527E+02  0.51100000000E-03 0. -1.
         12    1    3    3    0    0 -0.21938507691E+01 -0.49890231461E+01  0.10335909812E+02  0.11684792030E+02  0.00000000000E+00 0. -1.
</event>
<event>
 7    1  0.4081218E-008  0.4614232E+02  0.7816164E-02  0.1320468E+00
        -11   -1    0    0    0    0  0.00000000000E+00  0.00000000000E+00  0.45593999997E+02  0.45594000000E+02  0.51100000000E-03 0. -1.
         11   -1    0    0    0    0 -0.00000000000E+00 -0.00000000000E+00 -0.45593999997E+02  0.45594000000E+02  0.51100000000E-03 0.  1.
    9900012    2    1    2    0    0  0.82955147432E-01 -0.21104910903E+02  0.39795594887E+02  0.46142317430E+02  0.99999969789E+01 0.  0.
        -12    1    1    2    0    0 -0.82955147432E-01  0.21104910903E+02 -0.39795594887E+02  0.45045682570E+02  0.00000000000E+00 0.  1.
         11    1    3    3    0    0 -0.22862061844E+01 -0.14374223765E+02  0.19771112007E+02  0.24550802794E+02  0.51100000000E-03 0. -1.
        -11    1    3    3    0    0 -0.42847967328E+00 -0.42881986402E+01  0.11967174724E+02  0.12719493447E+02  0.51100000000E-03 0.  1.
         12    1    3    3    0    0  0.27976410051E+01 -0.24424884976E+01  0.80573081567E+01  0.88720211895E+01  0.00000000000E+00 0. -1.
</event>
<event>
 7    1  0.4081218E-008  0.4614232E+02  0.7816164E-02  0.1320468E+00
        -11   -1    0    0    0    0  0.00000000000E+00  0.00000000000E+00  0.45593999997E+02  0.45594000000E+02  0.51100000000E-03 0.  1.
         11   -1    0    0    0    0 -0.00000000000E+00 -0.00000000000E+00 -0.45593999997E+02  0.45594000000E+02  0.51100000000E-03 0. -1.
    9900012    2    1    2    0    0  0.15314539400E+02  0.13716284191E+02 -0.40080443632E+02  0.46142317291E+02  0.99999957095E+01 0.  0.
        -12    1    1    2    0    0 -0.15314539400E+02 -0.13716284191E+02  0.40080443632E+02  0.45045682709E+02  0.00000000000E+00 0.  1.
         11    1    3    3    0    0  0.92717394768E+01  0.12350225541E+02 -0.31951435720E+02  0.35487849592E+02  0.51100000000E-03 0. -1.
        -11    1    3    3    0    0  0.58399254580E+01  0.15547493149E+01 -0.83448015171E+01  0.10303285273E+02  0.51100000000E-03 0.  1.
        -12    1    3    3    0    0  0.20287446555E+00 -0.18869066481E+00  0.21579360588E+00  0.35118242567E+00  0.00000000000E+00 0.  1.
</event>
<event>
 7    1  0.4081218E-008  0.4614232E+02  0.7816164E-02  0.1320468E+00
        -11   -1    0    0    0    0  0.00000000000E+00  0.00000000000E+00  0.45593999997E+02  0.45594000000E+02  0.51100000000E-03 0.  1.
         11   -1    0    0    0    0 -0.00000000000E+00 -0.00000000000E+00 -0.45593999997E+02  0.45594000000E+02  0.51100000000E-03 0. -1.
    9900012    2    1    2    0    0  0.14948882317E+01  0.12761409532E+02 -0.43174355969E+02  0.46142320103E+02  0.10000021355E+02 0.  0.
        -12    1    1    2    0    0 -0.14948882317E+01 -0.12761409532E+02  0.43174355969E+02  0.45045679897E+02  0.00000000000E+00 0.  1.
         11    1    3    3    0    0  0.29148590061E+01  0.42970775337E+01 -0.12442349138E+02  0.13482334022E+02  0.51100000000E-03 0. -1.
        -11    1    3    3    0    0 -0.22835895645E+01  0.43922137791E+01 -0.70472328411E+01  0.86121898584E+01  0.51100000000E-03 0.  1.
         12    1    3    3    0    0  0.86361879008E+00  0.40721182190E+01 -0.23684773990E+02  0.24047796222E+02  0.00000000000E+00 0. -1.
</event>
<event>
 7    1  0.4081218E-008  0.4614232E+02  0.7816164E-02  0.1320468E+00
        -11   -1    0    0    0    0  0.00000000000E+00  0.00000000000E+00  0.45593999997E+02  0.45594000000E+02  0.51100000000E-03 0.  1.
         11   -1    0    0    0    0 -0.00000000000E+00 -0.00000000000E+00 -0.45593999997E+02  0.45594000000E+02  0.51100000000E-03 0. -1.
    9900012    2    1    2    0    0  0.31384607023E+02  0.21005650026E+02 -0.24553659689E+02  0.46142322126E+02  0.10000039803E+02 0.  0.
        -12    1    1    2    0    0 -0.31384607023E+02 -0.21005650026E+02  0.24553659689E+02  0.45045677874E+02  0.00000000000E+00 0.  1.
         11    1    3    3    0    0  0.19434645002E+01  0.76592915088E+00 -0.31664986382E+01  0.37934701283E+01  0.51100000000E-03 0. -1.
        -11    1    3    3    0    0  0.27654339660E+02  0.20690878228E+02 -0.19300623102E+02  0.39564997109E+02  0.51100000000E-03 0.  1.
        -12    1    3    3    0    0  0.17868028624E+01 -0.45115735282E+00 -0.20865379492E+01  0.27838548884E+01  0.00000000000E+00 0.  1.
</event>
<event>
 7    1  0.4081218E-008  0.4614232E+02  0.7816164E-02  0.1320468E+00
        -11   -1    0    0    0    0  0.00000000000E+00  0.00000000000E+00  0.45593999997E+02  0.45594000000E+02  0.51100000000E-03 0.  1.
         11   -1    0    0    0    0 -0.00000000000E+00 -0.00000000000E+00 -0.45593999997E+02  0.45594000000E+02  0.51100000000E-03 0. -1.
    9900012    2    1    2    0    0 -0.30420328220E+02 -0.30159828958E+02 -0.13932042004E+02  0.46142318229E+02  0.10000004267E+02 0.  0.
        -12    1    1    2    0    0  0.30420328220E+02  0.30159828958E+02  0.13932042004E+02  0.45045681771E+02  0.00000000000E+00 0.  1.
         11    1    3    3    0    0 -0.17866530679E+02 -0.22005236923E+02 -0.83826801869E+01  0.29558631530E+02  0.51100000000E-03 0. -1.
        -11    1    3    3    0    0 -0.31543080012E+00 -0.12433339298E+01 -0.14651098915E+01  0.19472860873E+01  0.51100000000E-03 0.  1.
         12    1    3    3    0    0 -0.12238366740E+02 -0.69112581057E+01 -0.40842519258E+01  0.14636400612E+02  0.00000000000E+00 0. -1.
</event>
<event>
 7    1  0.4081218E-008  0.4614232E+02  0.7816164E-02  0.1320468E+00
        -11   -1    0    0    0    0  0.00000000000E+00  0.00000000000E+00  0.45593999997E+02  0.45594000000E+02  0.51100000000E-03 0. -1.
         11   -1    0    0    0    0 -0.00000000000E+00 -0.00000000000E+00 -0.45593999997E+02  0.45594000000E+02  0.51100000000E-03 0.  1.
    9900012    2    1    2    0    0 -0.25648851079E+02 -0.75872640489E+01  0.36244769996E+02  0.46142317749E+02  0.99999998874E+01 0.  0.
        -12    1    1    2    0    0  0.25648851079E+02  0.75872640489E+01 -0.36244769996E+02  0.45045682251E+02  0.00000000000E+00 0.  1.
         11    1    3    3    0    0 -0.24644767504E+01 -0.77367929227E+00  0.29900176350E+01  0.39512568911E+01  0.51100000000E-03 0. -1.
        -11    1    3    3    0    0 -0.38414373362E+01 -0.49677979790E+01  0.57460692561E+01  0.85119310221E+01  0.51100000000E-03 0.  1.
        -12    1    3    3    0    0 -0.19342936992E+02 -0.18457867777E+01  0.27508683105E+02  0.33679129836E+02  0.00000000000E+00 0.  1.
</event>
<event>
 7    1  0.4081218E-008  0.4614232E+02  0.7816164E-02  0.1320468E+00
        -11   -1    0    0    0    0  0.00000000000E+00  0.00000000000E+00  0.45593999997E+02  0.45594000000E+02  0.51100000000E-03 0.  1.
         11   -1    0    0    0    0 -0.00000000000E+00 -0.00000000000E+00 -0.45593999997E+02  0.45594000000E+02  0.51100000000E-03 0. -1.
    9900012    2    1    2    0    0  0.13694141916E+02 -0.42813198817E+02 -0.29349586921E+01  0.46142317651E+02  0.99999990005E+01 0.  0.
        -12    1    1    2    0    0 -0.13694141916E+02  0.42813198817E+02  0.29349586921E+01  0.45045682349E+02  0.00000000000E+00 0.  1.
         11    1    3    3    0    0  0.34748273365E+01 -0.13294055174E+02 -0.10747120148E+01  0.13782646123E+02  0.51100000000E-03 0. -1.
        -11    1    3    3    0    0  0.79177144022E+01 -0.27937106662E+02 -0.61169020462E-01  0.29037490799E+02  0.51100000000E-03 0.  1.
        -12    1    3    3    0    0  0.23016001770E+01 -0.15820369813E+01 -0.17990776568E+01  0.33221807296E+01  0.00000000000E+00 0.  1.
</event>
<event>
 7    1  0.4081218E-008  0.4614232E+02  0.7816164E-02  0.1320468E+00
        -11   -1    0    0    0    0  0.00000000000E+00  0.00000000000E+00  0.45593999997E+02  0.45594000000E+02  0.51100000000E-03 0. -1.
         11   -1    0    0    0    0 -0.00000000000E+00 -0.00000000000E+00 -0.45593999997E+02  0.45594000000E+02  0.51100000000E-03 0.  1.
    9900012    2    1    2    0    0 -0.42240516512E+02 -0.57341617936E+01 -0.14559244999E+02  0.46142318058E+02  0.10000002709E+02 0.  0.
        -12    1    1    2    0    0  0.42240516512E+02  0.57341617936E+01  0.14559244999E+02  0.45045681942E+02  0.00000000000E+00 0.  1.
         11    1    3    3    0    0 -0.58026336265E+01 -0.12799789876E+01  0.11361441266E+01  0.60497708180E+01  0.51100000000E-03 0. -1.
        -11    1    3    3    0    0 -0.18144351844E+02 -0.25006884105E+01 -0.98040340531E+01  0.20774745013E+02  0.51100000000E-03 0.  1.
        -12    1    3    3    0    0 -0.18293531041E+02 -0.19534943955E+01 -0.58913550726E+01  0.19317802227E+02  0.00000000000E+00 0.  1.
</event>
<event>
 7    1  0.4081218E-008  0.4614232E+02  0.7816164E-02  0.1320468E+00
        -11   -1    0    0    0    0  0.00000000000E+00  0.00000000000E+00  0.45593999997E+02  0.45594000000E+02  0.51100000000E-03 0.  1.
         11   -1    0    0    0    0 -0.00000000000E+00 -0.00000000000E+00 -0.45593999997E+02  0.45594000000E+02  0.51100000000E-03 0. -1.
    9900012    2    1    2    0    0 -0.12705357765E+01  0.37075827043E+02 -0.25551564826E+02  0.46142315666E+02  0.99999808957E+01 0.  0.
        -12    1    1    2    0    0  0.12705357765E+01 -0.37075827043E+02  0.25551564826E+02  0.45045684334E+02  0.00000000000E+00 0.  1.
         11    1    3    3    0    0 -0.10492951623E+01  0.19260739202E+01 -0.24492403243E+01  0.32877894566E+01  0.51100000000E-03 0.  1.
        -11    1    3    3    0    0  0.12712347470E-01  0.17239824116E+01  0.65623156561E+00  0.18446997284E+01  0.51100000000E-03 0. -1.
         12    1    3    3    0    0 -0.23395296172E+00  0.33425770711E+02 -0.23758556067E+02  0.41009826481E+02  0.00000000000E+00 0. -1.
</event>
<event>
 7    1  0.4081218E-008  0.4614232E+02  0.7816164E-02  0.1320468E+00
        -11   -1    0    0    0    0  0.00000000000E+00  0.00000000000E+00  0.45593999997E+02  0.45594000000E+02  0.51100000000E-03 0.  1.
         11   -1    0    0    0    0 -0.00000000000E+00 -0.00000000000E+00 -0.45593999997E+02  0.45594000000E+02  0.51100000000E-03 0. -1.
    9900012    2    1    2    0    0  0.12146107286E+01  0.45009897564E+02  0.13218622395E+01  0.46142317879E+02  0.10000001075E+02 0.  0.
        -12    1    1    2    0    0 -0.12146107286E+01 -0.45009897564E+02 -0.13218622395E+01  0.45045682121E+02  0.00000000000E+00 0.  1.
         11    1    3    3    0    0  0.34096910911E+01  0.11094962574E+02  0.12500600177E+01  0.11674195397E+02  0.51100000000E-03 0. -1.
        -11    1    3    3    0    0 -0.14334662488E+01  0.19031442871E+01  0.54348019119E+00  0.24437992232E+01  0.51100000000E-03 0.  1.
         12    1    3    3    0    0 -0.76161411374E+00  0.32011790703E+02 -0.47167796943E+00  0.32024323259E+02  0.00000000000E+00 0. -1.
</event>
<event>
 7    1  0.4081218E-008  0.4614232E+02  0.7816164E-02  0.1320468E+00
        -11   -1    0    0    0    0  0.00000000000E+00  0.00000000000E+00  0.45593999997E+02  0.45594000000E+02  0.51100000000E-03 0. -1.
         11   -1    0    0    0    0 -0.00000000000E+00 -0.00000000000E+00 -0.45593999997E+02  0.45594000000E+02  0.51100000000E-03 0.  1.
    9900012    2    1    2    0    0  0.66411830370E+01  0.23745008613E+02  0.37698577424E+02  0.46142317788E+02  0.10000000243E+02 0.  0.
        -12    1    1    2    0    0 -0.66411830370E+01 -0.23745008613E+02 -0.37698577424E+02  0.45045682212E+02  0.00000000000E+00 0.  1.
         11    1    3    3    0    0  0.20140250132E+01  0.42758339911E+01  0.42576464407E+01  0.63613368523E+01  0.51100000000E-03 0. -1.
        -11    1    3    3    0    0  0.28377191647E+01  0.42294965113E+01  0.36354858107E+01  0.62576391825E+01  0.51100000000E-03 0.  1.
         12    1    3    3    0    0  0.17894388592E+01  0.15239678111E+02  0.29805445173E+02  0.33523341753E+02  0.00000000000E+00 0. -1.
</event>
<event>
 7    1  0.4081218E-008  0.4614232E+02  0.7816164E-02  0.1320468E+00
        -11   -1    0    0    0    0  0.00000000000E+00  0.00000000000E+00  0.45593999997E+02  0.45594000000E+02  0.51100000000E-03 0.  1.
         11   -1    0    0    0    0 -0.00000000000E+00 -0.00000000000E+00 -0.45593999997E+02  0.45594000000E+02  0.51100000000E-03 0. -1.
    9900012    2    1    2    0    0 -0.20835142620E+02  0.25264125358E+02 -0.30931124621E+02  0.46142315762E+02  0.99999817738E+01 0.  0.
        -12    1    1    2    0    0  0.20835142620E+02 -0.25264125358E+02  0.30931124621E+02  0.45045684238E+02  0.00000000000E+00 0.  1.
         11    1    3    3    0    0 -0.69533956648E+01  0.52045315286E+01 -0.99343928339E+01  0.13195795578E+02  0.51100000000E-03 0. -1.
        -11    1    3    3    0    0 -0.41788847752E+01  0.12079006036E+02 -0.11563044481E+02  0.17235703140E+02  0.51100000000E-03 0.  1.
        -12    1    3    3    0    0 -0.97028621799E+01  0.79805877933E+01 -0.94336873062E+01  0.15710817044E+02  0.00000000000E+00 0.  1.
</event>
<event>
 7    1  0.4081218E-008  0.4614232E+02  0.7816164E-02  0.1320468E+00
        -11   -1    0    0    0    0  0.00000000000E+00  0.00000000000E+00  0.45593999997E+02  0.45594000000E+02  0.51100000000E-03 0. -1.
         11   -1    0    0    0    0 -0.00000000000E+00 -0.00000000000E+00 -0.45593999997E+02  0.45594000000E+02  0.51100000000E-03 0.  1.
    9900012    2    1    2    0    0 -0.11964376865E+02 -0.42254422852E+02  0.10026510892E+02  0.46142317798E+02  0.10000000340E+02 0.  0.
        -12    1    1    2    0    0  0.11964376865E+02  0.42254422852E+02 -0.10026510892E+02  0.45045682202E+02  0.00000000000E+00 0.  1.
         11    1    3    3    0    0 -0.23468130519E+01 -0.22535588933E+02  0.19211626727E+01  0.22738759120E+02  0.51100000000E-03 0. -1.
        -11    1    3    3    0    0 -0.10806094532E+01 -0.26577589276E+01  0.84349670289E+00  0.29904658929E+01  0.51100000000E-03 0.  1.
         12    1    3    3    0    0 -0.85369543600E+01 -0.17061074992E+02  0.72618515169E+01  0.20413092786E+02  0.00000000000E+00 0. -1.
</event>
<event>
 7    1  0.4081218E-008  0.4614232E+02  0.7816164E-02  0.1320468E+00
        -11   -1    0    0    0    0  0.00000000000E+00  0.00000000000E+00  0.45593999997E+02  0.45594000000E+02  0.51100000000E-03 0. -1.
         11   -1    0    0    0    0 -0.00000000000E+00 -0.00000000000E+00 -0.45593999997E+02  0.45594000000E+02  0.51100000000E-03 0.  1.
    9900012    2    1    2    0    0 -0.17248494039E+02  0.38123917534E+02  0.16678422448E+02  0.46142318630E+02  0.10000007922E+02 0.  0.
        -12    1    1    2    0    0  0.17248494039E+02 -0.38123917534E+02 -0.16678422448E+02  0.45045681370E+02  0.00000000000E+00 0.  1.
         11    1    3    3    0    0 -0.48675938143E+01  0.14860209754E+02  0.95971881689E+01  0.18347351974E+02  0.51100000000E-03 0. -1.
        -11    1    3    3    0    0 -0.51954196575E+00  0.82995448335E+00 -0.75466499050E+00  0.12362312921E+01  0.51100000000E-03 0.  1.
         12    1    3    3    0    0 -0.11861358258E+02  0.22433753297E+02  0.78358992693E+01  0.26558735363E+02  0.00000000000E+00 0. -1.
</event>
<event>
 7    1  0.4081218E-008  0.4614232E+02  0.7816164E-02  0.1320468E+00
        -11   -1    0    0    0    0  0.00000000000E+00  0.00000000000E+00  0.45593999997E+02  0.45594000000E+02  0.51100000000E-03 0.  1.
         11   -1    0    0    0    0 -0.00000000000E+00 -0.00000000000E+00 -0.45593999997E+02  0.45594000000E+02  0.51100000000E-03 0. -1.
    9900012    2    1    2    0    0  0.82548620077E+01  0.21462637229E+02 -0.38734040967E+02  0.46142317929E+02  0.10000001531E+02 0.  0.
        -12    1    1    2    0    0 -0.82548620077E+01 -0.21462637229E+02  0.38734040967E+02  0.45045682071E+02  0.00000000000E+00 0.  1.
         11    1    3    3    0    0  0.27117298327E+00 -0.71553859616E+00 -0.75213059449E+00  0.10729543148E+01  0.51100000000E-03 0.  1.
        -11    1    3    3    0    0 -0.45352079300E+00  0.40032023660E+01 -0.87020453772E+01  0.95894162649E+01  0.51100000000E-03 0. -1.
         12    1    3    3    0    0  0.84372098175E+01  0.18174973460E+02 -0.29279864995E+02  0.35479947349E+02  0.00000000000E+00 0. -1.
</event>
<event>
 7    1  0.4081218E-008  0.4614232E+02  0.7816164E-02  0.1320468E+00
        -11   -1    0    0    0    0  0.00000000000E+00  0.00000000000E+00  0.45593999997E+02  0.45594000000E+02  0.51100000000E-03 0.  1.
         11   -1    0    0    0    0 -0.00000000000E+00 -0.00000000000E+00 -0.45593999997E+02  0.45594000000E+02  0.51100000000E-03 0. -1.
    9900012    2    1    2    0    0  0.15182750142E+02 -0.31158630631E+02 -0.28770424252E+02  0.46142317895E+02  0.10000001222E+02 0.  0.
        -12    1    1    2    0    0 -0.15182750142E+02  0.31158630631E+02  0.28770424252E+02  0.45045682105E+02  0.00000000000E+00 0.  1.
         11    1    3    3    0    0  0.89324221481E+01 -0.12587672651E+02 -0.12068952894E+02  0.19593297130E+02  0.51100000000E-03 0. -1.
        -11    1    3    3    0    0  0.35857031700E+01 -0.17014177687E+02 -0.15294685411E+02  0.23157437502E+02  0.51100000000E-03 0.  1.
        -12    1    3    3    0    0  0.26646248235E+01 -0.15567802931E+01 -0.14067859474E+01  0.33915832634E+01  0.00000000000E+00 0.  1.
</event>
<event>
 7    1  0.4081218E-008  0.4614232E+02  0.7816164E-02  0.1320468E+00
        -11   -1    0    0    0    0  0.00000000000E+00  0.00000000000E+00  0.45593999997E+02  0.45594000000E+02  0.51100000000E-03 0.  1.
         11   -1    0    0    0    0 -0.00000000000E+00 -0.00000000000E+00 -0.45593999997E+02  0.45594000000E+02  0.51100000000E-03 0. -1.
    9900012    2    1    2    0    0 -0.39158245825E+02 -0.11044367292E+02 -0.19333060621E+02  0.46142317655E+02  0.99999990298E+01 0.  0.
        -12    1    1    2    0    0  0.39158245825E+02  0.11044367292E+02  0.19333060621E+02  0.45045682345E+02  0.00000000000E+00 0.  1.
         11    1    3    3    0    0 -0.24197705597E+02 -0.71775953734E+01 -0.82185506376E+01  0.26544140716E+02  0.51100000000E-03 0. -1.
        -11    1    3    3    0    0 -0.12436171036E+02 -0.40824556470E+01 -0.72095053559E+01  0.14943284843E+02  0.51100000000E-03 0.  1.
        -12    1    3    3    0    0 -0.25243691922E+01  0.21568372832E+00 -0.39050046273E+01  0.46548920963E+01  0.00000000000E+00 0.  1.
</event>
<event>
 7    1  0.4081218E-008  0.4614232E+02  0.7816164E-02  0.1320468E+00
        -11   -1    0    0    0    0  0.00000000000E+00  0.00000000000E+00  0.45593999997E+02  0.45594000000E+02  0.51100000000E-03 0. -1.
         11   -1    0    0    0    0 -0.00000000000E+00 -0.00000000000E+00 -0.45593999997E+02  0.45594000000E+02  0.51100000000E-03 0.  1.
    9900012    2    1    2    0    0  0.12830420594E+02 -0.17367787167E+01  0.43144842246E+02  0.46142317573E+02  0.99999982825E+01 0.  0.
        -12    1    1    2    0    0 -0.12830420594E+02  0.17367787167E+01 -0.43144842246E+02  0.45045682427E+02  0.00000000000E+00 0.  1.
         11    1    3    3    0    0  0.80644199535E+01 -0.47706488308E+01  0.27069669893E+02  0.28645435724E+02  0.51100000000E-03 0. -1.
        -11    1    3    3    0    0  0.44344824988E+00  0.77834343216E+00  0.81001808363E+01  0.81495640798E+01  0.51100000000E-03 0.  1.
        -12    1    3    3    0    0  0.43225523909E+01  0.22555266819E+01  0.79749915164E+01  0.93473177688E+01  0.00000000000E+00 0.  1.
</event>
<event>
 7    1  0.4081218E-008  0.4614232E+02  0.7816164E-02  0.1320468E+00
        -11   -1    0    0    0    0  0.00000000000E+00  0.00000000000E+00  0.45593999997E+02  0.45594000000E+02  0.51100000000E-03 0. -1.
         11   -1    0    0    0    0 -0.00000000000E+00 -0.00000000000E+00 -0.45593999997E+02  0.45594000000E+02  0.51100000000E-03 0.  1.
    9900012    2    1    2    0    0  0.18227042925E+02 -0.40083323640E+02 -0.94981839183E+01  0.46142318458E+02  0.10000006354E+02 0.  0.
        -12    1    1    2    0    0 -0.18227042925E+02  0.40083323640E+02  0.94981839183E+01  0.45045681542E+02  0.00000000000E+00 0.  1.
         11    1    3    3    0    0  0.40932327167E+01 -0.11218719340E+02 -0.42693354827E+01  0.12682327997E+02  0.51100000000E-03 0. -1.
        -11    1    3    3    0    0  0.13992126520E+02 -0.27927385845E+02 -0.34268518324E+01  0.31423904889E+02  0.51100000000E-03 0.  1.
        -12    1    3    3    0    0  0.14168368806E+00 -0.93721845538E+00 -0.18019966032E+01  0.20360855725E+01  0.00000000000E+00 0.  1.
</event>
<event>
 7    1  0.4081218E-008  0.4614232E+02  0.7816164E-02  0.1320468E+00
        -11   -1    0    0    0    0  0.00000000000E+00  0.00000000000E+00  0.45593999997E+02  0.45594000000E+02  0.51100000000E-03 0. -1.
         11   -1    0    0    0    0 -0.00000000000E+00 -0.00000000000E+00 -0.45593999997E+02  0.45594000000E+02  0.51100000000E-03 0.  1.
    9900012    2    1    2    0    0 -0.73988641609E+01 -0.42375627597E+02  0.13366992385E+02  0.46142317737E+02  0.99999997808E+01 0.  0.
        -12    1    1    2    0    0  0.73988641609E+01  0.42375627597E+02 -0.13366992385E+02  0.45045682263E+02  0.00000000000E+00 0.  1.
         11    1    3    3    0    0 -0.53953285256E+01 -0.12207920858E+02  0.40966133107E+01  0.13961559456E+02  0.51100000000E-03 0. -1.
        -11    1    3    3    0    0 -0.39098617366E+01 -0.25080678998E+02  0.75676054536E+01  0.26487659964E+02  0.51100000000E-03 0.  1.
        -12    1    3    3    0    0  0.19063261012E+01 -0.50870277407E+01  0.17027736209E+01  0.56930983166E+01  0.00000000000E+00 0.  1.
</event>
<event>
 7    1  0.4081218E-008  0.4614232E+02  0.7816164E-02  0.1320468E+00
        -11   -1    0    0    0    0  0.00000000000E+00  0.00000000000E+00  0.45593999997E+02  0.45594000000E+02  0.51100000000E-03 0. -1.
         11   -1    0    0    0    0 -0.00000000000E+00 -0.00000000000E+00 -0.45593999997E+02  0.45594000000E+02  0.51100000000E-03 0.  1.
    9900012    2    1    2    0    0 -0.43903008125E+02  0.98932235014E+01 -0.19400324580E+01  0.46142315195E+02  0.99999765983E+01 0.  0.
        -12    1    1    2    0    0  0.43903008125E+02 -0.98932235014E+01  0.19400324580E+01  0.45045684805E+02  0.00000000000E+00 0.  1.
         11    1    3    3    0    0 -0.14656879977E+02  0.49724751019E+01  0.20181072285E+01  0.15608407874E+02  0.51100000000E-03 0. -1.
        -11    1    3    3    0    0 -0.65032884193E+01  0.28537043961E+01  0.98104364545E+00  0.71692981484E+01  0.51100000000E-03 0.  1.
        -12    1    3    3    0    0 -0.22742839728E+02  0.20670440034E+01 -0.49391833319E+01  0.23364609173E+02  0.00000000000E+00 0.  1.
</event>
<event>
 7    1  0.4081218E-008  0.4614232E+02  0.7816164E-02  0.1320468E+00
        -11   -1    0    0    0    0  0.00000000000E+00  0.00000000000E+00  0.45593999997E+02  0.45594000000E+02  0.51100000000E-03 0.  1.
         11   -1    0    0    0    0 -0.00000000000E+00 -0.00000000000E+00 -0.45593999997E+02  0.45594000000E+02  0.51100000000E-03 0. -1.
    9900012    2    1    2    0    0  0.64817524516E+01 -0.11651051042E+02 -0.43027355721E+02  0.46142318236E+02  0.10000004329E+02 0.  0.
        -12    1    1    2    0    0 -0.64817524516E+01  0.11651051042E+02  0.43027355721E+02  0.45045681764E+02  0.00000000000E+00 0.  1.
         11    1    3    3    0    0  0.19227101541E+01 -0.41514880536E+01 -0.98314035908E+01  0.10843807644E+02  0.51100000000E-03 0. -1.
        -11    1    3    3    0    0  0.57409582182E+01 -0.41871780471E+01 -0.28827255370E+02  0.29690094538E+02  0.51100000000E-03 0.  1.
        -12    1    3    3    0    0 -0.11819159207E+01 -0.33123849415E+01 -0.43686967605E+01  0.56084160536E+01  0.00000000000E+00 0.  1.
</event>
<event>
 7    1  0.4081218E-008  0.4614232E+02  0.7816164E-02  0.1320468E+00
        -11   -1    0    0    0    0  0.00000000000E+00  0.00000000000E+00  0.45593999997E+02  0.45594000000E+02  0.51100000000E-03 0. -1.
         11   -1    0    0    0    0 -0.00000000000E+00 -0.00000000000E+00 -0.45593999997E+02  0.45594000000E+02  0.51100000000E-03 0.  1.
    9900012    2    1    2    0    0 -0.37482897562E+02 -0.74832505218E+01  0.23835829784E+02  0.46142318414E+02  0.10000005954E+02 0.  0.
        -12    1    1    2    0    0  0.37482897562E+02  0.74832505218E+01 -0.23835829784E+02  0.45045681586E+02  0.00000000000E+00 0.  1.
         11    1    3    3    0    0 -0.18597645314E+02 -0.35561118436E+01  0.15347292553E+02  0.24373299565E+02  0.51100000000E-03 0. -1.
        -11    1    3    3    0    0 -0.16276675521E+02 -0.24970312222E+01  0.50539593751E+01  0.17225209333E+02  0.51100000000E-03 0.  1.
        -12    1    3    3    0    0 -0.26085767274E+01 -0.14301074560E+01  0.34345778555E+01  0.45438095167E+01  0.00000000000E+00 0.  1.
</event>
<event>
 7    1  0.4081218E-008  0.4614232E+02  0.7816164E-02  0.1320468E+00
        -11   -1    0    0    0    0  0.00000000000E+00  0.00000000000E+00  0.45593999997E+02  0.45594000000E+02  0.51100000000E-03 0.  1.
         11   -1    0    0    0    0 -0.00000000000E+00 -0.00000000000E+00 -0.45593999997E+02  0.45594000000E+02  0.51100000000E-03 0. -1.
    9900012    2    1    2    0    0  0.12914180226E+02 -0.10820509602E+02 -0.41776237603E+02  0.46142317551E+02  0.99999980882E+01 0.  0.
        -12    1    1    2    0    0 -0.12914180226E+02  0.10820509602E+02  0.41776237603E+02  0.45045682449E+02  0.00000000000E+00 0.  1.
         11    1    3    3    0    0  0.87233743908E+01 -0.94566919831E+01 -0.28285312039E+02  0.31073866213E+02  0.51100000000E-03 0. -1.
        -11    1    3    3    0    0  0.35516376846E+01 -0.29691856329E+01 -0.73268916313E+01  0.86668064939E+01  0.51100000000E-03 0.  1.
        -12    1    3    3    0    0  0.63916815075E+00  0.16053680141E+01 -0.61640339329E+01  0.64016448443E+01  0.00000000000E+00 0.  1.
</event>
<event>
 7    1  0.4081218E-008  0.4614232E+02  0.7816164E-02  0.1320468E+00
        -11   -1    0    0    0    0  0.00000000000E+00  0.00000000000E+00  0.45593999997E+02  0.45594000000E+02  0.51100000000E-03 0. -1.
         11   -1    0    0    0    0 -0.00000000000E+00 -0.00000000000E+00 -0.45593999997E+02  0.45594000000E+02  0.51100000000E-03 0.  1.
    9900012    2    1    2    0    0  0.25043998016E+02  0.36650084198E+02 -0.76604802920E+01  0.46142318002E+02  0.10000002199E+02 0.  0.
        -12    1    1    2    0    0 -0.25043998016E+02 -0.36650084198E+02  0.76604802920E+01  0.45045681998E+02  0.00000000000E+00 0.  1.
         11    1    3    3    0    0  0.67482413080E+01  0.88475505429E+01 -0.32358578550E+01  0.11588299603E+02  0.51100000000E-03 0. -1.
        -11    1    3    3    0    0  0.13188516290E+02  0.23047769195E+02 -0.52339541496E+00  0.26559566446E+02  0.51100000000E-03 0.  1.
        -12    1    3    3    0    0  0.51072404177E+01  0.47547644602E+01 -0.39012270220E+01  0.79944519533E+01  0.00000000000E+00 0.  1.
</event>
<event>
 7    1  0.4081218E-008  0.4614232E+02  0.7816164E-02  0.1320468E+00
        -11   -1    0    0    0    0  0.00000000000E+00  0.00000000000E+00  0.45593999997E+02  0.45594000000E+02  0.51100000000E-03 0. -1.
         11   -1    0    0    0    0 -0.00000000000E+00 -0.00000000000E+00 -0.45593999997E+02  0.45594000000E+02  0.51100000000E-03 0.  1.
    9900012    2    1    2    0    0  0.29163560778E+02 -0.18738291014E+02  0.28765893502E+02  0.46142318117E+02  0.10000003245E+02 0.  0.
        -12    1    1    2    0    0 -0.29163560778E+02  0.18738291014E+02 -0.28765893502E+02  0.45045681883E+02  0.00000000000E+00 0.  1.
         11    1    3    3    0    0  0.40173018307E+01 -0.55571285308E+01  0.97188360346E+01  0.11894375378E+02  0.51100000000E-03 0. -1.
        -11    1    3    3    0    0  0.95780292601E+01 -0.48806954403E+01  0.60571191923E+01  0.12338902936E+02  0.51100000000E-03 0.  1.
         12    1    3    3    0    0  0.15568229687E+02 -0.83004670428E+01  0.12989938275E+02  0.21909039803E+02  0.00000000000E+00 0. -1.
</event>
<event>
 7    1  0.4081218E-008  0.4614232E+02  0.7816164E-02  0.1320468E+00
        -11   -1    0    0    0    0  0.00000000000E+00  0.00000000000E+00  0.45593999997E+02  0.45594000000E+02  0.51100000000E-03 0.  1.
         11   -1    0    0    0    0 -0.00000000000E+00 -0.00000000000E+00 -0.45593999997E+02  0.45594000000E+02  0.51100000000E-03 0. -1.
    9900012    2    1    2    0    0 -0.29876574039E+02 -0.22801624570E+02 -0.24831224919E+02  0.46142317740E+02  0.99999998047E+01 0.  0.
        -12    1    1    2    0    0  0.29876574039E+02  0.22801624570E+02  0.24831224919E+02  0.45045682260E+02  0.00000000000E+00 0.  1.
         11    1    3    3    0    0 -0.23289980230E+02 -0.17006515098E+02 -0.19712732414E+02  0.34931884495E+02  0.51100000000E-03 0. -1.
        -11    1    3    3    0    0 -0.15384679464E+01  0.73715830769E+00 -0.10897227756E+01  0.20242978984E+01  0.51100000000E-03 0.  1.
        -12    1    3    3    0    0 -0.50481258624E+01 -0.65322677794E+01 -0.40287697293E+01  0.91861353460E+01  0.00000000000E+00 0.  1.
</event>
<event>
 7    1  0.4081218E-008  0.4614232E+02  0.7816164E-02  0.1320468E+00
        -11   -1    0    0    0    0  0.00000000000E+00  0.00000000000E+00  0.45593999997E+02  0.45594000000E+02  0.51100000000E-03 0. -1.
         11   -1    0    0    0    0 -0.00000000000E+00 -0.00000000000E+00 -0.45593999997E+02  0.45594000000E+02  0.51100000000E-03 0.  1.
    9900012    2    1    2    0    0 -0.48649186802E+01 -0.37155716253E+02  0.24997975562E+02  0.46142318007E+02  0.10000002241E+02 0.  0.
        -12    1    1    2    0    0  0.48649186802E+01  0.37155716253E+02 -0.24997975562E+02  0.45045681993E+02  0.00000000000E+00 0.  1.
         11    1    3    3    0    0 -0.21251253862E+00 -0.69441675060E+01  0.34583583631E+01  0.77605970621E+01  0.51100000000E-03 0. -1.
        -11    1    3    3    0    0  0.12430347062E+01 -0.17790984479E+02  0.10096615775E+02  0.20494045828E+02  0.51100000000E-03 0.  1.
         12    1    3    3    0    0 -0.58954408478E+01 -0.12420564268E+02  0.11443001423E+02  0.17887675117E+02  0.00000000000E+00 0. -1.
</event>
<event>
 7    1  0.4081218E-008  0.4614232E+02  0.7816164E-02  0.1320468E+00
        -11   -1    0    0    0    0  0.00000000000E+00  0.00000000000E+00  0.45593999997E+02  0.45594000000E+02  0.51100000000E-03 0.  1.
         11   -1    0    0    0    0 -0.00000000000E+00 -0.00000000000E+00 -0.45593999997E+02  0.45594000000E+02  0.51100000000E-03 0. -1.
    9900012    2    1    2    0    0 -0.49920899744E+01 -0.34873910728E+01 -0.44632170746E+02  0.46142317362E+02  0.99999963581E+01 0.  0.
        -12    1    1    2    0    0  0.49920899744E+01  0.34873910728E+01  0.44632170746E+02  0.45045682638E+02  0.00000000000E+00 0.  1.
         11    1    3    3    0    0 -0.45864762782E+01 -0.17003744003E+01 -0.21251888604E+02  0.21807563074E+02  0.51100000000E-03 0. -1.
        -11    1    3    3    0    0 -0.26546940977E+01 -0.13842206123E+01 -0.51123809287E+01  0.59245174045E+01  0.51100000000E-03 0.  1.
        -12    1    3    3    0    0  0.22490804015E+01 -0.40279606018E+00 -0.18267901214E+02  0.18410236883E+02  0.00000000000E+00 0.  1.
</event>
<event>
 7    1  0.4081218E-008  0.4614232E+02  0.7816164E-02  0.1320468E+00
        -11   -1    0    0    0    0  0.00000000000E+00  0.00000000000E+00  0.45593999997E+02  0.45594000000E+02  0.51100000000E-03 0. -1.
         11   -1    0    0    0    0 -0.00000000000E+00 -0.00000000000E+00 -0.45593999997E+02  0.45594000000E+02  0.51100000000E-03 0.  1.
    9900012    2    1    2    0    0 -0.21395210751E+02  0.30758457102E+02 -0.25005513942E+02  0.46142318144E+02  0.10000003495E+02 0.  0.
        -12    1    1    2    0    0  0.21395210751E+02 -0.30758457102E+02  0.25005513942E+02  0.45045681856E+02  0.00000000000E+00 0.  1.
         11    1    3    3    0    0 -0.60094199302E+01  0.81009774766E+01 -0.12141662512E+02  0.15784769013E+02  0.51100000000E-03 0.  1.
        -11    1    3    3    0    0 -0.30001853543E+01  0.54579297109E+01 -0.20059893247E+01  0.65432486061E+01  0.51100000000E-03 0. -1.
        -12    1    3    3    0    0 -0.12385605466E+02  0.17199549914E+02 -0.10857862105E+02  0.23814300525E+02  0.00000000000E+00 0.  1.
</event>
<event>
 7    1  0.4081218E-008  0.4614232E+02  0.7816164E-02  0.1320468E+00
        -11   -1    0    0    0    0  0.00000000000E+00  0.00000000000E+00  0.45593999997E+02  0.45594000000E+02  0.51100000000E-03 0.  1.
         11   -1    0    0    0    0 -0.00000000000E+00 -0.00000000000E+00 -0.45593999997E+02  0.45594000000E+02  0.51100000000E-03 0. -1.
    9900012    2    1    2    0    0 -0.69579407182E+01 -0.24113559480E+02 -0.37406373812E+02  0.46142317726E+02  0.99999996771E+01 0.  0.
        -12    1    1    2    0    0  0.69579407182E+01  0.24113559480E+02  0.37406373812E+02  0.45045682274E+02  0.00000000000E+00 0.  1.
         11    1    3    3    0    0 -0.31969508912E+00 -0.64383750263E+00 -0.82705137924E+00  0.10957855287E+01  0.51100000000E-03 0. -1.
        -11    1    3    3    0    0 -0.34186130566E+00 -0.42324932820E+01 -0.14209045337E+01  0.44777046005E+01  0.51100000000E-03 0.  1.
         12    1    3    3    0    0 -0.62963843234E+01 -0.19237228695E+02 -0.35158417899E+02  0.40568827597E+02  0.00000000000E+00 0. -1.
</event>
<event>
 7    1  0.4081218E-008  0.4614232E+02  0.7816164E-02  0.1320468E+00
        -11   -1    0    0    0    0  0.00000000000E+00  0.00000000000E+00  0.45593999997E+02  0.45594000000E+02  0.51100000000E-03 0.  1.
         11   -1    0    0    0    0 -0.00000000000E+00 -0.00000000000E+00 -0.45593999997E+02  0.45594000000E+02  0.51100000000E-03 0. -1.
    9900012    2    1    2    0    0  0.40875455539E+02 -0.17122845878E+02  0.80696195578E+01  0.46142317895E+02  0.10000001218E+02 0.  0.
        -12    1    1    2    0    0 -0.40875455539E+02  0.17122845878E+02 -0.80696195578E+01  0.45045682105E+02  0.00000000000E+00 0.  1.
         11    1    3    3    0    0  0.73680680790E+01 -0.72325481242E+01  0.16250048979E+01  0.10451737691E+02  0.51100000000E-03 0. -1.
        -11    1    3    3    0    0  0.44281858992E+01 -0.14841579310E+01 -0.29476071081E+00  0.46795768249E+01  0.51100000000E-03 0.  1.
         12    1    3    3    0    0  0.29079201561E+02 -0.84061398230E+01  0.67393753706E+01  0.31011003379E+02  0.00000000000E+00 0. -1.
</event>
<event>
 7    1  0.4081218E-008  0.4614232E+02  0.7816164E-02  0.1320468E+00
        -11   -1    0    0    0    0  0.00000000000E+00  0.00000000000E+00  0.45593999997E+02  0.45594000000E+02  0.51100000000E-03 0.  1.
         11   -1    0    0    0    0 -0.00000000000E+00 -0.00000000000E+00 -0.45593999997E+02  0.45594000000E+02  0.51100000000E-03 0. -1.
    9900012    2    1    2    0    0 -0.18589434834E+02  0.64051996035E+00 -0.41026041367E+02  0.46142318481E+02  0.10000006563E+02 0.  0.
        -12    1    1    2    0    0  0.18589434834E+02 -0.64051996035E+00  0.41026041367E+02  0.45045681519E+02  0.00000000000E+00 0.  1.
         11    1    3    3    0    0 -0.24604109011E+01  0.17343561711E+01 -0.33309828474E+01  0.44896614707E+01  0.51100000000E-03 0. -1.
        -11    1    3    3    0    0  0.76322643659E-01  0.13072232740E+01 -0.34698510098E+01  0.37087092263E+01  0.51100000000E-03 0.  1.
         12    1    3    3    0    0 -0.16205346577E+02 -0.24010594847E+01 -0.34225207510E+02  0.37943947784E+02  0.00000000000E+00 0. -1.
</event>
<event>
 7    1  0.4081218E-008  0.4614232E+02  0.7816164E-02  0.1320468E+00
        -11   -1    0    0    0    0  0.00000000000E+00  0.00000000000E+00  0.45593999997E+02  0.45594000000E+02  0.51100000000E-03 0.  1.
         11   -1    0    0    0    0 -0.00000000000E+00 -0.00000000000E+00 -0.45593999997E+02  0.45594000000E+02  0.51100000000E-03 0. -1.
    9900012    2    1    2    0    0 -0.38227036750E+02  0.23749647106E+02 -0.19394360218E+01  0.46142317761E+02  0.99999999987E+01 0.  0.
        -12    1    1    2    0    0  0.38227036750E+02 -0.23749647106E+02  0.19394360218E+01  0.45045682239E+02  0.00000000000E+00 0.  1.
         11    1    3    3    0    0 -0.17077582961E+02  0.97208208390E+01 -0.58597642648E+00  0.19659134422E+02  0.51100000000E-03 0. -1.
        -11    1    3    3    0    0 -0.83032478027E+01  0.28965468225E+01 -0.32582849982E+01  0.93781836706E+01  0.51100000000E-03 0.  1.
        -12    1    3    3    0    0 -0.12846205986E+02  0.11132279444E+02  0.19048254029E+01  0.17104999669E+02  0.00000000000E+00 0.  1.
</event>
<event>
 7    1  0.4081218E-008  0.4614232E+02  0.7816164E-02  0.1320468E+00
        -11   -1    0    0    0    0  0.00000000000E+00  0.00000000000E+00  0.45593999997E+02  0.45594000000E+02  0.51100000000E-03 0. -1.
         11   -1    0    0    0    0 -0.00000000000E+00 -0.00000000000E+00 -0.45593999997E+02  0.45594000000E+02  0.51100000000E-03 0.  1.
    9900012    2    1    2    0    0 -0.20708135586E+02 -0.30818657081E+02  0.25504842220E+02  0.46142317850E+02  0.10000000812E+02 0.  0.
        -12    1    1    2    0    0  0.20708135586E+02  0.30818657081E+02 -0.25504842220E+02  0.45045682150E+02  0.00000000000E+00 0.  1.
         11    1    3    3    0    0 -0.76482150109E+01 -0.11957539031E+02  0.10684382232E+02  0.17766090073E+02  0.51100000000E-03 0. -1.
        -11    1    3    3    0    0 -0.56632688653E+01 -0.14140600793E+02  0.76561492328E+01  0.17048337935E+02  0.51100000000E-03 0.  1.
         12    1    3    3    0    0 -0.73966517098E+01 -0.47205172570E+01  0.71643107545E+01  0.11327889842E+02  0.00000000000E+00 0. -1.
</event>
<event>
 7    1  0.4081218E-008  0.4614232E+02  0.7816164E-02  0.1320468E+00
        -11   -1    0    0    0    0  0.00000000000E+00  0.00000000000E+00  0.45593999997E+02  0.45594000000E+02  0.51100000000E-03 0.  1.
         11   -1    0    0    0    0 -0.00000000000E+00 -0.00000000000E+00 -0.45593999997E+02  0.45594000000E+02  0.51100000000E-03 0. -1.
    9900012    2    1    2    0    0 -0.42617459485E+02  0.12709499046E+02 -0.71647863591E+01  0.46142318936E+02  0.10000010709E+02 0.  0.
        -12    1    1    2    0    0  0.42617459485E+02 -0.12709499046E+02  0.71647863591E+01  0.45045681064E+02  0.00000000000E+00 0.  1.
         11    1    3    3    0    0 -0.24158788962E+02  0.63686591522E+01 -0.58025162890E+01  0.25649095482E+02  0.51100000000E-03 0. -1.
        -11    1    3    3    0    0 -0.12296036942E+02  0.38099148677E+01 -0.37634293024E+01  0.13411613481E+02  0.51100000000E-03 0.  1.
        -12    1    3    3    0    0 -0.61626335811E+01  0.25309250266E+01  0.24011592324E+01  0.70816099726E+01  0.00000000000E+00 0.  1.
</event>
<event>
 7    1  0.4081218E-008  0.4614232E+02  0.7816164E-02  0.1320468E+00
        -11   -1    0    0    0    0  0.00000000000E+00  0.00000000000E+00  0.45593999997E+02  0.45594000000E+02  0.51100000000E-03 0. -1.
         11   -1    0    0    0    0 -0.00000000000E+00 -0.00000000000E+00 -0.45593999997E+02  0.45594000000E+02  0.51100000000E-03 0.  1.
    9900012    2    1    2    0    0 -0.43147915626E+02 -0.89862598521E+01 -0.93068608692E+01  0.46142321536E+02  0.10000034425E+02 0.  0.
        -12    1    1    2    0    0  0.43147915626E+02  0.89862598521E+01  0.93068608692E+01  0.45045678464E+02  0.00000000000E+00 0.  1.
         11    1    3    3    0    0 -0.28823799678E+02 -0.30353090786E+01 -0.48992934266E+01  0.29394346488E+02  0.51100000000E-03 0. -1.
        -11    1    3    3    0    0 -0.26730355738E+01 -0.99500236638E+00  0.94079650315E+00  0.30033726391E+01  0.51100000000E-03 0.  1.
         12    1    3    3    0    0 -0.11651080374E+02 -0.49559484071E+01 -0.53483639458E+01  0.13744602410E+02  0.00000000000E+00 0. -1.
</event>
<event>
 7    1  0.4081218E-008  0.4614232E+02  0.7816164E-02  0.1320468E+00
        -11   -1    0    0    0    0  0.00000000000E+00  0.00000000000E+00  0.45593999997E+02  0.45594000000E+02  0.51100000000E-03 0.  1.
         11   -1    0    0    0    0 -0.00000000000E+00 -0.00000000000E+00 -0.45593999997E+02  0.45594000000E+02  0.51100000000E-03 0. -1.
    9900012    2    1    2    0    0 -0.39667177013E+02 -0.19771331989E+02 -0.80450599399E+01  0.46142317741E+02  0.99999998136E+01 0.  0.
        -12    1    1    2    0    0  0.39667177013E+02  0.19771331989E+02  0.80450599399E+01  0.45045682259E+02  0.00000000000E+00 0.  1.
         11    1    3    3    0    0 -0.31267074979E+02 -0.13671331389E+02 -0.54044206770E+01  0.34550586722E+02  0.51100000000E-03 0. -1.
        -11    1    3    3    0    0 -0.53346612273E+01 -0.30102161309E+01 -0.36410313956E+01  0.71258067227E+01  0.51100000000E-03 0.  1.
         12    1    3    3    0    0 -0.30654408063E+01 -0.30897844687E+01  0.10003921327E+01  0.44659242961E+01  0.00000000000E+00 0. -1.
</event>
<event>
 7    1  0.4081218E-008  0.4614232E+02  0.7816164E-02  0.1320468E+00
        -11   -1    0    0    0    0  0.00000000000E+00  0.00000000000E+00  0.45593999997E+02  0.45594000000E+02  0.51100000000E-03 0. -1.
         11   -1    0    0    0    0 -0.00000000000E+00 -0.00000000000E+00 -0.45593999997E+02  0.45594000000E+02  0.51100000000E-03 0.  1.
    9900012    2    1    2    0    0 -0.18290481177E+02 -0.31638818450E+02  0.26335470791E+02  0.46142317006E+02  0.99999931143E+01 0.  0.
        -12    1    1    2    0    0  0.18290481177E+02  0.31638818450E+02 -0.26335470791E+02  0.45045682994E+02  0.00000000000E+00 0.  1.
         11    1    3    3    0    0 -0.55908918061E+01 -0.14880721998E+02  0.10745671343E+02  0.19187584821E+02  0.51100000000E-03 0. -1.
        -11    1    3    3    0    0 -0.23902533960E+01 -0.77690741629E+01  0.75213249191E+01  0.11074391787E+02  0.51100000000E-03 0.  1.
        -12    1    3    3    0    0 -0.10309335975E+02 -0.89890222894E+01  0.80684745285E+01  0.15880340399E+02  0.00000000000E+00 0.  1.
</event>
<event>
 7    1  0.4081218E-008  0.4614232E+02  0.7816164E-02  0.1320468E+00
        -11   -1    0    0    0    0  0.00000000000E+00  0.00000000000E+00  0.45593999997E+02  0.45594000000E+02  0.51100000000E-03 0. -1.
         11   -1    0    0    0    0 -0.00000000000E+00 -0.00000000000E+00 -0.45593999997E+02  0.45594000000E+02  0.51100000000E-03 0.  1.
    9900012    2    1    2    0    0  0.13110326742E+02  0.42847031274E+02 -0.46221946031E+01  0.46142318307E+02  0.10000004975E+02 0.  0.
        -12    1    1    2    0    0 -0.13110326742E+02 -0.42847031274E+02  0.46221946031E+01  0.45045681693E+02  0.00000000000E+00 0.  1.
         11    1    3    3    0    0  0.24667541432E+00  0.54333906444E+00  0.37151695065E+00  0.70291621457E+00  0.51100000000E-03 0. -1.
        -11    1    3    3    0    0 -0.83225733020E+00  0.10479996162E+02 -0.86417082653E+00  0.10548448383E+02  0.51100000000E-03 0.  1.
         12    1    3    3    0    0  0.13695908658E+02  0.31823696048E+02 -0.41295407272E+01  0.34890953709E+02  0.00000000000E+00 0. -1.
</event>
<event>
 7    1  0.4081218E-008  0.4614232E+02  0.7816164E-02  0.1320468E+00
        -11   -1    0    0    0    0  0.00000000000E+00  0.00000000000E+00  0.45593999997E+02  0.45594000000E+02  0.51100000000E-03 0.  1.
         11   -1    0    0    0    0 -0.00000000000E+00 -0.00000000000E+00 -0.45593999997E+02  0.45594000000E+02  0.51100000000E-03 0. -1.
    9900012    2    1    2    0    0  0.20693651149E+02 -0.26584171965E+02 -0.29902643655E+02  0.46142317693E+02  0.99999993797E+01 0.  0.
        -12    1    1    2    0    0 -0.20693651149E+02  0.26584171965E+02  0.29902643655E+02  0.45045682307E+02  0.00000000000E+00 0.  1.
         11    1    3    3    0    0  0.30012454993E+01 -0.88337750187E+00 -0.46554577795E+01  0.56090211050E+01  0.51100000000E-03 0.  1.
        -11    1    3    3    0    0  0.62242932218E+01 -0.13050203624E+02 -0.94596011707E+01  0.17278127656E+02  0.51100000000E-03 0. -1.
        -12    1    3    3    0    0  0.11468112428E+02 -0.12650590839E+02 -0.15787584704E+02  0.23255168932E+02  0.00000000000E+00 0.  1.
</event>
<event>
 7    1  0.4081218E-008  0.4614232E+02  0.7816164E-02  0.1320468E+00
        -11   -1    0    0    0    0  0.00000000000E+00  0.00000000000E+00  0.45593999997E+02  0.45594000000E+02  0.51100000000E-03 0.  1.
         11   -1    0    0    0    0 -0.00000000000E+00 -0.00000000000E+00 -0.45593999997E+02  0.45594000000E+02  0.51100000000E-03 0. -1.
    9900012    2    1    2    0    0 -0.14214614906E+02 -0.11819689824E+02 -0.41077404378E+02  0.46142317688E+02  0.99999993374E+01 0.  0.
        -12    1    1    2    0    0  0.14214614906E+02  0.11819689824E+02  0.41077404378E+02  0.45045682312E+02  0.00000000000E+00 0.  1.
         11    1    3    3    0    0 -0.11274127077E+01  0.35950594193E+00 -0.14036580116E+01  0.18359084973E+01  0.51100000000E-03 0. -1.
        -11    1    3    3    0    0  0.39601084462E+00 -0.24150867822E+01 -0.21577776525E+01  0.32627401694E+01  0.51100000000E-03 0.  1.
        -12    1    3    3    0    0 -0.13483213043E+02 -0.97641089840E+01 -0.37515968714E+02  0.41043669022E+02  0.00000000000E+00 0.  1.
</event>
<event>
 7    1  0.4081218E-008  0.4614232E+02  0.7816164E-02  0.1320468E+00
        -11   -1    0    0    0    0  0.00000000000E+00  0.00000000000E+00  0.45593999997E+02  0.45594000000E+02  0.51100000000E-03 0.  1.
         11   -1    0    0    0    0 -0.00000000000E+00 -0.00000000000E+00 -0.45593999997E+02  0.45594000000E+02  0.51100000000E-03 0. -1.
    9900012    2    1    2    0    0  0.11836523315E+02 -0.59958833147E+01 -0.43047179338E+02  0.46142317078E+02  0.99999937737E+01 0.  0.
        -12    1    1    2    0    0 -0.11836523315E+02  0.59958833147E+01  0.43047179338E+02  0.45045682922E+02  0.00000000000E+00 0.  1.
         11    1    3    3    0    0  0.47275082819E+01 -0.18617092566E+01 -0.14917222689E+02  0.15758769905E+02  0.51100000000E-03 0. -1.
        -11    1    3    3    0    0  0.42157309623E+01 -0.41160850652E+01 -0.74310945362E+01  0.94834439987E+01  0.51100000000E-03 0.  1.
         12    1    3    3    0    0  0.28932840705E+01 -0.18088992979E-01 -0.20698862113E+02  0.20900103174E+02  0.00000000000E+00 0. -1.
</event>
<event>
 7    1  0.4081218E-008  0.4614232E+02  0.7816164E-02  0.1320468E+00
        -11   -1    0    0    0    0  0.00000000000E+00  0.00000000000E+00  0.45593999997E+02  0.45594000000E+02  0.51100000000E-03 0. -1.
         11   -1    0    0    0    0 -0.00000000000E+00 -0.00000000000E+00 -0.45593999997E+02  0.45594000000E+02  0.51100000000E-03 0.  1.
    9900012    2    1    2    0    0  0.42258767480E+02  0.10257685443E+02  0.11751171314E+02  0.46142316890E+02  0.99999920568E+01 0.  0.
        -12    1    1    2    0    0 -0.42258767480E+02 -0.10257685443E+02 -0.11751171314E+02  0.45045683110E+02  0.00000000000E+00 0.  1.
         11    1    3    3    0    0  0.14889893385E+02  0.44142206454E+01  0.43693725001E+01  0.16133371787E+02  0.51100000000E-03 0. -1.
        -11    1    3    3    0    0  0.11350855189E+02  0.49024315072E+01  0.64270057464E+01  0.13934925594E+02  0.51100000000E-03 0.  1.
        -12    1    3    3    0    0  0.16018018907E+02  0.94103328997E+00  0.95479306722E+00  0.16074019509E+02  0.00000000000E+00 0.  1.
</event>
<event>
 7    1  0.4081218E-008  0.4614232E+02  0.7816164E-02  0.1320468E+00
        -11   -1    0    0    0    0  0.00000000000E+00  0.00000000000E+00  0.45593999997E+02  0.45594000000E+02  0.51100000000E-03 0.  1.
         11   -1    0    0    0    0 -0.00000000000E+00 -0.00000000000E+00 -0.45593999997E+02  0.45594000000E+02  0.51100000000E-03 0. -1.
    9900012    2    1    2    0    0  0.23109672874E+02  0.12217774027E+02 -0.36684908056E+02  0.46142318058E+02  0.10000002705E+02 0.  0.
        -12    1    1    2    0    0 -0.23109672874E+02 -0.12217774027E+02  0.36684908056E+02  0.45045681942E+02  0.00000000000E+00 0.  1.
         11    1    3    3    0    0  0.15920758498E+02  0.11517520900E+02 -0.29193896543E+02  0.35191013547E+02  0.51100000000E-03 0. -1.
        -11    1    3    3    0    0  0.14498805905E+01  0.85808058197E+00 -0.37163012147E+01  0.40803616251E+01  0.51100000000E-03 0.  1.
         12    1    3    3    0    0  0.57390337859E+01 -0.15782745514E+00 -0.37747102991E+01  0.68709428861E+01  0.00000000000E+00 0. -1.
</event>
<event>
 7    1  0.4081218E-008  0.4614232E+02  0.7816164E-02  0.1320468E+00
        -11   -1    0    0    0    0  0.00000000000E+00  0.00000000000E+00  0.45593999997E+02  0.45594000000E+02  0.51100000000E-03 0. -1.
         11   -1    0    0    0    0 -0.00000000000E+00 -0.00000000000E+00 -0.45593999997E+02  0.45594000000E+02  0.51100000000E-03 0.  1.
    9900012    2    1    2    0    0 -0.15041538598E+01 -0.31500396440E+02  0.32164825459E+02  0.46142318170E+02  0.10000003731E+02 0.  0.
        -12    1    1    2    0    0  0.15041538598E+01  0.31500396440E+02 -0.32164825459E+02  0.45045681830E+02  0.00000000000E+00 0.  1.
         11    1    3    3    0    0  0.16891103027E+00 -0.27231527364E+02  0.26081420529E+02  0.37707096289E+02  0.51100000000E-03 0. -1.
        -11    1    3    3    0    0 -0.23246625233E+01 -0.40797157006E+01  0.37620444905E+01  0.60167362460E+01  0.51100000000E-03 0.  1.
         12    1    3    3    0    0  0.65159763317E+00 -0.18915337515E+00  0.23213604401E+01  0.24184856352E+01  0.00000000000E+00 0. -1.
</event>
<event>
 7    1  0.4081218E-008  0.4614232E+02  0.7816164E-02  0.1320468E+00
        -11   -1    0    0    0    0  0.00000000000E+00  0.00000000000E+00  0.45593999997E+02  0.45594000000E+02  0.51100000000E-03 0. -1.
         11   -1    0    0    0    0 -0.00000000000E+00 -0.00000000000E+00 -0.45593999997E+02  0.45594000000E+02  0.51100000000E-03 0.  1.
    9900012    2    1    2    0    0  0.18727100993E+02 -0.37061548129E+02  0.17459981746E+02  0.46142316257E+02  0.99999862800E+01 0.  0.
        -12    1    1    2    0    0 -0.18727100993E+02  0.37061548129E+02 -0.17459981746E+02  0.45045683743E+02  0.00000000000E+00 0.  1.
         11    1    3    3    0    0  0.41461291530E+01 -0.93817483185E+01  0.22387440798E+01  0.10498550556E+02  0.51100000000E-03 0. -1.
        -11    1    3    3    0    0  0.36224062467E+01 -0.37014039452E+01 -0.44270797802E-01  0.51792063433E+01  0.51100000000E-03 0.  1.
        -12    1    3    3    0    0  0.10958565593E+02 -0.23978395865E+02  0.15265508464E+02  0.30464559357E+02  0.00000000000E+00 0.  1.
</event>
<event>
 7    1  0.4081218E-008  0.4614233E+02  0.7816164E-02  0.1320468E+00
        -11   -1    0    0    0    0  0.00000000000E+00  0.00000000000E+00  0.45593999997E+02  0.45594000000E+02  0.51100000000E-03 0. -1.
         11   -1    0    0    0    0 -0.00000000000E+00 -0.00000000000E+00 -0.45593999997E+02  0.45594000000E+02  0.51100000000E-03 0.  1.
    9900012    2    1    2    0    0  0.10876084312E+02 -0.14211765324E+02  0.41338226633E+02  0.46142329123E+02  0.10000103608E+02 0.  0.
        -12    1    1    2    0    0 -0.10876084312E+02  0.14211765324E+02 -0.41338226633E+02  0.45045670877E+02  0.00000000000E+00 0.  1.
         11    1    3    3    0    0  0.15196210809E+01 -0.32566611186E+01  0.68205228820E+01  0.77093853527E+01  0.51100000000E-03 0. -1.
        -11    1    3    3    0    0  0.49230540440E+01 -0.11039971995E+02  0.28504063773E+02  0.30961251503E+02  0.51100000000E-03 0.  1.
         12    1    3    3    0    0  0.44334091869E+01  0.84867789898E-01  0.60136399782E+01  0.74716922680E+01  0.00000000000E+00 0. -1.
</event>
<event>
 7    1  0.4081218E-008  0.4614231E+02  0.7816164E-02  0.1320468E+00
        -11   -1    0    0    0    0  0.00000000000E+00  0.00000000000E+00  0.45593999997E+02  0.45594000000E+02  0.51100000000E-03 0.  1.
         11   -1    0    0    0    0 -0.00000000000E+00 -0.00000000000E+00 -0.45593999997E+02  0.45594000000E+02  0.51100000000E-03 0. -1.
    9900012    2    1    2    0    0  0.37532694564E+02 -0.18617706206E+02  0.16546651011E+02  0.46142314243E+02  0.99999679205E+01 0.  0.
        -12    1    1    2    0    0 -0.37532694564E+02  0.18617706206E+02 -0.16546651011E+02  0.45045685757E+02  0.00000000000E+00 0.  1.
         11    1    3    3    0    0  0.15434508736E+02 -0.10237873416E+02  0.33614460979E+01  0.18823852744E+02  0.51100000000E-03 0. -1.
        -11    1    3    3    0    0  0.11834282146E+02 -0.35044786457E+01  0.50106231327E+01  0.13320583656E+02  0.51100000000E-03 0.  1.
        -12    1    3    3    0    0  0.10263903681E+02 -0.48753541446E+01  0.81745817800E+01  0.13997877843E+02  0.00000000000E+00 0.  1.
</event>
<event>
 7    1  0.4081218E-008  0.4614232E+02  0.7816164E-02  0.1320468E+00
        -11   -1    0    0    0    0  0.00000000000E+00  0.00000000000E+00  0.45593999997E+02  0.45594000000E+02  0.51100000000E-03 0.  1.
         11   -1    0    0    0    0 -0.00000000000E+00 -0.00000000000E+00 -0.45593999997E+02  0.45594000000E+02  0.51100000000E-03 0. -1.
    9900012    2    1    2    0    0  0.33620567168E+02 -0.19604806642E+02  0.22680885193E+02  0.46142317263E+02  0.99999954566E+01 0.  0.
        -12    1    1    2    0    0 -0.33620567168E+02  0.19604806642E+02 -0.22680885193E+02  0.45045682737E+02  0.00000000000E+00 0.  1.
         11    1    3    3    0    0  0.16624044076E+02 -0.72966209539E+01  0.11210524985E+02  0.21337183260E+02  0.51100000000E-03 0. -1.
        -11    1    3    3    0    0  0.30470808662E+01 -0.52409158625E+00  0.40478653595E+01  0.50935830243E+01  0.51100000000E-03 0.  1.
        -12    1    3    3    0    0  0.13949442226E+02 -0.11784094102E+02  0.74224948482E+01  0.19711550978E+02  0.00000000000E+00 0.  1.
</event>
<event>
 7    1  0.4081218E-008  0.4614232E+02  0.7816164E-02  0.1320468E+00
        -11   -1    0    0    0    0  0.00000000000E+00  0.00000000000E+00  0.45593999997E+02  0.45594000000E+02  0.51100000000E-03 0. -1.
         11   -1    0    0    0    0 -0.00000000000E+00 -0.00000000000E+00 -0.45593999997E+02  0.45594000000E+02  0.51100000000E-03 0.  1.
    9900012    2    1    2    0    0 -0.14230961281E+02  0.25981015964E+02  0.33934931867E+02  0.46142322624E+02  0.10000044340E+02 0.  0.
        -12    1    1    2    0    0  0.14230961281E+02 -0.25981015964E+02 -0.33934931867E+02  0.45045677376E+02  0.00000000000E+00 0.  1.
         11    1    3    3    0    0 -0.63283213829E+01  0.48302659294E+01  0.77543606286E+01  0.11113470632E+02  0.51100000000E-03 0. -1.
        -11    1    3    3    0    0 -0.12001501830E+01  0.66371529544E+00  0.34016478164E+01  0.36677086284E+01  0.51100000000E-03 0.  1.
         12    1    3    3    0    0 -0.67024897150E+01  0.20487034739E+02  0.22778923422E+02  0.31361143363E+02  0.00000000000E+00 0. -1.
</event>
<event>
 7    1  0.4081218E-008  0.4614232E+02  0.7816164E-02  0.1320468E+00
        -11   -1    0    0    0    0  0.00000000000E+00  0.00000000000E+00  0.45593999997E+02  0.45594000000E+02  0.51100000000E-03 0. -1.
         11   -1    0    0    0    0 -0.00000000000E+00 -0.00000000000E+00 -0.45593999997E+02  0.45594000000E+02  0.51100000000E-03 0.  1.
    9900012    2    1    2    0    0  0.24754644428E+02  0.33833416124E+02 -0.16480926395E+02  0.46142318717E+02  0.10000008718E+02 0.  0.
        -12    1    1    2    0    0 -0.24754644428E+02 -0.33833416124E+02  0.16480926395E+02  0.45045681283E+02  0.00000000000E+00 0.  1.
         11    1    3    3    0    0  0.83886707032E+01  0.15171369438E+02 -0.79747561230E+01  0.19082373601E+02  0.51100000000E-03 0. -1.
        -11    1    3    3    0    0  0.66561758863E+01  0.11677919633E+02 -0.65051075610E+01  0.14933014063E+02  0.51100000000E-03 0.  1.
         12    1    3    3    0    0  0.97097978389E+01  0.69841270537E+01 -0.20010627110E+01  0.12126931052E+02  0.00000000000E+00 0. -1.
</event>
<event>
 7    1  0.4081218E-008  0.4614232E+02  0.7816164E-02  0.1320468E+00
        -11   -1    0    0    0    0  0.00000000000E+00  0.00000000000E+00  0.45593999997E+02  0.45594000000E+02  0.51100000000E-03 0.  1.
         11   -1    0    0    0    0 -0.00000000000E+00 -0.00000000000E+00 -0.45593999997E+02  0.45594000000E+02  0.51100000000E-03 0. -1.
    9900012    2    1    2    0    0  0.17265581691E+02 -0.41477829752E+02 -0.32561860817E+01  0.46142318522E+02  0.10000006937E+02 0.  0.
        -12    1    1    2    0    0 -0.17265581691E+02  0.41477829752E+02  0.32561860817E+01  0.45045681478E+02  0.00000000000E+00 0.  1.
         11    1    3    3    0    0  0.41631915120E+01 -0.19667574876E+02 -0.34612313243E+01  0.20399161444E+02  0.51100000000E-03 0. -1.
        -11    1    3    3    0    0  0.70096951733E+01 -0.14474056353E+02  0.13485955881E+01  0.16138551486E+02  0.51100000000E-03 0.  1.
         12    1    3    3    0    0  0.60926950054E+01 -0.73361985224E+01 -0.11435503454E+01  0.96046055922E+01  0.00000000000E+00 0. -1.
</event>
<event>
 7    1  0.4081218E-008  0.4614232E+02  0.7816164E-02  0.1320468E+00
        -11   -1    0    0    0    0  0.00000000000E+00  0.00000000000E+00  0.45593999997E+02  0.45594000000E+02  0.51100000000E-03 0.  1.
         11   -1    0    0    0    0 -0.00000000000E+00 -0.00000000000E+00 -0.45593999997E+02  0.45594000000E+02  0.51100000000E-03 0. -1.
    9900012    2    1    2    0    0 -0.27969630596E+02 -0.31174834919E+02 -0.16581405569E+02  0.46142316760E+02  0.99999908734E+01 0.  0.
        -12    1    1    2    0    0  0.27969630596E+02  0.31174834919E+02  0.16581405569E+02  0.45045683240E+02  0.00000000000E+00 0.  1.
         11    1    3    3    0    0 -0.12610381526E+02 -0.13046567868E+02 -0.23031398244E+01  0.18290410293E+02  0.51100000000E-03 0. -1.
        -11    1    3    3    0    0 -0.58656932460E+01 -0.54079418330E+01 -0.38356507510E+01  0.88523674274E+01  0.51100000000E-03 0.  1.
        -12    1    3    3    0    0 -0.94935558239E+01 -0.12720325218E+02 -0.10442614994E+02  0.18999539040E+02  0.00000000000E+00 0.  1.
</event>
<event>
 7    1  0.4081218E-008  0.4614232E+02  0.7816164E-02  0.1320468E+00
        -11   -1    0    0    0    0  0.00000000000E+00  0.00000000000E+00  0.45593999997E+02  0.45594000000E+02  0.51100000000E-03 0.  1.
         11   -1    0    0    0    0 -0.00000000000E+00 -0.00000000000E+00 -0.45593999997E+02  0.45594000000E+02  0.51100000000E-03 0. -1.
    9900012    2    1    2    0    0  0.34265478947E+01 -0.27871219681E+02 -0.35221687952E+02  0.46142318529E+02  0.10000007004E+02 0.  0.
        -12    1    1    2    0    0 -0.34265478947E+01  0.27871219681E+02  0.35221687952E+02  0.45045681471E+02  0.00000000000E+00 0.  1.
         11    1    3    3    0    0  0.60413850961E+01 -0.12875088746E+02 -0.18162955716E+02  0.23068576131E+02  0.51100000000E-03 0. -1.
        -11    1    3    3    0    0 -0.15262087445E+01 -0.54590508054E+01 -0.43388446552E+01  0.71383556952E+01  0.51100000000E-03 0.  1.
         12    1    3    3    0    0 -0.10886284569E+01 -0.95370801299E+01 -0.12719887581E+02  0.15935386703E+02  0.00000000000E+00 0. -1.
</event>
<event>
 7    1  0.4081218E-008  0.4614232E+02  0.7816164E-02  0.1320468E+00
        -11   -1    0    0    0    0  0.00000000000E+00  0.00000000000E+00  0.45593999997E+02  0.45594000000E+02  0.51100000000E-03 0.  1.
         11   -1    0    0    0    0 -0.00000000000E+00 -0.00000000000E+00 -0.45593999997E+02  0.45594000000E+02  0.51100000000E-03 0. -1.
    9900012    2    1    2    0    0  0.28713462703E+02 -0.18902090425E+02 -0.29109478000E+02  0.46142315720E+02  0.99999813872E+01 0.  0.
        -12    1    1    2    0    0 -0.28713462703E+02  0.18902090425E+02  0.29109478000E+02  0.45045684280E+02  0.00000000000E+00 0.  1.
         11    1    3    3    0    0  0.20873768469E+02 -0.13091406807E+02 -0.20156449409E+02  0.31833655074E+02  0.51100000000E-03 0. -1.
        -11    1    3    3    0    0  0.63497120664E+01 -0.24211605005E+01 -0.79778538140E+01  0.10479838416E+02  0.51100000000E-03 0.  1.
         12    1    3    3    0    0  0.14899821667E+01 -0.33895231178E+01 -0.97517477717E+00  0.38288222300E+01  0.00000000000E+00 0. -1.
</event>
<event>
 7    1  0.4081218E-008  0.4614232E+02  0.7816164E-02  0.1320468E+00
        -11   -1    0    0    0    0  0.00000000000E+00  0.00000000000E+00  0.45593999997E+02  0.45594000000E+02  0.51100000000E-03 0.  1.
         11   -1    0    0    0    0 -0.00000000000E+00 -0.00000000000E+00 -0.45593999997E+02  0.45594000000E+02  0.51100000000E-03 0. -1.
    9900012    2    1    2    0    0  0.22308413661E+00 -0.17925393519E+02 -0.41324857882E+02  0.46142318982E+02  0.10000011136E+02 0.  0.
        -12    1    1    2    0    0 -0.22308413661E+00  0.17925393519E+02  0.41324857882E+02  0.45045681018E+02  0.00000000000E+00 0.  1.
         11    1    3    3    0    0 -0.13003427611E+01 -0.89458470433E+01 -0.24864198489E+02  0.26456519752E+02  0.51100000000E-03 0. -1.
        -11    1    3    3    0    0 -0.46307236136E+00 -0.62510750903E+01 -0.14465443044E+02  0.15765133000E+02  0.51100000000E-03 0.  1.
        -12    1    3    3    0    0  0.19864992590E+01 -0.27284713857E+01 -0.19952163495E+01  0.39206662304E+01  0.00000000000E+00 0.  1.
</event>
<event>
 7    1  0.4081218E-008  0.4614232E+02  0.7816164E-02  0.1320468E+00
        -11   -1    0    0    0    0  0.00000000000E+00  0.00000000000E+00  0.45593999997E+02  0.45594000000E+02  0.51100000000E-03 0.  1.
         11   -1    0    0    0    0 -0.00000000000E+00 -0.00000000000E+00 -0.45593999997E+02  0.45594000000E+02  0.51100000000E-03 0. -1.
    9900012    2    1    2    0    0  0.35149959075E+02 -0.15482797497E+01 -0.28128219280E+02  0.46142317488E+02  0.99999975057E+01 0.  0.
        -12    1    1    2    0    0 -0.35149959075E+02  0.15482797497E+01  0.28128219280E+02  0.45045682512E+02  0.00000000000E+00 0.  1.
         11    1    3    3    0    0  0.21688410139E+02 -0.23734927381E+01 -0.18973525457E+02  0.28913928662E+02  0.51100000000E-03 0. -1.
        -11    1    3    3    0    0  0.11200091398E+02  0.22416106908E+01 -0.54318389589E+01  0.12647993539E+02  0.51100000000E-03 0.  1.
        -12    1    3    3    0    0  0.22614575376E+01 -0.14163977024E+01 -0.37228548641E+01  0.45803952870E+01  0.00000000000E+00 0.  1.
</event>
<event>
 7    1  0.4081218E-008  0.4614232E+02  0.7816164E-02  0.1320468E+00
        -11   -1    0    0    0    0  0.00000000000E+00  0.00000000000E+00  0.45593999997E+02  0.45594000000E+02  0.51100000000E-03 0.  1.
         11   -1    0    0    0    0 -0.00000000000E+00 -0.00000000000E+00 -0.45593999997E+02  0.45594000000E+02  0.51100000000E-03 0. -1.
    9900012    2    1    2    0    0  0.11174724552E+02 -0.43364387074E+02  0.48753580842E+01  0.46142315950E+02  0.99999834831E+01 0.  0.
        -12    1    1    2    0    0 -0.11174724552E+02  0.43364387074E+02 -0.48753580842E+01  0.45045684050E+02  0.00000000000E+00 0.  1.
         11    1    3    3    0    0  0.49287380692E+01 -0.16085992417E+02  0.35118563253E+01  0.17186760780E+02  0.51100000000E-03 0. -1.
        -11    1    3    3    0    0  0.11124508595E+01 -0.52602467189E+01 -0.26487409977E+01  0.59936275821E+01  0.51100000000E-03 0.  1.
        -12    1    3    3    0    0  0.51335356235E+01 -0.22018147937E+02  0.40122427566E+01  0.22961927587E+02  0.00000000000E+00 0.  1.
</event>
<event>
 7    1  0.4081218E-008  0.4614232E+02  0.7816164E-02  0.1320468E+00
        -11   -1    0    0    0    0  0.00000000000E+00  0.00000000000E+00  0.45593999997E+02  0.45594000000E+02  0.51100000000E-03 0.  1.
         11   -1    0    0    0    0 -0.00000000000E+00 -0.00000000000E+00 -0.45593999997E+02  0.45594000000E+02  0.51100000000E-03 0. -1.
    9900012    2    1    2    0    0  0.33201389705E+02 -0.27915126332E+02 -0.12146072617E+02  0.46142316116E+02  0.99999850030E+01 0.  0.
        -12    1    1    2    0    0 -0.33201389705E+02  0.27915126332E+02  0.12146072617E+02  0.45045683884E+02  0.00000000000E+00 0.  1.
         11    1    3    3    0    0  0.18145875729E+01 -0.11303740365E+01 -0.73183190036E+00  0.22596574328E+01  0.51100000000E-03 0. -1.
        -11    1    3    3    0    0  0.32011904906E+02 -0.25444592407E+02 -0.11071110248E+02  0.42364593954E+02  0.51100000000E-03 0.  1.
        -12    1    3    3    0    0 -0.62510277376E+00 -0.13401598892E+01 -0.34313046869E+00  0.15180647302E+01  0.00000000000E+00 0.  1.
</event>
<event>
 7    1  0.4081218E-008  0.4614232E+02  0.7816164E-02  0.1320468E+00
        -11   -1    0    0    0    0  0.00000000000E+00  0.00000000000E+00  0.45593999997E+02  0.45594000000E+02  0.51100000000E-03 0.  1.
         11   -1    0    0    0    0 -0.00000000000E+00 -0.00000000000E+00 -0.45593999997E+02  0.45594000000E+02  0.51100000000E-03 0. -1.
    9900012    2    1    2    0    0 -0.11640287889E+02 -0.40542636688E+02 -0.15808599079E+02  0.46142317670E+02  0.99999991728E+01 0.  0.
        -12    1    1    2    0    0  0.11640287889E+02  0.40542636688E+02  0.15808599079E+02  0.45045682330E+02  0.00000000000E+00 0.  1.
         11    1    3    3    0    0 -0.75666129424E+01 -0.14735521963E+02 -0.25703460723E+01  0.16762932862E+02  0.51100000000E-03 0. -1.
        -11    1    3    3    0    0 -0.42480416995E+01 -0.21492665555E+02 -0.11169167058E+02  0.24591275363E+02  0.51100000000E-03 0.  1.
         12    1    3    3    0    0  0.17436675322E+00 -0.43144491698E+01 -0.20690859480E+01  0.47881094457E+01  0.00000000000E+00 0. -1.
</event>
<event>
 7    1  0.4081218E-008  0.4614232E+02  0.7816164E-02  0.1320468E+00
        -11   -1    0    0    0    0  0.00000000000E+00  0.00000000000E+00  0.45593999997E+02  0.45594000000E+02  0.51100000000E-03 0. -1.
         11   -1    0    0    0    0 -0.00000000000E+00 -0.00000000000E+00 -0.45593999997E+02  0.45594000000E+02  0.51100000000E-03 0.  1.
    9900012    2    1    2    0    0  0.63919734901E+01 -0.39964354532E+02  0.19776417800E+02  0.46142315865E+02  0.99999827067E+01 0.  0.
        -12    1    1    2    0    0 -0.63919734901E+01  0.39964354532E+02 -0.19776417800E+02  0.45045684135E+02  0.00000000000E+00 0.  1.
         11    1    3    3    0    0  0.42848148997E+01 -0.27878142501E+02  0.14944978489E+02  0.31920257680E+02  0.51100000000E-03 0. -1.
        -11    1    3    3    0    0 -0.64999080323E+00 -0.92526950369E+01  0.24011137980E+01  0.95812421544E+01  0.51100000000E-03 0.  1.
        -12    1    3    3    0    0  0.27571493937E+01 -0.28335169938E+01  0.24303255126E+01  0.46408160307E+01  0.00000000000E+00 0.  1.
</event>
<event>
 7    1  0.4081218E-008  0.4614232E+02  0.7816164E-02  0.1320468E+00
        -11   -1    0    0    0    0  0.00000000000E+00  0.00000000000E+00  0.45593999997E+02  0.45594000000E+02  0.51100000000E-03 0. -1.
         11   -1    0    0    0    0 -0.00000000000E+00 -0.00000000000E+00 -0.45593999997E+02  0.45594000000E+02  0.51100000000E-03 0.  1.
    9900012    2    1    2    0    0 -0.38635400643E+02 -0.78396754239E+01  0.21793549621E+02  0.46142317647E+02  0.99999989552E+01 0.  0.
        -12    1    1    2    0    0  0.38635400643E+02  0.78396754239E+01 -0.21793549621E+02  0.45045682353E+02  0.00000000000E+00 0.  1.
         11    1    3    3    0    0 -0.42754432020E+01 -0.16991468192E+01  0.19929358298E+00  0.46050225493E+01  0.51100000000E-03 0. -1.
        -11    1    3    3    0    0 -0.15508503289E+01  0.10267824663E+01  0.15971513761E+01  0.24515937174E+01  0.51100000000E-03 0.  1.
         12    1    3    3    0    0 -0.32809107112E+02 -0.71673110710E+01  0.19997104662E+02  0.39085701380E+02  0.00000000000E+00 0. -1.
</event>
<event>
 7    1  0.4081218E-008  0.4614232E+02  0.7816164E-02  0.1320468E+00
        -11   -1    0    0    0    0  0.00000000000E+00  0.00000000000E+00  0.45593999997E+02  0.45594000000E+02  0.51100000000E-03 0.  1.
         11   -1    0    0    0    0 -0.00000000000E+00 -0.00000000000E+00 -0.45593999997E+02  0.45594000000E+02  0.51100000000E-03 0. -1.
    9900012    2    1    2    0    0  0.38919767800E+02  0.11210207322E+01 -0.22651897237E+02  0.46142318059E+02  0.10000002716E+02 0.  0.
        -12    1    1    2    0    0 -0.38919767800E+02 -0.11210207322E+01  0.22651897237E+02  0.45045681941E+02  0.00000000000E+00 0.  1.
         11    1    3    3    0    0  0.21386274819E+02  0.31426726994E+01 -0.14276265509E+02  0.25904843167E+02  0.51100000000E-03 0. -1.
        -11    1    3    3    0    0  0.12846461308E+00  0.75716751004E+00 -0.13117160172E+00  0.77910977744E+00  0.51100000000E-03 0.  1.
         12    1    3    3    0    0  0.17405028368E+02 -0.27788194773E+01 -0.82444601265E+01  0.19458365115E+02  0.00000000000E+00 0. -1.
</event>
<event>
 7    1  0.4081218E-008  0.4614232E+02  0.7816164E-02  0.1320468E+00
        -11   -1    0    0    0    0  0.00000000000E+00  0.00000000000E+00  0.45593999997E+02  0.45594000000E+02  0.51100000000E-03 0.  1.
         11   -1    0    0    0    0 -0.00000000000E+00 -0.00000000000E+00 -0.45593999997E+02  0.45594000000E+02  0.51100000000E-03 0. -1.
    9900012    2    1    2    0    0  0.14656328435E+02  0.16197824733E+02 -0.39394618583E+02  0.46142318047E+02  0.10000002610E+02 0.  0.
        -12    1    1    2    0    0 -0.14656328435E+02 -0.16197824733E+02  0.39394618583E+02  0.45045681953E+02  0.00000000000E+00 0.  1.
         11    1    3    3    0    0  0.72971075745E+01  0.11788316741E+02 -0.21806127357E+02  0.25840266661E+02  0.51100000000E-03 0. -1.
        -11    1    3    3    0    0  0.41104338696E+01  0.41541880322E+01 -0.15131418237E+02  0.16220750997E+02  0.51100000000E-03 0.  1.
         12    1    3    3    0    0  0.32487869906E+01  0.25531996050E+00 -0.24570729894E+01  0.40813003893E+01  0.00000000000E+00 0. -1.
</event>
<event>
 7    1  0.4081218E-008  0.4614232E+02  0.7816164E-02  0.1320468E+00
        -11   -1    0    0    0    0  0.00000000000E+00  0.00000000000E+00  0.45593999997E+02  0.45594000000E+02  0.51100000000E-03 0. -1.
         11   -1    0    0    0    0 -0.00000000000E+00 -0.00000000000E+00 -0.45593999997E+02  0.45594000000E+02  0.51100000000E-03 0.  1.
    9900012    2    1    2    0    0 -0.28250339792E+02 -0.49219061543E+01  0.34739122380E+02  0.46142317828E+02  0.10000000614E+02 0.  0.
        -12    1    1    2    0    0  0.28250339792E+02  0.49219061543E+01 -0.34739122380E+02  0.45045682172E+02  0.00000000000E+00 0.  1.
         11    1    3    3    0    0 -0.13493452087E+02  0.26228004721E+01  0.16387488910E+02  0.21389299301E+02  0.51100000000E-03 0.  1.
        -11    1    3    3    0    0 -0.66303039131E+01 -0.40121118151E+01  0.84964874423E+01  0.11499924796E+02  0.51100000000E-03 0. -1.
        -12    1    3    3    0    0 -0.81265837917E+01 -0.35325948113E+01  0.98551460275E+01  0.13253093731E+02  0.00000000000E+00 0.  1.
</event>
<event>
 7    1  0.4081218E-008  0.4614232E+02  0.7816164E-02  0.1320468E+00
        -11   -1    0    0    0    0  0.00000000000E+00  0.00000000000E+00  0.45593999997E+02  0.45594000000E+02  0.51100000000E-03 0. -1.
         11   -1    0    0    0    0 -0.00000000000E+00 -0.00000000000E+00 -0.45593999997E+02  0.45594000000E+02  0.51100000000E-03 0.  1.
    9900012    2    1    2    0    0 -0.37345827487E+02 -0.17241247826E+02  0.18361426448E+02  0.46142318315E+02  0.10000005047E+02 0.  0.
        -12    1    1    2    0    0  0.37345827487E+02  0.17241247826E+02 -0.18361426448E+02  0.45045681685E+02  0.00000000000E+00 0.  1.
         11    1    3    3    0    0 -0.13486476203E+02 -0.37849936306E+01  0.48188637079E+01  0.14813259765E+02  0.51100000000E-03 0. -1.
        -11    1    3    3    0    0 -0.84909974295E+01 -0.79014342890E+01  0.79309416634E+01  0.14050962141E+02  0.51100000000E-03 0.  1.
        -12    1    3    3    0    0 -0.15368353854E+02 -0.55548199067E+01  0.56116210772E+01  0.17278096409E+02  0.00000000000E+00 0.  1.
</event>
<event>
 7    1  0.4081218E-008  0.4614232E+02  0.7816164E-02  0.1320468E+00
        -11   -1    0    0    0    0  0.00000000000E+00  0.00000000000E+00  0.45593999997E+02  0.45594000000E+02  0.51100000000E-03 0.  1.
         11   -1    0    0    0    0 -0.00000000000E+00 -0.00000000000E+00 -0.45593999997E+02  0.45594000000E+02  0.51100000000E-03 0. -1.
    9900012    2    1    2    0    0 -0.57438684694E+01 -0.23736542528E+02 -0.37850999520E+02  0.46142316068E+02  0.99999845642E+01 0.  0.
        -12    1    1    2    0    0  0.57438684694E+01  0.23736542528E+02  0.37850999520E+02  0.45045683932E+02  0.00000000000E+00 0.  1.
         11    1    3    3    0    0 -0.31377150583E+01 -0.13231327678E+02 -0.26706648514E+02  0.29969290332E+02  0.51100000000E-03 0. -1.
        -11    1    3    3    0    0 -0.28237964014E+01 -0.60237009230E+01 -0.90219516181E+01  0.11209567797E+02  0.51100000000E-03 0.  1.
         12    1    3    3    0    0  0.21764299033E+00 -0.44815139277E+01 -0.21223993878E+01  0.49634579394E+01  0.00000000000E+00 0. -1.
</event>
<event>
 7    1  0.4081218E-008  0.4614232E+02  0.7816164E-02  0.1320468E+00
        -11   -1    0    0    0    0  0.00000000000E+00  0.00000000000E+00  0.45593999997E+02  0.45594000000E+02  0.51100000000E-03 0. -1.
         11   -1    0    0    0    0 -0.00000000000E+00 -0.00000000000E+00 -0.45593999997E+02  0.45594000000E+02  0.51100000000E-03 0.  1.
    9900012    2    1    2    0    0  0.28526652625E+02  0.17975531875E+01  0.34815404785E+02  0.46142317435E+02  0.99999970252E+01 0.  0.
        -12    1    1    2    0    0 -0.28526652625E+02 -0.17975531875E+01 -0.34815404785E+02  0.45045682565E+02  0.00000000000E+00 0.  1.
         11    1    3    3    0    0  0.13604788243E+02 -0.18111001383E+01  0.18431431251E+02  0.22980165471E+02  0.51100000000E-03 0. -1.
        -11    1    3    3    0    0  0.46289049298E+01 -0.96993975891E+00  0.72639405229E+01  0.86678934100E+01  0.51100000000E-03 0.  1.
        -12    1    3    3    0    0  0.10292959452E+02  0.45785930847E+01  0.91200330112E+01  0.14494258554E+02  0.00000000000E+00 0.  1.
</event>
<event>
 7    1  0.4081218E-008  0.4614232E+02  0.7816164E-02  0.1320468E+00
        -11   -1    0    0    0    0  0.00000000000E+00  0.00000000000E+00  0.45593999997E+02  0.45594000000E+02  0.51100000000E-03 0.  1.
         11   -1    0    0    0    0 -0.00000000000E+00 -0.00000000000E+00 -0.45593999997E+02  0.45594000000E+02  0.51100000000E-03 0. -1.
    9900012    2    1    2    0    0  0.16664199833E+02 -0.39695300132E+02 -0.13255221606E+02  0.46142319757E+02  0.10000018203E+02 0.  0.
        -12    1    1    2    0    0 -0.16664199833E+02  0.39695300132E+02  0.13255221606E+02  0.45045680243E+02  0.00000000000E+00 0.  1.
         11    1    3    3    0    0  0.64124251091E+01 -0.69118139086E+01 -0.21810753646E+01  0.96772649698E+01  0.51100000000E-03 0. -1.
        -11    1    3    3    0    0  0.43738595445E+00 -0.41042503992E+01  0.17951631782E+00  0.41313925234E+01  0.51100000000E-03 0.  1.
         12    1    3    3    0    0  0.98143887699E+01 -0.28679235825E+02 -0.11253662560E+02  0.32333662264E+02  0.00000000000E+00 0. -1.
</event>
<event>
 7    1  0.4081218E-008  0.4614232E+02  0.7816164E-02  0.1320468E+00
        -11   -1    0    0    0    0  0.00000000000E+00  0.00000000000E+00  0.45593999997E+02  0.45594000000E+02  0.51100000000E-03 0.  1.
         11   -1    0    0    0    0 -0.00000000000E+00 -0.00000000000E+00 -0.45593999997E+02  0.45594000000E+02  0.51100000000E-03 0. -1.
    9900012    2    1    2    0    0  0.22855470815E+02  0.38241133294E+02 -0.66600765901E+01  0.46142318276E+02  0.10000004699E+02 0.  0.
        -12    1    1    2    0    0 -0.22855470815E+02 -0.38241133294E+02  0.66600765901E+01  0.45045681724E+02  0.00000000000E+00 0.  1.
         11    1    3    3    0    0  0.14914217229E+00  0.21545067146E+00  0.14672793931E+00  0.30031937780E+00  0.51100000000E-03 0.  1.
        -11    1    3    3    0    0  0.45609679291E+01  0.21944503673E+01 -0.17778013788E+01  0.53645707068E+01  0.51100000000E-03 0. -1.
         12    1    3    3    0    0  0.18145360714E+02  0.35831232255E+02 -0.50290031506E+01  0.40477428192E+02  0.00000000000E+00 0. -1.
</event>
<event>
 7    1  0.4081218E-008  0.4614232E+02  0.7816164E-02  0.1320468E+00
        -11   -1    0    0    0    0  0.00000000000E+00  0.00000000000E+00  0.45593999997E+02  0.45594000000E+02  0.51100000000E-03 0.  1.
         11   -1    0    0    0    0 -0.00000000000E+00 -0.00000000000E+00 -0.45593999997E+02  0.45594000000E+02  0.51100000000E-03 0. -1.
    9900012    2    1    2    0    0 -0.29052360177E+02 -0.25918524061E+02 -0.22656208102E+02  0.46142319997E+02  0.10000020389E+02 0.  0.
        -12    1    1    2    0    0  0.29052360177E+02  0.25918524061E+02  0.22656208102E+02  0.45045680003E+02  0.00000000000E+00 0.  1.
         11    1    3    3    0    0 -0.10061299111E+02 -0.13757286598E+02 -0.89035794187E+01  0.19229310988E+02  0.51100000000E-03 0. -1.
        -11    1    3    3    0    0 -0.49577155408E+01 -0.27663743579E+01 -0.62200364217E+01  0.84214383463E+01  0.51100000000E-03 0.  1.
        -12    1    3    3    0    0 -0.14033345525E+02 -0.93948631046E+01 -0.75325922619E+01  0.18491570663E+02  0.00000000000E+00 0.  1.
</event>
<event>
 7    1  0.4081218E-008  0.4614232E+02  0.7816164E-02  0.1320468E+00
        -11   -1    0    0    0    0  0.00000000000E+00  0.00000000000E+00  0.45593999997E+02  0.45594000000E+02  0.51100000000E-03 0.  1.
         11   -1    0    0    0    0 -0.00000000000E+00 -0.00000000000E+00 -0.45593999997E+02  0.45594000000E+02  0.51100000000E-03 0. -1.
    9900012    2    1    2    0    0 -0.32232276722E+02  0.22851181539E+00 -0.31466516185E+02  0.46142317397E+02  0.99999966823E+01 0.  0.
        -12    1    1    2    0    0  0.32232276722E+02 -0.22851181539E+00  0.31466516185E+02  0.45045682603E+02  0.00000000000E+00 0.  1.
         11    1    3    3    0    0 -0.10827615402E+02  0.37451123088E+01 -0.10898169445E+02  0.15812438743E+02  0.51100000000E-03 0. -1.
        -11    1    3    3    0    0 -0.12378610012E+02 -0.37987525979E+01 -0.14552388930E+02  0.19479027978E+02  0.51100000000E-03 0.  1.
        -12    1    3    3    0    0 -0.90260513087E+01  0.28215210447E+00 -0.60159578102E+01  0.10850850677E+02  0.00000000000E+00 0.  1.
</event>
<event>
 7    1  0.4081218E-008  0.4614232E+02  0.7816164E-02  0.1320468E+00
        -11   -1    0    0    0    0  0.00000000000E+00  0.00000000000E+00  0.45593999997E+02  0.45594000000E+02  0.51100000000E-03 0.  1.
         11   -1    0    0    0    0 -0.00000000000E+00 -0.00000000000E+00 -0.45593999997E+02  0.45594000000E+02  0.51100000000E-03 0. -1.
    9900012    2    1    2    0    0 -0.20855647333E+02  0.30657501016E+01 -0.39809002506E+02  0.46142317300E+02  0.99999957973E+01 0.  0.
        -12    1    1    2    0    0  0.20855647333E+02 -0.30657501016E+01  0.39809002506E+02  0.45045682700E+02  0.00000000000E+00 0.  1.
         11    1    3    3    0    0 -0.21056836720E+02  0.36669133207E+01 -0.37626777003E+02  0.43273675298E+02  0.51100000000E-03 0. -1.
        -11    1    3    3    0    0  0.47557397432E+00  0.47424463274E+00 -0.43994012643E+00  0.80288613931E+00  0.51100000000E-03 0.  1.
         12    1    3    3    0    0 -0.27438458760E+00 -0.10754078519E+01 -0.17422853769E+01  0.20657558627E+01  0.00000000000E+00 0. -1.
</event>
<event>
 7    1  0.4081218E-008  0.4614232E+02  0.7816164E-02  0.1320468E+00
        -11   -1    0    0    0    0  0.00000000000E+00  0.00000000000E+00  0.45593999997E+02  0.45594000000E+02  0.51100000000E-03 0.  1.
         11   -1    0    0    0    0 -0.00000000000E+00 -0.00000000000E+00 -0.45593999997E+02  0.45594000000E+02  0.51100000000E-03 0. -1.
    9900012    2    1    2    0    0  0.14332645003E+02  0.49029653079E+01 -0.42422277423E+02  0.46142318705E+02  0.10000008606E+02 0.  0.
        -12    1    1    2    0    0 -0.14332645003E+02 -0.49029653079E+01  0.42422277423E+02  0.45045681295E+02  0.00000000000E+00 0.  1.
         11    1    3    3    0    0  0.70498251804E+00 -0.88884830831E+00 -0.39746733040E+00  0.12020949238E+01  0.51100000000E-03 0. -1.
        -11    1    3    3    0    0  0.74922620701E+01  0.48066566885E+01 -0.17416337049E+02  0.19559313278E+02  0.51100000000E-03 0.  1.
         12    1    3    3    0    0  0.61354004150E+01  0.98515692769E+00 -0.24608473044E+02  0.25380910503E+02  0.00000000000E+00 0. -1.
</event>
<event>
 7    1  0.4081218E-008  0.4614232E+02  0.7816164E-02  0.1320468E+00
        -11   -1    0    0    0    0  0.00000000000E+00  0.00000000000E+00  0.45593999997E+02  0.45594000000E+02  0.51100000000E-03 0. -1.
         11   -1    0    0    0    0 -0.00000000000E+00 -0.00000000000E+00 -0.45593999997E+02  0.45594000000E+02  0.51100000000E-03 0.  1.
    9900012    2    1    2    0    0 -0.28331034010E+02  0.34556297896E+02 -0.56857947575E+01  0.46142317916E+02  0.10000001414E+02 0.  0.
        -12    1    1    2    0    0  0.28331034010E+02 -0.34556297896E+02  0.56857947575E+01  0.45045682084E+02  0.00000000000E+00 0.  1.
         11    1    3    3    0    0 -0.54007126861E+01  0.84498645268E+01  0.98314874927E+00  0.10076432393E+02  0.51100000000E-03 0. -1.
        -11    1    3    3    0    0 -0.10890194075E+02  0.17253757527E+02 -0.25332836726E+01  0.20559815228E+02  0.51100000000E-03 0.  1.
        -12    1    3    3    0    0 -0.12040127249E+02  0.88526758422E+01 -0.41356598341E+01  0.15506070295E+02  0.00000000000E+00 0.  1.
</event>
<event>
 7    1  0.4081218E-008  0.4614232E+02  0.7816164E-02  0.1320468E+00
        -11   -1    0    0    0    0  0.00000000000E+00  0.00000000000E+00  0.45593999997E+02  0.45594000000E+02  0.51100000000E-03 0.  1.
         11   -1    0    0    0    0 -0.00000000000E+00 -0.00000000000E+00 -0.45593999997E+02  0.45594000000E+02  0.51100000000E-03 0. -1.
    9900012    2    1    2    0    0  0.44076460832E+02  0.76442744133E+01 -0.52862250174E+01  0.46142317569E+02  0.99999982450E+01 0.  0.
        -12    1    1    2    0    0 -0.44076460832E+02 -0.76442744133E+01  0.52862250174E+01  0.45045682431E+02  0.00000000000E+00 0.  1.
         11    1    3    3    0    0  0.61874588091E+01 -0.97934778631E+00  0.58987208364E+00  0.62921950015E+01  0.51100000000E-03 0.  1.
        -11    1    3    3    0    0  0.64355183571E+01  0.41002521877E+01 -0.84781763155E+00  0.76776793059E+01  0.51100000000E-03 0. -1.
        -12    1    3    3    0    0  0.31453483666E+02  0.45233700120E+01 -0.50282794695E+01  0.32172443261E+02  0.00000000000E+00 0.  1.
</event>
<event>
 7    1  0.4081218E-008  0.4614232E+02  0.7816164E-02  0.1320468E+00
        -11   -1    0    0    0    0  0.00000000000E+00  0.00000000000E+00  0.45593999997E+02  0.45594000000E+02  0.51100000000E-03 0. -1.
         11   -1    0    0    0    0 -0.00000000000E+00 -0.00000000000E+00 -0.45593999997E+02  0.45594000000E+02  0.51100000000E-03 0.  1.
    9900012    2    1    2    0    0  0.14636582164E+00 -0.39386590858E+02 -0.21858373967E+02  0.46142317911E+02  0.10000001367E+02 0.  0.
        -12    1    1    2    0    0 -0.14636582164E+00  0.39386590858E+02  0.21858373967E+02  0.45045682089E+02  0.00000000000E+00 0.  1.
         11    1    3    3    0    0 -0.32627920719E+01 -0.21054909576E+02 -0.79971911820E+01  0.22757638200E+02  0.51100000000E-03 0. -1.
        -11    1    3    3    0    0  0.57869497584E+00 -0.88129315711E+01 -0.75417365811E+01  0.11613803928E+02  0.51100000000E-03 0.  1.
         12    1    3    3    0    0  0.28304629177E+01 -0.95187497108E+01 -0.63194462038E+01  0.11770875783E+02  0.00000000000E+00 0. -1.
</event>
<event>
 7    1  0.4081218E-008  0.4614232E+02  0.7816164E-02  0.1320468E+00
        -11   -1    0    0    0    0  0.00000000000E+00  0.00000000000E+00  0.45593999997E+02  0.45594000000E+02  0.51100000000E-03 0. -1.
         11   -1    0    0    0    0 -0.00000000000E+00 -0.00000000000E+00 -0.45593999997E+02  0.45594000000E+02  0.51100000000E-03 0.  1.
    9900012    2    1    2    0    0 -0.21468548967E+02 -0.34609408780E+02  0.19245875222E+02  0.46142317810E+02  0.10000000449E+02 0.  0.
        -12    1    1    2    0    0  0.21468548967E+02  0.34609408780E+02 -0.19245875222E+02  0.45045682190E+02  0.00000000000E+00 0.  1.
         11    1    3    3    0    0 -0.71368783298E+01 -0.10178559204E+02  0.49905757300E+01  0.13395668932E+02  0.51100000000E-03 0. -1.
        -11    1    3    3    0    0 -0.65694547870E+01 -0.90407609993E+01  0.14402092535E+01  0.11267976686E+02  0.51100000000E-03 0.  1.
         12    1    3    3    0    0 -0.77622158504E+01 -0.15390088577E+02  0.12815090238E+02  0.21478672192E+02  0.00000000000E+00 0. -1.
</event>
<event>
 7    1  0.4081218E-008  0.4614232E+02  0.7816164E-02  0.1320468E+00
        -11   -1    0    0    0    0  0.00000000000E+00  0.00000000000E+00  0.45593999997E+02  0.45594000000E+02  0.51100000000E-03 0. -1.
         11   -1    0    0    0    0 -0.00000000000E+00 -0.00000000000E+00 -0.45593999997E+02  0.45594000000E+02  0.51100000000E-03 0.  1.
    9900012    2    1    2    0    0  0.30311873554E+02 -0.20373763925E+02  0.26366901844E+02  0.46142318213E+02  0.10000004120E+02 0.  0.
        -12    1    1    2    0    0 -0.30311873554E+02  0.20373763925E+02 -0.26366901844E+02  0.45045681787E+02  0.00000000000E+00 0.  1.
         11    1    3    3    0    0  0.18790871921E+02 -0.12018410564E+02  0.15073927875E+02  0.26921410845E+02  0.51100000000E-03 0. -1.
        -11    1    3    3    0    0  0.52727138591E+01 -0.94954913572E+00  0.64612605871E+01  0.83935119965E+01  0.51100000000E-03 0.  1.
         12    1    3    3    0    0  0.62482877734E+01 -0.74058042252E+01  0.48317133824E+01  0.10827395371E+02  0.00000000000E+00 0. -1.
</event>
<event>
 7    1  0.4081218E-008  0.4614232E+02  0.7816164E-02  0.1320468E+00
        -11   -1    0    0    0    0  0.00000000000E+00  0.00000000000E+00  0.45593999997E+02  0.45594000000E+02  0.51100000000E-03 0.  1.
         11   -1    0    0    0    0 -0.00000000000E+00 -0.00000000000E+00 -0.45593999997E+02  0.45594000000E+02  0.51100000000E-03 0. -1.
    9900012    2    1    2    0    0  0.27665684643E+02 -0.17224123381E+02 -0.31097473337E+02  0.46142318953E+02  0.10000010870E+02 0.  0.
        -12    1    1    2    0    0 -0.27665684643E+02  0.17224123381E+02  0.31097473337E+02  0.45045681047E+02  0.00000000000E+00 0.  1.
         11    1    3    3    0    0  0.18628060329E+02 -0.13530929687E+02 -0.22491817349E+02  0.32186527270E+02  0.51100000000E-03 0. -1.
        -11    1    3    3    0    0 -0.32638978619E+00 -0.11563987723E+01 -0.15433674673E+01  0.19559580295E+01  0.51100000000E-03 0.  1.
         12    1    3    3    0    0  0.93640141005E+01 -0.25367949215E+01 -0.70622885211E+01  0.11999833653E+02  0.00000000000E+00 0. -1.
</event>
<event>
 7    1  0.4081218E-008  0.4614232E+02  0.7816164E-02  0.1320468E+00
        -11   -1    0    0    0    0  0.00000000000E+00  0.00000000000E+00  0.45593999997E+02  0.45594000000E+02  0.51100000000E-03 0.  1.
         11   -1    0    0    0    0 -0.00000000000E+00 -0.00000000000E+00 -0.45593999997E+02  0.45594000000E+02  0.51100000000E-03 0. -1.
    9900012    2    1    2    0    0  0.13486880816E+02 -0.10362249021E+01 -0.42966775326E+02  0.46142317653E+02  0.99999990148E+01 0.  0.
        -12    1    1    2    0    0 -0.13486880816E+02  0.10362249021E+01  0.42966775326E+02  0.45045682347E+02  0.00000000000E+00 0.  1.
         11    1    3    3    0    0  0.45645956645E+01 -0.27749258170E+00 -0.17019867494E+02  0.17623519101E+02  0.51100000000E-03 0. -1.
        -11    1    3    3    0    0 -0.90117180282E+00  0.94988725909E+00 -0.68659946372E+01  0.69897266787E+01  0.51100000000E-03 0.  1.
         12    1    3    3    0    0  0.98234569548E+01 -0.17086195795E+01 -0.19080913194E+02  0.21529071874E+02  0.00000000000E+00 0. -1.
</event>
<event>
 7    1  0.4081218E-008  0.4614232E+02  0.7816164E-02  0.1320468E+00
        -11   -1    0    0    0    0  0.00000000000E+00  0.00000000000E+00  0.45593999997E+02  0.45594000000E+02  0.51100000000E-03 0.  1.
         11   -1    0    0    0    0 -0.00000000000E+00 -0.00000000000E+00 -0.45593999997E+02  0.45594000000E+02  0.51100000000E-03 0. -1.
    9900012    2    1    2    0    0 -0.40113514249E+02 -0.11036567317E+02 -0.17268864675E+02  0.46142317291E+02  0.99999957121E+01 0.  0.
        -12    1    1    2    0    0  0.40113514249E+02  0.11036567317E+02  0.17268864675E+02  0.45045682709E+02  0.00000000000E+00 0.  1.
         11    1    3    3    0    0 -0.72778266111E+01  0.36104904910E+00 -0.46632628779E+01  0.86511928384E+01  0.51100000000E-03 0. -1.
        -11    1    3    3    0    0 -0.15161679695E+01  0.37038936606E+00 -0.16844752623E+01  0.22963908127E+01  0.51100000000E-03 0.  1.
         12    1    3    3    0    0 -0.31319519669E+02 -0.11768005732E+02 -0.10921126535E+02  0.35194733640E+02  0.00000000000E+00 0. -1.
</event>
<event>
 7    1  0.4081218E-008  0.4614232E+02  0.7816164E-02  0.1320468E+00
        -11   -1    0    0    0    0  0.00000000000E+00  0.00000000000E+00  0.45593999997E+02  0.45594000000E+02  0.51100000000E-03 0. -1.
         11   -1    0    0    0    0 -0.00000000000E+00 -0.00000000000E+00 -0.45593999997E+02  0.45594000000E+02  0.51100000000E-03 0.  1.
    9900012    2    1    2    0    0  0.39599993795E+02  0.19877804312E+02  0.81133776585E+01  0.46142317523E+02  0.99999978246E+01 0.  0.
        -12    1    1    2    0    0 -0.39599993795E+02 -0.19877804312E+02 -0.81133776585E+01  0.45045682477E+02  0.00000000000E+00 0.  1.
         11    1    3    3    0    0  0.56218799223E+01  0.66778551949E+01  0.18926183425E+01  0.89320371874E+01  0.51100000000E-03 0. -1.
        -11    1    3    3    0    0  0.28969251041E+02  0.11485083776E+02  0.67630365015E+01  0.31888294375E+02  0.51100000000E-03 0.  1.
         12    1    3    3    0    0  0.50088628324E+01  0.17148653410E+01 -0.54227718549E+00  0.53219859599E+01  0.00000000000E+00 0. -1.
</event>
<event>
 7    1  0.4081218E-008  0.4614232E+02  0.7816164E-02  0.1320468E+00
        -11   -1    0    0    0    0  0.00000000000E+00  0.00000000000E+00  0.45593999997E+02  0.45594000000E+02  0.51100000000E-03 0.  1.
         11   -1    0    0    0    0 -0.00000000000E+00 -0.00000000000E+00 -0.45593999997E+02  0.45594000000E+02  0.51100000000E-03 0. -1.
    9900012    2    1    2    0    0  0.32360874688E+02 -0.29579796266E+02 -0.10340356560E+02  0.46142317282E+02  0.99999956324E+01 0.  0.
        -12    1    1    2    0    0 -0.32360874688E+02  0.29579796266E+02  0.10340356560E+02  0.45045682718E+02  0.00000000000E+00 0.  1.
         11    1    3    3    0    0  0.77725963370E+01 -0.74998429699E+01 -0.46043503496E+01  0.11741419880E+02  0.51100000000E-03 0. -1.
        -11    1    3    3    0    0  0.43198709759E+01 -0.11393995844E+01 -0.23892029528E+01  0.50663406589E+01  0.51100000000E-03 0.  1.
        -12    1    3    3    0    0  0.20268407375E+02 -0.20940553712E+02 -0.33468032577E+01  0.29334556743E+02  0.00000000000E+00 0.  1.
</event>
<event>
 7    1  0.4081218E-008  0.4614232E+02  0.7816164E-02  0.1320468E+00
        -11   -1    0    0    0    0  0.00000000000E+00  0.00000000000E+00  0.45593999997E+02  0.45594000000E+02  0.51100000000E-03 0.  1.
         11   -1    0    0    0    0 -0.00000000000E+00 -0.00000000000E+00 -0.45593999997E+02  0.45594000000E+02  0.51100000000E-03 0. -1.
    9900012    2    1    2    0    0  0.51921762796E+01  0.28562828289E+02 -0.34442991467E+02  0.46142317459E+02  0.99999972447E+01 0.  0.
        -12    1    1    2    0    0 -0.51921762796E+01 -0.28562828289E+02  0.34442991467E+02  0.45045682541E+02  0.00000000000E+00 0.  1.
         11    1    3    3    0    0 -0.44440700485E+00  0.22332647118E+01 -0.41578002038E+01  0.47404927650E+01  0.51100000000E-03 0. -1.
        -11    1    3    3    0    0 -0.15489499132E+00 -0.63123505949E+00 -0.59729715339E+00  0.88273116476E+00  0.51100000000E-03 0.  1.
         12    1    3    3    0    0  0.57914782758E+01  0.26960798637E+02 -0.29687894110E+02  0.40519093529E+02  0.00000000000E+00 0. -1.
</event>
<event>
 7    1  0.4081218E-008  0.4614232E+02  0.7816164E-02  0.1320468E+00
        -11   -1    0    0    0    0  0.00000000000E+00  0.00000000000E+00  0.45593999997E+02  0.45594000000E+02  0.51100000000E-03 0. -1.
         11   -1    0    0    0    0 -0.00000000000E+00 -0.00000000000E+00 -0.45593999997E+02  0.45594000000E+02  0.51100000000E-03 0.  1.
    9900012    2    1    2    0    0  0.24242304471E+02 -0.32955559203E+02  0.18850870316E+02  0.46142317409E+02  0.99999967859E+01 0.  0.
        -12    1    1    2    0    0 -0.24242304471E+02  0.32955559203E+02 -0.18850870316E+02  0.45045682591E+02  0.00000000000E+00 0.  1.
         11    1    3    3    0    0  0.50498866352E+01 -0.11749911916E+02  0.51530285505E+01  0.13788237327E+02  0.51100000000E-03 0. -1.
        -11    1    3    3    0    0  0.15779320032E+01 -0.51442738891E+01  0.15508026266E+01  0.55998582393E+01  0.51100000000E-03 0.  1.
        -12    1    3    3    0    0  0.17614485833E+02 -0.16061373397E+02  0.12147039139E+02  0.26754221843E+02  0.00000000000E+00 0.  1.
</event>
<event>
 7    1  0.4081218E-008  0.4614232E+02  0.7816164E-02  0.1320468E+00
        -11   -1    0    0    0    0  0.00000000000E+00  0.00000000000E+00  0.45593999997E+02  0.45594000000E+02  0.51100000000E-03 0.  1.
         11   -1    0    0    0    0 -0.00000000000E+00 -0.00000000000E+00 -0.45593999997E+02  0.45594000000E+02  0.51100000000E-03 0. -1.
    9900012    2    1    2    0    0 -0.75653801249E+01 -0.31669444279E+02 -0.31127559500E+02  0.46142316102E+02  0.99999848743E+01 0.  0.
        -12    1    1    2    0    0  0.75653801249E+01  0.31669444279E+02  0.31127559500E+02  0.45045683898E+02  0.00000000000E+00 0.  1.
         11    1    3    3    0    0 -0.42875897309E-01 -0.30700202020E+01 -0.58241010777E+01  0.65838450778E+01  0.51100000000E-03 0.  1.
        -11    1    3    3    0    0 -0.78237269465E+00 -0.33851175350E+01 -0.65684987552E+01  0.74307673842E+01  0.51100000000E-03 0. -1.
        -12    1    3    3    0    0 -0.67401315329E+01 -0.25214306542E+02 -0.18734959667E+02  0.32127703640E+02  0.00000000000E+00 0.  1.
</event>
<event>
 7    1  0.4081218E-008  0.4614232E+02  0.7816164E-02  0.1320468E+00
        -11   -1    0    0    0    0  0.00000000000E+00  0.00000000000E+00  0.45593999997E+02  0.45594000000E+02  0.51100000000E-03 0.  1.
         11   -1    0    0    0    0 -0.00000000000E+00 -0.00000000000E+00 -0.45593999997E+02  0.45594000000E+02  0.51100000000E-03 0. -1.
    9900012    2    1    2    0    0  0.24364877977E+02 -0.35274646411E+02  0.13826262385E+02  0.46142317745E+02  0.99999998553E+01 0.  0.
        -12    1    1    2    0    0 -0.24364877977E+02  0.35274646411E+02 -0.13826262385E+02  0.45045682255E+02  0.00000000000E+00 0.  1.
         11    1    3    3    0    0  0.15638920191E+02 -0.20305148415E+02  0.69550674839E+01  0.26556502798E+02  0.51100000000E-03 0. -1.
        -11    1    3    3    0    0  0.63436216281E+01 -0.51991773484E+01  0.21674182705E+01  0.84835536588E+01  0.51100000000E-03 0.  1.
         12    1    3    3    0    0  0.23823361579E+01 -0.97703206472E+01  0.47037766305E+01  0.11102261288E+02  0.00000000000E+00 0. -1.
</event>
<event>
 7    1  0.4081218E-008  0.4614232E+02  0.7816164E-02  0.1320468E+00
        -11   -1    0    0    0    0  0.00000000000E+00  0.00000000000E+00  0.45593999997E+02  0.45594000000E+02  0.51100000000E-03 0. -1.
         11   -1    0    0    0    0 -0.00000000000E+00 -0.00000000000E+00 -0.45593999997E+02  0.45594000000E+02  0.51100000000E-03 0.  1.
    9900012    2    1    2    0    0  0.15838623541E+02  0.41706624772E+02  0.62296741211E+01  0.46142318906E+02  0.10000010442E+02 0.  0.
        -12    1    1    2    0    0 -0.15838623541E+02 -0.41706624772E+02 -0.62296741211E+01  0.45045681094E+02  0.00000000000E+00 0.  1.
         11    1    3    3    0    0 -0.25112210171E-01  0.89550042101E+00 -0.35099468846E+00  0.96215859378E+00  0.51100000000E-03 0. -1.
        -11    1    3    3    0    0  0.30205295934E+01  0.29045023193E+01  0.26644280303E+01  0.49657738306E+01  0.51100000000E-03 0.  1.
         12    1    3    3    0    0  0.12843206158E+02  0.37906622032E+02  0.39162407793E+01  0.40214386482E+02  0.00000000000E+00 0. -1.
</event>
<event>
 7    1  0.4081218E-008  0.4614232E+02  0.7816164E-02  0.1320468E+00
        -11   -1    0    0    0    0  0.00000000000E+00  0.00000000000E+00  0.45593999997E+02  0.45594000000E+02  0.51100000000E-03 0. -1.
         11   -1    0    0    0    0 -0.00000000000E+00 -0.00000000000E+00 -0.45593999997E+02  0.45594000000E+02  0.51100000000E-03 0.  1.
    9900012    2    1    2    0    0 -0.11608681762E+02  0.42885697803E+02 -0.74275784205E+01  0.46142317749E+02  0.99999998859E+01 0.  0.
        -12    1    1    2    0    0  0.11608681762E+02 -0.42885697803E+02  0.74275784205E+01  0.45045682251E+02  0.00000000000E+00 0.  1.
         11    1    3    3    0    0 -0.21587624571E+01  0.15129925721E+02 -0.23914194279E+01  0.15469123919E+02  0.51100000000E-03 0. -1.
        -11    1    3    3    0    0  0.20138301776E+00  0.54079680487E+01  0.12024270090E+01  0.55436905134E+01  0.51100000000E-03 0.  1.
        -12    1    3    3    0    0 -0.96513023225E+01  0.22347804033E+02 -0.62385860017E+01  0.25129503316E+02  0.00000000000E+00 0.  1.
</event>
<event>
 7    1  0.4081218E-008  0.4614232E+02  0.7816164E-02  0.1320468E+00
        -11   -1    0    0    0    0  0.00000000000E+00  0.00000000000E+00  0.45593999997E+02  0.45594000000E+02  0.51100000000E-03 0.  1.
         11   -1    0    0    0    0 -0.00000000000E+00 -0.00000000000E+00 -0.45593999997E+02  0.45594000000E+02  0.51100000000E-03 0. -1.
    9900012    2    1    2    0    0  0.37944655993E+02 -0.14743077492E+02 -0.19286214349E+02  0.46142319671E+02  0.10000017415E+02 0.  0.
        -12    1    1    2    0    0 -0.37944655993E+02  0.14743077492E+02  0.19286214349E+02  0.45045680329E+02  0.00000000000E+00 0.  1.
         11    1    3    3    0    0  0.31041771899E+01  0.87736201381E+00 -0.18315467684E+01  0.37094802811E+01  0.51100000000E-03 0.  1.
        -11    1    3    3    0    0  0.15234406292E+02 -0.63004057732E+01 -0.42541768052E+01  0.17025870566E+02  0.51100000000E-03 0. -1.
         12    1    3    3    0    0  0.19606072511E+02 -0.93200337325E+01 -0.13200490776E+02  0.25406968824E+02  0.00000000000E+00 0. -1.
</event>
<event>
 7    1  0.4081218E-008  0.4614232E+02  0.7816164E-02  0.1320468E+00
        -11   -1    0    0    0    0  0.00000000000E+00  0.00000000000E+00  0.45593999997E+02  0.45594000000E+02  0.51100000000E-03 0.  1.
         11   -1    0    0    0    0 -0.00000000000E+00 -0.00000000000E+00 -0.45593999997E+02  0.45594000000E+02  0.51100000000E-03 0. -1.
    9900012    2    1    2    0    0 -0.65146509773E+01 -0.44437104670E+02  0.34664812880E+01  0.46142318283E+02  0.10000004757E+02 0.  0.
        -12    1    1    2    0    0  0.65146509773E+01  0.44437104670E+02 -0.34664812880E+01  0.45045681717E+02  0.00000000000E+00 0.  1.
         11    1    3    3    0    0  0.16495169767E+01 -0.10468412821E+02  0.53404505807E+00  0.10611021517E+02  0.51100000000E-03 0. -1.
        -11    1    3    3    0    0 -0.61348283709E+01 -0.17902524903E+02 -0.69075462141E+00  0.18937097434E+02  0.51100000000E-03 0.  1.
         12    1    3    3    0    0 -0.20293395831E+01 -0.16066166946E+02  0.36231908513E+01  0.16594199331E+02  0.00000000000E+00 0. -1.
</event>
<event>
 7    1  0.4081218E-008  0.4614232E+02  0.7816164E-02  0.1320468E+00
        -11   -1    0    0    0    0  0.00000000000E+00  0.00000000000E+00  0.45593999997E+02  0.45594000000E+02  0.51100000000E-03 0. -1.
         11   -1    0    0    0    0 -0.00000000000E+00 -0.00000000000E+00 -0.45593999997E+02  0.45594000000E+02  0.51100000000E-03 0.  1.
    9900012    2    1    2    0    0 -0.21615885782E+02  0.38883398747E+02 -0.70674072211E+01  0.46142318064E+02  0.10000002759E+02 0.  0.
        -12    1    1    2    0    0  0.21615885782E+02 -0.38883398747E+02  0.70674072211E+01  0.45045681936E+02  0.00000000000E+00 0.  1.
         11    1    3    3    0    0 -0.10657913575E+02  0.10184204827E+02 -0.26336219459E+01  0.14974816010E+02  0.51100000000E-03 0. -1.
        -11    1    3    3    0    0 -0.21614346994E+00  0.13485379449E-01  0.47467008204E-02  0.21661635983E+00  0.51100000000E-03 0.  1.
         12    1    3    3    0    0 -0.10741828737E+02  0.28685708541E+02 -0.44385319760E+01  0.30950885694E+02  0.00000000000E+00 0. -1.
</event>
<event>
 7    1  0.4081218E-008  0.4614232E+02  0.7816164E-02  0.1320468E+00
        -11   -1    0    0    0    0  0.00000000000E+00  0.00000000000E+00  0.45593999997E+02  0.45594000000E+02  0.51100000000E-03 0.  1.
         11   -1    0    0    0    0 -0.00000000000E+00 -0.00000000000E+00 -0.45593999997E+02  0.45594000000E+02  0.51100000000E-03 0. -1.
    9900012    2    1    2    0    0 -0.73572693139E+01 -0.21563305307E+02 -0.38858819225E+02  0.46142318974E+02  0.10000011064E+02 0.  0.
        -12    1    1    2    0    0  0.73572693139E+01  0.21563305307E+02  0.38858819225E+02  0.45045681026E+02  0.00000000000E+00 0.  1.
         11    1    3    3    0    0 -0.57154537427E-01 -0.13126236159E+01 -0.30192831613E+01  0.32927676000E+01  0.51100000000E-03 0. -1.
        -11    1    3    3    0    0 -0.80551739199E+00  0.78021772848E+00 -0.39158692930E+01  0.40732825281E+01  0.51100000000E-03 0.  1.
         12    1    3    3    0    0 -0.64945973845E+01 -0.21030899419E+02 -0.31923666770E+02  0.38776268846E+02  0.00000000000E+00 0. -1.
</event>
<event>
 7    1  0.4081218E-008  0.4614232E+02  0.7816164E-02  0.1320468E+00
        -11   -1    0    0    0    0  0.00000000000E+00  0.00000000000E+00  0.45593999997E+02  0.45594000000E+02  0.51100000000E-03 0.  1.
         11   -1    0    0    0    0 -0.00000000000E+00 -0.00000000000E+00 -0.45593999997E+02  0.45594000000E+02  0.51100000000E-03 0. -1.
    9900012    2    1    2    0    0 -0.13631060804E+01 -0.25071679170E+02 -0.37398747634E+02  0.46142317863E+02  0.10000000932E+02 0.  0.
        -12    1    1    2    0    0  0.13631060804E+01  0.25071679170E+02  0.37398747634E+02  0.45045682137E+02  0.00000000000E+00 0.  1.
         11    1    3    3    0    0 -0.27996650358E+01 -0.89742753703E+01 -0.89742617310E+01  0.12996657902E+02  0.51100000000E-03 0. -1.
        -11    1    3    3    0    0  0.27151751358E+00 -0.28949588908E+01 -0.18412494902E+01  0.34416142558E+01  0.51100000000E-03 0.  1.
        -12    1    3    3    0    0  0.11650414418E+01 -0.13202444909E+02 -0.26583236412E+02  0.29704045706E+02  0.00000000000E+00 0.  1.
</event>
<event>
 7    1  0.4081218E-008  0.4614232E+02  0.7816164E-02  0.1320468E+00
        -11   -1    0    0    0    0  0.00000000000E+00  0.00000000000E+00  0.45593999997E+02  0.45594000000E+02  0.51100000000E-03 0.  1.
         11   -1    0    0    0    0 -0.00000000000E+00 -0.00000000000E+00 -0.45593999997E+02  0.45594000000E+02  0.51100000000E-03 0. -1.
    9900012    2    1    2    0    0 -0.31199172761E+02  0.32277377012E+02 -0.37277419915E+01  0.46142317542E+02  0.99999980040E+01 0.  0.
        -12    1    1    2    0    0  0.31199172761E+02 -0.32277377012E+02  0.37277419915E+01  0.45045682458E+02  0.00000000000E+00 0.  1.
         11    1    3    3    0    0 -0.85043988999E+00  0.26180078637E+01 -0.16621653304E+01  0.32155881309E+01  0.51100000000E-03 0. -1.
        -11    1    3    3    0    0 -0.78939165581E+01  0.79164369993E+01 -0.32665938089E+01  0.11647082414E+02  0.51100000000E-03 0.  1.
         12    1    3    3    0    0 -0.22454816313E+02  0.21742932149E+02  0.12010171478E+01  0.31279646997E+02  0.00000000000E+00 0. -1.
</event>
<event>
 7    1  0.4081218E-008  0.4614232E+02  0.7816164E-02  0.1320468E+00
        -11   -1    0    0    0    0  0.00000000000E+00  0.00000000000E+00  0.45593999997E+02  0.45594000000E+02  0.51100000000E-03 0.  1.
         11   -1    0    0    0    0 -0.00000000000E+00 -0.00000000000E+00 -0.45593999997E+02  0.45594000000E+02  0.51100000000E-03 0. -1.
    9900012    2    1    2    0    0  0.24841843600E+02  0.30220669960E+02 -0.22331757122E+02  0.46142318049E+02  0.10000002625E+02 0.  0.
        -12    1    1    2    0    0 -0.24841843600E+02 -0.30220669960E+02  0.22331757122E+02  0.45045681951E+02  0.00000000000E+00 0.  1.
         11    1    3    3    0    0  0.12657467179E+02  0.17548481973E+02 -0.16422670130E+02  0.27163666715E+02  0.51100000000E-03 0. -1.
        -11    1    3    3    0    0  0.22376299262E+01  0.12581385547E+01  0.35976866971E+00  0.25921678314E+01  0.51100000000E-03 0.  1.
        -12    1    3    3    0    0  0.99467464949E+01  0.11414049432E+02 -0.62688556621E+01  0.16386483502E+02  0.00000000000E+00 0.  1.
</event>
<event>
 7    1  0.4081218E-008  0.4614232E+02  0.7816164E-02  0.1320468E+00
        -11   -1    0    0    0    0  0.00000000000E+00  0.00000000000E+00  0.45593999997E+02  0.45594000000E+02  0.51100000000E-03 0. -1.
         11   -1    0    0    0    0 -0.00000000000E+00 -0.00000000000E+00 -0.45593999997E+02  0.45594000000E+02  0.51100000000E-03 0.  1.
    9900012    2    1    2    0    0 -0.32079750561E+02 -0.25680893985E+02  0.18452502293E+02  0.46142317046E+02  0.99999934765E+01 0.  0.
        -12    1    1    2    0    0  0.32079750561E+02  0.25680893985E+02 -0.18452502293E+02  0.45045682954E+02  0.00000000000E+00 0.  1.
         11    1    3    3    0    0 -0.19840148236E+02 -0.14408086259E+02  0.10744270725E+02  0.26770576859E+02  0.51100000000E-03 0. -1.
        -11    1    3    3    0    0 -0.78574260040E+01 -0.88043882387E+01  0.81213279289E+01  0.14325235190E+02  0.51100000000E-03 0.  1.
        -12    1    3    3    0    0 -0.43821763214E+01 -0.24684194870E+01 -0.41309636145E+00  0.50465049965E+01  0.00000000000E+00 0.  1.
</event>
<event>
 7    1  0.4081218E-008  0.4614232E+02  0.7816164E-02  0.1320468E+00
        -11   -1    0    0    0    0  0.00000000000E+00  0.00000000000E+00  0.45593999997E+02  0.45594000000E+02  0.51100000000E-03 0. -1.
         11   -1    0    0    0    0 -0.00000000000E+00 -0.00000000000E+00 -0.45593999997E+02  0.45594000000E+02  0.51100000000E-03 0.  1.
    9900012    2    1    2    0    0 -0.18953395339E+02  0.35913148240E+02 -0.19496877481E+02  0.46142316046E+02  0.99999843617E+01 0.  0.
        -12    1    1    2    0    0  0.18953395339E+02 -0.35913148240E+02  0.19496877481E+02  0.45045683954E+02  0.00000000000E+00 0.  1.
         11    1    3    3    0    0 -0.58421704985E+01  0.14560146452E+02 -0.45306531879E+01  0.16329593975E+02  0.51100000000E-03 0. -1.
        -11    1    3    3    0    0  0.62598545698E-01  0.32053505153E+01 -0.30185879950E+01  0.44034150666E+01  0.51100000000E-03 0.  1.
         12    1    3    3    0    0 -0.13173823387E+02  0.18147651273E+02 -0.11947636298E+02  0.25409307004E+02  0.00000000000E+00 0. -1.
</event>
<event>
 7    1  0.4081218E-008  0.4614232E+02  0.7816164E-02  0.1320468E+00
        -11   -1    0    0    0    0  0.00000000000E+00  0.00000000000E+00  0.45593999997E+02  0.45594000000E+02  0.51100000000E-03 0. -1.
         11   -1    0    0    0    0 -0.00000000000E+00 -0.00000000000E+00 -0.45593999997E+02  0.45594000000E+02  0.51100000000E-03 0.  1.
    9900012    2    1    2    0    0 -0.11097062593E+00  0.42856734718E+02  0.13870883309E+02  0.46142318420E+02  0.10000006010E+02 0.  0.
        -12    1    1    2    0    0  0.11097062593E+00 -0.42856734718E+02 -0.13870883309E+02  0.45045681580E+02  0.00000000000E+00 0.  1.
         11    1    3    3    0    0  0.16908881877E+01  0.29283174821E+02  0.10524146183E+02  0.31162815720E+02  0.51100000000E-03 0. -1.
        -11    1    3    3    0    0  0.98487866057E+00  0.79756122226E+01  0.34004958687E+01  0.87260385466E+01  0.51100000000E-03 0.  1.
        -12    1    3    3    0    0 -0.27867374742E+01  0.55979476751E+01 -0.53758741933E-01  0.62534641540E+01  0.00000000000E+00 0.  1.
</event>
<event>
 7    1  0.4081218E-008  0.4614232E+02  0.7816164E-02  0.1320468E+00
        -11   -1    0    0    0    0  0.00000000000E+00  0.00000000000E+00  0.45593999997E+02  0.45594000000E+02  0.51100000000E-03 0.  1.
         11   -1    0    0    0    0 -0.00000000000E+00 -0.00000000000E+00 -0.45593999997E+02  0.45594000000E+02  0.51100000000E-03 0. -1.
    9900012    2    1    2    0    0 -0.70667098750E+01 -0.39051099375E+02 -0.21311657638E+02  0.46142317608E+02  0.99999986043E+01 0.  0.
        -12    1    1    2    0    0  0.70667098750E+01  0.39051099375E+02  0.21311657638E+02  0.45045682392E+02  0.00000000000E+00 0.  1.
         11    1    3    3    0    0 -0.12087803459E+01 -0.13410150053E+02 -0.91243822841E+01  0.16264920126E+02  0.51100000000E-03 0. -1.
        -11    1    3    3    0    0  0.14217364753E+00 -0.55614907383E+01 -0.56389803753E+01  0.79213946065E+01  0.51100000000E-03 0.  1.
         12    1    3    3    0    0 -0.60001031766E+01 -0.20079458584E+02 -0.65482949789E+01  0.21956002876E+02  0.00000000000E+00 0. -1.
</event>
<event>
 7    1  0.4081218E-008  0.4614232E+02  0.7816164E-02  0.1320468E+00
        -11   -1    0    0    0    0  0.00000000000E+00  0.00000000000E+00  0.45593999997E+02  0.45594000000E+02  0.51100000000E-03 0.  1.
         11   -1    0    0    0    0 -0.00000000000E+00 -0.00000000000E+00 -0.45593999997E+02  0.45594000000E+02  0.51100000000E-03 0. -1.
    9900012    2    1    2    0    0 -0.11967559975E+02  0.14228245370E+02 -0.41029839718E+02  0.46142320903E+02  0.10000028646E+02 0.  0.
        -12    1    1    2    0    0  0.11967559975E+02 -0.14228245370E+02  0.41029839718E+02  0.45045679097E+02  0.00000000000E+00 0.  1.
         11    1    3    3    0    0 -0.69623464443E+01  0.74419132106E+01 -0.27001208322E+02  0.28860380998E+02  0.51100000000E-03 0. -1.
        -11    1    3    3    0    0 -0.29357884092E+01  0.14146446088E+01 -0.92274808723E+01  0.97860347671E+01  0.51100000000E-03 0.  1.
        -12    1    3    3    0    0 -0.20694251218E+01  0.53716875509E+01 -0.48011505239E+01  0.74959051376E+01  0.00000000000E+00 0.  1.
</event>
<event>
 7    1  0.4081218E-008  0.4614232E+02  0.7816164E-02  0.1320468E+00
        -11   -1    0    0    0    0  0.00000000000E+00  0.00000000000E+00  0.45593999997E+02  0.45594000000E+02  0.51100000000E-03 0. -1.
         11   -1    0    0    0    0 -0.00000000000E+00 -0.00000000000E+00 -0.45593999997E+02  0.45594000000E+02  0.51100000000E-03 0.  1.
    9900012    2    1    2    0    0  0.90729507806E+01 -0.40825690860E+02  0.16734925068E+02  0.46142321106E+02  0.10000030498E+02 0.  0.
        -12    1    1    2    0    0 -0.90729507806E+01  0.40825690860E+02 -0.16734925068E+02  0.45045678894E+02  0.00000000000E+00 0.  1.
         11    1    3    3    0    0  0.46509276819E+01 -0.20119354181E+02  0.42464029632E+01  0.21082017914E+02  0.51100000000E-03 0. -1.
        -11    1    3    3    0    0  0.51325291295E+01 -0.19325631906E+02  0.10653866436E+02  0.22656737941E+02  0.51100000000E-03 0.  1.
        -12    1    3    3    0    0 -0.71050603089E+00 -0.13807047731E+01  0.18346556689E+01  0.24035652506E+01  0.00000000000E+00 0.  1.
</event>
<event>
 7    1  0.4081218E-008  0.4614232E+02  0.7816164E-02  0.1320468E+00
        -11   -1    0    0    0    0  0.00000000000E+00  0.00000000000E+00  0.45593999997E+02  0.45594000000E+02  0.51100000000E-03 0. -1.
         11   -1    0    0    0    0 -0.00000000000E+00 -0.00000000000E+00 -0.45593999997E+02  0.45594000000E+02  0.51100000000E-03 0.  1.
    9900012    2    1    2    0    0  0.19232111917E+02 -0.40636110150E+02  0.28188603726E+01  0.46142317069E+02  0.99999936882E+01 0.  0.
        -12    1    1    2    0    0 -0.19232111917E+02  0.40636110150E+02 -0.28188603726E+01  0.45045682931E+02  0.00000000000E+00 0.  1.
         11    1    3    3    0    0  0.36594320798E-01 -0.11562655056E+01 -0.10748001323E+01  0.15790771511E+01  0.51100000000E-03 0. -1.
        -11    1    3    3    0    0  0.82187488908E+01 -0.22631738991E+02  0.42583544651E+01  0.24451524004E+02  0.51100000000E-03 0.  1.
        -12    1    3    3    0    0  0.10976768706E+02 -0.16848105653E+02 -0.36469396019E+00  0.20111715914E+02  0.00000000000E+00 0.  1.
</event>
<event>
 7    1  0.4081218E-008  0.4614232E+02  0.7816164E-02  0.1320468E+00
        -11   -1    0    0    0    0  0.00000000000E+00  0.00000000000E+00  0.45593999997E+02  0.45594000000E+02  0.51100000000E-03 0. -1.
         11   -1    0    0    0    0 -0.00000000000E+00 -0.00000000000E+00 -0.45593999997E+02  0.45594000000E+02  0.51100000000E-03 0.  1.
    9900012    2    1    2    0    0 -0.24582431702E+02  0.16735974883E+02  0.33833780373E+02  0.46142317654E+02  0.99999990211E+01 0.  0.
        -12    1    1    2    0    0  0.24582431702E+02 -0.16735974883E+02 -0.33833780373E+02  0.45045682346E+02  0.00000000000E+00 0.  1.
         11    1    3    3    0    0 -0.13624042597E+02  0.12478275832E+02  0.18044135557E+02  0.25824653583E+02  0.51100000000E-03 0. -1.
        -11    1    3    3    0    0  0.42279486710E+00  0.77690221922E+00  0.10500816743E+01  0.13729546030E+01  0.51100000000E-03 0.  1.
        -12    1    3    3    0    0 -0.11381183973E+02  0.34807968319E+01  0.14739563142E+02  0.18944709468E+02  0.00000000000E+00 0.  1.
</event>
<event>
 7    1  0.4081218E-008  0.4614231E+02  0.7816164E-02  0.1320468E+00
        -11   -1    0    0    0    0  0.00000000000E+00  0.00000000000E+00  0.45593999997E+02  0.45594000000E+02  0.51100000000E-03 0.  1.
         11   -1    0    0    0    0 -0.00000000000E+00 -0.00000000000E+00 -0.45593999997E+02  0.45594000000E+02  0.51100000000E-03 0. -1.
    9900012    2    1    2    0    0 -0.24817497329E+02 -0.21883138030E+02 -0.30566876088E+02  0.46142314108E+02  0.99999666894E+01 0.  0.
        -12    1    1    2    0    0  0.24817497329E+02  0.21883138030E+02  0.30566876088E+02  0.45045685892E+02  0.00000000000E+00 0.  1.
         11    1    3    3    0    0 -0.93594576387E+01 -0.12121764706E+02 -0.17339992280E+02  0.23134648461E+02  0.51100000000E-03 0. -1.
        -11    1    3    3    0    0 -0.46858386445E+01 -0.21341524715E+01 -0.15297139441E+01  0.53713793001E+01  0.51100000000E-03 0.  1.
         12    1    3    3    0    0 -0.10772201046E+02 -0.76272208522E+01 -0.11697169864E+02  0.17636286347E+02  0.00000000000E+00 0. -1.
</event>
<event>
 7    1  0.4081218E-008  0.4614232E+02  0.7816164E-02  0.1320468E+00
        -11   -1    0    0    0    0  0.00000000000E+00  0.00000000000E+00  0.45593999997E+02  0.45594000000E+02  0.51100000000E-03 0.  1.
         11   -1    0    0    0    0 -0.00000000000E+00 -0.00000000000E+00 -0.45593999997E+02  0.45594000000E+02  0.51100000000E-03 0. -1.
    9900012    2    1    2    0    0 -0.41641932398E+02 -0.34092442733E+01 -0.16835678115E+02  0.46142317211E+02  0.99999949823E+01 0.  0.
        -12    1    1    2    0    0  0.41641932398E+02  0.34092442733E+01  0.16835678115E+02  0.45045682789E+02  0.00000000000E+00 0.  1.
         11    1    3    3    0    0 -0.85040464930E+01  0.24308323701E+01 -0.51795187819E+01  0.10249642327E+02  0.51100000000E-03 0. -1.
        -11    1    3    3    0    0 -0.12979874219E+02 -0.41667541527E+01 -0.59630911917E+01  0.14879429819E+02  0.51100000000E-03 0.  1.
        -12    1    3    3    0    0 -0.20158011686E+02 -0.16733224907E+01 -0.56930681418E+01  0.21013245064E+02  0.00000000000E+00 0.  1.
</event>
<event>
 7    1  0.4081218E-008  0.4614232E+02  0.7816164E-02  0.1320468E+00
        -11   -1    0    0    0    0  0.00000000000E+00  0.00000000000E+00  0.45593999997E+02  0.45594000000E+02  0.51100000000E-03 0. -1.
         11   -1    0    0    0    0 -0.00000000000E+00 -0.00000000000E+00 -0.45593999997E+02  0.45594000000E+02  0.51100000000E-03 0.  1.
    9900012    2    1    2    0    0  0.41943755183E+02 -0.14561639727E+02  0.76022092353E+01  0.46142317236E+02  0.99999952140E+01 0.  0.
        -12    1    1    2    0    0 -0.41943755183E+02  0.14561639727E+02 -0.76022092353E+01  0.45045682764E+02  0.00000000000E+00 0.  1.
         11    1    3    3    0    0  0.75440422509E+01 -0.42223217730E+01  0.11054182738E+01  0.87156482524E+01  0.51100000000E-03 0. -1.
        -11    1    3    3    0    0  0.14383361878E+02 -0.82930773289E+00  0.27780730499E+00  0.14409928084E+02  0.51100000000E-03 0.  1.
         12    1    3    3    0    0  0.20016351054E+02 -0.95100102211E+01  0.62189836564E+01  0.23016740900E+02  0.00000000000E+00 0. -1.
</event>
<event>
 7    1  0.4081218E-008  0.4614232E+02  0.7816164E-02  0.1320468E+00
        -11   -1    0    0    0    0  0.00000000000E+00  0.00000000000E+00  0.45593999997E+02  0.45594000000E+02  0.51100000000E-03 0. -1.
         11   -1    0    0    0    0 -0.00000000000E+00 -0.00000000000E+00 -0.45593999997E+02  0.45594000000E+02  0.51100000000E-03 0.  1.
    9900012    2    1    2    0    0 -0.13007703553E+02 -0.23428748180E+02  0.36207830431E+02  0.46142316771E+02  0.99999909734E+01 0.  0.
        -12    1    1    2    0    0  0.13007703553E+02  0.23428748180E+02 -0.36207830431E+02  0.45045683229E+02  0.00000000000E+00 0.  1.
         11    1    3    3    0    0 -0.68399033149E+01 -0.95920784132E+01  0.13122964528E+02  0.17635318084E+02  0.51100000000E-03 0. -1.
        -11    1    3    3    0    0 -0.71474079060E+01 -0.82463281140E+01  0.13397193184E+02  0.17279240510E+02  0.51100000000E-03 0.  1.
         12    1    3    3    0    0  0.97960766783E+00 -0.55903416526E+01  0.96876727191E+01  0.11227758177E+02  0.00000000000E+00 0. -1.
</event>
<event>
 7    1  0.4081218E-008  0.4614232E+02  0.7816164E-02  0.1320468E+00
        -11   -1    0    0    0    0  0.00000000000E+00  0.00000000000E+00  0.45593999997E+02  0.45594000000E+02  0.51100000000E-03 0.  1.
         11   -1    0    0    0    0 -0.00000000000E+00 -0.00000000000E+00 -0.45593999997E+02  0.45594000000E+02  0.51100000000E-03 0. -1.
    9900012    2    1    2    0    0 -0.16887658672E+02 -0.53359822695E+01 -0.41417963997E+02  0.46142318033E+02  0.10000002480E+02 0.  0.
        -12    1    1    2    0    0  0.16887658672E+02  0.53359822695E+01  0.41417963997E+02  0.45045681967E+02  0.00000000000E+00 0.  1.
         11    1    3    3    0    0 -0.12899528268E+02 -0.19182678138E+01 -0.22192291755E+02  0.25740539904E+02  0.51100000000E-03 0. -1.
        -11    1    3    3    0    0 -0.33762795369E+01 -0.44692334813E+01 -0.16182139266E+02  0.17124104149E+02  0.51100000000E-03 0.  1.
        -12    1    3    3    0    0 -0.61185086765E+00  0.10515190256E+01 -0.30435329761E+01  0.32776739805E+01  0.00000000000E+00 0.  1.
</event>
<event>
 7    1  0.4081218E-008  0.4614232E+02  0.7816164E-02  0.1320468E+00
        -11   -1    0    0    0    0  0.00000000000E+00  0.00000000000E+00  0.45593999997E+02  0.45594000000E+02  0.51100000000E-03 0.  1.
         11   -1    0    0    0    0 -0.00000000000E+00 -0.00000000000E+00 -0.45593999997E+02  0.45594000000E+02  0.51100000000E-03 0. -1.
    9900012    2    1    2    0    0  0.31906976742E+02  0.31627992705E+02  0.32754322049E+01  0.46142317149E+02  0.99999944224E+01 0.  0.
        -12    1    1    2    0    0 -0.31906976742E+02 -0.31627992705E+02 -0.32754322049E+01  0.45045682851E+02  0.00000000000E+00 0.  1.
         11    1    3    3    0    0  0.20223435940E+02  0.22754349008E+02  0.14505812764E+01  0.30477072469E+02  0.51100000000E-03 0. -1.
        -11    1    3    3    0    0  0.57372148831E+01  0.64734967000E+01 -0.90245679347E+00  0.86969087994E+01  0.51100000000E-03 0.  1.
        -12    1    3    3    0    0  0.59463259185E+01  0.24001469971E+01  0.27273077220E+01  0.69683358807E+01  0.00000000000E+00 0.  1.
</event>
<event>
 7    1  0.4081218E-008  0.4614232E+02  0.7816164E-02  0.1320468E+00
        -11   -1    0    0    0    0  0.00000000000E+00  0.00000000000E+00  0.45593999997E+02  0.45594000000E+02  0.51100000000E-03 0. -1.
         11   -1    0    0    0    0 -0.00000000000E+00 -0.00000000000E+00 -0.45593999997E+02  0.45594000000E+02  0.51100000000E-03 0.  1.
    9900012    2    1    2    0    0 -0.10940289776E+02  0.29205508960E+01  0.43599243255E+02  0.46142316852E+02  0.99999917055E+01 0.  0.
        -12    1    1    2    0    0  0.10940289776E+02 -0.29205508960E+01 -0.43599243255E+02  0.45045683148E+02  0.00000000000E+00 0.  1.
         11    1    3    3    0    0 -0.42827812061E+01  0.71792630057E+00  0.47523523152E+01  0.64375838496E+01  0.51100000000E-03 0. -1.
        -11    1    3    3    0    0 -0.66464346503E+00  0.19512709742E+01  0.13585578205E+02  0.13741075095E+02  0.51100000000E-03 0.  1.
         12    1    3    3    0    0 -0.59928651050E+01  0.25135362124E+00  0.25261312734E+02  0.25963657906E+02  0.00000000000E+00 0. -1.
</event>
<event>
 7    1  0.4081218E-008  0.4614232E+02  0.7816164E-02  0.1320468E+00
        -11   -1    0    0    0    0  0.00000000000E+00  0.00000000000E+00  0.45593999997E+02  0.45594000000E+02  0.51100000000E-03 0. -1.
         11   -1    0    0    0    0 -0.00000000000E+00 -0.00000000000E+00 -0.45593999997E+02  0.45594000000E+02  0.51100000000E-03 0.  1.
    9900012    2    1    2    0    0  0.11428822845E+01 -0.41479201091E+02  0.17529493907E+02  0.46142318080E+02  0.10000002905E+02 0.  0.
        -12    1    1    2    0    0 -0.11428822845E+01  0.41479201091E+02 -0.17529493907E+02  0.45045681920E+02  0.00000000000E+00 0.  1.
         11    1    3    3    0    0  0.43349467811E+01 -0.22461403994E+02  0.10453023498E+02  0.25150986730E+02  0.51100000000E-03 0. -1.
        -11    1    3    3    0    0 -0.29341303487E+01 -0.16537117190E+02  0.76129388693E+01  0.18440233305E+02  0.51100000000E-03 0.  1.
        -12    1    3    3    0    0 -0.25793414798E+00 -0.24806799070E+01 -0.53646846048E+00  0.25510980449E+01  0.00000000000E+00 0.  1.
</event>
<event>
 7    1  0.4081218E-008  0.4614232E+02  0.7816164E-02  0.1320468E+00
        -11   -1    0    0    0    0  0.00000000000E+00  0.00000000000E+00  0.45593999997E+02  0.45594000000E+02  0.51100000000E-03 0. -1.
         11   -1    0    0    0    0 -0.00000000000E+00 -0.00000000000E+00 -0.45593999997E+02  0.45594000000E+02  0.51100000000E-03 0.  1.
    9900012    2    1    2    0    0  0.41580907053E+02 -0.59848114406E+01  0.16258037322E+02  0.46142316779E+02  0.99999910404E+01 0.  0.
        -12    1    1    2    0    0 -0.41580907053E+02  0.59848114406E+01 -0.16258037322E+02  0.45045683221E+02  0.00000000000E+00 0.  1.
         11    1    3    3    0    0  0.32543269031E+02 -0.51655933524E+01  0.14326488170E+02  0.35930432470E+02  0.51100000000E-03 0. -1.
        -11    1    3    3    0    0  0.93719837432E+01 -0.11957528658E+01  0.15369813357E+01  0.95721583818E+01  0.51100000000E-03 0.  1.
        -12    1    3    3    0    0 -0.33434572138E+00  0.37653477764E+00  0.39456781601E+00  0.63972592695E+00  0.00000000000E+00 0.  1.
</event>
<event>
 7    1  0.4081218E-008  0.4614232E+02  0.7816164E-02  0.1320468E+00
        -11   -1    0    0    0    0  0.00000000000E+00  0.00000000000E+00  0.45593999997E+02  0.45594000000E+02  0.51100000000E-03 0. -1.
         11   -1    0    0    0    0 -0.00000000000E+00 -0.00000000000E+00 -0.45593999997E+02  0.45594000000E+02  0.51100000000E-03 0.  1.
    9900012    2    1    2    0    0  0.12927235423E+02  0.42058612318E+02  0.96474467821E+01  0.46142317464E+02  0.99999972874E+01 0.  0.
        -12    1    1    2    0    0 -0.12927235423E+02 -0.42058612318E+02 -0.96474467821E+01  0.45045682536E+02  0.00000000000E+00 0.  1.
         11    1    3    3    0    0  0.27340432449E+01  0.69035804268E+01  0.39243853552E+01  0.83985246235E+01  0.51100000000E-03 0. -1.
        -11    1    3    3    0    0 -0.90924516448E+00  0.82899855453E+00  0.20212049672E+00  0.12469235457E+01  0.51100000000E-03 0.  1.
        -12    1    3    3    0    0  0.11102437342E+02  0.34326033336E+02  0.55209409302E+01  0.36496869294E+02  0.00000000000E+00 0.  1.
</event>
<event>
 7    1  0.4081218E-008  0.4614232E+02  0.7816164E-02  0.1320468E+00
        -11   -1    0    0    0    0  0.00000000000E+00  0.00000000000E+00  0.45593999997E+02  0.45594000000E+02  0.51100000000E-03 0.  1.
         11   -1    0    0    0    0 -0.00000000000E+00 -0.00000000000E+00 -0.45593999997E+02  0.45594000000E+02  0.51100000000E-03 0. -1.
    9900012    2    1    2    0    0 -0.20275765294E+02 -0.22880571422E+02 -0.33083019923E+02  0.46142318586E+02  0.10000007519E+02 0.  0.
        -12    1    1    2    0    0  0.20275765294E+02  0.22880571422E+02  0.33083019923E+02  0.45045681414E+02  0.00000000000E+00 0.  1.
         11    1    3    3    0    0 -0.59505422638E+01 -0.97973917233E+01 -0.13712071047E+02  0.17872289458E+02  0.51100000000E-03 0. -1.
        -11    1    3    3    0    0 -0.46178042266E+01 -0.46853738475E+00 -0.50425459992E+01  0.68535329263E+01  0.51100000000E-03 0.  1.
        -12    1    3    3    0    0 -0.97074188038E+01 -0.12614642314E+02 -0.14328402876E+02  0.21416496201E+02  0.00000000000E+00 0.  1.
</event>
<event>
 7    1  0.4081218E-008  0.4614232E+02  0.7816164E-02  0.1320468E+00
        -11   -1    0    0    0    0  0.00000000000E+00  0.00000000000E+00  0.45593999997E+02  0.45594000000E+02  0.51100000000E-03 0.  1.
         11   -1    0    0    0    0 -0.00000000000E+00 -0.00000000000E+00 -0.45593999997E+02  0.45594000000E+02  0.51100000000E-03 0. -1.
    9900012    2    1    2    0    0  0.92866037900E+01 -0.42933347052E+02  0.99799830078E+01  0.46142319188E+02  0.10000013008E+02 0.  0.
        -12    1    1    2    0    0 -0.92866037900E+01  0.42933347052E+02 -0.99799830078E+01  0.45045680812E+02  0.00000000000E+00 0.  1.
         11    1    3    3    0    0  0.79787322329E+01 -0.29021024927E+02  0.75356435324E+01  0.31026859002E+02  0.51100000000E-03 0. -1.
        -11    1    3    3    0    0  0.12723583045E+01 -0.69910146971E+01  0.38066734882E+01  0.80612620263E+01  0.51100000000E-03 0.  1.
         12    1    3    3    0    0  0.35513252554E-01 -0.69213074281E+01 -0.13623340128E+01  0.70541981591E+01  0.00000000000E+00 0. -1.
</event>
<event>
 7    1  0.4081218E-008  0.4614232E+02  0.7816164E-02  0.1320468E+00
        -11   -1    0    0    0    0  0.00000000000E+00  0.00000000000E+00  0.45593999997E+02  0.45594000000E+02  0.51100000000E-03 0. -1.
         11   -1    0    0    0    0 -0.00000000000E+00 -0.00000000000E+00 -0.45593999997E+02  0.45594000000E+02  0.51100000000E-03 0.  1.
    9900012    2    1    2    0    0 -0.29115155973E+02 -0.64944185873E+01  0.33752684468E+02  0.46142317755E+02  0.99999999464E+01 0.  0.
        -12    1    1    2    0    0  0.29115155973E+02  0.64944185873E+01 -0.33752684468E+02  0.45045682245E+02  0.00000000000E+00 0.  1.
         11    1    3    3    0    0 -0.24099257011E+02 -0.64787552714E+01  0.29887131400E+02  0.38935704462E+02  0.51100000000E-03 0. -1.
        -11    1    3    3    0    0 -0.52893123553E+01 -0.64663566587E+00  0.37333137157E+01  0.65063503162E+01  0.51100000000E-03 0.  1.
         12    1    3    3    0    0  0.27341339389E+00  0.63097235000E+00  0.13223935176E+00  0.70026297673E+00  0.00000000000E+00 0. -1.
</event>
<event>
 7    1  0.4081218E-008  0.4614232E+02  0.7816164E-02  0.1320468E+00
        -11   -1    0    0    0    0  0.00000000000E+00  0.00000000000E+00  0.45593999997E+02  0.45594000000E+02  0.51100000000E-03 0.  1.
         11   -1    0    0    0    0 -0.00000000000E+00 -0.00000000000E+00 -0.45593999997E+02  0.45594000000E+02  0.51100000000E-03 0. -1.
    9900012    2    1    2    0    0 -0.26909206377E+02 -0.28481893496E+02 -0.22221382930E+02  0.46142317584E+02  0.99999983878E+01 0.  0.
        -12    1    1    2    0    0  0.26909206377E+02  0.28481893496E+02  0.22221382930E+02  0.45045682416E+02  0.00000000000E+00 0.  1.
         11    1    3    3    0    0 -0.81752404758E+01 -0.91758371849E+01 -0.38298580571E+01  0.12872387420E+02  0.51100000000E-03 0. -1.
        -11    1    3    3    0    0 -0.17747200686E+02 -0.15954286698E+02 -0.14035278770E+02  0.27685581928E+02  0.51100000000E-03 0.  1.
         12    1    3    3    0    0 -0.98676521516E+00 -0.33517696130E+01 -0.43562461023E+01  0.55843482370E+01  0.00000000000E+00 0. -1.
</event>
<event>
 7    1  0.4081218E-008  0.4614232E+02  0.7816164E-02  0.1320468E+00
        -11   -1    0    0    0    0  0.00000000000E+00  0.00000000000E+00  0.45593999997E+02  0.45594000000E+02  0.51100000000E-03 0. -1.
         11   -1    0    0    0    0 -0.00000000000E+00 -0.00000000000E+00 -0.45593999997E+02  0.45594000000E+02  0.51100000000E-03 0.  1.
    9900012    2    1    2    0    0 -0.82291849075E+01  0.37510471746E+02  0.23544821686E+02  0.46142316488E+02  0.99999883918E+01 0.  0.
        -12    1    1    2    0    0  0.82291849075E+01 -0.37510471746E+02 -0.23544821686E+02  0.45045683512E+02  0.00000000000E+00 0.  1.
         11    1    3    3    0    0 -0.89547114886E+01  0.31465092974E+02  0.18476866193E+02  0.37571711677E+02  0.51100000000E-03 0. -1.
        -11    1    3    3    0    0  0.14472463501E+01  0.60177914348E+01  0.45289908770E+01  0.76694259482E+01  0.51100000000E-03 0.  1.
         12    1    3    3    0    0 -0.72171976894E+00  0.27587336294E-01  0.53896461617E+00  0.90117886320E+00  0.00000000000E+00 0. -1.
</event>
<event>
 7    1  0.4081218E-008  0.4614232E+02  0.7816164E-02  0.1320468E+00
        -11   -1    0    0    0    0  0.00000000000E+00  0.00000000000E+00  0.45593999997E+02  0.45594000000E+02  0.51100000000E-03 0.  1.
         11   -1    0    0    0    0 -0.00000000000E+00 -0.00000000000E+00 -0.45593999997E+02  0.45594000000E+02  0.51100000000E-03 0. -1.
    9900012    2    1    2    0    0  0.60117537839E+01  0.38858018258E+02 -0.21977872113E+02  0.46142316199E+02  0.99999857572E+01 0.  0.
        -12    1    1    2    0    0 -0.60117537839E+01 -0.38858018258E+02  0.21977872113E+02  0.45045683801E+02  0.00000000000E+00 0.  1.
         11    1    3    3    0    0  0.51127393097E+01  0.19494071836E+02 -0.70388146146E+01  0.21347221165E+02  0.51100000000E-03 0. -1.
        -11    1    3    3    0    0  0.17796467899E+01  0.10633520959E+02 -0.63298331018E+01  0.12502227723E+02  0.51100000000E-03 0.  1.
        -12    1    3    3    0    0 -0.88063231580E+00  0.87304254625E+01 -0.86092243967E+01  0.12292867312E+02  0.00000000000E+00 0.  1.
</event>
<event>
 7    1  0.4081218E-008  0.4614232E+02  0.7816164E-02  0.1320468E+00
        -11   -1    0    0    0    0  0.00000000000E+00  0.00000000000E+00  0.45593999997E+02  0.45594000000E+02  0.51100000000E-03 0.  1.
         11   -1    0    0    0    0 -0.00000000000E+00 -0.00000000000E+00 -0.45593999997E+02  0.45594000000E+02  0.51100000000E-03 0. -1.
    9900012    2    1    2    0    0 -0.98016745502E-01 -0.29433311908E+02 -0.34099619336E+02  0.46142317676E+02  0.99999992275E+01 0.  0.
        -12    1    1    2    0    0  0.98016745502E-01  0.29433311908E+02  0.34099619336E+02  0.45045682324E+02  0.00000000000E+00 0.  1.
         11    1    3    3    0    0 -0.10335675571E+01 -0.27309778236E+02 -0.27894314017E+02  0.39051056374E+02  0.51100000000E-03 0. -1.
        -11    1    3    3    0    0 -0.38258950671E-01 -0.15452915866E+01 -0.11930036906E+01  0.19526002924E+01  0.51100000000E-03 0.  1.
         12    1    3    3    0    0  0.97380976225E+00 -0.57824208536E+00 -0.50123016282E+01  0.51386610099E+01  0.00000000000E+00 0. -1.
</event>
<event>
 7    1  0.4081218E-008  0.4614232E+02  0.7816164E-02  0.1320468E+00
        -11   -1    0    0    0    0  0.00000000000E+00  0.00000000000E+00  0.45593999997E+02  0.45594000000E+02  0.51100000000E-03 0. -1.
         11   -1    0    0    0    0 -0.00000000000E+00 -0.00000000000E+00 -0.45593999997E+02  0.45594000000E+02  0.51100000000E-03 0.  1.
    9900012    2    1    2    0    0 -0.16143130063E+02  0.24934083233E+02  0.33864499659E+02  0.46142317720E+02  0.99999996225E+01 0.  0.
        -12    1    1    2    0    0  0.16143130063E+02 -0.24934083233E+02 -0.33864499659E+02  0.45045682280E+02  0.00000000000E+00 0.  1.
         11    1    3    3    0    0 -0.11253678580E+02  0.13276822198E+02  0.19555969673E+02  0.26179290276E+02  0.51100000000E-03 0. -1.
        -11    1    3    3    0    0 -0.21828413961E-01  0.37861252850E+00 -0.56002907328E+00  0.67635549117E+00  0.51100000000E-03 0.  1.
        -12    1    3    3    0    0 -0.48676230694E+01  0.11278648507E+02  0.14868559060E+02  0.19286671952E+02  0.00000000000E+00 0.  1.
</event>
<event>
 7    1  0.4081218E-008  0.4614232E+02  0.7816164E-02  0.1320468E+00
        -11   -1    0    0    0    0  0.00000000000E+00  0.00000000000E+00  0.45593999997E+02  0.45594000000E+02  0.51100000000E-03 0.  1.
         11   -1    0    0    0    0 -0.00000000000E+00 -0.00000000000E+00 -0.45593999997E+02  0.45594000000E+02  0.51100000000E-03 0. -1.
    9900012    2    1    2    0    0  0.14835337672E+02  0.41213715525E+02  0.10509795795E+02  0.46142318755E+02  0.10000009059E+02 0.  0.
        -12    1    1    2    0    0 -0.14835337672E+02 -0.41213715525E+02 -0.10509795795E+02  0.45045681245E+02  0.00000000000E+00 0.  1.
         11    1    3    3    0    0  0.38428876379E+01  0.11022170067E+02  0.40320170867E+01  0.12349622684E+02  0.51100000000E-03 0. -1.
        -11    1    3    3    0    0  0.12069810357E+02  0.24044145348E+02  0.57297993266E+01  0.27506941817E+02  0.51100000000E-03 0.  1.
        -12    1    3    3    0    0 -0.10773603227E+01  0.61474001100E+01  0.74797938171E+00  0.62857542533E+01  0.00000000000E+00 0.  1.
</event>
<event>
 7    1  0.4081218E-008  0.4614232E+02  0.7816164E-02  0.1320468E+00
        -11   -1    0    0    0    0  0.00000000000E+00  0.00000000000E+00  0.45593999997E+02  0.45594000000E+02  0.51100000000E-03 0.  1.
         11   -1    0    0    0    0 -0.00000000000E+00 -0.00000000000E+00 -0.45593999997E+02  0.45594000000E+02  0.51100000000E-03 0. -1.
    9900012    2    1    2    0    0 -0.34427634664E+02 -0.29037499489E+02  0.82161339816E+00  0.46142318146E+02  0.10000003510E+02 0.  0.
        -12    1    1    2    0    0  0.34427634664E+02  0.29037499489E+02 -0.82161339816E+00  0.45045681854E+02  0.00000000000E+00 0.  1.
         11    1    3    3    0    0 -0.34336463534E+00 -0.10891265793E+01 -0.12335632168E+01  0.16810040004E+01  0.51100000000E-03 0. -1.
        -11    1    3    3    0    0 -0.28140190903E+01 -0.28412196918E+01  0.17314816166E+01  0.43576669936E+01  0.51100000000E-03 0.  1.
         12    1    3    3    0    0 -0.31270250938E+02 -0.25107153218E+02  0.32369499830E+00  0.40103647152E+02  0.00000000000E+00 0. -1.
</event>
<event>
 7    1  0.4081218E-008  0.4614232E+02  0.7816164E-02  0.1320468E+00
        -11   -1    0    0    0    0  0.00000000000E+00  0.00000000000E+00  0.45593999997E+02  0.45594000000E+02  0.51100000000E-03 0.  1.
         11   -1    0    0    0    0 -0.00000000000E+00 -0.00000000000E+00 -0.45593999997E+02  0.45594000000E+02  0.51100000000E-03 0. -1.
    9900012    2    1    2    0    0 -0.25217078050E+02  0.28721090782E+02 -0.23839285310E+02  0.46142316465E+02  0.99999881807E+01 0.  0.
        -12    1    1    2    0    0  0.25217078050E+02 -0.28721090782E+02  0.23839285310E+02  0.45045683535E+02  0.00000000000E+00 0.  1.
         11    1    3    3    0    0 -0.13651150677E+01  0.34060885964E+01 -0.14564473545E+00  0.36723550107E+01  0.51100000000E-03 0. -1.
        -11    1    3    3    0    0 -0.21863633010E+02  0.24415171871E+02 -0.20693701430E+02  0.38760138610E+02  0.51100000000E-03 0.  1.
        -12    1    3    3    0    0 -0.19883299719E+01  0.89983031461E+00 -0.29999391438E+01  0.37098228447E+01  0.00000000000E+00 0.  1.
</event>
<event>
 7    1  0.4081218E-008  0.4614232E+02  0.7816164E-02  0.1320468E+00
        -11   -1    0    0    0    0  0.00000000000E+00  0.00000000000E+00  0.45593999997E+02  0.45594000000E+02  0.51100000000E-03 0.  1.
         11   -1    0    0    0    0 -0.00000000000E+00 -0.00000000000E+00 -0.45593999997E+02  0.45594000000E+02  0.51100000000E-03 0. -1.
    9900012    2    1    2    0    0  0.22258929161E+02  0.29676654754E+02  0.25552876602E+02  0.46142320213E+02  0.10000022361E+02 0.  0.
        -12    1    1    2    0    0 -0.22258929161E+02 -0.29676654754E+02 -0.25552876602E+02  0.45045679787E+02  0.00000000000E+00 0.  1.
         11    1    3    3    0    0  0.11139413153E+02  0.12675217873E+02  0.12047138055E+02  0.20733576853E+02  0.51100000000E-03 0. -1.
        -11    1    3    3    0    0  0.10792638902E+02  0.13541677761E+02  0.13461476159E+02  0.21933295049E+02  0.51100000000E-03 0.  1.
         12    1    3    3    0    0  0.32687710611E+00  0.34597591198E+01  0.44262387942E-01  0.34754483118E+01  0.00000000000E+00 0. -1.
</event>
<event>
 7    1  0.4081218E-008  0.4614232E+02  0.7816164E-02  0.1320468E+00
        -11   -1    0    0    0    0  0.00000000000E+00  0.00000000000E+00  0.45593999997E+02  0.45594000000E+02  0.51100000000E-03 0.  1.
         11   -1    0    0    0    0 -0.00000000000E+00 -0.00000000000E+00 -0.45593999997E+02  0.45594000000E+02  0.51100000000E-03 0. -1.
    9900012    2    1    2    0    0  0.19614486663E+01 -0.89786806345E+01 -0.44098179803E+02  0.46142318201E+02  0.10000004013E+02 0.  0.
        -12    1    1    2    0    0 -0.19614486663E+01  0.89786806345E+01  0.44098179803E+02  0.45045681799E+02  0.00000000000E+00 0.  1.
         11    1    3    3    0    0  0.22189510089E+01 -0.11806626402E+01 -0.20859239856E+02  0.21010130782E+02  0.51100000000E-03 0. -1.
        -11    1    3    3    0    0 -0.62529280086E+00 -0.14890870546E+01 -0.13000369993E+02  0.13100305017E+02  0.51100000000E-03 0.  1.
        -12    1    3    3    0    0  0.36779045826E+00 -0.63089309397E+01 -0.10238569954E+02  0.12031882401E+02  0.00000000000E+00 0.  1.
</event>
<event>
 7    1  0.4081218E-008  0.4614232E+02  0.7816164E-02  0.1320468E+00
        -11   -1    0    0    0    0  0.00000000000E+00  0.00000000000E+00  0.45593999997E+02  0.45594000000E+02  0.51100000000E-03 0.  1.
         11   -1    0    0    0    0 -0.00000000000E+00 -0.00000000000E+00 -0.45593999997E+02  0.45594000000E+02  0.51100000000E-03 0. -1.
    9900012    2    1    2    0    0  0.99741209675E+01 -0.18442036869E+02 -0.39868808418E+02  0.46142315438E+02  0.99999788154E+01 0.  0.
        -12    1    1    2    0    0 -0.99741209675E+01  0.18442036869E+02  0.39868808418E+02  0.45045684562E+02  0.00000000000E+00 0.  1.
         11    1    3    3    0    0  0.52885481441E+01 -0.74635014393E+01 -0.13535332601E+02  0.16336395688E+02  0.51100000000E-03 0. -1.
        -11    1    3    3    0    0  0.25967526048E+01 -0.88661740604E+01 -0.11875619619E+02  0.15046013032E+02  0.51100000000E-03 0.  1.
        -12    1    3    3    0    0  0.20888202186E+01 -0.21123613695E+01 -0.14457856198E+02  0.14759906717E+02  0.00000000000E+00 0.  1.
</event>
<event>
 7    1  0.4920153E-008  0.4614232E+02  0.7816164E-02  0.1320468E+00
        -11   -1    0    0    0    0  0.00000000000E+00  0.00000000000E+00  0.45593999997E+02  0.45594000000E+02  0.51100000000E-03 0.  1.
         11   -1    0    0    0    0 -0.00000000000E+00 -0.00000000000E+00 -0.45593999997E+02  0.45594000000E+02  0.51100000000E-03 0. -1.
    9900012    2    1    2    0    0 -0.89520946318E+01 -0.42586247322E+02 -0.11635509475E+02  0.46142317188E+02  0.99999947709E+01 0.  0.
        -12    1    1    2    0    0  0.89520946318E+01  0.42586247322E+02  0.11635509475E+02  0.45045682812E+02  0.00000000000E+00 0.  1.
         11    1    3    3    0    0 -0.60310561627E+01 -0.24583819030E+02 -0.41311784779E+01  0.25647698385E+02  0.51100000000E-03 0. -1.
        -11    1    3    3    0    0 -0.32100274173E+01 -0.95780639658E+01 -0.16592721761E+01  0.10237029343E+02  0.51100000000E-03 0.  1.
        -12    1    3    3    0    0  0.28898894826E+00 -0.84243643261E+01 -0.58450588208E+01  0.10257589460E+02  0.00000000000E+00 0.  1.
</event>
<event>
 7    1  0.4181331E-008  0.4614232E+02  0.7816164E-02  0.1320468E+00
        -11   -1    0    0    0    0  0.00000000000E+00  0.00000000000E+00  0.45593999997E+02  0.45594000000E+02  0.51100000000E-03 0.  1.
         11   -1    0    0    0    0 -0.00000000000E+00 -0.00000000000E+00 -0.45593999997E+02  0.45594000000E+02  0.51100000000E-03 0. -1.
    9900012    2    1    2    0    0 -0.41463465693E+02  0.13105558077E+02  0.11753249167E+02  0.46142317568E+02  0.99999982388E+01 0.  0.
        -12    1    1    2    0    0  0.41463465693E+02 -0.13105558077E+02 -0.11753249167E+02  0.45045682432E+02  0.00000000000E+00 0.  1.
         11    1    3    3    0    0 -0.87177384531E+01  0.31120593069E+01  0.48800510143E+00  0.92694134715E+01  0.51100000000E-03 0. -1.
        -11    1    3    3    0    0 -0.20265946736E+02  0.52892492276E+01  0.29383075673E+01  0.21149903218E+02  0.51100000000E-03 0.  1.
        -12    1    3    3    0    0 -0.12479780504E+02  0.47042495429E+01  0.83269364984E+01  0.15723000879E+02  0.00000000000E+00 0.  1.
</event>
<event>
 7    1  0.4081218E-008  0.4614232E+02  0.7816164E-02  0.1320468E+00
        -11   -1    0    0    0    0  0.00000000000E+00  0.00000000000E+00  0.45593999997E+02  0.45594000000E+02  0.51100000000E-03 0.  1.
         11   -1    0    0    0    0 -0.00000000000E+00 -0.00000000000E+00 -0.45593999997E+02  0.45594000000E+02  0.51100000000E-03 0. -1.
    9900012    2    1    2    0    0  0.20934346500E+02  0.27541258351E+02 -0.28850403512E+02  0.46142316991E+02  0.99999929745E+01 0.  0.
        -12    1    1    2    0    0 -0.20934346500E+02 -0.27541258351E+02  0.28850403512E+02  0.45045683009E+02  0.00000000000E+00 0.  1.
         11    1    3    3    0    0  0.73301105932E+01  0.83074058261E+01 -0.86523984692E+01  0.14057293922E+02  0.51100000000E-03 0. -1.
        -11    1    3    3    0    0  0.10474567362E+02  0.18816096851E+02 -0.18964520885E+02  0.28695210660E+02  0.51100000000E-03 0.  1.
        -12    1    3    3    0    0  0.31296685445E+01  0.41775567390E+00 -0.12334841576E+01  0.33898124090E+01  0.00000000000E+00 0.  1.
</event>
<event>
 7    1  0.4081218E-008  0.4614232E+02  0.7816164E-02  0.1320468E+00
        -11   -1    0    0    0    0  0.00000000000E+00  0.00000000000E+00  0.45593999997E+02  0.45594000000E+02  0.51100000000E-03 0. -1.
         11   -1    0    0    0    0 -0.00000000000E+00 -0.00000000000E+00 -0.45593999997E+02  0.45594000000E+02  0.51100000000E-03 0.  1.
    9900012    2    1    2    0    0  0.19736542305E+01  0.44475217700E+02  0.68682735656E+01  0.46142317829E+02  0.10000000621E+02 0.  0.
        -12    1    1    2    0    0 -0.19736542305E+01 -0.44475217700E+02 -0.68682735656E+01  0.45045682171E+02  0.00000000000E+00 0.  1.
         11    1    3    3    0    0 -0.40760570345E+00  0.23029985924E+02  0.44635894460E+01  0.23462097628E+02  0.51100000000E-03 0. -1.
        -11    1    3    3    0    0  0.43631981816E+01  0.11053871606E+02  0.22812962995E+01  0.12100821828E+02  0.51100000000E-03 0.  1.
        -12    1    3    3    0    0 -0.19819382477E+01  0.10391360169E+02  0.12338782007E+00  0.10579398373E+02  0.00000000000E+00 0.  1.
</event>
<event>
 7    1  0.4081218E-008  0.4614232E+02  0.7816164E-02  0.1320468E+00
        -11   -1    0    0    0    0  0.00000000000E+00  0.00000000000E+00  0.45593999997E+02  0.45594000000E+02  0.51100000000E-03 0.  1.
         11   -1    0    0    0    0 -0.00000000000E+00 -0.00000000000E+00 -0.45593999997E+02  0.45594000000E+02  0.51100000000E-03 0. -1.
    9900012    2    1    2    0    0  0.18419569055E+02  0.30102943257E+01 -0.40997205955E+02  0.46142319939E+02  0.10000019855E+02 0.  0.
        -12    1    1    2    0    0 -0.18419569055E+02 -0.30102943257E+01  0.40997205955E+02  0.45045680061E+02  0.00000000000E+00 0.  1.
         11    1    3    3    0    0  0.24647432323E+01 -0.18487948846E+01 -0.56896709840E+01  0.64703444957E+01  0.51100000000E-03 0. -1.
        -11    1    3    3    0    0  0.85931394817E+00  0.21591108599E+01 -0.22684978032E+01  0.32475009948E+01  0.51100000000E-03 0.  1.
         12    1    3    3    0    0  0.15095511875E+02  0.26999783504E+01 -0.33039037168E+02  0.36424474448E+02  0.00000000000E+00 0. -1.
</event>
<event>
 7    1  0.4081218E-008  0.4614232E+02  0.7816164E-02  0.1320468E+00
        -11   -1    0    0    0    0  0.00000000000E+00  0.00000000000E+00  0.45593999997E+02  0.45594000000E+02  0.51100000000E-03 0.  1.
         11   -1    0    0    0    0 -0.00000000000E+00 -0.00000000000E+00 -0.45593999997E+02  0.45594000000E+02  0.51100000000E-03 0. -1.
    9900012    2    1    2    0    0 -0.38589293133E+02 -0.64241547819E+01 -0.22331822937E+02  0.46142316246E+02  0.99999861823E+01 0.  0.
        -12    1    1    2    0    0  0.38589293133E+02  0.64241547819E+01  0.22331822937E+02  0.45045683754E+02  0.00000000000E+00 0.  1.
         11    1    3    3    0    0 -0.46118600061E+00  0.75834218775E+00 -0.18333519856E+01  0.20368984179E+01  0.51100000000E-03 0. -1.
        -11    1    3    3    0    0 -0.21342513976E+01 -0.87515239002E+00 -0.22923857121E+00  0.23180749163E+01  0.51100000000E-03 0.  1.
        -12    1    3    3    0    0 -0.35993855735E+02 -0.63073445796E+01 -0.20269232380E+02  0.41787342912E+02  0.00000000000E+00 0.  1.
</event>
<event>
 7    1  0.4081218E-008  0.4614232E+02  0.7816164E-02  0.1320468E+00
        -11   -1    0    0    0    0  0.00000000000E+00  0.00000000000E+00  0.45593999997E+02  0.45594000000E+02  0.51100000000E-03 0. -1.
         11   -1    0    0    0    0 -0.00000000000E+00 -0.00000000000E+00 -0.45593999997E+02  0.45594000000E+02  0.51100000000E-03 0.  1.
    9900012    2    1    2    0    0 -0.28377439093E+02 -0.34862025183E+02 -0.29109642687E+01  0.46142316941E+02  0.99999925190E+01 0.  0.
        -12    1    1    2    0    0  0.28377439093E+02  0.34862025183E+02  0.29109642687E+01  0.45045683059E+02  0.00000000000E+00 0.  1.
         11    1    3    3    0    0 -0.49044151134E+01 -0.40331038374E+01 -0.98629474186E+00  0.64258845109E+01  0.51100000000E-03 0. -1.
        -11    1    3    3    0    0 -0.14971438227E+02 -0.22063580192E+02 -0.49902431490E+01  0.27126519504E+02  0.51100000000E-03 0.  1.
        -12    1    3    3    0    0 -0.85015857523E+01 -0.87653411532E+01  0.30655736221E+01  0.12589912925E+02  0.00000000000E+00 0.  1.
</event>
<event>
 7    1  0.4081218E-008  0.4614232E+02  0.7816164E-02  0.1320468E+00
        -11   -1    0    0    0    0  0.00000000000E+00  0.00000000000E+00  0.45593999997E+02  0.45594000000E+02  0.51100000000E-03 0.  1.
         11   -1    0    0    0    0 -0.00000000000E+00 -0.00000000000E+00 -0.45593999997E+02  0.45594000000E+02  0.51100000000E-03 0. -1.
    9900012    2    1    2    0    0 -0.82250583809E+00  0.20356159183E+02 -0.40175411100E+02  0.46142318857E+02  0.10000009993E+02 0.  0.
        -12    1    1    2    0    0  0.82250583809E+00 -0.20356159183E+02  0.40175411100E+02  0.45045681143E+02  0.00000000000E+00 0.  1.
         11    1    3    3    0    0  0.33353740919E-01  0.99637888811E+01 -0.27067792806E+02  0.28843432684E+02  0.51100000000E-03 0. -1.
        -11    1    3    3    0    0 -0.21260375817E+01  0.49092378497E+01 -0.84117485888E+01  0.99688598468E+01  0.51100000000E-03 0.  1.
        -12    1    3    3    0    0  0.12701780027E+01  0.54831324526E+01 -0.46958697057E+01  0.73300263263E+01  0.00000000000E+00 0.  1.
</event>
<event>
 7    1  0.4081218E-008  0.4614232E+02  0.7816164E-02  0.1320468E+00
        -11   -1    0    0    0    0  0.00000000000E+00  0.00000000000E+00  0.45593999997E+02  0.45594000000E+02  0.51100000000E-03 0. -1.
         11   -1    0    0    0    0 -0.00000000000E+00 -0.00000000000E+00 -0.45593999997E+02  0.45594000000E+02  0.51100000000E-03 0.  1.
    9900012    2    1    2    0    0 -0.21050477961E+02 -0.39359237229E+02  0.60697038361E+01  0.46142317829E+02  0.10000000617E+02 0.  0.
        -12    1    1    2    0    0  0.21050477961E+02  0.39359237229E+02 -0.60697038361E+01  0.45045682171E+02  0.00000000000E+00 0.  1.
         11    1    3    3    0    0 -0.29211276287E+01 -0.23286241343E+01  0.12685268487E+01  0.39452043812E+01  0.51100000000E-03 0. -1.
        -11    1    3    3    0    0  0.70603790974E+00 -0.67163672038E+00  0.80076685947E-01  0.97775147706E+00  0.51100000000E-03 0.  1.
         12    1    3    3    0    0 -0.18835388242E+02 -0.36358976374E+02  0.47211003015E+01  0.41219361970E+02  0.00000000000E+00 0. -1.
</event>
<event>
 7    1  0.4081218E-008  0.4614232E+02  0.7816164E-02  0.1320468E+00
        -11   -1    0    0    0    0  0.00000000000E+00  0.00000000000E+00  0.45593999997E+02  0.45594000000E+02  0.51100000000E-03 0.  1.
         11   -1    0    0    0    0 -0.00000000000E+00 -0.00000000000E+00 -0.45593999997E+02  0.45594000000E+02  0.51100000000E-03 0. -1.
    9900012    2    1    2    0    0 -0.13400864266E+01 -0.33213196295E+02 -0.30400673593E+02  0.46142321021E+02  0.10000029730E+02 0.  0.
        -12    1    1    2    0    0  0.13400864266E+01  0.33213196295E+02  0.30400673593E+02  0.45045678979E+02  0.00000000000E+00 0.  1.
         11    1    3    3    0    0  0.62028081184E+00 -0.14376127012E+02 -0.16521470426E+02  0.21909284823E+02  0.51100000000E-03 0. -1.
        -11    1    3    3    0    0  0.20605411457E+01 -0.47724133309E+01 -0.29892888066E+01  0.59964661797E+01  0.51100000000E-03 0.  1.
        -12    1    3    3    0    0 -0.40209083841E+01 -0.14064655952E+02 -0.10889914360E+02  0.18236570019E+02  0.00000000000E+00 0.  1.
</event>
<event>
 7    1  0.4081218E-008  0.4614232E+02  0.7816164E-02  0.1320468E+00
        -11   -1    0    0    0    0  0.00000000000E+00  0.00000000000E+00  0.45593999997E+02  0.45594000000E+02  0.51100000000E-03 0.  1.
         11   -1    0    0    0    0 -0.00000000000E+00 -0.00000000000E+00 -0.45593999997E+02  0.45594000000E+02  0.51100000000E-03 0. -1.
    9900012    2    1    2    0    0  0.11507074258E+02 -0.17188089436E+02 -0.40015876248E+02  0.46142317318E+02  0.99999959574E+01 0.  0.
        -12    1    1    2    0    0 -0.11507074258E+02  0.17188089436E+02  0.40015876248E+02  0.45045682682E+02  0.00000000000E+00 0.  1.
         11    1    3    3    0    0  0.43593938083E+01 -0.11008239113E+02 -0.24188234931E+02  0.26930583953E+02  0.51100000000E-03 0. -1.
        -11    1    3    3    0    0 -0.41699079980E+00 -0.21656879987E+00  0.20127321068E+00  0.51116977478E+00  0.51100000000E-03 0.  1.
        -12    1    3    3    0    0  0.75646712491E+01 -0.59632815226E+01 -0.16028914528E+02  0.18700563590E+02  0.00000000000E+00 0.  1.
</event>
<event>
 7    1  0.4081218E-008  0.4614232E+02  0.7816164E-02  0.1320468E+00
        -11   -1    0    0    0    0  0.00000000000E+00  0.00000000000E+00  0.45593999997E+02  0.45594000000E+02  0.51100000000E-03 0. -1.
         11   -1    0    0    0    0 -0.00000000000E+00 -0.00000000000E+00 -0.45593999997E+02  0.45594000000E+02  0.51100000000E-03 0.  1.
    9900012    2    1    2    0    0 -0.61002612282E+01 -0.41428052328E+02 -0.16601709133E+02  0.46142318155E+02  0.10000003594E+02 0.  0.
        -12    1    1    2    0    0  0.61002612282E+01  0.41428052328E+02  0.16601709133E+02  0.45045681845E+02  0.00000000000E+00 0.  1.
         11    1    3    3    0    0 -0.30852917012E+01 -0.57493203096E+01 -0.33270912360E+01  0.73241549176E+01  0.51100000000E-03 0. -1.
        -11    1    3    3    0    0 -0.49615167064E+01 -0.18293618339E+02 -0.76841455670E+01  0.20452853428E+02  0.51100000000E-03 0.  1.
        -12    1    3    3    0    0  0.19465471795E+01 -0.17385113679E+02 -0.55904723300E+01  0.18365309810E+02  0.00000000000E+00 0.  1.
</event>
<event>
 7    1  0.4081218E-008  0.4614232E+02  0.7816164E-02  0.1320468E+00
        -11   -1    0    0    0    0  0.00000000000E+00  0.00000000000E+00  0.45593999997E+02  0.45594000000E+02  0.51100000000E-03 0.  1.
         11   -1    0    0    0    0 -0.00000000000E+00 -0.00000000000E+00 -0.45593999997E+02  0.45594000000E+02  0.51100000000E-03 0. -1.
    9900012    2    1    2    0    0 -0.23266907298E+02 -0.19640984486E+02 -0.33196323475E+02  0.46142321638E+02  0.10000035355E+02 0.  0.
        -12    1    1    2    0    0  0.23266907298E+02  0.19640984486E+02  0.33196323475E+02  0.45045678362E+02  0.00000000000E+00 0.  1.
         11    1    3    3    0    0 -0.73496304237E+01 -0.88869820916E+01 -0.12327032037E+02  0.16880498724E+02  0.51100000000E-03 0. -1.
        -11    1    3    3    0    0 -0.66865002370E+01 -0.88064218422E+01 -0.11909941870E+02  0.16251432758E+02  0.51100000000E-03 0.  1.
        -12    1    3    3    0    0 -0.92307766375E+01 -0.19475805527E+01 -0.89593495678E+01  0.13010390156E+02  0.00000000000E+00 0.  1.
</event>
<event>
 7    1  0.4081218E-008  0.4614232E+02  0.7816164E-02  0.1320468E+00
        -11   -1    0    0    0    0  0.00000000000E+00  0.00000000000E+00  0.45593999997E+02  0.45594000000E+02  0.51100000000E-03 0. -1.
         11   -1    0    0    0    0 -0.00000000000E+00 -0.00000000000E+00 -0.45593999997E+02  0.45594000000E+02  0.51100000000E-03 0.  1.
    9900012    2    1    2    0    0 -0.19248619487E+02  0.40440184774E+02 -0.48161813772E+01  0.46142317635E+02  0.99999988502E+01 0.  0.
        -12    1    1    2    0    0  0.19248619487E+02 -0.40440184774E+02  0.48161813772E+01  0.45045682365E+02  0.00000000000E+00 0.  1.
         11    1    3    3    0    0 -0.67360830426E+01  0.11961606698E+02 -0.10296448448E+01  0.13766445377E+02  0.51100000000E-03 0. -1.
        -11    1    3    3    0    0 -0.10035258798E+02  0.14794313785E+02 -0.45551203663E+01  0.18447960899E+02  0.51100000000E-03 0.  1.
        -12    1    3    3    0    0 -0.24772776457E+01  0.13684264291E+02  0.76858383386E+00  0.13927911359E+02  0.00000000000E+00 0.  1.
</event>
<event>
 7    1  0.4081218E-008  0.4614232E+02  0.7816164E-02  0.1320468E+00
        -11   -1    0    0    0    0  0.00000000000E+00  0.00000000000E+00  0.45593999997E+02  0.45594000000E+02  0.51100000000E-03 0.  1.
         11   -1    0    0    0    0 -0.00000000000E+00 -0.00000000000E+00 -0.45593999997E+02  0.45594000000E+02  0.51100000000E-03 0. -1.
    9900012    2    1    2    0    0 -0.26042595796E+01  0.29127108654E+01 -0.44875912064E+02  0.46142317231E+02  0.99999951656E+01 0.  0.
        -12    1    1    2    0    0  0.26042595796E+01 -0.29127108654E+01  0.44875912064E+02  0.45045682769E+02  0.00000000000E+00 0.  1.
         11    1    3    3    0    0 -0.96519199873E+00  0.14201403865E+01 -0.12564431436E+02  0.12681219653E+02  0.51100000000E-03 0. -1.
        -11    1    3    3    0    0  0.23200146885E+00 -0.24016372981E+01 -0.30824171822E+01  0.39144581157E+01  0.51100000000E-03 0.  1.
        -12    1    3    3    0    0 -0.18710690497E+01  0.38942077770E+01 -0.29229063446E+02  0.29546639462E+02  0.00000000000E+00 0.  1.
</event>
<event>
 7    1  0.4081218E-008  0.4614232E+02  0.7816164E-02  0.1320468E+00
        -11   -1    0    0    0    0  0.00000000000E+00  0.00000000000E+00  0.45593999997E+02  0.45594000000E+02  0.51100000000E-03 0. -1.
         11   -1    0    0    0    0 -0.00000000000E+00 -0.00000000000E+00 -0.45593999997E+02  0.45594000000E+02  0.51100000000E-03 0.  1.
    9900012    2    1    2    0    0 -0.29605528999E+02 -0.56983755525E+01  0.33468713357E+02  0.46142316466E+02  0.99999881933E+01 0.  0.
        -12    1    1    2    0    0  0.29605528999E+02  0.56983755525E+01 -0.33468713357E+02  0.45045683534E+02  0.00000000000E+00 0.  1.
         11    1    3    3    0    0 -0.14714287050E+02 -0.22390107702E+01  0.15680094949E+02  0.21619176452E+02  0.51100000000E-03 0. -1.
        -11    1    3    3    0    0 -0.61205653955E+01  0.21294877950E+01  0.68412475487E+01  0.94233066019E+01  0.51100000000E-03 0.  1.
        -12    1    3    3    0    0 -0.87706765536E+01 -0.55888525773E+01  0.10947370860E+02  0.15099833412E+02  0.00000000000E+00 0.  1.
</event>
<event>
 7    1  0.4081218E-008  0.4614232E+02  0.7816164E-02  0.1320468E+00
        -11   -1    0    0    0    0  0.00000000000E+00  0.00000000000E+00  0.45593999997E+02  0.45594000000E+02  0.51100000000E-03 0. -1.
         11   -1    0    0    0    0 -0.00000000000E+00 -0.00000000000E+00 -0.45593999997E+02  0.45594000000E+02  0.51100000000E-03 0.  1.
    9900012    2    1    2    0    0 -0.10279024911E+02 -0.36995383355E+02  0.23554124599E+02  0.46142317318E+02  0.99999959572E+01 0.  0.
        -12    1    1    2    0    0  0.10279024911E+02  0.36995383355E+02 -0.23554124599E+02  0.45045682682E+02  0.00000000000E+00 0.  1.
         11    1    3    3    0    0  0.11570482438E+01 -0.96571464725E+01  0.70874182772E+01  0.12034564252E+02  0.51100000000E-03 0. -1.
        -11    1    3    3    0    0 -0.59453731965E-01  0.46273995000E-01 -0.11151648725E+00  0.13458163659E+00  0.51100000000E-03 0.  1.
         12    1    3    3    0    0 -0.11376619423E+02 -0.27384510877E+02  0.16578222809E+02  0.33973171429E+02  0.00000000000E+00 0. -1.
</event>
<event>
 7    1  0.4081218E-008  0.4614232E+02  0.7816164E-02  0.1320468E+00
        -11   -1    0    0    0    0  0.00000000000E+00  0.00000000000E+00  0.45593999997E+02  0.45594000000E+02  0.51100000000E-03 0. -1.
         11   -1    0    0    0    0 -0.00000000000E+00 -0.00000000000E+00 -0.45593999997E+02  0.45594000000E+02  0.51100000000E-03 0.  1.
    9900012    2    1    2    0    0 -0.43686901129E+02  0.10754685421E+02  0.22147016200E+01  0.46142317721E+02  0.99999996317E+01 0.  0.
        -12    1    1    2    0    0  0.43686901129E+02 -0.10754685421E+02 -0.22147016200E+01  0.45045682279E+02  0.00000000000E+00 0.  1.
         11    1    3    3    0    0 -0.19539684364E+02  0.46992784304E+01  0.19048128109E+01  0.20186896614E+02  0.51100000000E-03 0. -1.
        -11    1    3    3    0    0 -0.25275569424E+01  0.72140468747E+00  0.24392091847E+01  0.35859044226E+01  0.51100000000E-03 0.  1.
         12    1    3    3    0    0 -0.21619659823E+02  0.53340023036E+01 -0.21293203757E+01  0.22369516684E+02  0.00000000000E+00 0. -1.
</event>
<event>
 7    1  0.4081218E-008  0.4614232E+02  0.7816164E-02  0.1320468E+00
        -11   -1    0    0    0    0  0.00000000000E+00  0.00000000000E+00  0.45593999997E+02  0.45594000000E+02  0.51100000000E-03 0. -1.
         11   -1    0    0    0    0 -0.00000000000E+00 -0.00000000000E+00 -0.45593999997E+02  0.45594000000E+02  0.51100000000E-03 0.  1.
    9900012    2    1    2    0    0  0.14017025933E+02  0.22722756145E+02  0.36281028394E+02  0.46142315587E+02  0.99999801789E+01 0.  0.
        -12    1    1    2    0    0 -0.14017025933E+02 -0.22722756145E+02 -0.36281028394E+02  0.45045684413E+02  0.00000000000E+00 0.  1.
         11    1    3    3    0    0  0.50715063564E+01  0.85746944547E+01  0.19123120343E+02  0.21562451012E+02  0.51100000000E-03 0. -1.
        -11    1    3    3    0    0  0.13817082129E+01  0.12829812986E+00  0.36845732840E+00  0.14357364172E+01  0.51100000000E-03 0.  1.
         12    1    3    3    0    0  0.75638113641E+01  0.14019763560E+02  0.16789450723E+02  0.23144128158E+02  0.00000000000E+00 0. -1.
</event>
<event>
 7    1  0.4081218E-008  0.4614232E+02  0.7816164E-02  0.1320468E+00
        -11   -1    0    0    0    0  0.00000000000E+00  0.00000000000E+00  0.45593999997E+02  0.45594000000E+02  0.51100000000E-03 0. -1.
         11   -1    0    0    0    0 -0.00000000000E+00 -0.00000000000E+00 -0.45593999997E+02  0.45594000000E+02  0.51100000000E-03 0.  1.
    9900012    2    1    2    0    0  0.36252473653E+02  0.10141852886E+02 -0.24738927054E+02  0.46142317214E+02  0.99999950089E+01 0.  0.
        -12    1    1    2    0    0 -0.36252473653E+02 -0.10141852886E+02  0.24738927054E+02  0.45045682786E+02  0.00000000000E+00 0.  1.
         11    1    3    3    0    0  0.69042746165E+01  0.49082638420E+01 -0.82158952887E+01  0.11800889694E+02  0.51100000000E-03 0. -1.
        -11    1    3    3    0    0  0.11637862353E+02  0.25500927043E+01 -0.43462154456E+01  0.12681971531E+02  0.51100000000E-03 0.  1.
         12    1    3    3    0    0  0.17710336683E+02  0.26834963396E+01 -0.12176816320E+02  0.21659455988E+02  0.00000000000E+00 0. -1.
</event>
<event>
 7    1  0.4081218E-008  0.4614232E+02  0.7816164E-02  0.1320468E+00
        -11   -1    0    0    0    0  0.00000000000E+00  0.00000000000E+00  0.45593999997E+02  0.45594000000E+02  0.51100000000E-03 0.  1.
         11   -1    0    0    0    0 -0.00000000000E+00 -0.00000000000E+00 -0.45593999997E+02  0.45594000000E+02  0.51100000000E-03 0. -1.
    9900012    2    1    2    0    0  0.86112753682E+01  0.82978384409E+01 -0.43429312232E+02  0.46142319328E+02  0.10000014291E+02 0.  0.
        -12    1    1    2    0    0 -0.86112753682E+01 -0.82978384409E+01  0.43429312232E+02  0.45045680672E+02  0.00000000000E+00 0.  1.
         11    1    3    3    0    0  0.65743514024E+01  0.65539501913E+01 -0.20351168424E+02  0.22368424530E+02  0.51100000000E-03 0.  1.
        -11    1    3    3    0    0  0.73926523109E+00  0.27036286561E+01 -0.60307719834E+01  0.66502881117E+01  0.51100000000E-03 0. -1.
        -12    1    3    3    0    0  0.12976587346E+01 -0.95974040651E+00 -0.17047371824E+02  0.17123606687E+02  0.00000000000E+00 0.  1.
</event>
<event>
 7    1  0.4081218E-008  0.4614232E+02  0.7816164E-02  0.1320468E+00
        -11   -1    0    0    0    0  0.00000000000E+00  0.00000000000E+00  0.45593999997E+02  0.45594000000E+02  0.51100000000E-03 0. -1.
         11   -1    0    0    0    0 -0.00000000000E+00 -0.00000000000E+00 -0.45593999997E+02  0.45594000000E+02  0.51100000000E-03 0.  1.
    9900012    2    1    2    0    0  0.26771688977E+02  0.35504172320E+02  0.72002723814E+01  0.46142317575E+02  0.99999983019E+01 0.  0.
        -12    1    1    2    0    0 -0.26771688977E+02 -0.35504172320E+02 -0.72002723814E+01  0.45045682425E+02  0.00000000000E+00 0.  1.
         11    1    3    3    0    0 -0.16425330492E+00  0.65831783103E+00  0.28658463784E+00  0.73654092256E+00  0.51100000000E-03 0. -1.
        -11    1    3    3    0    0  0.27084768743E+01  0.88137909723E+01  0.26211833305E+01  0.95858938339E+01  0.51100000000E-03 0.  1.
         12    1    3    3    0    0  0.24227465407E+02  0.26032063516E+02  0.42925044130E+01  0.35819882818E+02  0.00000000000E+00 0. -1.
</event>
<event>
 7    1  0.4081218E-008  0.4614232E+02  0.7816164E-02  0.1320468E+00
        -11   -1    0    0    0    0  0.00000000000E+00  0.00000000000E+00  0.45593999997E+02  0.45594000000E+02  0.51100000000E-03 0. -1.
         11   -1    0    0    0    0 -0.00000000000E+00 -0.00000000000E+00 -0.45593999997E+02  0.45594000000E+02  0.51100000000E-03 0.  1.
    9900012    2    1    2    0    0  0.41409826436E+02  0.16564319653E+02  0.63216357538E+01  0.46142317747E+02  0.99999998755E+01 0.  0.
        -12    1    1    2    0    0 -0.41409826436E+02 -0.16564319653E+02 -0.63216357538E+01  0.45045682253E+02  0.00000000000E+00 0.  1.
         11    1    3    3    0    0  0.13216752377E+02  0.69036390856E+01  0.13720722933E+01  0.14974156359E+02  0.51100000000E-03 0. -1.
        -11    1    3    3    0    0  0.11407582644E+02  0.14503970682E+01 -0.10386552404E+01  0.11546228753E+02  0.51100000000E-03 0.  1.
        -12    1    3    3    0    0  0.16785491415E+02  0.82102834991E+01  0.59882187010E+01  0.19621932636E+02  0.00000000000E+00 0.  1.
</event>
<event>
 7    1  0.4081218E-008  0.4614232E+02  0.7816164E-02  0.1320468E+00
        -11   -1    0    0    0    0  0.00000000000E+00  0.00000000000E+00  0.45593999997E+02  0.45594000000E+02  0.51100000000E-03 0.  1.
         11   -1    0    0    0    0 -0.00000000000E+00 -0.00000000000E+00 -0.45593999997E+02  0.45594000000E+02  0.51100000000E-03 0. -1.
    9900012    2    1    2    0    0 -0.41845642564E+02 -0.95580002097E+01 -0.13663833337E+02  0.46142317509E+02  0.99999977010E+01 0.  0.
        -12    1    1    2    0    0  0.41845642564E+02  0.95580002097E+01  0.13663833337E+02  0.45045682491E+02  0.00000000000E+00 0.  1.
         11    1    3    3    0    0 -0.10907579067E+02 -0.46789978762E+01 -0.40402356381E+01  0.12537615663E+02  0.51100000000E-03 0. -1.
        -11    1    3    3    0    0 -0.21795267796E+02 -0.38724759628E+01 -0.31560635471E+01  0.22360467476E+02  0.51100000000E-03 0.  1.
         12    1    3    3    0    0 -0.91427957013E+01 -0.10065263707E+01 -0.64675341518E+01  0.11244234370E+02  0.00000000000E+00 0. -1.
</event>
<event>
 7    1  0.4081218E-008  0.4614232E+02  0.7816164E-02  0.1320468E+00
        -11   -1    0    0    0    0  0.00000000000E+00  0.00000000000E+00  0.45593999997E+02  0.45594000000E+02  0.51100000000E-03 0.  1.
         11   -1    0    0    0    0 -0.00000000000E+00 -0.00000000000E+00 -0.45593999997E+02  0.45594000000E+02  0.51100000000E-03 0. -1.
    9900012    2    1    2    0    0  0.44191711199E+02  0.80477627465E+01 -0.33822898431E+01  0.46142315318E+02  0.99999777175E+01 0.  0.
        -12    1    1    2    0    0 -0.44191711199E+02 -0.80477627465E+01  0.33822898431E+01  0.45045684682E+02  0.00000000000E+00 0.  1.
         11    1    3    3    0    0  0.31258053614E+01 -0.78120036128E+00 -0.35104761691E+00  0.32410133990E+01  0.51100000000E-03 0. -1.
        -11    1    3    3    0    0  0.10968206494E+02  0.60319063308E+01  0.47810004540E-01  0.12517497103E+02  0.51100000000E-03 0.  1.
        -12    1    3    3    0    0  0.30097699344E+02  0.27970567770E+01 -0.30790522307E+01  0.30383804815E+02  0.00000000000E+00 0.  1.
</event>
<event>
 7    1  0.4081218E-008  0.4614232E+02  0.7816164E-02  0.1320468E+00
        -11   -1    0    0    0    0  0.00000000000E+00  0.00000000000E+00  0.45593999997E+02  0.45594000000E+02  0.51100000000E-03 0.  1.
         11   -1    0    0    0    0 -0.00000000000E+00 -0.00000000000E+00 -0.45593999997E+02  0.45594000000E+02  0.51100000000E-03 0. -1.
    9900012    2    1    2    0    0 -0.25911598607E+02  0.13207141480E+02 -0.34398749555E+02  0.46142317639E+02  0.99999988852E+01 0.  0.
        -12    1    1    2    0    0  0.25911598607E+02 -0.13207141480E+02  0.34398749555E+02  0.45045682361E+02  0.00000000000E+00 0.  1.
         11    1    3    3    0    0 -0.34164978950E+01  0.42985067463E+01 -0.48263339138E+01  0.73104799721E+01  0.51100000000E-03 0. -1.
        -11    1    3    3    0    0 -0.14067064516E+02  0.24024513630E+01 -0.14196872933E+02  0.20129711324E+02  0.51100000000E-03 0.  1.
         12    1    3    3    0    0 -0.84280361963E+01  0.65061833703E+01 -0.15375542708E+02  0.18702126343E+02  0.00000000000E+00 0. -1.
</event>
<event>
 7    1  0.4081218E-008  0.4614232E+02  0.7816164E-02  0.1320468E+00
        -11   -1    0    0    0    0  0.00000000000E+00  0.00000000000E+00  0.45593999997E+02  0.45594000000E+02  0.51100000000E-03 0. -1.
         11   -1    0    0    0    0 -0.00000000000E+00 -0.00000000000E+00 -0.45593999997E+02  0.45594000000E+02  0.51100000000E-03 0.  1.
    9900012    2    1    2    0    0  0.35592042476E+02 -0.11720353150E+02  0.24999063070E+02  0.46142319631E+02  0.10000017050E+02 0.  0.
        -12    1    1    2    0    0 -0.35592042476E+02  0.11720353150E+02 -0.24999063070E+02  0.45045680369E+02  0.00000000000E+00 0.  1.
         11    1    3    3    0    0  0.42378797947E+01 -0.37887069818E+00  0.51008895223E+01  0.66424575527E+01  0.51100000000E-03 0. -1.
        -11    1    3    3    0    0  0.68152318748E+01  0.57956069004E+00  0.40915076283E+01  0.79701763490E+01  0.51100000000E-03 0.  1.
         12    1    3    3    0    0  0.24538930806E+02 -0.11921043141E+02  0.15806665919E+02  0.31529685729E+02  0.00000000000E+00 0. -1.
</event>
<event>
 7    1  0.4081218E-008  0.4614232E+02  0.7816164E-02  0.1320468E+00
        -11   -1    0    0    0    0  0.00000000000E+00  0.00000000000E+00  0.45593999997E+02  0.45594000000E+02  0.51100000000E-03 0. -1.
         11   -1    0    0    0    0 -0.00000000000E+00 -0.00000000000E+00 -0.45593999997E+02  0.45594000000E+02  0.51100000000E-03 0.  1.
    9900012    2    1    2    0    0 -0.15479072926E+02 -0.38860770931E+02  0.16713834576E+02  0.46142317829E+02  0.10000000623E+02 0.  0.
        -12    1    1    2    0    0  0.15479072926E+02  0.38860770931E+02 -0.16713834576E+02  0.45045682171E+02  0.00000000000E+00 0.  1.
         11    1    3    3    0    0  0.90062761376E+00 -0.17644578809E+01  0.58010926740E+00  0.20642114076E+01  0.51100000000E-03 0. -1.
        -11    1    3    3    0    0 -0.11771190270E+02 -0.20197718197E+02  0.10924715064E+02  0.25804227178E+02  0.51100000000E-03 0.  1.
         12    1    3    3    0    0 -0.46085102696E+01 -0.16898594853E+02  0.52090102444E+01  0.18273879244E+02  0.00000000000E+00 0. -1.
</event>
<event>
 7    1  0.4081218E-008  0.4614231E+02  0.7816164E-02  0.1320468E+00
        -11   -1    0    0    0    0  0.00000000000E+00  0.00000000000E+00  0.45593999997E+02  0.45594000000E+02  0.51100000000E-03 0.  1.
         11   -1    0    0    0    0 -0.00000000000E+00 -0.00000000000E+00 -0.45593999997E+02  0.45594000000E+02  0.51100000000E-03 0. -1.
    9900012    2    1    2    0    0 -0.12729435396E+02 -0.29233581370E+02 -0.31819389136E+02  0.46142308417E+02  0.99999147937E+01 0.  0.
        -12    1    1    2    0    0  0.12729435396E+02  0.29233581370E+02  0.31819389136E+02  0.45045691583E+02  0.00000000000E+00 0.  1.
         11    1    3    3    0    0 -0.59318579534E+01 -0.18452091772E+02 -0.16867757559E+02  0.25694121407E+02  0.51100000000E-03 0. -1.
        -11    1    3    3    0    0 -0.44228043376E+01 -0.20037636030E+01 -0.51460113910E+01  0.70751466616E+01  0.51100000000E-03 0.  1.
        -12    1    3    3    0    0 -0.23747731055E+01 -0.87777259943E+01 -0.98056201857E+01  0.13373040348E+02  0.00000000000E+00 0.  1.
</event>
<event>
 7    1  0.4081218E-008  0.4614232E+02  0.7816164E-02  0.1320468E+00
        -11   -1    0    0    0    0  0.00000000000E+00  0.00000000000E+00  0.45593999997E+02  0.45594000000E+02  0.51100000000E-03 0.  1.
         11   -1    0    0    0    0 -0.00000000000E+00 -0.00000000000E+00 -0.45593999997E+02  0.45594000000E+02  0.51100000000E-03 0. -1.
    9900012    2    1    2    0    0 -0.10922809748E+00 -0.21953260023E+01 -0.44992023443E+02  0.46142316960E+02  0.99999926933E+01 0.  0.
        -12    1    1    2    0    0  0.10922809748E+00  0.21953260023E+01  0.44992023443E+02  0.45045683040E+02  0.00000000000E+00 0.  1.
         11    1    3    3    0    0 -0.44613918587E+00  0.14301744472E+01 -0.12816932327E+02  0.12904192871E+02  0.51100000000E-03 0. -1.
        -11    1    3    3    0    0  0.30439122711E+01 -0.14529843597E+01 -0.25426507288E+02  0.25649246356E+02  0.51100000000E-03 0.  1.
         12    1    3    3    0    0 -0.27070011827E+01 -0.21725160899E+01 -0.67485838282E+01  0.75888777333E+01  0.00000000000E+00 0. -1.
</event>
<event>
 7    1  0.4081218E-008  0.4614232E+02  0.7816164E-02  0.1320468E+00
        -11   -1    0    0    0    0  0.00000000000E+00  0.00000000000E+00  0.45593999997E+02  0.45594000000E+02  0.51100000000E-03 0.  1.
         11   -1    0    0    0    0 -0.00000000000E+00 -0.00000000000E+00 -0.45593999997E+02  0.45594000000E+02  0.51100000000E-03 0. -1.
    9900012    2    1    2    0    0  0.33710875239E+02 -0.20534660916E+02 -0.21702953373E+02  0.46142316595E+02  0.99999893648E+01 0.  0.
        -12    1    1    2    0    0 -0.33710875239E+02  0.20534660916E+02  0.21702953373E+02  0.45045683405E+02  0.00000000000E+00 0.  1.
         11    1    3    3    0    0  0.31095592745E+01 -0.11558747206E+01  0.32471279284E-01  0.33175985135E+01  0.51100000000E-03 0. -1.
        -11    1    3    3    0    0  0.15900820579E+02 -0.59421975475E+01 -0.95560448131E+01  0.19479830582E+02  0.51100000000E-03 0.  1.
         12    1    3    3    0    0  0.14700495385E+02 -0.13436588648E+02 -0.12179379839E+02  0.23344887499E+02  0.00000000000E+00 0. -1.
</event>
<event>
 7    1  0.4081218E-008  0.4614232E+02  0.7816164E-02  0.1320468E+00
        -11   -1    0    0    0    0  0.00000000000E+00  0.00000000000E+00  0.45593999997E+02  0.45594000000E+02  0.51100000000E-03 0.  1.
         11   -1    0    0    0    0 -0.00000000000E+00 -0.00000000000E+00 -0.45593999997E+02  0.45594000000E+02  0.51100000000E-03 0. -1.
    9900012    2    1    2    0    0 -0.27240708900E+02 -0.17967332853E+02 -0.31052090139E+02  0.46142316819E+02  0.99999914118E+01 0.  0.
        -12    1    1    2    0    0  0.27240708900E+02  0.17967332853E+02  0.31052090139E+02  0.45045683181E+02  0.00000000000E+00 0.  1.
         11    1    3    3    0    0 -0.12996824344E+02 -0.61777514854E+01 -0.17361783733E+02  0.22550245921E+02  0.51100000000E-03 0. -1.
        -11    1    3    3    0    0 -0.81224868492E+01 -0.41279454794E+01 -0.45413630221E+01  0.10180309664E+02  0.51100000000E-03 0.  1.
         12    1    3    3    0    0 -0.61213977071E+01 -0.76616358879E+01 -0.91489433839E+01  0.13411761234E+02  0.00000000000E+00 0. -1.
</event>
<event>
 7    1  0.4081218E-008  0.4614232E+02  0.7816164E-02  0.1320468E+00
        -11   -1    0    0    0    0  0.00000000000E+00  0.00000000000E+00  0.45593999997E+02  0.45594000000E+02  0.51100000000E-03 0.  1.
         11   -1    0    0    0    0 -0.00000000000E+00 -0.00000000000E+00 -0.45593999997E+02  0.45594000000E+02  0.51100000000E-03 0. -1.
    9900012    2    1    2    0    0 -0.13277389557E+02  0.35931838597E+02 -0.23700785591E+02  0.46142319452E+02  0.10000015419E+02 0.  0.
        -12    1    1    2    0    0  0.13277389557E+02 -0.35931838597E+02  0.23700785591E+02  0.45045680548E+02  0.00000000000E+00 0.  1.
         11    1    3    3    0    0 -0.74031397635E+01  0.78147934574E+01 -0.50972014466E+01  0.11910454987E+02  0.51100000000E-03 0. -1.
        -11    1    3    3    0    0 -0.11565925968E+01  0.62898930621E+01 -0.37892769801E+01  0.74336452337E+01  0.51100000000E-03 0.  1.
         12    1    3    3    0    0 -0.47176571968E+01  0.21827152077E+02 -0.14814307165E+02  0.26798219232E+02  0.00000000000E+00 0. -1.
</event>
<event>
 7    1  0.4081218E-008  0.4614232E+02  0.7816164E-02  0.1320468E+00
        -11   -1    0    0    0    0  0.00000000000E+00  0.00000000000E+00  0.45593999997E+02  0.45594000000E+02  0.51100000000E-03 0. -1.
         11   -1    0    0    0    0 -0.00000000000E+00 -0.00000000000E+00 -0.45593999997E+02  0.45594000000E+02  0.51100000000E-03 0.  1.
    9900012    2    1    2    0    0 -0.16068122900E+02 -0.37927161369E+02  0.18233467121E+02  0.46142318006E+02  0.10000002234E+02 0.  0.
        -12    1    1    2    0    0  0.16068122900E+02  0.37927161369E+02 -0.18233467121E+02  0.45045681994E+02  0.00000000000E+00 0.  1.
         11    1    3    3    0    0 -0.72020176194E+01 -0.14560659121E+02  0.80458083395E+01  0.18127793134E+02  0.51100000000E-03 0. -1.
        -11    1    3    3    0    0 -0.10129577728E+01 -0.39579177204E+01 -0.10965825964E+01  0.42300933539E+01  0.51100000000E-03 0.  1.
        -12    1    3    3    0    0 -0.78531475075E+01 -0.19408584528E+02  0.11284241378E+02  0.23784431518E+02  0.00000000000E+00 0.  1.
</event>
<event>
 7    1  0.4081218E-008  0.4614232E+02  0.7816164E-02  0.1320468E+00
        -11   -1    0    0    0    0  0.00000000000E+00  0.00000000000E+00  0.45593999997E+02  0.45594000000E+02  0.51100000000E-03 0.  1.
         11   -1    0    0    0    0 -0.00000000000E+00 -0.00000000000E+00 -0.45593999997E+02  0.45594000000E+02  0.51100000000E-03 0. -1.
    9900012    2    1    2    0    0  0.26677420968E+01  0.36227070392E+02 -0.26638245440E+02  0.46142316553E+02  0.99999889856E+01 0.  0.
        -12    1    1    2    0    0 -0.26677420968E+01 -0.36227070392E+02  0.26638245440E+02  0.45045683447E+02  0.00000000000E+00 0.  1.
         11    1    3    3    0    0  0.52087815316E+01  0.25143425170E+02 -0.16525247401E+02  0.30535340774E+02  0.51100000000E-03 0. -1.
        -11    1    3    3    0    0 -0.28785484518E+01  0.89246799287E+01 -0.65903912858E+01  0.11461640833E+02  0.51100000000E-03 0.  1.
        -12    1    3    3    0    0  0.33750901698E+00  0.21589652938E+01 -0.35226067532E+01  0.41453349460E+01  0.00000000000E+00 0.  1.
</event>
<event>
 7    1  0.4081218E-008  0.4614233E+02  0.7816164E-02  0.1320468E+00
        -11   -1    0    0    0    0  0.00000000000E+00  0.00000000000E+00  0.45593999997E+02  0.45594000000E+02  0.51100000000E-03 0.  1.
         11   -1    0    0    0    0 -0.00000000000E+00 -0.00000000000E+00 -0.45593999997E+02  0.45594000000E+02  0.51100000000E-03 0. -1.
    9900012    2    1    2    0    0 -0.14670481863E+00  0.18322842963E+02 -0.41150512719E+02  0.46142325473E+02  0.10000070326E+02 0.  0.
        -12    1    1    2    0    0  0.14670481863E+00 -0.18322842963E+02  0.41150512719E+02  0.45045674527E+02  0.00000000000E+00 0.  1.
         11    1    3    3    0    0  0.15181620069E+01  0.68168235770E+01 -0.12679203111E+02  0.14475361528E+02  0.51100000000E-03 0. -1.
        -11    1    3    3    0    0  0.21328466901E-01  0.10137990214E+01  0.24859383595E+00  0.10440510121E+01  0.51100000000E-03 0.  1.
        -12    1    3    3    0    0 -0.16861952925E+01  0.10492220364E+02 -0.28719903444E+02  0.30622912934E+02  0.00000000000E+00 0.  1.
</event>
<event>
 7    1  0.4081218E-008  0.4614232E+02  0.7816164E-02  0.1320468E+00
        -11   -1    0    0    0    0  0.00000000000E+00  0.00000000000E+00  0.45593999997E+02  0.45594000000E+02  0.51100000000E-03 0. -1.
         11   -1    0    0    0    0 -0.00000000000E+00 -0.00000000000E+00 -0.45593999997E+02  0.45594000000E+02  0.51100000000E-03 0.  1.
    9900012    2    1    2    0    0 -0.36064092458E+02  0.55103076527E+01  0.26422173444E+02  0.46142317579E+02  0.99999983391E+01 0.  0.
        -12    1    1    2    0    0  0.36064092458E+02 -0.55103076527E+01 -0.26422173444E+02  0.45045682421E+02  0.00000000000E+00 0.  1.
         11    1    3    3    0    0 -0.17072128732E+02  0.10423159469E+01  0.10804425227E+02  0.20230660067E+02  0.51100000000E-03 0. -1.
        -11    1    3    3    0    0 -0.38727424462E+01  0.81093305821E+00  0.72230842974E+01  0.82358177195E+01  0.51100000000E-03 0.  1.
        -12    1    3    3    0    0 -0.15119221280E+02  0.36570586476E+01  0.83946639199E+01  0.17675839793E+02  0.00000000000E+00 0.  1.
</event>
<event>
 7    1  0.4081218E-008  0.4614232E+02  0.7816164E-02  0.1320468E+00
        -11   -1    0    0    0    0  0.00000000000E+00  0.00000000000E+00  0.45593999997E+02  0.45594000000E+02  0.51100000000E-03 0.  1.
         11   -1    0    0    0    0 -0.00000000000E+00 -0.00000000000E+00 -0.45593999997E+02  0.45594000000E+02  0.51100000000E-03 0. -1.
    9900012    2    1    2    0    0 -0.30886665101E+02 -0.29401030150E+02 -0.14515747181E+02  0.46142316842E+02  0.99999916155E+01 0.  0.
        -12    1    1    2    0    0  0.30886665101E+02  0.29401030150E+02  0.14515747181E+02  0.45045683158E+02  0.00000000000E+00 0.  1.
         11    1    3    3    0    0 -0.25271876174E+02 -0.23152801192E+02 -0.15031612777E+02  0.37425516848E+02  0.51100000000E-03 0. -1.
        -11    1    3    3    0    0 -0.23785397217E+01 -0.16970941361E+01 -0.69307117284E+00  0.30029864513E+01  0.51100000000E-03 0.  1.
        -12    1    3    3    0    0 -0.32362492051E+01 -0.45511348220E+01  0.12089367683E+01  0.57138135423E+01  0.00000000000E+00 0.  1.
</event>
<event>
 7    1  0.4081218E-008  0.4614232E+02  0.7816164E-02  0.1320468E+00
        -11   -1    0    0    0    0  0.00000000000E+00  0.00000000000E+00  0.45593999997E+02  0.45594000000E+02  0.51100000000E-03 0. -1.
         11   -1    0    0    0    0 -0.00000000000E+00 -0.00000000000E+00 -0.45593999997E+02  0.45594000000E+02  0.51100000000E-03 0.  1.
    9900012    2    1    2    0    0 -0.36847850663E+02 -0.17017393271E+02  0.19538618022E+02  0.46142319114E+02  0.10000012340E+02 0.  0.
        -12    1    1    2    0    0  0.36847850663E+02  0.17017393271E+02 -0.19538618022E+02  0.45045680886E+02  0.00000000000E+00 0.  1.
         11    1    3    3    0    0 -0.12722836517E+02 -0.58012608684E+01  0.96688478214E+01  0.17000347501E+02  0.51100000000E-03 0. -1.
        -11    1    3    3    0    0 -0.19068932495E+02 -0.65190696249E+01  0.93654642293E+01  0.22222384565E+02  0.51100000000E-03 0.  1.
        -12    1    3    3    0    0 -0.50560816517E+01 -0.46970627778E+01  0.50430597110E+00  0.69195870483E+01  0.00000000000E+00 0.  1.
</event>
<event>
 7    1  0.4081218E-008  0.4614232E+02  0.7816164E-02  0.1320468E+00
        -11   -1    0    0    0    0  0.00000000000E+00  0.00000000000E+00  0.45593999997E+02  0.45594000000E+02  0.51100000000E-03 0.  1.
         11   -1    0    0    0    0 -0.00000000000E+00 -0.00000000000E+00 -0.45593999997E+02  0.45594000000E+02  0.51100000000E-03 0. -1.
    9900012    2    1    2    0    0 -0.71371630381E+01 -0.41670399014E+02  0.15548384248E+02  0.46142317599E+02  0.99999985238E+01 0.  0.
        -12    1    1    2    0    0  0.71371630381E+01  0.41670399014E+02 -0.15548384248E+02  0.45045682401E+02  0.00000000000E+00 0.  1.
         11    1    3    3    0    0 -0.71936928856E+01 -0.17679841762E+02  0.84376801089E+01  0.20869127149E+02  0.51100000000E-03 0. -1.
        -11    1    3    3    0    0  0.51773118025E+00 -0.10715850958E+01 -0.21109693053E+00  0.12086779421E+01  0.51100000000E-03 0.  1.
         12    1    3    3    0    0 -0.46120133275E+00 -0.22918972156E+02  0.73218010692E+01  0.24064512508E+02  0.00000000000E+00 0. -1.
</event>
<event>
 7    1  0.4081218E-008  0.4614232E+02  0.7816164E-02  0.1320468E+00
        -11   -1    0    0    0    0  0.00000000000E+00  0.00000000000E+00  0.45593999997E+02  0.45594000000E+02  0.51100000000E-03 0.  1.
         11   -1    0    0    0    0 -0.00000000000E+00 -0.00000000000E+00 -0.45593999997E+02  0.45594000000E+02  0.51100000000E-03 0. -1.
    9900012    2    1    2    0    0  0.42085871553E+02  0.49947599643E+01 -0.15262547517E+02  0.46142316875E+02  0.99999919241E+01 0.  0.
        -12    1    1    2    0    0 -0.42085871553E+02 -0.49947599643E+01  0.15262547517E+02  0.45045683125E+02  0.00000000000E+00 0.  1.
         11    1    3    3    0    0  0.15207327412E+02  0.40619305167E+01 -0.37755551287E+01  0.16186936193E+02  0.51100000000E-03 0. -1.
        -11    1    3    3    0    0  0.87362493568E+01  0.28334512759E+01 -0.57378112227E+01  0.10829264834E+02  0.51100000000E-03 0.  1.
         12    1    3    3    0    0  0.18142294784E+02 -0.19006218283E+01 -0.57491811651E+01  0.19126115848E+02  0.00000000000E+00 0. -1.
</event>
<event>
 7    1  0.4081218E-008  0.4614232E+02  0.7816164E-02  0.1320468E+00
        -11   -1    0    0    0    0  0.00000000000E+00  0.00000000000E+00  0.45593999997E+02  0.45594000000E+02  0.51100000000E-03 0.  1.
         11   -1    0    0    0    0 -0.00000000000E+00 -0.00000000000E+00 -0.45593999997E+02  0.45594000000E+02  0.51100000000E-03 0. -1.
    9900012    2    1    2    0    0  0.13025828748E+02  0.31283007867E+01 -0.43007613597E+02  0.46142319767E+02  0.10000018290E+02 0.  0.
        -12    1    1    2    0    0 -0.13025828748E+02 -0.31283007867E+01  0.43007613597E+02  0.45045680233E+02  0.00000000000E+00 0.  1.
         11    1    3    3    0    0  0.96175710084E+01  0.95078167002E+00 -0.34082357708E+02  0.35426102877E+02  0.51100000000E-03 0. -1.
        -11    1    3    3    0    0 -0.29884421485E+00  0.15720922771E+01 -0.51408551845E+01  0.53841595706E+01  0.51100000000E-03 0.  1.
         12    1    3    3    0    0  0.37071019548E+01  0.60542683955E+00 -0.37844007042E+01  0.53320573189E+01  0.00000000000E+00 0. -1.
</event>
<event>
 7    1  0.4081218E-008  0.4614232E+02  0.7816164E-02  0.1320468E+00
        -11   -1    0    0    0    0  0.00000000000E+00  0.00000000000E+00  0.45593999997E+02  0.45594000000E+02  0.51100000000E-03 0.  1.
         11   -1    0    0    0    0 -0.00000000000E+00 -0.00000000000E+00 -0.45593999997E+02  0.45594000000E+02  0.51100000000E-03 0. -1.
    9900012    2    1    2    0    0 -0.24286684028E+02  0.11155094464E+02 -0.36260646967E+02  0.46142315722E+02  0.99999814055E+01 0.  0.
        -12    1    1    2    0    0  0.24286684028E+02 -0.11155094464E+02  0.36260646967E+02  0.45045684278E+02  0.00000000000E+00 0.  1.
         11    1    3    3    0    0 -0.13936793132E+02  0.61200029114E+01 -0.13112598770E+02  0.20090517295E+02  0.51100000000E-03 0. -1.
        -11    1    3    3    0    0 -0.17035125024E+01  0.19412631767E+01 -0.33708161301E+01  0.42465114166E+01  0.51100000000E-03 0.  1.
        -12    1    3    3    0    0 -0.86463783940E+01  0.30938283764E+01 -0.19777232067E+02  0.21805287010E+02  0.00000000000E+00 0.  1.
</event>
<event>
 7    1  0.4081218E-008  0.4614232E+02  0.7816164E-02  0.1320468E+00
        -11   -1    0    0    0    0  0.00000000000E+00  0.00000000000E+00  0.45593999997E+02  0.45594000000E+02  0.51100000000E-03 0. -1.
         11   -1    0    0    0    0 -0.00000000000E+00 -0.00000000000E+00 -0.45593999997E+02  0.45594000000E+02  0.51100000000E-03 0.  1.
    9900012    2    1    2    0    0  0.63755180380E+01 -0.28357134806E+02  0.34414230273E+02  0.46142316856E+02  0.99999917420E+01 0.  0.
        -12    1    1    2    0    0 -0.63755180380E+01  0.28357134806E+02 -0.34414230273E+02  0.45045683144E+02  0.00000000000E+00 0.  1.
         11    1    3    3    0    0  0.67913770449E+01 -0.21476527041E+02  0.23349501440E+02  0.32443230938E+02  0.51100000000E-03 0.  1.
        -11    1    3    3    0    0  0.79444033746E+00 -0.53398672197E+01  0.10234664892E+02  0.11571243800E+02  0.51100000000E-03 0. -1.
        -12    1    3    3    0    0 -0.12102993445E+01 -0.15407405452E+01  0.83006394108E+00  0.21278421175E+01  0.00000000000E+00 0.  1.
</event>
<event>
 7    1  0.4081218E-008  0.4614232E+02  0.7816164E-02  0.1320468E+00
        -11   -1    0    0    0    0  0.00000000000E+00  0.00000000000E+00  0.45593999997E+02  0.45594000000E+02  0.51100000000E-03 0.  1.
         11   -1    0    0    0    0 -0.00000000000E+00 -0.00000000000E+00 -0.45593999997E+02  0.45594000000E+02  0.51100000000E-03 0. -1.
    9900012    2    1    2    0    0  0.44205299314E+02 -0.63128145070E+01  0.59290305575E+01  0.46142317435E+02  0.99999970247E+01 0.  0.
        -12    1    1    2    0    0 -0.44205299314E+02  0.63128145070E+01 -0.59290305575E+01  0.45045682565E+02  0.00000000000E+00 0.  1.
         11    1    3    3    0    0  0.11708649097E+02 -0.22143973415E+01 -0.69833804535E+00  0.11936653449E+02  0.51100000000E-03 0. -1.
        -11    1    3    3    0    0  0.11121867729E+01  0.10757710496E+01  0.11535022785E+01  0.19299768228E+01  0.51100000000E-03 0.  1.
        -12    1    3    3    0    0  0.31384463444E+02 -0.51741882151E+01  0.54738663243E+01  0.32275687163E+02  0.00000000000E+00 0.  1.
</event>
<event>
 7    1  0.4081218E-008  0.4614232E+02  0.7816164E-02  0.1320468E+00
        -11   -1    0    0    0    0  0.00000000000E+00  0.00000000000E+00  0.45593999997E+02  0.45594000000E+02  0.51100000000E-03 0.  1.
         11   -1    0    0    0    0 -0.00000000000E+00 -0.00000000000E+00 -0.45593999997E+02  0.45594000000E+02  0.51100000000E-03 0. -1.
    9900012    2    1    2    0    0  0.24403670862E+02 -0.38874207238E+01 -0.37662476720E+02  0.46142319363E+02  0.10000014606E+02 0.  0.
        -12    1    1    2    0    0 -0.24403670862E+02  0.38874207238E+01  0.37662476720E+02  0.45045680637E+02  0.00000000000E+00 0.  1.
         11    1    3    3    0    0  0.16393113448E+02 -0.14452660338E+00 -0.21115527481E+02  0.26732387801E+02  0.51100000000E-03 0. -1.
        -11    1    3    3    0    0  0.17998850157E+01 -0.61576779130E+00 -0.57073600136E+00  0.19860754988E+01  0.51100000000E-03 0.  1.
         12    1    3    3    0    0  0.62106723976E+01 -0.31271263291E+01 -0.15976213238E+02  0.17423856063E+02  0.00000000000E+00 0. -1.
</event>
<event>
 7    1  0.4081218E-008  0.4614232E+02  0.7816164E-02  0.1320468E+00
        -11   -1    0    0    0    0  0.00000000000E+00  0.00000000000E+00  0.45593999997E+02  0.45594000000E+02  0.51100000000E-03 0. -1.
         11   -1    0    0    0    0 -0.00000000000E+00 -0.00000000000E+00 -0.45593999997E+02  0.45594000000E+02  0.51100000000E-03 0.  1.
    9900012    2    1    2    0    0  0.42636354810E+02 -0.61096025081E+01  0.13188158578E+02  0.46142317399E+02  0.99999967001E+01 0.  0.
        -12    1    1    2    0    0 -0.42636354810E+02  0.61096025081E+01 -0.13188158578E+02  0.45045682601E+02  0.00000000000E+00 0.  1.
         11    1    3    3    0    0  0.22767883707E+02 -0.73924031237E+01  0.94906905765E+01  0.25750676891E+02  0.51100000000E-03 0. -1.
        -11    1    3    3    0    0  0.17684823946E+01  0.77701290368E+00  0.12624511541E+00  0.19357730040E+01  0.51100000000E-03 0.  1.
        -12    1    3    3    0    0  0.18099988708E+02  0.50578771200E+00  0.35712228862E+01  0.18455867504E+02  0.00000000000E+00 0.  1.
</event>
<event>
 7    1  0.4081218E-008  0.4614232E+02  0.7816164E-02  0.1320468E+00
        -11   -1    0    0    0    0  0.00000000000E+00  0.00000000000E+00  0.45593999997E+02  0.45594000000E+02  0.51100000000E-03 0.  1.
         11   -1    0    0    0    0 -0.00000000000E+00 -0.00000000000E+00 -0.45593999997E+02  0.45594000000E+02  0.51100000000E-03 0. -1.
    9900012    2    1    2    0    0  0.42641734931E+01 -0.42151858960E+02 -0.15301997848E+02  0.46142317327E+02  0.99999960373E+01 0.  0.
        -12    1    1    2    0    0 -0.42641734931E+01  0.42151858960E+02  0.15301997848E+02  0.45045682673E+02  0.00000000000E+00 0.  1.
         11    1    3    3    0    0 -0.22635956609E+01 -0.19873088548E+02 -0.56143587202E+01  0.20774612821E+02  0.51100000000E-03 0. -1.
        -11    1    3    3    0    0 -0.35893939526E+00 -0.60496203724E+00 -0.28817324401E+00  0.76017145149E+00  0.51100000000E-03 0.  1.
         12    1    3    3    0    0  0.68867085492E+01 -0.21673808374E+02 -0.93994658840E+01  0.24607533054E+02  0.00000000000E+00 0. -1.
</event>
<event>
 7    1  0.4081218E-008  0.4614232E+02  0.7816164E-02  0.1320468E+00
        -11   -1    0    0    0    0  0.00000000000E+00  0.00000000000E+00  0.45593999997E+02  0.45594000000E+02  0.51100000000E-03 0.  1.
         11   -1    0    0    0    0 -0.00000000000E+00 -0.00000000000E+00 -0.45593999997E+02  0.45594000000E+02  0.51100000000E-03 0. -1.
    9900012    2    1    2    0    0 -0.15166744033E+02 -0.18305572840E+02 -0.38262113909E+02  0.46142317828E+02  0.10000000607E+02 0.  0.
        -12    1    1    2    0    0  0.15166744033E+02  0.18305572840E+02  0.38262113909E+02  0.45045682172E+02  0.00000000000E+00 0.  1.
         11    1    3    3    0    0 -0.25680638355E+01 -0.62169999943E+01 -0.57448144418E+01  0.88458427538E+01  0.51100000000E-03 0. -1.
        -11    1    3    3    0    0 -0.50611379473E+01 -0.30788170723E+01 -0.67693260970E+01  0.89954437331E+01  0.51100000000E-03 0.  1.
         12    1    3    3    0    0 -0.75375422500E+01 -0.90097557733E+01 -0.25747973371E+02  0.28301031341E+02  0.00000000000E+00 0. -1.
</event>
<event>
 7    1  0.4081218E-008  0.4614232E+02  0.7816164E-02  0.1320468E+00
        -11   -1    0    0    0    0  0.00000000000E+00  0.00000000000E+00  0.45593999997E+02  0.45594000000E+02  0.51100000000E-03 0.  1.
         11   -1    0    0    0    0 -0.00000000000E+00 -0.00000000000E+00 -0.45593999997E+02  0.45594000000E+02  0.51100000000E-03 0. -1.
    9900012    2    1    2    0    0 -0.12935373160E+02  0.43071004134E+02  0.25842275784E+01  0.46142317542E+02  0.99999980030E+01 0.  0.
        -12    1    1    2    0    0  0.12935373160E+02 -0.43071004134E+02 -0.25842275784E+01  0.45045682458E+02  0.00000000000E+00 0.  1.
         11    1    3    3    0    0 -0.21593073834E+01  0.50915410826E+01 -0.26309950482E+01  0.61244211299E+01  0.51100000000E-03 0. -1.
        -11    1    3    3    0    0 -0.24252625273E+00  0.97087487373E+00  0.81127032399E+00  0.12882456301E+01  0.51100000000E-03 0.  1.
         12    1    3    3    0    0 -0.10533539524E+02  0.37008588178E+02  0.44039523025E+01  0.38729650782E+02  0.00000000000E+00 0. -1.
</event>
<event>
 7    1  0.4081218E-008  0.4614232E+02  0.7816164E-02  0.1320468E+00
        -11   -1    0    0    0    0  0.00000000000E+00  0.00000000000E+00  0.45593999997E+02  0.45594000000E+02  0.51100000000E-03 0. -1.
         11   -1    0    0    0    0 -0.00000000000E+00 -0.00000000000E+00 -0.45593999997E+02  0.45594000000E+02  0.51100000000E-03 0.  1.
    9900012    2    1    2    0    0  0.10507337900E+02  0.12930785685E+02  0.41850975519E+02  0.46142317409E+02  0.99999967893E+01 0.  0.
        -12    1    1    2    0    0 -0.10507337900E+02 -0.12930785685E+02 -0.41850975519E+02  0.45045682591E+02  0.00000000000E+00 0.  1.
         11    1    3    3    0    0  0.24856421811E+01  0.89822498942E+00  0.89122066601E+01  0.92958406289E+01  0.51100000000E-03 0. -1.
        -11    1    3    3    0    0  0.86471553021E+01  0.66730535856E+01  0.24577398517E+02  0.26895193941E+02  0.51100000000E-03 0.  1.
        -12    1    3    3    0    0 -0.62545958360E+00  0.53595071100E+01  0.83613703418E+01  0.99512828392E+01  0.00000000000E+00 0.  1.
</event>
<event>
 7    1  0.4081218E-008  0.4614232E+02  0.7816164E-02  0.1320468E+00
        -11   -1    0    0    0    0  0.00000000000E+00  0.00000000000E+00  0.45593999997E+02  0.45594000000E+02  0.51100000000E-03 0.  1.
         11   -1    0    0    0    0 -0.00000000000E+00 -0.00000000000E+00 -0.45593999997E+02  0.45594000000E+02  0.51100000000E-03 0. -1.
    9900012    2    1    2    0    0  0.33157034075E+02 -0.14735904212E+02 -0.26694150544E+02  0.46142318133E+02  0.10000003392E+02 0.  0.
        -12    1    1    2    0    0 -0.33157034075E+02  0.14735904212E+02  0.26694150544E+02  0.45045681867E+02  0.00000000000E+00 0.  1.
         11    1    3    3    0    0  0.64831579893E+01 -0.26938712461E+01 -0.45703379732E+01  0.83771277449E+01  0.51100000000E-03 0. -1.
        -11    1    3    3    0    0  0.22570849800E+02 -0.63465395495E+01 -0.18497375483E+02  0.29864271714E+02  0.51100000000E-03 0.  1.
        -12    1    3    3    0    0  0.41030262857E+01 -0.56954934159E+01 -0.36264370878E+01  0.79009186746E+01  0.00000000000E+00 0.  1.
</event>
<event>
 7    1  0.4081218E-008  0.4614232E+02  0.7816164E-02  0.1320468E+00
        -11   -1    0    0    0    0  0.00000000000E+00  0.00000000000E+00  0.45593999997E+02  0.45594000000E+02  0.51100000000E-03 0.  1.
         11   -1    0    0    0    0 -0.00000000000E+00 -0.00000000000E+00 -0.45593999997E+02  0.45594000000E+02  0.51100000000E-03 0. -1.
    9900012    2    1    2    0    0 -0.28013920002E+02  0.10815080815E+01 -0.35258531973E+02  0.46142318182E+02  0.10000003834E+02 0.  0.
        -12    1    1    2    0    0  0.28013920002E+02 -0.10815080815E+01  0.35258531973E+02  0.45045681818E+02  0.00000000000E+00 0.  1.
         11    1    3    3    0    0 -0.17085628380E+02 -0.18634690390E+00 -0.17894765424E+02  0.24742191741E+02  0.51100000000E-03 0. -1.
        -11    1    3    3    0    0 -0.89298700644E+01  0.82083879577E+00 -0.86877988757E+01  0.12485760099E+02  0.51100000000E-03 0.  1.
        -12    1    3    3    0    0 -0.19984215575E+01  0.44701618962E+00 -0.86759676735E+01  0.89143663413E+01  0.00000000000E+00 0.  1.
</event>
<event>
 7    1  0.4081218E-008  0.4614232E+02  0.7816164E-02  0.1320468E+00
        -11   -1    0    0    0    0  0.00000000000E+00  0.00000000000E+00  0.45593999997E+02  0.45594000000E+02  0.51100000000E-03 0.  1.
         11   -1    0    0    0    0 -0.00000000000E+00 -0.00000000000E+00 -0.45593999997E+02  0.45594000000E+02  0.51100000000E-03 0. -1.
    9900012    2    1    2    0    0  0.31503104240E+02  0.31449518357E+02 -0.68989629548E+01  0.46142317948E+02  0.10000001705E+02 0.  0.
        -12    1    1    2    0    0 -0.31503104240E+02 -0.31449518357E+02  0.68989629548E+01  0.45045682052E+02  0.00000000000E+00 0.  1.
         11    1    3    3    0    0  0.88171217542E+01  0.10842814275E+02  0.13871386163E+01  0.14043945714E+02  0.51100000000E-03 0. -1.
        -11    1    3    3    0    0  0.10412775043E+02  0.83483635877E+01 -0.58867029866E+01  0.14586786178E+02  0.51100000000E-03 0.  1.
         12    1    3    3    0    0  0.12273207444E+02  0.12258340495E+02 -0.23993985845E+01  0.17511586056E+02  0.00000000000E+00 0. -1.
</event>
<event>
 7    1  0.4081218E-008  0.4614232E+02  0.7816164E-02  0.1320468E+00
        -11   -1    0    0    0    0  0.00000000000E+00  0.00000000000E+00  0.45593999997E+02  0.45594000000E+02  0.51100000000E-03 0.  1.
         11   -1    0    0    0    0 -0.00000000000E+00 -0.00000000000E+00 -0.45593999997E+02  0.45594000000E+02  0.51100000000E-03 0. -1.
    9900012    2    1    2    0    0  0.60746656739E+01  0.30424395619E+02 -0.32658354456E+02  0.46142317326E+02  0.99999960305E+01 0.  0.
        -12    1    1    2    0    0 -0.60746656739E+01 -0.30424395619E+02  0.32658354456E+02  0.45045682674E+02  0.00000000000E+00 0.  1.
         11    1    3    3    0    0 -0.68913662152E+00  0.52536172727E+01 -0.42935618452E+01  0.68198297127E+01  0.51100000000E-03 0. -1.
        -11    1    3    3    0    0  0.35490818982E+01  0.57274552021E+01 -0.34930931413E+01  0.75895602881E+01  0.51100000000E-03 0.  1.
         12    1    3    3    0    0  0.32147203972E+01  0.19443323144E+02 -0.24871699469E+02  0.31732927325E+02  0.00000000000E+00 0. -1.
</event>
<event>
 7    1  0.4081218E-008  0.4614232E+02  0.7816164E-02  0.1320468E+00
        -11   -1    0    0    0    0  0.00000000000E+00  0.00000000000E+00  0.45593999997E+02  0.45594000000E+02  0.51100000000E-03 0.  1.
         11   -1    0    0    0    0 -0.00000000000E+00 -0.00000000000E+00 -0.45593999997E+02  0.45594000000E+02  0.51100000000E-03 0. -1.
    9900012    2    1    2    0    0  0.39627314263E+02 -0.87566747912E+01 -0.19547640482E+02  0.46142316106E+02  0.99999849053E+01 0.  0.
        -12    1    1    2    0    0 -0.39627314263E+02  0.87566747912E+01  0.19547640482E+02  0.45045683894E+02  0.00000000000E+00 0.  1.
         11    1    3    3    0    0  0.42064494204E+01  0.61825509370E+00 -0.17168530083E+01  0.45851979892E+01  0.51100000000E-03 0. -1.
        -11    1    3    3    0    0  0.68815010951E+01 -0.53364383528E+01 -0.44397272080E+01  0.97746513778E+01  0.51100000000E-03 0.  1.
        -12    1    3    3    0    0  0.28539363748E+02 -0.40384915321E+01 -0.13391060265E+02  0.31782466739E+02  0.00000000000E+00 0.  1.
</event>
<event>
 7    1  0.4081218E-008  0.4614232E+02  0.7816164E-02  0.1320468E+00
        -11   -1    0    0    0    0  0.00000000000E+00  0.00000000000E+00  0.45593999997E+02  0.45594000000E+02  0.51100000000E-03 0.  1.
         11   -1    0    0    0    0 -0.00000000000E+00 -0.00000000000E+00 -0.45593999997E+02  0.45594000000E+02  0.51100000000E-03 0. -1.
    9900012    2    1    2    0    0  0.30495552279E+02  0.32692669030E+02 -0.55067459410E+01  0.46142316877E+02  0.99999919400E+01 0.  0.
        -12    1    1    2    0    0 -0.30495552279E+02 -0.32692669030E+02  0.55067459410E+01  0.45045683123E+02  0.00000000000E+00 0.  1.
         11    1    3    3    0    0  0.43226302826E+01  0.71108783291E+01 -0.26659775690E+01  0.87382583981E+01  0.51100000000E-03 0. -1.
        -11    1    3    3    0    0  0.25701176578E+02  0.25714100571E+02 -0.35641405412E+01  0.36530378368E+02  0.51100000000E-03 0.  1.
        -12    1    3    3    0    0  0.47174541850E+00 -0.13230986941E+00  0.72337216918E+00  0.87368011112E+00  0.00000000000E+00 0.  1.
</event>
<event>
 7    1  0.4081218E-008  0.4614232E+02  0.7816164E-02  0.1320468E+00
        -11   -1    0    0    0    0  0.00000000000E+00  0.00000000000E+00  0.45593999997E+02  0.45594000000E+02  0.51100000000E-03 0.  1.
         11   -1    0    0    0    0 -0.00000000000E+00 -0.00000000000E+00 -0.45593999997E+02  0.45594000000E+02  0.51100000000E-03 0. -1.
    9900012    2    1    2    0    0  0.60178204801E+01 -0.35629301790E+02 -0.26897065259E+02  0.46142318421E+02  0.10000006018E+02 0.  0.
        -12    1    1    2    0    0 -0.60178204801E+01  0.35629301790E+02  0.26897065259E+02  0.45045681579E+02  0.00000000000E+00 0.  1.
         11    1    3    3    0    0  0.71138921344E+01 -0.15707368579E+02 -0.11320353316E+02  0.20627149305E+02  0.51100000000E-03 0. -1.
        -11    1    3    3    0    0  0.39610800208E+00 -0.24521109634E+00 -0.48473097380E+00  0.67230529461E+00  0.51100000000E-03 0.  1.
         12    1    3    3    0    0 -0.14921796564E+01 -0.19676722114E+02 -0.15091980969E+02  0.24842863821E+02  0.00000000000E+00 0. -1.
</event>
<event>
 7    1  0.4081218E-008  0.4614232E+02  0.7816164E-02  0.1320468E+00
        -11   -1    0    0    0    0  0.00000000000E+00  0.00000000000E+00  0.45593999997E+02  0.45594000000E+02  0.51100000000E-03 0.  1.
         11   -1    0    0    0    0 -0.00000000000E+00 -0.00000000000E+00 -0.45593999997E+02  0.45594000000E+02  0.51100000000E-03 0. -1.
    9900012    2    1    2    0    0  0.10891609880E+02 -0.10267273499E+01 -0.43697050523E+02  0.46142316975E+02  0.99999928273E+01 0.  0.
        -12    1    1    2    0    0 -0.10891609880E+02  0.10267273499E+01  0.43697050523E+02  0.45045683025E+02  0.00000000000E+00 0.  1.
         11    1    3    3    0    0  0.66011070268E+01  0.18347547757E+01 -0.17520215211E+02  0.18812200306E+02  0.51100000000E-03 0. -1.
        -11    1    3    3    0    0  0.41209029537E+00  0.96676224214E+00 -0.13380553056E+02  0.13421760242E+02  0.51100000000E-03 0.  1.
         12    1    3    3    0    0  0.38784125582E+01 -0.38282443678E+01 -0.12796282256E+02  0.13908356427E+02  0.00000000000E+00 0. -1.
</event>
<event>
 7    1  0.4081218E-008  0.4614232E+02  0.7816164E-02  0.1320468E+00
        -11   -1    0    0    0    0  0.00000000000E+00  0.00000000000E+00  0.45593999997E+02  0.45594000000E+02  0.51100000000E-03 0.  1.
         11   -1    0    0    0    0 -0.00000000000E+00 -0.00000000000E+00 -0.45593999997E+02  0.45594000000E+02  0.51100000000E-03 0. -1.
    9900012    2    1    2    0    0 -0.13941667370E+02  0.34506404778E+02 -0.25378169318E+02  0.46142317214E+02  0.99999950095E+01 0.  0.
        -12    1    1    2    0    0  0.13941667370E+02 -0.34506404778E+02  0.25378169318E+02  0.45045682786E+02  0.00000000000E+00 0.  1.
         11    1    3    3    0    0 -0.88912008257E+01  0.25700937747E+02 -0.15498165252E+02  0.31301514015E+02  0.51100000000E-03 0. -1.
        -11    1    3    3    0    0  0.12829679617E+00 -0.63625684378E-01 -0.17132042493E+01  0.17191792683E+01  0.51100000000E-03 0.  1.
         12    1    3    3    0    0 -0.51787633406E+01  0.88690927149E+01 -0.81667998165E+01  0.13121623930E+02  0.00000000000E+00 0. -1.
</event>
<event>
 7    1  0.4081218E-008  0.4614232E+02  0.7816164E-02  0.1320468E+00
        -11   -1    0    0    0    0  0.00000000000E+00  0.00000000000E+00  0.45593999997E+02  0.45594000000E+02  0.51100000000E-03 0.  1.
         11   -1    0    0    0    0 -0.00000000000E+00 -0.00000000000E+00 -0.45593999997E+02  0.45594000000E+02  0.51100000000E-03 0. -1.
    9900012    2    1    2    0    0 -0.43603201247E+02  0.92565618104E+01 -0.64954088528E+01  0.46142318391E+02  0.10000005740E+02 0.  0.
        -12    1    1    2    0    0  0.43603201247E+02 -0.92565618104E+01  0.64954088528E+01  0.45045681609E+02  0.00000000000E+00 0.  1.
         11    1    3    3    0    0 -0.11021041532E+02 -0.25420259843E-01  0.34396537742E+00  0.11026437098E+02  0.51100000000E-03 0. -1.
        -11    1    3    3    0    0 -0.20700952768E+01  0.16284768427E+01 -0.19583929615E+01  0.32821539475E+01  0.51100000000E-03 0.  1.
         12    1    3    3    0    0 -0.30512064438E+02  0.76535052276E+01 -0.48809812687E+01  0.31833727345E+02  0.00000000000E+00 0. -1.
</event>
<event>
 7    1  0.4081218E-008  0.4614232E+02  0.7816164E-02  0.1320468E+00
        -11   -1    0    0    0    0  0.00000000000E+00  0.00000000000E+00  0.45593999997E+02  0.45594000000E+02  0.51100000000E-03 0. -1.
         11   -1    0    0    0    0 -0.00000000000E+00 -0.00000000000E+00 -0.45593999997E+02  0.45594000000E+02  0.51100000000E-03 0.  1.
    9900012    2    1    2    0    0 -0.26925323769E+02  0.33194255333E+02 -0.14222579466E+02  0.46142318588E+02  0.10000007543E+02 0.  0.
        -12    1    1    2    0    0  0.26925323769E+02 -0.33194255333E+02  0.14222579466E+02  0.45045681412E+02  0.00000000000E+00 0.  1.
         11    1    3    3    0    0 -0.13244705888E+02  0.98395363403E+01 -0.70291517905E+01  0.17934538874E+02  0.51100000000E-03 0.  1.
        -11    1    3    3    0    0 -0.45330568447E+01  0.66981881067E+01 -0.66773789663E+00  0.81154298980E+01  0.51100000000E-03 0. -1.
        -12    1    3    3    0    0 -0.91475610360E+01  0.16656530886E+02 -0.65256897791E+01  0.20092349817E+02  0.00000000000E+00 0.  1.
</event>
<event>
 7    1  0.4081218E-008  0.4614232E+02  0.7816164E-02  0.1320468E+00
        -11   -1    0    0    0    0  0.00000000000E+00  0.00000000000E+00  0.45593999997E+02  0.45594000000E+02  0.51100000000E-03 0.  1.
         11   -1    0    0    0    0 -0.00000000000E+00 -0.00000000000E+00 -0.45593999997E+02  0.45594000000E+02  0.51100000000E-03 0. -1.
    9900012    2    1    2    0    0  0.19266836558E+02  0.31216657120E+02 -0.26142357471E+02  0.46142317334E+02  0.99999961014E+01 0.  0.
        -12    1    1    2    0    0 -0.19266836558E+02 -0.31216657120E+02  0.26142357471E+02  0.45045682666E+02  0.00000000000E+00 0.  1.
         11    1    3    3    0    0  0.86091419897E+01  0.18062047145E+02 -0.12827335272E+02  0.23767528338E+02  0.51100000000E-03 0. -1.
        -11    1    3    3    0    0  0.49951947754E+01  0.95937708123E+01 -0.56554497115E+01  0.12205593838E+02  0.51100000000E-03 0.  1.
         12    1    3    3    0    0  0.56624997930E+01  0.35608391635E+01 -0.76595724879E+01  0.10169195157E+02  0.00000000000E+00 0. -1.
</event>
<event>
 7    1  0.4081218E-008  0.4614232E+02  0.7816164E-02  0.1320468E+00
        -11   -1    0    0    0    0  0.00000000000E+00  0.00000000000E+00  0.45593999997E+02  0.45594000000E+02  0.51100000000E-03 0.  1.
         11   -1    0    0    0    0 -0.00000000000E+00 -0.00000000000E+00 -0.45593999997E+02  0.45594000000E+02  0.51100000000E-03 0. -1.
    9900012    2    1    2    0    0  0.10075341216E+02  0.16639476515E+02 -0.40629162847E+02  0.46142317044E+02  0.99999934606E+01 0.  0.
        -12    1    1    2    0    0 -0.10075341216E+02 -0.16639476515E+02  0.40629162847E+02  0.45045682956E+02  0.00000000000E+00 0.  1.
         11    1    3    3    0    0  0.48907741792E+01  0.22513622101E+01 -0.13982023905E+02  0.14982833397E+02  0.51100000000E-03 0. -1.
        -11    1    3    3    0    0  0.11764675811E+01  0.29817520168E+00 -0.40634256410E+01  0.42408032991E+01  0.51100000000E-03 0.  1.
         12    1    3    3    0    0  0.40080994560E+01  0.14089939104E+02 -0.22583713301E+02  0.26918680348E+02  0.00000000000E+00 0. -1.
</event>
<event>
 7    1  0.4081218E-008  0.4614231E+02  0.7816164E-02  0.1320468E+00
        -11   -1    0    0    0    0  0.00000000000E+00  0.00000000000E+00  0.45593999997E+02  0.45594000000E+02  0.51100000000E-03 0.  1.
         11   -1    0    0    0    0 -0.00000000000E+00 -0.00000000000E+00 -0.45593999997E+02  0.45594000000E+02  0.51100000000E-03 0. -1.
    9900012    2    1    2    0    0 -0.15688467924E+02  0.41796331692E+02 -0.60043747669E+01  0.46142313358E+02  0.99999598458E+01 0.  0.
        -12    1    1    2    0    0  0.15688467924E+02 -0.41796331692E+02  0.60043747669E+01  0.45045686642E+02  0.00000000000E+00 0.  1.
         11    1    3    3    0    0 -0.15029374011E+02  0.28892606696E+02 -0.58966446500E+01  0.33097359763E+02  0.51100000000E-03 0. -1.
        -11    1    3    3    0    0 -0.88051631588E-01  0.82599799467E-01 -0.17298737761E+00  0.21095191545E+00  0.51100000000E-03 0.  1.
        -12    1    3    3    0    0 -0.57104228070E+00  0.12821125197E+02  0.65257260671E-01  0.12834001680E+02  0.00000000000E+00 0.  1.
</event>
<event>
 7    1  0.4081218E-008  0.4614232E+02  0.7816164E-02  0.1320468E+00
        -11   -1    0    0    0    0  0.00000000000E+00  0.00000000000E+00  0.45593999997E+02  0.45594000000E+02  0.51100000000E-03 0.  1.
         11   -1    0    0    0    0 -0.00000000000E+00 -0.00000000000E+00 -0.45593999997E+02  0.45594000000E+02  0.51100000000E-03 0. -1.
    9900012    2    1    2    0    0  0.26631455968E+02  0.36119369859E+01 -0.36150144407E+02  0.46142317894E+02  0.10000001212E+02 0.  0.
        -12    1    1    2    0    0 -0.26631455968E+02 -0.36119369859E+01  0.36150144407E+02  0.45045682106E+02  0.00000000000E+00 0.  1.
         11    1    3    3    0    0  0.19684966881E+02  0.13046242602E+01 -0.30607642521E+02  0.36414663894E+02  0.51100000000E-03 0. -1.
        -11    1    3    3    0    0  0.12956561987E+01  0.10632429623E+01 -0.29377245986E+01  0.33822236266E+01  0.51100000000E-03 0.  1.
        -12    1    3    3    0    0  0.56508328881E+01  0.12440697634E+01 -0.26047772871E+01  0.63454303732E+01  0.00000000000E+00 0.  1.
</event>
<event>
 7    1  0.4081218E-008  0.4614232E+02  0.7816164E-02  0.1320468E+00
        -11   -1    0    0    0    0  0.00000000000E+00  0.00000000000E+00  0.45593999997E+02  0.45594000000E+02  0.51100000000E-03 0.  1.
         11   -1    0    0    0    0 -0.00000000000E+00 -0.00000000000E+00 -0.45593999997E+02  0.45594000000E+02  0.51100000000E-03 0. -1.
    9900012    2    1    2    0    0  0.37497254286E+02 -0.24949710412E+02  0.76248881402E+00  0.46142317434E+02  0.99999970168E+01 0.  0.
        -12    1    1    2    0    0 -0.37497254286E+02  0.24949710412E+02 -0.76248881402E+00  0.45045682566E+02  0.00000000000E+00 0.  1.
         11    1    3    3    0    0  0.88162459619E+01 -0.78602907401E+01  0.14626461626E+01  0.11901667843E+02  0.51100000000E-03 0. -1.
        -11    1    3    3    0    0  0.36315208373E+01  0.44140604815E+00 -0.13918380934E+00  0.36608954212E+01  0.51100000000E-03 0.  1.
        -12    1    3    3    0    0  0.25049487487E+02 -0.17530825720E+02 -0.56097353922E+00  0.30579754170E+02  0.00000000000E+00 0.  1.
</event>
<event>
 7    1  0.4081218E-008  0.4614232E+02  0.7816164E-02  0.1320468E+00
        -11   -1    0    0    0    0  0.00000000000E+00  0.00000000000E+00  0.45593999997E+02  0.45594000000E+02  0.51100000000E-03 0.  1.
         11   -1    0    0    0    0 -0.00000000000E+00 -0.00000000000E+00 -0.45593999997E+02  0.45594000000E+02  0.51100000000E-03 0. -1.
    9900012    2    1    2    0    0  0.36871891218E+02 -0.63936727754E+01 -0.25073851560E+02  0.46142318236E+02  0.10000004328E+02 0.  0.
        -12    1    1    2    0    0 -0.36871891218E+02  0.63936727754E+01  0.25073851560E+02  0.45045681764E+02  0.00000000000E+00 0.  1.
         11    1    3    3    0    0  0.12191251980E+02 -0.19957630284E+01 -0.52017024971E+01  0.13404007014E+02  0.51100000000E-03 0. -1.
        -11    1    3    3    0    0  0.23112367317E+02 -0.37819918473E+01 -0.15583588488E+02  0.28130645491E+02  0.51100000000E-03 0.  1.
        -12    1    3    3    0    0  0.15682719212E+01 -0.61591789974E+00 -0.42885605754E+01  0.46076657308E+01  0.00000000000E+00 0.  1.
</event>
<event>
 7    1  0.4081218E-008  0.4614232E+02  0.7816164E-02  0.1320468E+00
        -11   -1    0    0    0    0  0.00000000000E+00  0.00000000000E+00  0.45593999997E+02  0.45594000000E+02  0.51100000000E-03 0. -1.
         11   -1    0    0    0    0 -0.00000000000E+00 -0.00000000000E+00 -0.45593999997E+02  0.45594000000E+02  0.51100000000E-03 0.  1.
    9900012    2    1    2    0    0 -0.14359242745E+02  0.32398613766E+02  0.27807469618E+02  0.46142318822E+02  0.10000009676E+02 0.  0.
        -12    1    1    2    0    0  0.14359242745E+02 -0.32398613766E+02 -0.27807469618E+02  0.45045681178E+02  0.00000000000E+00 0.  1.
         11    1    3    3    0    0 -0.57071283059E+01  0.12404305353E+02  0.12061924676E+02  0.18218894915E+02  0.51100000000E-03 0. -1.
        -11    1    3    3    0    0 -0.45840868697E+00  0.99377468077E+01  0.83720153808E+01  0.13002291796E+02  0.51100000000E-03 0.  1.
         12    1    3    3    0    0 -0.81937057526E+01  0.10056561606E+02  0.73735295614E+01  0.14921132111E+02  0.00000000000E+00 0. -1.
</event>
<event>
 7    1  0.4081218E-008  0.4614232E+02  0.7816164E-02  0.1320468E+00
        -11   -1    0    0    0    0  0.00000000000E+00  0.00000000000E+00  0.45593999997E+02  0.45594000000E+02  0.51100000000E-03 0.  1.
         11   -1    0    0    0    0 -0.00000000000E+00 -0.00000000000E+00 -0.45593999997E+02  0.45594000000E+02  0.51100000000E-03 0. -1.
    9900012    2    1    2    0    0  0.11619571834E+02  0.70332904625E+01 -0.42949176982E+02  0.46142318434E+02  0.10000006132E+02 0.  0.
        -12    1    1    2    0    0 -0.11619571834E+02 -0.70332904625E+01  0.42949176982E+02  0.45045681566E+02  0.00000000000E+00 0.  1.
         11    1    3    3    0    0  0.54875578066E+01  0.49099435539E+01 -0.19387190095E+02  0.20738466106E+02  0.51100000000E-03 0. -1.
        -11    1    3    3    0    0  0.61159674810E+01  0.87790153364E+00 -0.97969191092E+01  0.11582546940E+02  0.51100000000E-03 0.  1.
         12    1    3    3    0    0  0.16046546138E-01  0.12454453750E+01 -0.13765067778E+02  0.13821305387E+02  0.00000000000E+00 0. -1.
</event>
<event>
 7    1  0.4081218E-008  0.4614232E+02  0.7816164E-02  0.1320468E+00
        -11   -1    0    0    0    0  0.00000000000E+00  0.00000000000E+00  0.45593999997E+02  0.45594000000E+02  0.51100000000E-03 0.  1.
         11   -1    0    0    0    0 -0.00000000000E+00 -0.00000000000E+00 -0.45593999997E+02  0.45594000000E+02  0.51100000000E-03 0. -1.
    9900012    2    1    2    0    0 -0.11849495086E+02  0.16125270663E+02 -0.40356890077E+02  0.46142318027E+02  0.10000002422E+02 0.  0.
        -12    1    1    2    0    0  0.11849495086E+02 -0.16125270663E+02  0.40356890077E+02  0.45045681973E+02  0.00000000000E+00 0.  1.
         11    1    3    3    0    0 -0.24014996753E+01  0.45114822765E+01 -0.19207294613E+02  0.19875634321E+02  0.51100000000E-03 0. -1.
        -11    1    3    3    0    0 -0.24690861698E+01  0.60614779802E+00 -0.35476913693E+01  0.43646209434E+01  0.51100000000E-03 0.  1.
         12    1    3    3    0    0 -0.69789092407E+01  0.11007640588E+02 -0.17601904094E+02  0.21902062763E+02  0.00000000000E+00 0. -1.
</event>
<event>
 7    1  0.4081218E-008  0.4614232E+02  0.7816164E-02  0.1320468E+00
        -11   -1    0    0    0    0  0.00000000000E+00  0.00000000000E+00  0.45593999997E+02  0.45594000000E+02  0.51100000000E-03 0.  1.
         11   -1    0    0    0    0 -0.00000000000E+00 -0.00000000000E+00 -0.45593999997E+02  0.45594000000E+02  0.51100000000E-03 0. -1.
    9900012    2    1    2    0    0 -0.34322124267E+02 -0.11815268620E+02 -0.26674043639E+02  0.46142318844E+02  0.10000009874E+02 0.  0.
        -12    1    1    2    0    0  0.34322124267E+02  0.11815268620E+02  0.26674043639E+02  0.45045681156E+02  0.00000000000E+00 0.  1.
         11    1    3    3    0    0 -0.37316705614E+01 -0.30310578450E+01 -0.41757107179E+01  0.63678282875E+01  0.51100000000E-03 0. -1.
        -11    1    3    3    0    0 -0.13016623089E+02 -0.46353543548E+01 -0.51842438811E+01  0.14757891838E+02  0.51100000000E-03 0.  1.
         12    1    3    3    0    0 -0.17573830617E+02 -0.41488564206E+01 -0.17314089040E+02  0.25016598718E+02  0.00000000000E+00 0. -1.
</event>
<event>
 7    1  0.4081218E-008  0.4614232E+02  0.7816164E-02  0.1320468E+00
        -11   -1    0    0    0    0  0.00000000000E+00  0.00000000000E+00  0.45593999997E+02  0.45594000000E+02  0.51100000000E-03 0. -1.
         11   -1    0    0    0    0 -0.00000000000E+00 -0.00000000000E+00 -0.45593999997E+02  0.45594000000E+02  0.51100000000E-03 0.  1.
    9900012    2    1    2    0    0  0.38196524677E+02  0.21295974993E+02  0.10799077585E+02  0.46142321794E+02  0.10000036777E+02 0.  0.
        -12    1    1    2    0    0 -0.38196524677E+02 -0.21295974993E+02 -0.10799077585E+02  0.45045678206E+02  0.00000000000E+00 0.  1.
         11    1    3    3    0    0  0.13365695215E+02  0.10241082557E+02  0.37845972378E+01  0.17258179424E+02  0.51100000000E-03 0. -1.
        -11    1    3    3    0    0  0.13797124855E+02  0.24552415426E+01  0.40048120864E+01  0.14574888864E+02  0.51100000000E-03 0.  1.
        -12    1    3    3    0    0  0.11033704607E+02  0.85996508939E+01  0.30096682612E+01  0.14309253506E+02  0.00000000000E+00 0.  1.
</event>
<event>
 7    1  0.4081218E-008  0.4614232E+02  0.7816164E-02  0.1320468E+00
        -11   -1    0    0    0    0  0.00000000000E+00  0.00000000000E+00  0.45593999997E+02  0.45594000000E+02  0.51100000000E-03 0.  1.
         11   -1    0    0    0    0 -0.00000000000E+00 -0.00000000000E+00 -0.45593999997E+02  0.45594000000E+02  0.51100000000E-03 0. -1.
    9900012    2    1    2    0    0 -0.20490852885E+02 -0.17455061310E+02 -0.36118682422E+02  0.46142318330E+02  0.10000005185E+02 0.  0.
        -12    1    1    2    0    0  0.20490852885E+02  0.17455061310E+02  0.36118682422E+02  0.45045681670E+02  0.00000000000E+00 0.  1.
         11    1    3    3    0    0 -0.26587487135E+01 -0.15660343859E+01 -0.66832169267E+01  0.73611681933E+01  0.51100000000E-03 0. -1.
        -11    1    3    3    0    0 -0.34585376444E+01  0.29936238024E+00 -0.55367329214E+01  0.65350219722E+01  0.51100000000E-03 0.  1.
         12    1    3    3    0    0 -0.14373566527E+02 -0.16188389304E+02 -0.23898732573E+02  0.32246128164E+02  0.00000000000E+00 0. -1.
</event>
<event>
 7    1  0.4081218E-008  0.4614232E+02  0.7816164E-02  0.1320468E+00
        -11   -1    0    0    0    0  0.00000000000E+00  0.00000000000E+00  0.45593999997E+02  0.45594000000E+02  0.51100000000E-03 0.  1.
         11   -1    0    0    0    0 -0.00000000000E+00 -0.00000000000E+00 -0.45593999997E+02  0.45594000000E+02  0.51100000000E-03 0. -1.
    9900012    2    1    2    0    0 -0.23181369114E+02 -0.24210861862E+02 -0.30092719053E+02  0.46142318230E+02  0.10000004273E+02 0.  0.
        -12    1    1    2    0    0  0.23181369114E+02  0.24210861862E+02  0.30092719053E+02  0.45045681770E+02  0.00000000000E+00 0.  1.
         11    1    3    3    0    0 -0.15627067252E+02 -0.13992812040E+02 -0.16246934033E+02  0.26532374289E+02  0.51100000000E-03 0. -1.
        -11    1    3    3    0    0 -0.28943900262E+01 -0.49220237263E+01 -0.24630525097E+01  0.62185560311E+01  0.51100000000E-03 0.  1.
        -12    1    3    3    0    0 -0.46599118361E+01 -0.52960260960E+01 -0.11382732511E+02  0.13391387910E+02  0.00000000000E+00 0.  1.
</event>
<event>
 7    1  0.4081218E-008  0.4614232E+02  0.7816164E-02  0.1320468E+00
        -11   -1    0    0    0    0  0.00000000000E+00  0.00000000000E+00  0.45593999997E+02  0.45594000000E+02  0.51100000000E-03 0. -1.
         11   -1    0    0    0    0 -0.00000000000E+00 -0.00000000000E+00 -0.45593999997E+02  0.45594000000E+02  0.51100000000E-03 0.  1.
    9900012    2    1    2    0    0  0.17875553001E+02  0.41335274247E+02 -0.98647338954E+00  0.46142318499E+02  0.10000006727E+02 0.  0.
        -12    1    1    2    0    0 -0.17875553001E+02 -0.41335274247E+02  0.98647338954E+00  0.45045681501E+02  0.00000000000E+00 0.  1.
         11    1    3    3    0    0  0.51220577019E+00  0.57660206943E+01 -0.59773404631E+00  0.58195047598E+01  0.51100000000E-03 0. -1.
        -11    1    3    3    0    0  0.13636476828E+01  0.75171950181E+01 -0.22815990970E+01  0.79732960965E+01  0.51100000000E-03 0.  1.
         12    1    3    3    0    0  0.15999699548E+02  0.28052058535E+02  0.18928597537E+01  0.32349517642E+02  0.00000000000E+00 0. -1.
</event>
<event>
 7    1  0.4081218E-008  0.4614232E+02  0.7816164E-02  0.1320468E+00
        -11   -1    0    0    0    0  0.00000000000E+00  0.00000000000E+00  0.45593999997E+02  0.45594000000E+02  0.51100000000E-03 0.  1.
         11   -1    0    0    0    0 -0.00000000000E+00 -0.00000000000E+00 -0.45593999997E+02  0.45594000000E+02  0.51100000000E-03 0. -1.
    9900012    2    1    2    0    0 -0.24222771484E+02 -0.62978000885E+01 -0.37452750622E+02  0.46142317927E+02  0.10000001512E+02 0.  0.
        -12    1    1    2    0    0  0.24222771484E+02  0.62978000885E+01  0.37452750622E+02  0.45045682073E+02  0.00000000000E+00 0.  1.
         11    1    3    3    0    0 -0.43830716550E+01 -0.49635904509E+01 -0.13246665072E+02  0.14809547025E+02  0.51100000000E-03 0. -1.
        -11    1    3    3    0    0 -0.57601047640E+01 -0.31637121133E+00 -0.65810624015E+01  0.87515301650E+01  0.51100000000E-03 0.  1.
         12    1    3    3    0    0 -0.14079595065E+02 -0.10178384263E+01 -0.17625023148E+02  0.22581240737E+02  0.00000000000E+00 0. -1.
</event>
<event>
 7    1  0.4081218E-008  0.4614233E+02  0.7816164E-02  0.1320468E+00
        -11   -1    0    0    0    0  0.00000000000E+00  0.00000000000E+00  0.45593999997E+02  0.45594000000E+02  0.51100000000E-03 0. -1.
         11   -1    0    0    0    0 -0.00000000000E+00 -0.00000000000E+00 -0.45593999997E+02  0.45594000000E+02  0.51100000000E-03 0.  1.
    9900012    2    1    2    0    0 -0.74774414436E+01 -0.11778426637E+02  0.42830703941E+02  0.46142326904E+02  0.10000083372E+02 0.  0.
        -12    1    1    2    0    0  0.74774414436E+01  0.11778426637E+02 -0.42830703941E+02  0.45045673096E+02  0.00000000000E+00 0.  1.
         11    1    3    3    0    0 -0.25775179577E+01 -0.41870967262E+01  0.17754554776E+02  0.18422800910E+02  0.51100000000E-03 0. -1.
        -11    1    3    3    0    0 -0.23664648167E+00 -0.62873681659E+01  0.93903159093E+01  0.11303319563E+02  0.51100000000E-03 0.  1.
        -12    1    3    3    0    0 -0.46632770042E+01 -0.13039617447E+01  0.15685833255E+02  0.16416206430E+02  0.00000000000E+00 0.  1.
</event>
<event>
 7    1  0.4081218E-008  0.4614232E+02  0.7816164E-02  0.1320468E+00
        -11   -1    0    0    0    0  0.00000000000E+00  0.00000000000E+00  0.45593999997E+02  0.45594000000E+02  0.51100000000E-03 0.  1.
         11   -1    0    0    0    0 -0.00000000000E+00 -0.00000000000E+00 -0.45593999997E+02  0.45594000000E+02  0.51100000000E-03 0. -1.
    9900012    2    1    2    0    0  0.35549514583E+01 -0.20367863622E+02 -0.40020318595E+02  0.46142318199E+02  0.10000003997E+02 0.  0.
        -12    1    1    2    0    0 -0.35549514583E+01  0.20367863622E+02  0.40020318595E+02  0.45045681801E+02  0.00000000000E+00 0.  1.
         11    1    3    3    0    0  0.23315279972E+01 -0.33514646427E+01 -0.86543629070E+01  0.95690300260E+01  0.51100000000E-03 0. -1.
        -11    1    3    3    0    0  0.33434988717E+01 -0.26348704942E+01 -0.65028222411E+01  0.77722728070E+01  0.51100000000E-03 0.  1.
        -12    1    3    3    0    0 -0.21200754105E+01 -0.14381528486E+02 -0.24863133447E+02  0.28801015366E+02  0.00000000000E+00 0.  1.
</event>
<event>
 7    1  0.4081218E-008  0.4614232E+02  0.7816164E-02  0.1320468E+00
        -11   -1    0    0    0    0  0.00000000000E+00  0.00000000000E+00  0.45593999997E+02  0.45594000000E+02  0.51100000000E-03 0.  1.
         11   -1    0    0    0    0 -0.00000000000E+00 -0.00000000000E+00 -0.45593999997E+02  0.45594000000E+02  0.51100000000E-03 0. -1.
    9900012    2    1    2    0    0 -0.44737259274E+02 -0.35027609922E+00 -0.52505705364E+01  0.46142317059E+02  0.99999935974E+01 0.  0.
        -12    1    1    2    0    0  0.44737259274E+02  0.35027609922E+00  0.52505705364E+01  0.45045682941E+02  0.00000000000E+00 0.  1.
         11    1    3    3    0    0 -0.38210204977E+02 -0.26207256030E+01 -0.65554664555E+01  0.38856944138E+02  0.51100000000E-03 0. -1.
        -11    1    3    3    0    0 -0.23630387184E+01  0.41230529527E+00 -0.37118869374E+00  0.24272883942E+01  0.51100000000E-03 0.  1.
        -12    1    3    3    0    0 -0.41640155786E+01  0.18581442085E+01  0.16760846128E+01  0.48580845266E+01  0.00000000000E+00 0.  1.
</event>
<event>
 7    1  0.4081218E-008  0.4614232E+02  0.7816164E-02  0.1320468E+00
        -11   -1    0    0    0    0  0.00000000000E+00  0.00000000000E+00  0.45593999997E+02  0.45594000000E+02  0.51100000000E-03 0.  1.
         11   -1    0    0    0    0 -0.00000000000E+00 -0.00000000000E+00 -0.45593999997E+02  0.45594000000E+02  0.51100000000E-03 0. -1.
    9900012    2    1    2    0    0 -0.22074904048E+02  0.28172269076E+02 -0.27352061088E+02  0.46142318971E+02  0.10000011032E+02 0.  0.
        -12    1    1    2    0    0  0.22074904048E+02 -0.28172269076E+02  0.27352061088E+02  0.45045681029E+02  0.00000000000E+00 0.  1.
         11    1    3    3    0    0 -0.14579127131E+01  0.41617230510E+01 -0.46138669382E+01  0.63822579560E+01  0.51100000000E-03 0. -1.
        -11    1    3    3    0    0 -0.19473668187E+02  0.19664586760E+02 -0.21647036689E+02  0.35135650311E+02  0.51100000000E-03 0.  1.
        -12    1    3    3    0    0 -0.11433231474E+01  0.43459592649E+01 -0.10911574606E+01  0.46244107035E+01  0.00000000000E+00 0.  1.
</event>
<event>
 7    1  0.4081218E-008  0.4614232E+02  0.7816164E-02  0.1320468E+00
        -11   -1    0    0    0    0  0.00000000000E+00  0.00000000000E+00  0.45593999997E+02  0.45594000000E+02  0.51100000000E-03 0.  1.
         11   -1    0    0    0    0 -0.00000000000E+00 -0.00000000000E+00 -0.45593999997E+02  0.45594000000E+02  0.51100000000E-03 0. -1.
    9900012    2    1    2    0    0 -0.19094670982E+02  0.16010209970E+02 -0.37525726911E+02  0.46142318038E+02  0.10000002526E+02 0.  0.
        -12    1    1    2    0    0  0.19094670982E+02 -0.16010209970E+02  0.37525726911E+02  0.45045681962E+02  0.00000000000E+00 0.  1.
         11    1    3    3    0    0 -0.10960694470E+02  0.79426726389E+01 -0.14907703119E+02  0.20136099038E+02  0.51100000000E-03 0. -1.
        -11    1    3    3    0    0  0.25294812639E-01 -0.70403161001E+00 -0.54074636101E+00  0.88809190037E+00  0.51100000000E-03 0.  1.
         12    1    3    3    0    0 -0.81592713244E+01  0.87715689411E+01 -0.22077277431E+02  0.25118127100E+02  0.00000000000E+00 0. -1.
</event>
<event>
 7    1  0.4081218E-008  0.4614232E+02  0.7816164E-02  0.1320468E+00
        -11   -1    0    0    0    0  0.00000000000E+00  0.00000000000E+00  0.45593999997E+02  0.45594000000E+02  0.51100000000E-03 0.  1.
         11   -1    0    0    0    0 -0.00000000000E+00 -0.00000000000E+00 -0.45593999997E+02  0.45594000000E+02  0.51100000000E-03 0. -1.
    9900012    2    1    2    0    0 -0.37296641138E+01  0.86780837257E+01 -0.44044227500E+02  0.46142317547E+02  0.99999980498E+01 0.  0.
        -12    1    1    2    0    0  0.37296641138E+01 -0.86780837257E+01  0.44044227500E+02  0.45045682453E+02  0.00000000000E+00 0.  1.
         11    1    3    3    0    0 -0.29136516564E+01  0.35138353650E+01 -0.15763579083E+02  0.16411180052E+02  0.51100000000E-03 0. -1.
        -11    1    3    3    0    0  0.17317212009E+01  0.49922659558E+01 -0.25110571339E+02  0.25660521642E+02  0.51100000000E-03 0.  1.
         12    1    3    3    0    0 -0.25477336584E+01  0.17198240496E+00 -0.31700770778E+01  0.40706158528E+01  0.00000000000E+00 0. -1.
</event>
<event>
 7    1  0.4081218E-008  0.4614232E+02  0.7816164E-02  0.1320468E+00
        -11   -1    0    0    0    0  0.00000000000E+00  0.00000000000E+00  0.45593999997E+02  0.45594000000E+02  0.51100000000E-03 0.  1.
         11   -1    0    0    0    0 -0.00000000000E+00 -0.00000000000E+00 -0.45593999997E+02  0.45594000000E+02  0.51100000000E-03 0. -1.
    9900012    2    1    2    0    0  0.20783240335E+02 -0.19352443764E+00 -0.39964144975E+02  0.46142318585E+02  0.10000007516E+02 0.  0.
        -12    1    1    2    0    0 -0.20783240335E+02  0.19352443764E+00  0.39964144975E+02  0.45045681415E+02  0.00000000000E+00 0.  1.
         11    1    3    3    0    0  0.66830145293E+01  0.10630412716E+01 -0.16627137727E+02  0.17951446995E+02  0.51100000000E-03 0. -1.
        -11    1    3    3    0    0  0.67610226145E+01  0.16284315875E+01 -0.15886778337E+02  0.17342230030E+02  0.51100000000E-03 0.  1.
        -12    1    3    3    0    0  0.73392031912E+01 -0.28849972968E+01 -0.74502289110E+01  0.10848641561E+02  0.00000000000E+00 0.  1.
</event>
<event>
 7    1  0.4081218E-008  0.4614232E+02  0.7816164E-02  0.1320468E+00
        -11   -1    0    0    0    0  0.00000000000E+00  0.00000000000E+00  0.45593999997E+02  0.45594000000E+02  0.51100000000E-03 0.  1.
         11   -1    0    0    0    0 -0.00000000000E+00 -0.00000000000E+00 -0.45593999997E+02  0.45594000000E+02  0.51100000000E-03 0. -1.
    9900012    2    1    2    0    0  0.25427060829E+02 -0.16985502939E+02 -0.33076740920E+02  0.46142317383E+02  0.99999965534E+01 0.  0.
        -12    1    1    2    0    0 -0.25427060829E+02  0.16985502939E+02  0.33076740920E+02  0.45045682617E+02  0.00000000000E+00 0.  1.
         11    1    3    3    0    0  0.13323461503E+02 -0.10753299147E+02 -0.14758851753E+02  0.22604684786E+02  0.51100000000E-03 0. -1.
        -11    1    3    3    0    0 -0.26753251402E+00  0.54106920602E+00 -0.35828067125E+00  0.70192224091E+00  0.51100000000E-03 0.  1.
         12    1    3    3    0    0  0.12371131840E+02 -0.67732729980E+01 -0.17959608497E+02  0.22835710356E+02  0.00000000000E+00 0. -1.
</event>
<event>
 7    1  0.4081218E-008  0.4614232E+02  0.7816164E-02  0.1320468E+00
        -11   -1    0    0    0    0  0.00000000000E+00  0.00000000000E+00  0.45593999997E+02  0.45594000000E+02  0.51100000000E-03 0.  1.
         11   -1    0    0    0    0 -0.00000000000E+00 -0.00000000000E+00 -0.45593999997E+02  0.45594000000E+02  0.51100000000E-03 0. -1.
    9900012    2    1    2    0    0  0.93486234267E+01  0.14818352791E+02 -0.41498594374E+02  0.46142315696E+02  0.99999811668E+01 0.  0.
        -12    1    1    2    0    0 -0.93486234267E+01 -0.14818352791E+02  0.41498594374E+02  0.45045684304E+02  0.00000000000E+00 0.  1.
         11    1    3    3    0    0  0.14601612245E+01  0.52130337206E+01 -0.14046952991E+02  0.15054058588E+02  0.51100000000E-03 0. -1.
        -11    1    3    3    0    0 -0.10506618954E+01  0.37031607061E+01 -0.81548728190E+01  0.90177181476E+01  0.51100000000E-03 0.  1.
         12    1    3    3    0    0  0.89391240975E+01  0.59021583646E+01 -0.19296768564E+02  0.22070538960E+02  0.00000000000E+00 0. -1.
</event>
<event>
 7    1  0.4081218E-008  0.4614232E+02  0.7816164E-02  0.1320468E+00
        -11   -1    0    0    0    0  0.00000000000E+00  0.00000000000E+00  0.45593999997E+02  0.45594000000E+02  0.51100000000E-03 0.  1.
         11   -1    0    0    0    0 -0.00000000000E+00 -0.00000000000E+00 -0.45593999997E+02  0.45594000000E+02  0.51100000000E-03 0. -1.
    9900012    2    1    2    0    0 -0.34467727519E+02  0.10949130852E+02 -0.26855274214E+02  0.46142318078E+02  0.10000002888E+02 0.  0.
        -12    1    1    2    0    0  0.34467727519E+02 -0.10949130852E+02  0.26855274214E+02  0.45045681922E+02  0.00000000000E+00 0.  1.
         11    1    3    3    0    0 -0.69659535933E+01  0.38426574102E+01 -0.26319015973E+01  0.83795842209E+01  0.51100000000E-03 0. -1.
        -11    1    3    3    0    0 -0.36523249528E+01  0.30813406331E+01 -0.42489650701E+01  0.63943601780E+01  0.51100000000E-03 0.  1.
        -12    1    3    3    0    0 -0.23849448973E+02  0.40251328090E+01 -0.19974407546E+02  0.31368373679E+02  0.00000000000E+00 0.  1.
</event>
<event>
 7    1  0.4081218E-008  0.4614232E+02  0.7816164E-02  0.1320468E+00
        -11   -1    0    0    0    0  0.00000000000E+00  0.00000000000E+00  0.45593999997E+02  0.45594000000E+02  0.51100000000E-03 0.  1.
         11   -1    0    0    0    0 -0.00000000000E+00 -0.00000000000E+00 -0.45593999997E+02  0.45594000000E+02  0.51100000000E-03 0. -1.
    9900012    2    1    2    0    0 -0.80585512162E+01  0.31639117532E+02 -0.31034490510E+02  0.46142316443E+02  0.99999879830E+01 0.  0.
        -12    1    1    2    0    0  0.80585512162E+01 -0.31639117532E+02  0.31034490510E+02  0.45045683557E+02  0.00000000000E+00 0.  1.
         11    1    3    3    0    0  0.21680609148E+00  0.68536298375E+01 -0.61879104793E+01  0.92363132900E+01  0.51100000000E-03 0.  1.
        -11    1    3    3    0    0 -0.38310393154E+01  0.25279685878E+01 -0.39988776325E+01  0.60875701226E+01  0.51100000000E-03 0. -1.
         12    1    3    3    0    0 -0.44443179923E+01  0.22257519106E+02 -0.20847702398E+02  0.30818433031E+02  0.00000000000E+00 0. -1.
</event>
<event>
 7    1  0.4081218E-008  0.4614232E+02  0.7816164E-02  0.1320468E+00
        -11   -1    0    0    0    0  0.00000000000E+00  0.00000000000E+00  0.45593999997E+02  0.45594000000E+02  0.51100000000E-03 0. -1.
         11   -1    0    0    0    0 -0.00000000000E+00 -0.00000000000E+00 -0.45593999997E+02  0.45594000000E+02  0.51100000000E-03 0.  1.
    9900012    2    1    2    0    0  0.23193599311E+02 -0.19844638769E+02  0.33126436490E+02  0.46142317283E+02  0.99999956381E+01 0.  0.
        -12    1    1    2    0    0 -0.23193599311E+02  0.19844638769E+02 -0.33126436490E+02  0.45045682717E+02  0.00000000000E+00 0.  1.
         11    1    3    3    0    0  0.47252310658E+01 -0.56591539271E+01  0.72158504052E+01  0.10316119868E+02  0.51100000000E-03 0. -1.
        -11    1    3    3    0    0  0.78379369623E+01 -0.10663780862E+02  0.11196116161E+02  0.17335007801E+02  0.51100000000E-03 0.  1.
        -12    1    3    3    0    0  0.10630431283E+02 -0.35217039799E+01  0.14714469924E+02  0.18491189614E+02  0.00000000000E+00 0.  1.
</event>
<event>
 7    1  0.4081218E-008  0.4614232E+02  0.7816164E-02  0.1320468E+00
        -11   -1    0    0    0    0  0.00000000000E+00  0.00000000000E+00  0.45593999997E+02  0.45594000000E+02  0.51100000000E-03 0.  1.
         11   -1    0    0    0    0 -0.00000000000E+00 -0.00000000000E+00 -0.45593999997E+02  0.45594000000E+02  0.51100000000E-03 0. -1.
    9900012    2    1    2    0    0 -0.20820579062E+02  0.25463504356E+02 -0.30777055579E+02  0.46142315227E+02  0.99999768884E+01 0.  0.
        -12    1    1    2    0    0  0.20820579062E+02 -0.25463504356E+02  0.30777055579E+02  0.45045684773E+02  0.00000000000E+00 0.  1.
         11    1    3    3    0    0 -0.73973388339E+01  0.65533681846E+01 -0.12142127310E+02  0.15655622385E+02  0.51100000000E-03 0. -1.
        -11    1    3    3    0    0  0.57207744420E+00  0.24191080971E+01 -0.22373245732E+01  0.33443950267E+01  0.51100000000E-03 0.  1.
         12    1    3    3    0    0 -0.13995317672E+02  0.16491028075E+02 -0.16397603696E+02  0.27142297815E+02  0.00000000000E+00 0. -1.
</event>
<event>
 7    1  0.4081218E-008  0.4614232E+02  0.7816164E-02  0.1320468E+00
        -11   -1    0    0    0    0  0.00000000000E+00  0.00000000000E+00  0.45593999997E+02  0.45594000000E+02  0.51100000000E-03 0. -1.
         11   -1    0    0    0    0 -0.00000000000E+00 -0.00000000000E+00 -0.45593999997E+02  0.45594000000E+02  0.51100000000E-03 0.  1.
    9900012    2    1    2    0    0  0.58645724691E+01 -0.14423392593E+02  0.42269209302E+02  0.46142317420E+02  0.99999968850E+01 0.  0.
        -12    1    1    2    0    0 -0.58645724691E+01  0.14423392593E+02 -0.42269209302E+02  0.45045682580E+02  0.00000000000E+00 0.  1.
         11    1    3    3    0    0 -0.11644233789E+01 -0.20434967423E+01  0.73604929512E+01  0.77271351410E+01  0.51100000000E-03 0. -1.
        -11    1    3    3    0    0 -0.91407577610E+00 -0.26217532260E+01  0.11595660474E+02  0.11923441894E+02  0.51100000000E-03 0.  1.
         12    1    3    3    0    0  0.79430716241E+01 -0.97581426249E+01  0.23313055877E+02  0.26491740385E+02  0.00000000000E+00 0. -1.
</event>
<event>
 7    1  0.4081218E-008  0.4614232E+02  0.7816164E-02  0.1320468E+00
        -11   -1    0    0    0    0  0.00000000000E+00  0.00000000000E+00  0.45593999997E+02  0.45594000000E+02  0.51100000000E-03 0.  1.
         11   -1    0    0    0    0 -0.00000000000E+00 -0.00000000000E+00 -0.45593999997E+02  0.45594000000E+02  0.51100000000E-03 0. -1.
    9900012    2    1    2    0    0  0.21207874535E+02  0.38091863005E+02 -0.11329144652E+02  0.46142317765E+02  0.10000000035E+02 0.  0.
        -12    1    1    2    0    0 -0.21207874535E+02 -0.38091863005E+02  0.11329144652E+02  0.45045682235E+02  0.00000000000E+00 0.  1.
         11    1    3    3    0    0  0.82710222318E+01  0.18245867956E+02 -0.30747124877E+01  0.20267593921E+02  0.51100000000E-03 0. -1.
        -11    1    3    3    0    0  0.50324513490E+01  0.12885020864E+02 -0.32294408481E+01  0.14204880067E+02  0.51100000000E-03 0.  1.
         12    1    3    3    0    0  0.79044009544E+01  0.69609741846E+01 -0.50249913164E+01  0.11669843777E+02  0.00000000000E+00 0. -1.
</event>
<event>
 7    1  0.4081218E-008  0.4614232E+02  0.7816164E-02  0.1320468E+00
        -11   -1    0    0    0    0  0.00000000000E+00  0.00000000000E+00  0.45593999997E+02  0.45594000000E+02  0.51100000000E-03 0.  1.
         11   -1    0    0    0    0 -0.00000000000E+00 -0.00000000000E+00 -0.45593999997E+02  0.45594000000E+02  0.51100000000E-03 0. -1.
    9900012    2    1    2    0    0  0.89065981737E+01 -0.15583575234E+02 -0.41315109233E+02  0.46142316976E+02  0.99999928437E+01 0.  0.
        -12    1    1    2    0    0 -0.89065981737E+01  0.15583575234E+02  0.41315109233E+02  0.45045683024E+02  0.00000000000E+00 0.  1.
         11    1    3    3    0    0  0.56710733751E+01 -0.43778250777E+01 -0.11623010809E+02  0.13653600483E+02  0.51100000000E-03 0. -1.
        -11    1    3    3    0    0 -0.17378926449E+01 -0.30177782373E+01 -0.10020337931E+02  0.10608224585E+02  0.51100000000E-03 0.  1.
        -12    1    3    3    0    0  0.49734174434E+01 -0.81879719191E+01 -0.19671760494E+02  0.21880491908E+02  0.00000000000E+00 0.  1.
</event>
<event>
 7    1  0.4081218E-008  0.4614232E+02  0.7816164E-02  0.1320468E+00
        -11   -1    0    0    0    0  0.00000000000E+00  0.00000000000E+00  0.45593999997E+02  0.45594000000E+02  0.51100000000E-03 0.  1.
         11   -1    0    0    0    0 -0.00000000000E+00 -0.00000000000E+00 -0.45593999997E+02  0.45594000000E+02  0.51100000000E-03 0. -1.
    9900012    2    1    2    0    0 -0.41548935190E+02  0.16255096451E+02 -0.62105646044E+01  0.46142319977E+02  0.10000020208E+02 0.  0.
        -12    1    1    2    0    0  0.41548935190E+02 -0.16255096451E+02  0.62105646044E+01  0.45045680023E+02  0.00000000000E+00 0.  1.
         11    1    3    3    0    0 -0.94899922559E+01  0.67733560709E+01 -0.30997444042E+01  0.12064274579E+02  0.51100000000E-03 0. -1.
        -11    1    3    3    0    0 -0.10848347704E+02  0.19827399103E+01 -0.35228569891E+01  0.11577064701E+02  0.51100000000E-03 0.  1.
        -12    1    3    3    0    0 -0.21210595230E+02  0.74990004696E+01  0.41203678901E+00  0.22500980698E+02  0.00000000000E+00 0.  1.
</event>
<event>
 7    1  0.4081218E-008  0.4614232E+02  0.7816164E-02  0.1320468E+00
        -11   -1    0    0    0    0  0.00000000000E+00  0.00000000000E+00  0.45593999997E+02  0.45594000000E+02  0.51100000000E-03 0.  1.
         11   -1    0    0    0    0 -0.00000000000E+00 -0.00000000000E+00 -0.45593999997E+02  0.45594000000E+02  0.51100000000E-03 0. -1.
    9900012    2    1    2    0    0 -0.23767851036E+02 -0.18840533387E+02 -0.33305211247E+02  0.46142317217E+02  0.99999950364E+01 0.  0.
        -12    1    1    2    0    0  0.23767851036E+02  0.18840533387E+02  0.33305211247E+02  0.45045682783E+02  0.00000000000E+00 0.  1.
         11    1    3    3    0    0 -0.48329069016E+01 -0.35101011040E+01 -0.40184073844E+01  0.71989858347E+01  0.51100000000E-03 0. -1.
        -11    1    3    3    0    0 -0.13889868529E+02 -0.86390012110E+01 -0.23968142760E+02  0.29017798974E+02  0.51100000000E-03 0.  1.
        -12    1    3    3    0    0 -0.50450756054E+01 -0.66914310721E+01 -0.53186611032E+01  0.99255324082E+01  0.00000000000E+00 0.  1.
</event>
<event>
 7    1  0.4081218E-008  0.4614232E+02  0.7816164E-02  0.1320468E+00
        -11   -1    0    0    0    0  0.00000000000E+00  0.00000000000E+00  0.45593999997E+02  0.45594000000E+02  0.51100000000E-03 0. -1.
         11   -1    0    0    0    0 -0.00000000000E+00 -0.00000000000E+00 -0.45593999997E+02  0.45594000000E+02  0.51100000000E-03 0.  1.
    9900012    2    1    2    0    0 -0.34059350634E+02  0.27280593704E+02 -0.11173326700E+02  0.46142318876E+02  0.10000010165E+02 0.  0.
        -12    1    1    2    0    0  0.34059350634E+02 -0.27280593704E+02  0.11173326700E+02  0.45045681124E+02  0.00000000000E+00 0.  1.
         11    1    3    3    0    0 -0.13090788566E+02  0.11999501741E+02 -0.46275383556E+01  0.18351318721E+02  0.51100000000E-03 0. -1.
        -11    1    3    3    0    0 -0.11026139100E+02  0.10968407427E+02 -0.67437927071E+01  0.16951709214E+02  0.51100000000E-03 0.  1.
        -12    1    3    3    0    0 -0.99424229671E+01  0.43126845351E+01  0.19800436294E+00  0.10839290940E+02  0.00000000000E+00 0.  1.
</event>
<event>
 7    1  0.4081218E-008  0.4614232E+02  0.7816164E-02  0.1320468E+00
        -11   -1    0    0    0    0  0.00000000000E+00  0.00000000000E+00  0.45593999997E+02  0.45594000000E+02  0.51100000000E-03 0. -1.
         11   -1    0    0    0    0 -0.00000000000E+00 -0.00000000000E+00 -0.45593999997E+02  0.45594000000E+02  0.51100000000E-03 0.  1.
    9900012    2    1    2    0    0 -0.23923137910E+02  0.13386956410E+02  0.35743340767E+02  0.46142317204E+02  0.99999949175E+01 0.  0.
        -12    1    1    2    0    0  0.23923137910E+02 -0.13386956410E+02 -0.35743340767E+02  0.45045682796E+02  0.00000000000E+00 0.  1.
         11    1    3    3    0    0 -0.13712417848E+02  0.10323908640E+02  0.18562242983E+02  0.25281818718E+02  0.51100000000E-03 0. -1.
        -11    1    3    3    0    0 -0.10470152094E+02  0.29304181965E+01  0.14295916106E+02  0.17960641783E+02  0.51100000000E-03 0.  1.
        -12    1    3    3    0    0  0.25943203271E+00  0.13262957353E+00  0.28851816773E+01  0.28998567023E+01  0.00000000000E+00 0.  1.
</event>
<event>
 7    1  0.4081218E-008  0.4614232E+02  0.7816164E-02  0.1320468E+00
        -11   -1    0    0    0    0  0.00000000000E+00  0.00000000000E+00  0.45593999997E+02  0.45594000000E+02  0.51100000000E-03 0.  1.
         11   -1    0    0    0    0 -0.00000000000E+00 -0.00000000000E+00 -0.45593999997E+02  0.45594000000E+02  0.51100000000E-03 0. -1.
    9900012    2    1    2    0    0 -0.18261549350E+02  0.39259189286E+02 -0.12423580585E+02  0.46142317825E+02  0.10000000580E+02 0.  0.
        -12    1    1    2    0    0  0.18261549350E+02 -0.39259189286E+02  0.12423580585E+02  0.45045682175E+02  0.00000000000E+00 0.  1.
         11    1    3    3    0    0 -0.17174563912E+01  0.80445865838E+01 -0.46587462557E+01  0.94535150445E+01  0.51100000000E-03 0. -1.
        -11    1    3    3    0    0 -0.35936115618E+01  0.28648924032E+01 -0.12045294508E+00  0.45974081516E+01  0.51100000000E-03 0.  1.
         12    1    3    3    0    0 -0.12950481397E+02  0.28349710299E+02 -0.76443813840E+01  0.32091394629E+02  0.00000000000E+00 0. -1.
</event>
<event>
 7    1  0.4081218E-008  0.4614233E+02  0.7816164E-02  0.1320468E+00
        -11   -1    0    0    0    0  0.00000000000E+00  0.00000000000E+00  0.45593999997E+02  0.45594000000E+02  0.51100000000E-03 0.  1.
         11   -1    0    0    0    0 -0.00000000000E+00 -0.00000000000E+00 -0.45593999997E+02  0.45594000000E+02  0.51100000000E-03 0. -1.
    9900012    2    1    2    0    0 -0.21989867549E+02  0.33845075571E+02 -0.20001729309E+02  0.46142327727E+02  0.10000090877E+02 0.  0.
        -12    1    1    2    0    0  0.21989867549E+02 -0.33845075571E+02  0.20001729309E+02  0.45045672273E+02  0.00000000000E+00 0.  1.
         11    1    3    3    0    0 -0.10274577697E+02  0.16094514916E+02 -0.67969446881E+01  0.20268172454E+02  0.51100000000E-03 0. -1.
        -11    1    3    3    0    0 -0.77875549855E+01  0.68333887382E+01 -0.41665932758E+01  0.11166992168E+02  0.51100000000E-03 0.  1.
         12    1    3    3    0    0 -0.39277348659E+01  0.10917171916E+02 -0.90381913447E+01  0.14707163105E+02  0.00000000000E+00 0. -1.
</event>
<event>
 7    1  0.4081218E-008  0.4614232E+02  0.7816164E-02  0.1320468E+00
        -11   -1    0    0    0    0  0.00000000000E+00  0.00000000000E+00  0.45593999997E+02  0.45594000000E+02  0.51100000000E-03 0.  1.
         11   -1    0    0    0    0 -0.00000000000E+00 -0.00000000000E+00 -0.45593999997E+02  0.45594000000E+02  0.51100000000E-03 0. -1.
    9900012    2    1    2    0    0  0.25339070633E+02 -0.15115728352E+02 -0.34037623400E+02  0.46142317067E+02  0.99999936722E+01 0.  0.
        -12    1    1    2    0    0 -0.25339070633E+02  0.15115728352E+02  0.34037623400E+02  0.45045682933E+02  0.00000000000E+00 0.  1.
         11    1    3    3    0    0  0.18092357870E+02 -0.11046668937E+02 -0.26619155839E+02  0.34028543398E+02  0.51100000000E-03 0. -1.
        -11    1    3    3    0    0  0.34982023525E+01 -0.45843532565E+01 -0.40374475338E+01  0.70395097364E+01  0.51100000000E-03 0.  1.
         12    1    3    3    0    0  0.37485104103E+01  0.51529384175E+00 -0.33810200272E+01  0.50742639332E+01  0.00000000000E+00 0. -1.
</event>
<event>
 7    1  0.4081218E-008  0.4614232E+02  0.7816164E-02  0.1320468E+00
        -11   -1    0    0    0    0  0.00000000000E+00  0.00000000000E+00  0.45593999997E+02  0.45594000000E+02  0.51100000000E-03 0.  1.
         11   -1    0    0    0    0 -0.00000000000E+00 -0.00000000000E+00 -0.45593999997E+02  0.45594000000E+02  0.51100000000E-03 0. -1.
    9900012    2    1    2    0    0  0.16088335711E+02 -0.17877980569E+02 -0.38087487637E+02  0.46142318190E+02  0.10000003915E+02 0.  0.
        -12    1    1    2    0    0 -0.16088335711E+02  0.17877980569E+02  0.38087487637E+02  0.45045681810E+02  0.00000000000E+00 0.  1.
         11    1    3    3    0    0  0.87641666272E+01 -0.10281179694E+02 -0.21702183758E+02  0.25563607975E+02  0.51100000000E-03 0. -1.
        -11    1    3    3    0    0  0.75924534688E+01 -0.48602665965E+01 -0.14998286942E+02  0.17499032902E+02  0.51100000000E-03 0.  1.
        -12    1    3    3    0    0 -0.26828438529E+00 -0.27365342785E+01 -0.13870169377E+01  0.30796773134E+01  0.00000000000E+00 0.  1.
</event>
<event>
 7    1  0.4081218E-008  0.4614231E+02  0.7816164E-02  0.1320468E+00
        -11   -1    0    0    0    0  0.00000000000E+00  0.00000000000E+00  0.45593999997E+02  0.45594000000E+02  0.51100000000E-03 0.  1.
         11   -1    0    0    0    0 -0.00000000000E+00 -0.00000000000E+00 -0.45593999997E+02  0.45594000000E+02  0.51100000000E-03 0. -1.
    9900012    2    1    2    0    0 -0.26991137128E+02  0.53619637140E+01 -0.35662888814E+02  0.46142314559E+02  0.99999707964E+01 0.  0.
        -12    1    1    2    0    0  0.26991137128E+02 -0.53619637140E+01  0.35662888814E+02  0.45045685441E+02  0.00000000000E+00 0.  1.
         11    1    3    3    0    0 -0.63200032184E+01 -0.15758686669E+00 -0.70900443998E+01  0.94992633480E+01  0.51100000000E-03 0. -1.
        -11    1    3    3    0    0 -0.16327839676E+02  0.29619958648E+01 -0.15806094120E+02  0.22917337969E+02  0.51100000000E-03 0.  1.
         12    1    3    3    0    0 -0.43432942337E+01  0.25575547159E+01 -0.12766750294E+02  0.13725713242E+02  0.00000000000E+00 0. -1.
</event>
<event>
 7    1  0.4081218E-008  0.4614232E+02  0.7816164E-02  0.1320468E+00
        -11   -1    0    0    0    0  0.00000000000E+00  0.00000000000E+00  0.45593999997E+02  0.45594000000E+02  0.51100000000E-03 0.  1.
         11   -1    0    0    0    0 -0.00000000000E+00 -0.00000000000E+00 -0.45593999997E+02  0.45594000000E+02  0.51100000000E-03 0. -1.
    9900012    2    1    2    0    0 -0.10121755867E+01  0.44818851554E+02 -0.43999454086E+01  0.46142317924E+02  0.10000001489E+02 0.  0.
        -12    1    1    2    0    0  0.10121755867E+01 -0.44818851554E+02  0.43999454086E+01  0.45045682076E+02  0.00000000000E+00 0.  1.
         11    1    3    3    0    0 -0.11647187229E+01  0.14730386983E+02 -0.22160713031E+01  0.14941614460E+02  0.51100000000E-03 0. -1.
        -11    1    3    3    0    0  0.16789836487E+01  0.14560204809E+02  0.25897062166E+01  0.14883720258E+02  0.51100000000E-03 0.  1.
        -12    1    3    3    0    0 -0.15264405125E+01  0.15528259762E+02 -0.47735803220E+01  0.16316983206E+02  0.00000000000E+00 0.  1.
</event>
<event>
 7    1  0.4081218E-008  0.4614230E+02  0.7816164E-02  0.1320468E+00
        -11   -1    0    0    0    0  0.00000000000E+00  0.00000000000E+00  0.45593999997E+02  0.45594000000E+02  0.51100000000E-03 0.  1.
         11   -1    0    0    0    0 -0.00000000000E+00 -0.00000000000E+00 -0.45593999997E+02  0.45594000000E+02  0.51100000000E-03 0. -1.
    9900012    2    1    2    0    0 -0.78519052494E+01 -0.18421056380E+02 -0.40350055116E+02  0.46142304511E+02  0.99998791725E+01 0.  0.
        -12    1    1    2    0    0  0.78519052494E+01  0.18421056380E+02  0.40350055116E+02  0.45045695489E+02  0.00000000000E+00 0.  1.
         11    1    3    3    0    0 -0.51562113396E+01 -0.73867889683E+01 -0.25204673986E+02  0.26766149473E+02  0.51100000000E-03 0. -1.
        -11    1    3    3    0    0  0.10013599671E+01 -0.18662964959E+01 -0.18758393030E+01  0.28292327133E+01  0.51100000000E-03 0.  1.
         12    1    3    3    0    0 -0.36970538769E+01 -0.91679709163E+01 -0.13269541828E+02  0.16546922324E+02  0.00000000000E+00 0. -1.
</event>
<event>
 7    1  0.4081218E-008  0.4614232E+02  0.7816164E-02  0.1320468E+00
        -11   -1    0    0    0    0  0.00000000000E+00  0.00000000000E+00  0.45593999997E+02  0.45594000000E+02  0.51100000000E-03 0.  1.
         11   -1    0    0    0    0 -0.00000000000E+00 -0.00000000000E+00 -0.45593999997E+02  0.45594000000E+02  0.51100000000E-03 0. -1.
    9900012    2    1    2    0    0 -0.79187849077E+01 -0.84265944267E+01 -0.43536178460E+02  0.46142317822E+02  0.10000000552E+02 0.  0.
        -12    1    1    2    0    0  0.79187849077E+01  0.84265944267E+01  0.43536178460E+02  0.45045682178E+02  0.00000000000E+00 0.  1.
         11    1    3    3    0    0 -0.52400868272E+01 -0.44718163363E+01 -0.29326079810E+02  0.30124319222E+02  0.51100000000E-03 0. -1.
        -11    1    3    3    0    0  0.80542262436E+00 -0.38194968554E+01 -0.77041342443E+01  0.86366050360E+01  0.51100000000E-03 0.  1.
        -12    1    3    3    0    0 -0.34841207049E+01 -0.13528123496E+00 -0.65059644052E+01  0.73813935636E+01  0.00000000000E+00 0.  1.
</event>
<event>
 7    1  0.4081218E-008  0.4614232E+02  0.7816164E-02  0.1320468E+00
        -11   -1    0    0    0    0  0.00000000000E+00  0.00000000000E+00  0.45593999997E+02  0.45594000000E+02  0.51100000000E-03 0.  1.
         11   -1    0    0    0    0 -0.00000000000E+00 -0.00000000000E+00 -0.45593999997E+02  0.45594000000E+02  0.51100000000E-03 0. -1.
    9900012    2    1    2    0    0 -0.39155525115E+02  0.19861882067E+02  0.10072943654E+02  0.46142315410E+02  0.99999785616E+01 0.  0.
        -12    1    1    2    0    0  0.39155525115E+02 -0.19861882067E+02 -0.10072943654E+02  0.45045684590E+02  0.00000000000E+00 0.  1.
         11    1    3    3    0    0 -0.23509671087E+02  0.10069970899E+02  0.53898577256E+01  0.26137320350E+02  0.51100000000E-03 0. -1.
        -11    1    3    3    0    0 -0.15626934310E+02  0.92888593810E+01  0.55456587296E+01  0.19006270427E+02  0.51100000000E-03 0.  1.
        -12    1    3    3    0    0 -0.18919718550E-01  0.50305178656E+00 -0.86257280097E+00  0.99872463306E+00  0.00000000000E+00 0.  1.
</event>
<event>
 7    1  0.4081218E-008  0.4614232E+02  0.7816164E-02  0.1320468E+00
        -11   -1    0    0    0    0  0.00000000000E+00  0.00000000000E+00  0.45593999997E+02  0.45594000000E+02  0.51100000000E-03 0. -1.
         11   -1    0    0    0    0 -0.00000000000E+00 -0.00000000000E+00 -0.45593999997E+02  0.45594000000E+02  0.51100000000E-03 0.  1.
    9900012    2    1    2    0    0  0.33847952173E+01  0.17161771148E+02  0.41510602733E+02  0.46142319110E+02  0.10000012300E+02 0.  0.
        -12    1    1    2    0    0 -0.33847952173E+01 -0.17161771148E+02 -0.41510602733E+02  0.45045680890E+02  0.00000000000E+00 0.  1.
         11    1    3    3    0    0  0.34960042403E+01  0.83590505419E+01  0.24482289673E+02  0.26105138948E+02  0.51100000000E-03 0.  1.
        -11    1    3    3    0    0  0.26705538307E+00  0.69244937089E+01  0.16716686443E+02  0.18096064147E+02  0.51100000000E-03 0. -1.
        -12    1    3    3    0    0 -0.37826440603E+00  0.18782268967E+01  0.31162661705E+00  0.19411160153E+01  0.00000000000E+00 0.  1.
</event>
<event>
 7    1  0.4081218E-008  0.4614232E+02  0.7816164E-02  0.1320468E+00
        -11   -1    0    0    0    0  0.00000000000E+00  0.00000000000E+00  0.45593999997E+02  0.45594000000E+02  0.51100000000E-03 0.  1.
         11   -1    0    0    0    0 -0.00000000000E+00 -0.00000000000E+00 -0.45593999997E+02  0.45594000000E+02  0.51100000000E-03 0. -1.
    9900012    2    1    2    0    0 -0.83351164931E+01 -0.22916180860E+02 -0.37874634572E+02  0.46142318119E+02  0.10000003259E+02 0.  0.
        -12    1    1    2    0    0  0.83351164931E+01  0.22916180860E+02  0.37874634572E+02  0.45045681881E+02  0.00000000000E+00 0.  1.
         11    1    3    3    0    0 -0.81593009888E+00 -0.10547563063E+02 -0.19145967359E+02  0.21874297586E+02  0.51100000000E-03 0. -1.
        -11    1    3    3    0    0 -0.53779872172E+01 -0.41480393568E+01 -0.66847485750E+01  0.95296820926E+01  0.51100000000E-03 0.  1.
        -12    1    3    3    0    0 -0.21411991770E+01 -0.82205784405E+01 -0.12043918638E+02  0.14738338440E+02  0.00000000000E+00 0.  1.
</event>
<event>
 7    1  0.4081218E-008  0.4614232E+02  0.7816164E-02  0.1320468E+00
        -11   -1    0    0    0    0  0.00000000000E+00  0.00000000000E+00  0.45593999997E+02  0.45594000000E+02  0.51100000000E-03 0.  1.
         11   -1    0    0    0    0 -0.00000000000E+00 -0.00000000000E+00 -0.45593999997E+02  0.45594000000E+02  0.51100000000E-03 0. -1.
    9900012    2    1    2    0    0  0.44867668046E+02 -0.31077554238E+01 -0.25193840183E+01  0.46142322344E+02  0.10000041790E+02 0.  0.
        -12    1    1    2    0    0 -0.44867668046E+02  0.31077554238E+01  0.25193840183E+01  0.45045677656E+02  0.00000000000E+00 0.  1.
         11    1    3    3    0    0  0.56087710261E+01  0.17378317679E+01 -0.33173799800E+00  0.58811922292E+01  0.51100000000E-03 0. -1.
        -11    1    3    3    0    0  0.20515477257E+02 -0.61255039780E+01 -0.87655689926E+00  0.21428368074E+02  0.51100000000E-03 0.  1.
         12    1    3    3    0    0  0.18743419763E+02  0.12799167863E+01 -0.13110891210E+01  0.18832762041E+02  0.00000000000E+00 0. -1.
</event>
<event>
 7    1  0.4081218E-008  0.4614232E+02  0.7816164E-02  0.1320468E+00
        -11   -1    0    0    0    0  0.00000000000E+00  0.00000000000E+00  0.45593999997E+02  0.45594000000E+02  0.51100000000E-03 0. -1.
         11   -1    0    0    0    0 -0.00000000000E+00 -0.00000000000E+00 -0.45593999997E+02  0.45594000000E+02  0.51100000000E-03 0.  1.
    9900012    2    1    2    0    0  0.17502024134E+02 -0.29223786614E+02  0.29474782968E+02  0.46142318921E+02  0.10000010577E+02 0.  0.
        -12    1    1    2    0    0 -0.17502024134E+02  0.29223786614E+02 -0.29474782968E+02  0.45045681079E+02  0.00000000000E+00 0.  1.
         11    1    3    3    0    0  0.13100717392E+02 -0.21624293720E+02  0.25109141129E+02  0.35632960074E+02  0.51100000000E-03 0. -1.
        -11    1    3    3    0    0  0.11206669015E+01 -0.39027194970E+01  0.37526128985E+01  0.55289436245E+01  0.51100000000E-03 0.  1.
        -12    1    3    3    0    0  0.32806398404E+01 -0.36967733970E+01  0.61302894012E+00  0.49804152229E+01  0.00000000000E+00 0.  1.
</event>
<event>
 7    1  0.4081218E-008  0.4614232E+02  0.7816164E-02  0.1320468E+00
        -11   -1    0    0    0    0  0.00000000000E+00  0.00000000000E+00  0.45593999997E+02  0.45594000000E+02  0.51100000000E-03 0.  1.
         11   -1    0    0    0    0 -0.00000000000E+00 -0.00000000000E+00 -0.45593999997E+02  0.45594000000E+02  0.51100000000E-03 0. -1.
    9900012    2    1    2    0    0 -0.39558272657E+02  0.17096882258E+02 -0.13113090952E+02  0.46142317933E+02  0.10000001569E+02 0.  0.
        -12    1    1    2    0    0  0.39558272657E+02 -0.17096882258E+02  0.13113090952E+02  0.45045682067E+02  0.00000000000E+00 0.  1.
         11    1    3    3    0    0 -0.26944954865E+02  0.73959619432E+01 -0.79927522774E+01  0.29062259633E+02  0.51100000000E-03 0. -1.
        -11    1    3    3    0    0 -0.10405410194E+01  0.23758506798E+01 -0.66813652217E+00  0.26783948064E+01  0.51100000000E-03 0.  1.
         12    1    3    3    0    0 -0.11572776773E+02  0.73250696350E+01 -0.44522021528E+01  0.14401663494E+02  0.00000000000E+00 0. -1.
</event>
<event>
 7    1  0.4081218E-008  0.4614232E+02  0.7816164E-02  0.1320468E+00
        -11   -1    0    0    0    0  0.00000000000E+00  0.00000000000E+00  0.45593999997E+02  0.45594000000E+02  0.51100000000E-03 0.  1.
         11   -1    0    0    0    0 -0.00000000000E+00 -0.00000000000E+00 -0.45593999997E+02  0.45594000000E+02  0.51100000000E-03 0. -1.
    9900012    2    1    2    0    0 -0.21425100612E+02 -0.12279503808E+02 -0.37673495009E+02  0.46142319006E+02  0.10000011353E+02 0.  0.
        -12    1    1    2    0    0  0.21425100612E+02  0.12279503808E+02  0.37673495009E+02  0.45045680994E+02  0.00000000000E+00 0.  1.
         11    1    3    3    0    0 -0.13407851372E+02 -0.70600909485E+01 -0.23997816433E+02  0.28381517867E+02  0.51100000000E-03 0. -1.
        -11    1    3    3    0    0 -0.17373666436E+01 -0.29684161743E+01 -0.89424940035E+01  0.95811344162E+01  0.51100000000E-03 0.  1.
        -12    1    3    3    0    0 -0.62798825968E+01 -0.22509966848E+01 -0.47331845729E+01  0.81796667234E+01  0.00000000000E+00 0.  1.
</event>
<event>
 7    1  0.4081218E-008  0.4614232E+02  0.7816164E-02  0.1320468E+00
        -11   -1    0    0    0    0  0.00000000000E+00  0.00000000000E+00  0.45593999997E+02  0.45594000000E+02  0.51100000000E-03 0.  1.
         11   -1    0    0    0    0 -0.00000000000E+00 -0.00000000000E+00 -0.45593999997E+02  0.45594000000E+02  0.51100000000E-03 0. -1.
    9900012    2    1    2    0    0 -0.33899566464E+02 -0.15632485890E+02 -0.25210280811E+02  0.46142317852E+02  0.10000000832E+02 0.  0.
        -12    1    1    2    0    0  0.33899566464E+02  0.15632485890E+02  0.25210280811E+02  0.45045682148E+02  0.00000000000E+00 0.  1.
         11    1    3    3    0    0 -0.12779799213E+02 -0.85014971645E+01 -0.12318732529E+02  0.19681206603E+02  0.51100000000E-03 0.  1.
        -11    1    3    3    0    0 -0.47594780040E+01 -0.26587774341E+01 -0.61270481467E+01  0.82013686399E+01  0.51100000000E-03 0. -1.
        -12    1    3    3    0    0 -0.16360289247E+02 -0.44722112910E+01 -0.67645001358E+01  0.18259742610E+02  0.00000000000E+00 0.  1.
</event>
<event>
 7    1  0.4081218E-008  0.4614232E+02  0.7816164E-02  0.1320468E+00
        -11   -1    0    0    0    0  0.00000000000E+00  0.00000000000E+00  0.45593999997E+02  0.45594000000E+02  0.51100000000E-03 0.  1.
         11   -1    0    0    0    0 -0.00000000000E+00 -0.00000000000E+00 -0.45593999997E+02  0.45594000000E+02  0.51100000000E-03 0. -1.
    9900012    2    1    2    0    0 -0.17632143804E+02 -0.14925428201E+02 -0.38671081994E+02  0.46142317802E+02  0.10000000372E+02 0.  0.
        -12    1    1    2    0    0  0.17632143804E+02  0.14925428201E+02  0.38671081994E+02  0.45045682198E+02  0.00000000000E+00 0.  1.
         11    1    3    3    0    0 -0.81793689911E+01 -0.10078809261E+02 -0.24345235090E+02  0.27589399143E+02  0.51100000000E-03 0. -1.
        -11    1    3    3    0    0 -0.82609580495E+00 -0.25283086296E+01 -0.19873103997E+01  0.33202683162E+01  0.51100000000E-03 0.  1.
        -12    1    3    3    0    0 -0.86266790081E+01 -0.23183103104E+01 -0.12338536504E+02  0.15232650343E+02  0.00000000000E+00 0.  1.
</event>
<event>
 7    1  0.4081218E-008  0.4614232E+02  0.7816164E-02  0.1320468E+00
        -11   -1    0    0    0    0  0.00000000000E+00  0.00000000000E+00  0.45593999997E+02  0.45594000000E+02  0.51100000000E-03 0.  1.
         11   -1    0    0    0    0 -0.00000000000E+00 -0.00000000000E+00 -0.45593999997E+02  0.45594000000E+02  0.51100000000E-03 0. -1.
    9900012    2    1    2    0    0 -0.26760161823E+02 -0.18008453072E+02 -0.31443644104E+02  0.46142318771E+02  0.10000009210E+02 0.  0.
        -12    1    1    2    0    0  0.26760161823E+02  0.18008453072E+02  0.31443644104E+02  0.45045681229E+02  0.00000000000E+00 0.  1.
         11    1    3    3    0    0 -0.13719819213E+02 -0.11392915009E+02 -0.11517195439E+02  0.21229171974E+02  0.51100000000E-03 0. -1.
        -11    1    3    3    0    0 -0.74331179786E+01 -0.20443784643E+01 -0.10729643870E+02  0.13211963670E+02  0.51100000000E-03 0.  1.
         12    1    3    3    0    0 -0.56072246319E+01 -0.45711595984E+01 -0.91968047948E+01  0.11701183127E+02  0.00000000000E+00 0. -1.
</event>
<event>
 7    1  0.4081218E-008  0.4614232E+02  0.7816164E-02  0.1320468E+00
        -11   -1    0    0    0    0  0.00000000000E+00  0.00000000000E+00  0.45593999997E+02  0.45594000000E+02  0.51100000000E-03 0.  1.
         11   -1    0    0    0    0 -0.00000000000E+00 -0.00000000000E+00 -0.45593999997E+02  0.45594000000E+02  0.51100000000E-03 0. -1.
    9900012    2    1    2    0    0 -0.11892301548E+02 -0.25858960071E+02 -0.34914192984E+02  0.46142317367E+02  0.99999964094E+01 0.  0.
        -12    1    1    2    0    0  0.11892301548E+02  0.25858960071E+02  0.34914192984E+02  0.45045682633E+02  0.00000000000E+00 0.  1.
         11    1    3    3    0    0 -0.14042408909E+01 -0.18578173103E+01 -0.53141023527E+01  0.58019877382E+01  0.51100000000E-03 0. -1.
        -11    1    3    3    0    0 -0.79592480639E+00 -0.11152620366E+02 -0.14108310723E+02  0.18001635177E+02  0.51100000000E-03 0.  1.
        -12    1    3    3    0    0 -0.96921358509E+01 -0.12848522395E+02 -0.15491779909E+02  0.22338694452E+02  0.00000000000E+00 0.  1.
</event>
<event>
 7    1  0.4081218E-008  0.4614232E+02  0.7816164E-02  0.1320468E+00
        -11   -1    0    0    0    0  0.00000000000E+00  0.00000000000E+00  0.45593999997E+02  0.45594000000E+02  0.51100000000E-03 0.  1.
         11   -1    0    0    0    0 -0.00000000000E+00 -0.00000000000E+00 -0.45593999997E+02  0.45594000000E+02  0.51100000000E-03 0. -1.
    9900012    2    1    2    0    0  0.24586722601E+02 -0.51510667096E+01 -0.37390810266E+02  0.46142321974E+02  0.10000038415E+02 0.  0.
        -12    1    1    2    0    0 -0.24586722601E+02  0.51510667096E+01  0.37390810266E+02  0.45045678026E+02  0.00000000000E+00 0.  1.
         11    1    3    3    0    0  0.17217759341E+02 -0.18684633984E+00 -0.22333978868E+02  0.28200935456E+02  0.51100000000E-03 0. -1.
        -11    1    3    3    0    0  0.70956992901E-01  0.36156765688E+00 -0.21818761417E+01  0.22127697179E+01  0.51100000000E-03 0.  1.
         12    1    3    3    0    0  0.72980062668E+01 -0.53257880266E+01 -0.12874955256E+02  0.15728616800E+02  0.00000000000E+00 0. -1.
</event>
<event>
 7    1  0.4081218E-008  0.4614232E+02  0.7816164E-02  0.1320468E+00
        -11   -1    0    0    0    0  0.00000000000E+00  0.00000000000E+00  0.45593999997E+02  0.45594000000E+02  0.51100000000E-03 0. -1.
         11   -1    0    0    0    0 -0.00000000000E+00 -0.00000000000E+00 -0.45593999997E+02  0.45594000000E+02  0.51100000000E-03 0.  1.
    9900012    2    1    2    0    0  0.32636575787E+02 -0.14249220670E+02  0.27584907969E+02  0.46142317449E+02  0.99999971547E+01 0.  0.
        -12    1    1    2    0    0 -0.32636575787E+02  0.14249220670E+02 -0.27584907969E+02  0.45045682551E+02  0.00000000000E+00 0.  1.
         11    1    3    3    0    0  0.20721133806E+02 -0.91326382635E+01  0.20763595202E+02  0.30722912522E+02  0.51100000000E-03 0. -1.
        -11    1    3    3    0    0  0.62040575308E+01 -0.49216023812E+01  0.52193198165E+01  0.94843976852E+01  0.51100000000E-03 0.  1.
        -12    1    3    3    0    0  0.57113844500E+01 -0.19498002578E+00  0.16019929507E+01  0.59350072418E+01  0.00000000000E+00 0.  1.
</event>
<event>
 7    1  0.4081218E-008  0.4614232E+02  0.7816164E-02  0.1320468E+00
        -11   -1    0    0    0    0  0.00000000000E+00  0.00000000000E+00  0.45593999997E+02  0.45594000000E+02  0.51100000000E-03 0.  1.
         11   -1    0    0    0    0 -0.00000000000E+00 -0.00000000000E+00 -0.45593999997E+02  0.45594000000E+02  0.51100000000E-03 0. -1.
    9900012    2    1    2    0    0  0.21220684193E+02  0.55030506939E+01 -0.39351144062E+02  0.46142317148E+02  0.99999944120E+01 0.  0.
        -12    1    1    2    0    0 -0.21220684193E+02 -0.55030506939E+01  0.39351144062E+02  0.45045682852E+02  0.00000000000E+00 0.  1.
         11    1    3    3    0    0  0.91377480556E+01  0.54432413815E+01 -0.12182457208E+02  0.16172185385E+02  0.51100000000E-03 0.  1.
        -11    1    3    3    0    0  0.29261527337E+01  0.15023825208E+01 -0.56129850431E+01  0.65057762346E+01  0.51100000000E-03 0. -1.
        -12    1    3    3    0    0  0.91567834039E+01 -0.14425732084E+01 -0.21555701811E+02  0.23464355528E+02  0.00000000000E+00 0.  1.
</event>
<event>
 7    1  0.4081218E-008  0.4614232E+02  0.7816164E-02  0.1320468E+00
        -11   -1    0    0    0    0  0.00000000000E+00  0.00000000000E+00  0.45593999997E+02  0.45594000000E+02  0.51100000000E-03 0. -1.
         11   -1    0    0    0    0 -0.00000000000E+00 -0.00000000000E+00 -0.45593999997E+02  0.45594000000E+02  0.51100000000E-03 0.  1.
    9900012    2    1    2    0    0 -0.28529248173E+02 -0.26902079068E+02  0.22169204328E+02  0.46142317853E+02  0.10000000842E+02 0.  0.
        -12    1    1    2    0    0  0.28529248173E+02  0.26902079068E+02 -0.22169204328E+02  0.45045682147E+02  0.00000000000E+00 0.  1.
         11    1    3    3    0    0 -0.44661165350E+01 -0.33394886954E+01  0.60202840640E+01  0.82062294706E+01  0.51100000000E-03 0. -1.
        -11    1    3    3    0    0 -0.23921073001E+02 -0.23883902579E+02  0.16329822625E+02  0.37540932902E+02  0.51100000000E-03 0.  1.
        -12    1    3    3    0    0 -0.14205863698E+00  0.32131220584E+00 -0.18090236103E+00  0.39515548103E+00  0.00000000000E+00 0.  1.
</event>
<event>
 7    1  0.4081218E-008  0.4614232E+02  0.7816164E-02  0.1320468E+00
        -11   -1    0    0    0    0  0.00000000000E+00  0.00000000000E+00  0.45593999997E+02  0.45594000000E+02  0.51100000000E-03 0.  1.
         11   -1    0    0    0    0 -0.00000000000E+00 -0.00000000000E+00 -0.45593999997E+02  0.45594000000E+02  0.51100000000E-03 0. -1.
    9900012    2    1    2    0    0  0.81014399851E+01 -0.42574323970E+02  0.12284428323E+02  0.46142316849E+02  0.99999916802E+01 0.  0.
        -12    1    1    2    0    0 -0.81014399851E+01  0.42574323970E+02 -0.12284428323E+02  0.45045683151E+02  0.00000000000E+00 0.  1.
         11    1    3    3    0    0  0.49317196037E+01 -0.29038726384E+02  0.10340156202E+02  0.31216795460E+02  0.51100000000E-03 0. -1.
        -11    1    3    3    0    0  0.30526373572E+01 -0.37714234600E+01 -0.44558621528E+00  0.48724508295E+01  0.51100000000E-03 0.  1.
        -12    1    3    3    0    0  0.11708302413E+00 -0.97641741259E+01  0.23898583360E+01  0.10053070559E+02  0.00000000000E+00 0.  1.
</event>
<event>
 7    1  0.4081218E-008  0.4614232E+02  0.7816164E-02  0.1320468E+00
        -11   -1    0    0    0    0  0.00000000000E+00  0.00000000000E+00  0.45593999997E+02  0.45594000000E+02  0.51100000000E-03 0.  1.
         11   -1    0    0    0    0 -0.00000000000E+00 -0.00000000000E+00 -0.45593999997E+02  0.45594000000E+02  0.51100000000E-03 0. -1.
    9900012    2    1    2    0    0  0.70474128444E+01  0.97515410414E+01 -0.43409156595E+02  0.46142318112E+02  0.10000003196E+02 0.  0.
        -12    1    1    2    0    0 -0.70474128444E+01 -0.97515410414E+01  0.43409156595E+02  0.45045681888E+02  0.00000000000E+00 0.  1.
         11    1    3    3    0    0  0.42092506515E+01  0.65363928811E+01 -0.23900179627E+02  0.25132863136E+02  0.51100000000E-03 0. -1.
        -11    1    3    3    0    0 -0.19467070162E+01  0.13380960738E+01 -0.90861239426E+01  0.93881743630E+01  0.51100000000E-03 0.  1.
         12    1    3    3    0    0  0.47848692091E+01  0.18770520865E+01 -0.10422853025E+02  0.11621280612E+02  0.00000000000E+00 0. -1.
</event>
<event>
 7    1  0.4081218E-008  0.4614232E+02  0.7816164E-02  0.1320468E+00
        -11   -1    0    0    0    0  0.00000000000E+00  0.00000000000E+00  0.45593999997E+02  0.45594000000E+02  0.51100000000E-03 0.  1.
         11   -1    0    0    0    0 -0.00000000000E+00 -0.00000000000E+00 -0.45593999997E+02  0.45594000000E+02  0.51100000000E-03 0. -1.
    9900012    2    1    2    0    0  0.28215615888E+02  0.33289943046E+02 -0.11170151026E+02  0.46142316945E+02  0.99999925578E+01 0.  0.
        -12    1    1    2    0    0 -0.28215615888E+02 -0.33289943046E+02  0.11170151026E+02  0.45045683055E+02  0.00000000000E+00 0.  1.
         11    1    3    3    0    0  0.40931285110E+01  0.19762987604E+01 -0.10729240460E+01  0.46701845860E+01  0.51100000000E-03 0. -1.
        -11    1    3    3    0    0  0.15097268832E+02  0.13678847398E+02 -0.41768033695E+01  0.20796251561E+02  0.51100000000E-03 0.  1.
         12    1    3    3    0    0  0.90252185447E+01  0.17634796888E+02 -0.59204236103E+01  0.20675880798E+02  0.00000000000E+00 0. -1.
</event>
<event>
 7    1  0.4081218E-008  0.4614232E+02  0.7816164E-02  0.1320468E+00
        -11   -1    0    0    0    0  0.00000000000E+00  0.00000000000E+00  0.45593999997E+02  0.45594000000E+02  0.51100000000E-03 0. -1.
         11   -1    0    0    0    0 -0.00000000000E+00 -0.00000000000E+00 -0.45593999997E+02  0.45594000000E+02  0.51100000000E-03 0.  1.
    9900012    2    1    2    0    0  0.35237105503E+02  0.27919034818E+02  0.28261876048E+01  0.46142318234E+02  0.10000004314E+02 0.  0.
        -12    1    1    2    0    0 -0.35237105503E+02 -0.27919034818E+02 -0.28261876048E+01  0.45045681766E+02  0.00000000000E+00 0.  1.
         11    1    3    3    0    0  0.15714793293E+02  0.17661239749E+02  0.35757001548E+01  0.23909407136E+02  0.51100000000E-03 0. -1.
        -11    1    3    3    0    0  0.41603987968E+01  0.98126065903E+00 -0.10888387451E+00  0.42759380946E+01  0.51100000000E-03 0.  1.
         12    1    3    3    0    0  0.15361913413E+02  0.92765344091E+01 -0.64062867549E+00  0.17956973004E+02  0.00000000000E+00 0. -1.
</event>
<event>
 7    1  0.4081218E-008  0.4614232E+02  0.7816164E-02  0.1320468E+00
        -11   -1    0    0    0    0  0.00000000000E+00  0.00000000000E+00  0.45593999997E+02  0.45594000000E+02  0.51100000000E-03 0.  1.
         11   -1    0    0    0    0 -0.00000000000E+00 -0.00000000000E+00 -0.45593999997E+02  0.45594000000E+02  0.51100000000E-03 0. -1.
    9900012    2    1    2    0    0  0.13959074987E+02 -0.44070181779E+01 -0.42600890050E+02  0.46142318556E+02  0.10000007245E+02 0.  0.
        -12    1    1    2    0    0 -0.13959074987E+02  0.44070181779E+01  0.42600890050E+02  0.45045681444E+02  0.00000000000E+00 0.  1.
         11    1    3    3    0    0  0.59833407821E+01 -0.17911803217E+01 -0.11549055325E+02  0.13129713364E+02  0.51100000000E-03 0. -1.
        -11    1    3    3    0    0  0.31378675949E+01 -0.32609367172E+01 -0.61421891935E+01  0.76293125291E+01  0.51100000000E-03 0.  1.
        -12    1    3    3    0    0  0.48378666102E+01  0.64509886101E+00 -0.24909645532E+02  0.25383292663E+02  0.00000000000E+00 0.  1.
</event>
<event>
 7    1  0.4081218E-008  0.4614232E+02  0.7816164E-02  0.1320468E+00
        -11   -1    0    0    0    0  0.00000000000E+00  0.00000000000E+00  0.45593999997E+02  0.45594000000E+02  0.51100000000E-03 0.  1.
         11   -1    0    0    0    0 -0.00000000000E+00 -0.00000000000E+00 -0.45593999997E+02  0.45594000000E+02  0.51100000000E-03 0. -1.
    9900012    2    1    2    0    0 -0.12893249138E+02 -0.67914587888E+01 -0.42623393001E+02  0.46142318556E+02  0.10000007247E+02 0.  0.
        -12    1    1    2    0    0  0.12893249138E+02  0.67914587888E+01  0.42623393001E+02  0.45045681444E+02  0.00000000000E+00 0.  1.
         11    1    3    3    0    0 -0.12030988719E+02 -0.51162152527E+01 -0.38386776509E+02  0.40552003145E+02  0.51100000000E-03 0. -1.
        -11    1    3    3    0    0 -0.52149989043E+00 -0.76696808517E-01  0.40795998594E+00  0.66654043194E+00  0.51100000000E-03 0.  1.
         12    1    3    3    0    0 -0.34076052856E+00 -0.15985467276E+01 -0.46445764781E+01  0.49237749785E+01  0.00000000000E+00 0. -1.
</event>
<event>
 7    1  0.4081218E-008  0.4614232E+02  0.7816164E-02  0.1320468E+00
        -11   -1    0    0    0    0  0.00000000000E+00  0.00000000000E+00  0.45593999997E+02  0.45594000000E+02  0.51100000000E-03 0.  1.
         11   -1    0    0    0    0 -0.00000000000E+00 -0.00000000000E+00 -0.45593999997E+02  0.45594000000E+02  0.51100000000E-03 0. -1.
    9900012    2    1    2    0    0 -0.21759860698E+02  0.35193338108E+02 -0.17805922625E+02  0.46142318017E+02  0.10000002333E+02 0.  0.
        -12    1    1    2    0    0  0.21759860698E+02 -0.35193338108E+02  0.17805922625E+02  0.45045681983E+02  0.00000000000E+00 0.  1.
         11    1    3    3    0    0 -0.78027939352E+00 -0.38236656151E+00 -0.10378750778E+01  0.13535970809E+01  0.51100000000E-03 0. -1.
        -11    1    3    3    0    0 -0.34807518267E+01  0.46858304941E+01 -0.39296007403E+01  0.70366471375E+01  0.51100000000E-03 0.  1.
        -12    1    3    3    0    0 -0.17498829478E+02  0.30889874176E+02 -0.12838446806E+02  0.37752073799E+02  0.00000000000E+00 0.  1.
</event>
<event>
 7    1  0.4081218E-008  0.4614232E+02  0.7816164E-02  0.1320468E+00
        -11   -1    0    0    0    0  0.00000000000E+00  0.00000000000E+00  0.45593999997E+02  0.45594000000E+02  0.51100000000E-03 0.  1.
         11   -1    0    0    0    0 -0.00000000000E+00 -0.00000000000E+00 -0.45593999997E+02  0.45594000000E+02  0.51100000000E-03 0. -1.
    9900012    2    1    2    0    0 -0.34530295791E+02 -0.17420647815E+01 -0.28874511050E+02  0.46142317571E+02  0.99999982628E+01 0.  0.
        -12    1    1    2    0    0  0.34530295791E+02  0.17420647815E+01  0.28874511050E+02  0.45045682429E+02  0.00000000000E+00 0.  1.
         11    1    3    3    0    0 -0.12954243987E+02 -0.64607313007E+00 -0.54085585056E+01  0.14052841461E+02  0.51100000000E-03 0. -1.
        -11    1    3    3    0    0 -0.88273059906E+01  0.12360733187E+01 -0.10134202741E+02  0.13496342977E+02  0.51100000000E-03 0.  1.
         12    1    3    3    0    0 -0.12748745814E+02 -0.23320649701E+01 -0.13331749804E+02  0.18593133133E+02  0.00000000000E+00 0. -1.
</event>
<event>
 7    1  0.4081218E-008  0.4614232E+02  0.7816164E-02  0.1320468E+00
        -11   -1    0    0    0    0  0.00000000000E+00  0.00000000000E+00  0.45593999997E+02  0.45594000000E+02  0.51100000000E-03 0.  1.
         11   -1    0    0    0    0 -0.00000000000E+00 -0.00000000000E+00 -0.45593999997E+02  0.45594000000E+02  0.51100000000E-03 0. -1.
    9900012    2    1    2    0    0  0.57217183907E+01 -0.35594727786E+02 -0.27007236336E+02  0.46142317388E+02  0.99999965944E+01 0.  0.
        -12    1    1    2    0    0 -0.57217183907E+01  0.35594727786E+02  0.27007236336E+02  0.45045682612E+02  0.00000000000E+00 0.  1.
         11    1    3    3    0    0  0.47321373584E+01 -0.20855479830E+02 -0.20312932504E+02  0.29495073997E+02  0.51100000000E-03 0. -1.
        -11    1    3    3    0    0 -0.77407020013E+00 -0.91957455957E+01 -0.53846489702E+01  0.10684351479E+02  0.51100000000E-03 0.  1.
         12    1    3    3    0    0  0.17636512324E+01 -0.55435023609E+01 -0.13096548616E+01  0.59628919117E+01  0.00000000000E+00 0. -1.
</event>
<event>
 7    1  0.4081218E-008  0.4614232E+02  0.7816164E-02  0.1320468E+00
        -11   -1    0    0    0    0  0.00000000000E+00  0.00000000000E+00  0.45593999997E+02  0.45594000000E+02  0.51100000000E-03 0. -1.
         11   -1    0    0    0    0 -0.00000000000E+00 -0.00000000000E+00 -0.45593999997E+02  0.45594000000E+02  0.51100000000E-03 0.  1.
    9900012    2    1    2    0    0  0.30677753700E+02 -0.32567907586E+02  0.52268824331E+01  0.46142317892E+02  0.10000001193E+02 0.  0.
        -12    1    1    2    0    0 -0.30677753700E+02  0.32567907586E+02 -0.52268824331E+01  0.45045682108E+02  0.00000000000E+00 0.  1.
         11    1    3    3    0    0  0.14401333607E+02 -0.16327666028E+02  0.29771294914E+01  0.21973947935E+02  0.51100000000E-03 0. -1.
        -11    1    3    3    0    0  0.58275879605E+01 -0.96827375835E+01 -0.11847945627E+01  0.11363094955E+02  0.51100000000E-03 0.  1.
         12    1    3    3    0    0  0.10448832132E+02 -0.65575039751E+01  0.34345475044E+01  0.12805275002E+02  0.00000000000E+00 0. -1.
</event>
<event>
 7    1  0.4081218E-008  0.4614233E+02  0.7816164E-02  0.1320468E+00
        -11   -1    0    0    0    0  0.00000000000E+00  0.00000000000E+00  0.45593999997E+02  0.45594000000E+02  0.51100000000E-03 0.  1.
         11   -1    0    0    0    0 -0.00000000000E+00 -0.00000000000E+00 -0.45593999997E+02  0.45594000000E+02  0.51100000000E-03 0. -1.
    9900012    2    1    2    0    0  0.34877752265E+02  0.16843459446E+02 -0.22998964218E+02  0.46142333347E+02  0.10000142119E+02 0.  0.
        -12    1    1    2    0    0 -0.34877752265E+02 -0.16843459446E+02  0.22998964218E+02  0.45045666653E+02  0.00000000000E+00 0.  1.
         11    1    3    3    0    0  0.28460740232E+02  0.11807392037E+02 -0.19484501557E+02  0.36456467773E+02  0.51100000000E-03 0. -1.
        -11    1    3    3    0    0  0.23257319550E+01  0.13794083239E+01  0.66926503000E+00  0.27856260323E+01  0.51100000000E-03 0.  1.
         12    1    3    3    0    0  0.40912800781E+01  0.36566590853E+01 -0.41837276902E+01  0.69002395415E+01  0.00000000000E+00 0. -1.
</event>
<event>
 7    1  0.4081218E-008  0.4614232E+02  0.7816164E-02  0.1320468E+00
        -11   -1    0    0    0    0  0.00000000000E+00  0.00000000000E+00  0.45593999997E+02  0.45594000000E+02  0.51100000000E-03 0.  1.
         11   -1    0    0    0    0 -0.00000000000E+00 -0.00000000000E+00 -0.45593999997E+02  0.45594000000E+02  0.51100000000E-03 0. -1.
    9900012    2    1    2    0    0  0.29047515555E+02  0.14629813564E+01 -0.34397891269E+02  0.46142318762E+02  0.10000009129E+02 0.  0.
        -12    1    1    2    0    0 -0.29047515555E+02 -0.14629813564E+01  0.34397891269E+02  0.45045681238E+02  0.00000000000E+00 0.  1.
         11    1    3    3    0    0  0.16107348043E+02  0.13179386579E+01 -0.24327086576E+02  0.29206005630E+02  0.51100000000E-03 0. -1.
        -11    1    3    3    0    0  0.88518185379E+01  0.20202809544E+01 -0.61179667804E+01  0.10948321531E+02  0.51100000000E-03 0.  1.
         12    1    3    3    0    0  0.40883489741E+01 -0.18752382560E+01 -0.39528379126E+01  0.59879916011E+01  0.00000000000E+00 0. -1.
</event>
<event>
 7    1  0.4081218E-008  0.4614232E+02  0.7816164E-02  0.1320468E+00
        -11   -1    0    0    0    0  0.00000000000E+00  0.00000000000E+00  0.45593999997E+02  0.45594000000E+02  0.51100000000E-03 0.  1.
         11   -1    0    0    0    0 -0.00000000000E+00 -0.00000000000E+00 -0.45593999997E+02  0.45594000000E+02  0.51100000000E-03 0. -1.
    9900012    2    1    2    0    0  0.26074924219E+02 -0.64048486883E+01 -0.36168906131E+02  0.46142317294E+02  0.99999957371E+01 0.  0.
        -12    1    1    2    0    0 -0.26074924219E+02  0.64048486883E+01  0.36168906131E+02  0.45045682706E+02  0.00000000000E+00 0.  1.
         11    1    3    3    0    0  0.61974449306E+01 -0.20773613783E+01 -0.30397399159E+01  0.72085902215E+01  0.51100000000E-03 0.  1.
        -11    1    3    3    0    0  0.11689850377E+01 -0.15769291814E+00 -0.30086509970E+01  0.32316209799E+01  0.51100000000E-03 0. -1.
        -12    1    3    3    0    0  0.18708494251E+02 -0.41697943919E+01 -0.30120515218E+02  0.35702106092E+02  0.00000000000E+00 0.  1.
</event>
<event>
 7    1  0.4081218E-008  0.4614232E+02  0.7816164E-02  0.1320468E+00
        -11   -1    0    0    0    0  0.00000000000E+00  0.00000000000E+00  0.45593999997E+02  0.45594000000E+02  0.51100000000E-03 0.  1.
         11   -1    0    0    0    0 -0.00000000000E+00 -0.00000000000E+00 -0.45593999997E+02  0.45594000000E+02  0.51100000000E-03 0. -1.
    9900012    2    1    2    0    0 -0.33064867820E+02 -0.27480903751E+02 -0.13439791868E+02  0.46142316962E+02  0.99999927153E+01 0.  0.
        -12    1    1    2    0    0  0.33064867820E+02  0.27480903751E+02  0.13439791868E+02  0.45045683038E+02  0.00000000000E+00 0.  1.
         11    1    3    3    0    0 -0.33198603609E+00  0.15165478677E+00 -0.27761924484E+00  0.45857017864E+00  0.51100000000E-03 0. -1.
        -11    1    3    3    0    0 -0.29319960370E+02 -0.21553380910E+02 -0.87290950975E+01  0.37421990945E+02  0.51100000000E-03 0.  1.
         12    1    3    3    0    0 -0.34129214134E+01 -0.60791776269E+01 -0.44330775257E+01  0.82617558389E+01  0.00000000000E+00 0. -1.
</event>
<event>
 7    1  0.4081218E-008  0.4614232E+02  0.7816164E-02  0.1320468E+00
        -11   -1    0    0    0    0  0.00000000000E+00  0.00000000000E+00  0.45593999997E+02  0.45594000000E+02  0.51100000000E-03 0.  1.
         11   -1    0    0    0    0 -0.00000000000E+00 -0.00000000000E+00 -0.45593999997E+02  0.45594000000E+02  0.51100000000E-03 0. -1.
    9900012    2    1    2    0    0  0.23649830844E+02 -0.18698614903E+02 -0.33468803107E+02  0.46142317858E+02  0.10000000880E+02 0.  0.
        -12    1    1    2    0    0 -0.23649830844E+02  0.18698614903E+02  0.33468803107E+02  0.45045682142E+02  0.00000000000E+00 0.  1.
         11    1    3    3    0    0  0.24323789048E+01  0.69347186269E+00 -0.29188674739E+01  0.38622736765E+01  0.51100000000E-03 0. -1.
        -11    1    3    3    0    0  0.47991944371E+01 -0.17350859915E+01 -0.48407198004E+01  0.70338722685E+01  0.51100000000E-03 0.  1.
         12    1    3    3    0    0  0.16418257502E+02 -0.17657000774E+02 -0.25709215833E+02  0.35246171913E+02  0.00000000000E+00 0. -1.
</event>
<event>
 7    1  0.4081218E-008  0.4614232E+02  0.7816164E-02  0.1320468E+00
        -11   -1    0    0    0    0  0.00000000000E+00  0.00000000000E+00  0.45593999997E+02  0.45594000000E+02  0.51100000000E-03 0.  1.
         11   -1    0    0    0    0 -0.00000000000E+00 -0.00000000000E+00 -0.45593999997E+02  0.45594000000E+02  0.51100000000E-03 0. -1.
    9900012    2    1    2    0    0  0.35579186002E+01 -0.17432963076E+02 -0.41382923756E+02  0.46142319130E+02  0.10000012487E+02 0.  0.
        -12    1    1    2    0    0 -0.35579186002E+01  0.17432963076E+02  0.41382923756E+02  0.45045680870E+02  0.00000000000E+00 0.  1.
         11    1    3    3    0    0  0.67964753984E+01 -0.12073270340E+02 -0.26394065489E+02  0.29809438570E+02  0.51100000000E-03 0. -1.
        -11    1    3    3    0    0 -0.82403174344E+00 -0.33609782741E+00 -0.16134786760E+01  0.18426350053E+01  0.51100000000E-03 0.  1.
         12    1    3    3    0    0 -0.24145250548E+01 -0.50235949092E+01 -0.13375379591E+02  0.14490245556E+02  0.00000000000E+00 0. -1.
</event>
<event>
 7    1  0.4081218E-008  0.4614232E+02  0.7816164E-02  0.1320468E+00
        -11   -1    0    0    0    0  0.00000000000E+00  0.00000000000E+00  0.45593999997E+02  0.45594000000E+02  0.51100000000E-03 0.  1.
         11   -1    0    0    0    0 -0.00000000000E+00 -0.00000000000E+00 -0.45593999997E+02  0.45594000000E+02  0.51100000000E-03 0. -1.
    9900012    2    1    2    0    0 -0.13605115432E+02  0.95809481351E+01 -0.41859522957E+02  0.46142318794E+02  0.10000009421E+02 0.  0.
        -12    1    1    2    0    0  0.13605115432E+02 -0.95809481351E+01  0.41859522957E+02  0.45045681206E+02  0.00000000000E+00 0.  1.
         11    1    3    3    0    0 -0.34499255239E+01  0.49147959457E+01 -0.19021654631E+02  0.19946943387E+02  0.51100000000E-03 0. -1.
        -11    1    3    3    0    0 -0.99317917118E+01  0.46753141958E+01 -0.23258616682E+02  0.25718909380E+02  0.51100000000E-03 0.  1.
        -12    1    3    3    0    0 -0.22339819612E+00 -0.91620064510E-02  0.42074835632E+00  0.47646602789E+00  0.00000000000E+00 0.  1.
</event>
<event>
 7    1  0.4081218E-008  0.4614232E+02  0.7816164E-02  0.1320468E+00
        -11   -1    0    0    0    0  0.00000000000E+00  0.00000000000E+00  0.45593999997E+02  0.45594000000E+02  0.51100000000E-03 0.  1.
         11   -1    0    0    0    0 -0.00000000000E+00 -0.00000000000E+00 -0.45593999997E+02  0.45594000000E+02  0.51100000000E-03 0. -1.
    9900012    2    1    2    0    0 -0.97083621885E+01 -0.32747658354E+01 -0.43864987099E+02  0.46142317845E+02  0.10000000761E+02 0.  0.
        -12    1    1    2    0    0  0.97083621885E+01  0.32747658354E+01  0.43864987099E+02  0.45045682155E+02  0.00000000000E+00 0.  1.
         11    1    3    3    0    0 -0.39506539404E+01  0.28962510622E-01 -0.16612954189E+02  0.17076262839E+02  0.51100000000E-03 0. -1.
        -11    1    3    3    0    0 -0.38443125997E+01  0.20870613780E+01 -0.12542393898E+02  0.13283305670E+02  0.51100000000E-03 0.  1.
         12    1    3    3    0    0 -0.19133956484E+01 -0.53907897240E+01 -0.14709639012E+02  0.15782749336E+02  0.00000000000E+00 0. -1.
</event>
<event>
 7    1  0.4081218E-008  0.4614232E+02  0.7816164E-02  0.1320468E+00
        -11   -1    0    0    0    0  0.00000000000E+00  0.00000000000E+00  0.45593999997E+02  0.45594000000E+02  0.51100000000E-03 0. -1.
         11   -1    0    0    0    0 -0.00000000000E+00 -0.00000000000E+00 -0.45593999997E+02  0.45594000000E+02  0.51100000000E-03 0.  1.
    9900012    2    1    2    0    0  0.31438418566E+02 -0.22122588181E+02  0.23480427080E+02  0.46142317348E+02  0.99999962298E+01 0.  0.
        -12    1    1    2    0    0 -0.31438418566E+02  0.22122588181E+02 -0.23480427080E+02  0.45045682652E+02  0.00000000000E+00 0.  1.
         11    1    3    3    0    0  0.19258239086E+02 -0.13179595668E+02  0.11537819531E+02  0.26032725452E+02  0.51100000000E-03 0. -1.
        -11    1    3    3    0    0  0.10861997954E+02 -0.89597467766E+01  0.12350628783E+02  0.18729604733E+02  0.51100000000E-03 0.  1.
        -12    1    3    3    0    0  0.13181815256E+01  0.16754263833E-01 -0.40802123459E+00  0.13799871622E+01  0.00000000000E+00 0.  1.
</event>
<event>
 7    1  0.4081218E-008  0.4614232E+02  0.7816164E-02  0.1320468E+00
        -11   -1    0    0    0    0  0.00000000000E+00  0.00000000000E+00  0.45593999997E+02  0.45594000000E+02  0.51100000000E-03 0.  1.
         11   -1    0    0    0    0 -0.00000000000E+00 -0.00000000000E+00 -0.45593999997E+02  0.45594000000E+02  0.51100000000E-03 0. -1.
    9900012    2    1    2    0    0 -0.29361809418E+02  0.29454579762E+02 -0.17303918918E+02  0.46142315065E+02  0.99999754182E+01 0.  0.
        -12    1    1    2    0    0  0.29361809418E+02 -0.29454579762E+02  0.17303918918E+02  0.45045684935E+02  0.00000000000E+00 0.  1.
         11    1    3    3    0    0 -0.55476738592E+01  0.65647450189E+01 -0.44213559159E+01  0.96654514021E+01  0.51100000000E-03 0. -1.
        -11    1    3    3    0    0 -0.90333890363E+01  0.59047151922E+01 -0.80100151898E+01  0.13439796226E+02  0.51100000000E-03 0.  1.
         12    1    3    3    0    0 -0.14780746523E+02  0.16985119551E+02 -0.48725478127E+01  0.23037067438E+02  0.00000000000E+00 0. -1.
</event>
<event>
 7    1  0.4081218E-008  0.4614232E+02  0.7816164E-02  0.1320468E+00
        -11   -1    0    0    0    0  0.00000000000E+00  0.00000000000E+00  0.45593999997E+02  0.45594000000E+02  0.51100000000E-03 0.  1.
         11   -1    0    0    0    0 -0.00000000000E+00 -0.00000000000E+00 -0.45593999997E+02  0.45594000000E+02  0.51100000000E-03 0. -1.
    9900012    2    1    2    0    0  0.17009296473E+02 -0.25806850943E+02 -0.32768945335E+02  0.46142317626E+02  0.99999987721E+01 0.  0.
        -12    1    1    2    0    0 -0.17009296473E+02  0.25806850943E+02  0.32768945335E+02  0.45045682374E+02  0.00000000000E+00 0.  1.
         11    1    3    3    0    0  0.57074558175E+01 -0.65618498849E+01 -0.63215172664E+01  0.10751488577E+02  0.51100000000E-03 0. -1.
        -11    1    3    3    0    0  0.10210109447E+02 -0.19495141129E+02 -0.26248414272E+02  0.34253264291E+02  0.51100000000E-03 0.  1.
        -12    1    3    3    0    0  0.10917312089E+01  0.25014007060E+00 -0.19901379730E+00  0.11375647581E+01  0.00000000000E+00 0.  1.
</event>
<event>
 7    1  0.4081218E-008  0.4614232E+02  0.7816164E-02  0.1320468E+00
        -11   -1    0    0    0    0  0.00000000000E+00  0.00000000000E+00  0.45593999997E+02  0.45594000000E+02  0.51100000000E-03 0.  1.
         11   -1    0    0    0    0 -0.00000000000E+00 -0.00000000000E+00 -0.45593999997E+02  0.45594000000E+02  0.51100000000E-03 0. -1.
    9900012    2    1    2    0    0 -0.17544111744E+02  0.55071858125E+01 -0.41121628680E+02  0.46142319877E+02  0.10000019293E+02 0.  0.
        -12    1    1    2    0    0  0.17544111744E+02 -0.55071858125E+01  0.41121628680E+02  0.45045680123E+02  0.00000000000E+00 0.  1.
         11    1    3    3    0    0 -0.81683899883E+01  0.10734745230E+01 -0.19263281586E+02  0.20951108808E+02  0.51100000000E-03 0. -1.
        -11    1    3    3    0    0 -0.10314009670E+02  0.31283855620E+01 -0.17581146284E+02  0.20621888774E+02  0.51100000000E-03 0.  1.
        -12    1    3    3    0    0  0.93828791427E+00  0.13053257275E+01 -0.42772008099E+01  0.45693222948E+01  0.00000000000E+00 0.  1.
</event>
<event>
 7    1  0.4081218E-008  0.4614232E+02  0.7816164E-02  0.1320468E+00
        -11   -1    0    0    0    0  0.00000000000E+00  0.00000000000E+00  0.45593999997E+02  0.45594000000E+02  0.51100000000E-03 0.  1.
         11   -1    0    0    0    0 -0.00000000000E+00 -0.00000000000E+00 -0.45593999997E+02  0.45594000000E+02  0.51100000000E-03 0. -1.
    9900012    2    1    2    0    0 -0.21810965589E+02 -0.11933564573E+02 -0.37563083963E+02  0.46142318074E+02  0.10000002854E+02 0.  0.
        -12    1    1    2    0    0  0.21810965589E+02  0.11933564573E+02  0.37563083963E+02  0.45045681926E+02  0.00000000000E+00 0.  1.
         11    1    3    3    0    0 -0.17581149361E+02 -0.88511816312E+01 -0.28282860190E+02  0.34458096435E+02  0.51100000000E-03 0. -1.
        -11    1    3    3    0    0 -0.25399319088E+01 -0.43004951450E+01 -0.61229835151E+01  0.79016732393E+01  0.51100000000E-03 0.  1.
        -12    1    3    3    0    0 -0.16898843194E+01  0.12181122029E+01 -0.31572402580E+01  0.37825484000E+01  0.00000000000E+00 0.  1.
</event>
<event>
 7    1  0.4081218E-008  0.4614232E+02  0.7816164E-02  0.1320468E+00
        -11   -1    0    0    0    0  0.00000000000E+00  0.00000000000E+00  0.45593999997E+02  0.45594000000E+02  0.51100000000E-03 0.  1.
         11   -1    0    0    0    0 -0.00000000000E+00 -0.00000000000E+00 -0.45593999997E+02  0.45594000000E+02  0.51100000000E-03 0. -1.
    9900012    2    1    2    0    0 -0.98416103718E+01  0.98034780918E+01 -0.42850296389E+02  0.46142318986E+02  0.10000011169E+02 0.  0.
        -12    1    1    2    0    0  0.98416103718E+01 -0.98034780918E+01  0.42850296389E+02  0.45045681014E+02  0.00000000000E+00 0.  1.
         11    1    3    3    0    0 -0.67940200387E+00  0.14153855212E+01 -0.56554394278E+01  0.58693184135E+01  0.51100000000E-03 0. -1.
        -11    1    3    3    0    0 -0.47980049185E+01 -0.11288114225E+01 -0.10537998530E+02  0.11633764641E+02  0.51100000000E-03 0.  1.
        -12    1    3    3    0    0 -0.43642034494E+01  0.95169039931E+01 -0.26656858431E+02  0.28639235932E+02  0.00000000000E+00 0.  1.
</event>
<event>
 7    1  0.4081218E-008  0.4614232E+02  0.7816164E-02  0.1320468E+00
        -11   -1    0    0    0    0  0.00000000000E+00  0.00000000000E+00  0.45593999997E+02  0.45594000000E+02  0.51100000000E-03 0.  1.
         11   -1    0    0    0    0 -0.00000000000E+00 -0.00000000000E+00 -0.45593999997E+02  0.45594000000E+02  0.51100000000E-03 0. -1.
    9900012    2    1    2    0    0 -0.17310701533E+02 -0.30744098252E+02 -0.28004527343E+02  0.46142317448E+02  0.99999971426E+01 0.  0.
        -12    1    1    2    0    0  0.17310701533E+02  0.30744098252E+02  0.28004527343E+02  0.45045682552E+02  0.00000000000E+00 0.  1.
         11    1    3    3    0    0 -0.90543630927E+01 -0.16942882032E+02 -0.13298666241E+02  0.23364444496E+02  0.51100000000E-03 0.  1.
        -11    1    3    3    0    0 -0.26235805897E+01 -0.88514245400E+01 -0.49568157509E+01  0.10478593138E+02  0.51100000000E-03 0. -1.
        -12    1    3    3    0    0 -0.56327578505E+01 -0.49497916803E+01 -0.97490453518E+01  0.12299279814E+02  0.00000000000E+00 0.  1.
</event>
<event>
 7    1  0.4081218E-008  0.4614231E+02  0.7816164E-02  0.1320468E+00
        -11   -1    0    0    0    0  0.00000000000E+00  0.00000000000E+00  0.45593999997E+02  0.45594000000E+02  0.51100000000E-03 0. -1.
         11   -1    0    0    0    0 -0.00000000000E+00 -0.00000000000E+00 -0.45593999997E+02  0.45594000000E+02  0.51100000000E-03 0.  1.
    9900012    2    1    2    0    0  0.25419293848E+02  0.33311431820E+02  0.16532453390E+02  0.46142312029E+02  0.99999477336E+01 0.  0.
        -12    1    1    2    0    0 -0.25419293848E+02 -0.33311431820E+02 -0.16532453390E+02  0.45045687971E+02  0.00000000000E+00 0.  1.
         11    1    3    3    0    0  0.15079529835E+02  0.23608325452E+02  0.11521577865E+02  0.30290130529E+02  0.51100000000E-03 0. -1.
        -11    1    3    3    0    0  0.94186053534E+01  0.73027143582E+01  0.56698681892E+01  0.13197998687E+02  0.51100000000E-03 0.  1.
        -12    1    3    3    0    0  0.92115865951E+00  0.24003920099E+01 -0.65899266353E+00  0.26541828135E+01  0.00000000000E+00 0.  1.
</event>
<event>
 7    1  0.4081218E-008  0.4614232E+02  0.7816164E-02  0.1320468E+00
        -11   -1    0    0    0    0  0.00000000000E+00  0.00000000000E+00  0.45593999997E+02  0.45594000000E+02  0.51100000000E-03 0. -1.
         11   -1    0    0    0    0 -0.00000000000E+00 -0.00000000000E+00 -0.45593999997E+02  0.45594000000E+02  0.51100000000E-03 0.  1.
    9900012    2    1    2    0    0  0.68040088991E+01 -0.54046019214E+01  0.44199651940E+02  0.46142317736E+02  0.99999997720E+01 0.  0.
        -12    1    1    2    0    0 -0.68040088991E+01  0.54046019214E+01 -0.44199651940E+02  0.45045682264E+02  0.00000000000E+00 0.  1.
         11    1    3    3    0    0  0.51279632437E+01 -0.77911001607E+00  0.18593856814E+02  0.19303743962E+02  0.51100000000E-03 0. -1.
        -11    1    3    3    0    0  0.29179051494E+01 -0.89289106957E-01  0.14275579561E+02  0.14571009405E+02  0.51100000000E-03 0.  1.
        -12    1    3    3    0    0 -0.12418594940E+01 -0.45362027984E+01  0.11330215564E+02  0.12267564369E+02  0.00000000000E+00 0.  1.
</event>
<event>
 7    1  0.4081218E-008  0.4614232E+02  0.7816164E-02  0.1320468E+00
        -11   -1    0    0    0    0  0.00000000000E+00  0.00000000000E+00  0.45593999997E+02  0.45594000000E+02  0.51100000000E-03 0. -1.
         11   -1    0    0    0    0 -0.00000000000E+00 -0.00000000000E+00 -0.45593999997E+02  0.45594000000E+02  0.51100000000E-03 0.  1.
    9900012    2    1    2    0    0 -0.38939401397E+02 -0.22581292391E+02 -0.17092600302E+01  0.46142319663E+02  0.10000017342E+02 0.  0.
        -12    1    1    2    0    0  0.38939401397E+02  0.22581292391E+02  0.17092600302E+01  0.45045680337E+02  0.00000000000E+00 0.  1.
         11    1    3    3    0    0 -0.32371935229E+02 -0.21768053852E+02 -0.13394977270E+01  0.39033122004E+02  0.51100000000E-03 0. -1.
        -11    1    3    3    0    0 -0.16337063806E+01 -0.54586074487E+00  0.98710062772E+00  0.19852779154E+01  0.51100000000E-03 0.  1.
        -12    1    3    3    0    0 -0.49337597871E+01 -0.26737779380E+00 -0.13568629310E+01  0.51239197432E+01  0.00000000000E+00 0.  1.
</event>
<event>
 7    1  0.4081218E-008  0.4614232E+02  0.7816164E-02  0.1320468E+00
        -11   -1    0    0    0    0  0.00000000000E+00  0.00000000000E+00  0.45593999997E+02  0.45594000000E+02  0.51100000000E-03 0.  1.
         11   -1    0    0    0    0 -0.00000000000E+00 -0.00000000000E+00 -0.45593999997E+02  0.45594000000E+02  0.51100000000E-03 0. -1.
    9900012    2    1    2    0    0  0.15883137353E+02 -0.41735551893E+02 -0.59146577992E+01  0.46142317401E+02  0.99999967119E+01 0.  0.
        -12    1    1    2    0    0 -0.15883137353E+02  0.41735551893E+02  0.59146577992E+01  0.45045682599E+02  0.00000000000E+00 0.  1.
         11    1    3    3    0    0  0.81561078978E+01 -0.21284136558E+02 -0.27555013726E+01  0.22959297749E+02  0.51100000000E-03 0. -1.
        -11    1    3    3    0    0  0.60978885199E+01 -0.66327893634E+01 -0.55395595109E+00  0.90269045967E+01  0.51100000000E-03 0.  1.
        -12    1    3    3    0    0  0.16291409354E+01 -0.13818625971E+02 -0.26052004755E+01  0.14156115055E+02  0.00000000000E+00 0.  1.
</event>
<event>
 7    1  0.4081218E-008  0.4614232E+02  0.7816164E-02  0.1320468E+00
        -11   -1    0    0    0    0  0.00000000000E+00  0.00000000000E+00  0.45593999997E+02  0.45594000000E+02  0.51100000000E-03 0.  1.
         11   -1    0    0    0    0 -0.00000000000E+00 -0.00000000000E+00 -0.45593999997E+02  0.45594000000E+02  0.51100000000E-03 0. -1.
    9900012    2    1    2    0    0  0.42192188245E+01  0.13838768291E+02 -0.42659115924E+02  0.46142317779E+02  0.10000000165E+02 0.  0.
        -12    1    1    2    0    0 -0.42192188245E+01 -0.13838768291E+02  0.42659115924E+02  0.45045682221E+02  0.00000000000E+00 0.  1.
         11    1    3    3    0    0  0.16710113575E+01  0.89031211296E+00 -0.30118767354E+01  0.35575745031E+01  0.51100000000E-03 0. -1.
        -11    1    3    3    0    0  0.49438379039E+00 -0.38900082546E+00  0.74349938870E-01  0.63345493048E+00  0.51100000000E-03 0.  1.
         12    1    3    3    0    0  0.20538236766E+01  0.13337457004E+02 -0.39721589128E+02  0.41951288346E+02  0.00000000000E+00 0. -1.
</event>
<event>
 7    1  0.4081218E-008  0.4614232E+02  0.7816164E-02  0.1320468E+00
        -11   -1    0    0    0    0  0.00000000000E+00  0.00000000000E+00  0.45593999997E+02  0.45594000000E+02  0.51100000000E-03 0.  1.
         11   -1    0    0    0    0 -0.00000000000E+00 -0.00000000000E+00 -0.45593999997E+02  0.45594000000E+02  0.51100000000E-03 0. -1.
    9900012    2    1    2    0    0  0.31018615020E+02 -0.59001619717E+01 -0.32127045382E+02  0.46142318365E+02  0.10000005503E+02 0.  0.
        -12    1    1    2    0    0 -0.31018615020E+02  0.59001619717E+01  0.32127045382E+02  0.45045681635E+02  0.00000000000E+00 0.  1.
         11    1    3    3    0    0  0.91672545996E+01 -0.15477678833E+01 -0.40556617504E+01  0.10143102820E+02  0.51100000000E-03 0.  1.
        -11    1    3    3    0    0  0.34256022117E+01 -0.34532836444E+00 -0.26340915107E+01  0.43350248604E+01  0.51100000000E-03 0. -1.
        -12    1    3    3    0    0  0.18425758208E+02 -0.40070657239E+01 -0.25437292121E+02  0.31664190685E+02  0.00000000000E+00 0.  1.
</event>
<event>
 7    1  0.4081218E-008  0.4614232E+02  0.7816164E-02  0.1320468E+00
        -11   -1    0    0    0    0  0.00000000000E+00  0.00000000000E+00  0.45593999997E+02  0.45594000000E+02  0.51100000000E-03 0.  1.
         11   -1    0    0    0    0 -0.00000000000E+00 -0.00000000000E+00 -0.45593999997E+02  0.45594000000E+02  0.51100000000E-03 0. -1.
    9900012    2    1    2    0    0 -0.13004394944E+02  0.40194451340E+02 -0.15633467381E+02  0.46142317535E+02  0.99999979388E+01 0.  0.
        -12    1    1    2    0    0  0.13004394944E+02 -0.40194451340E+02  0.15633467381E+02  0.45045682465E+02  0.00000000000E+00 0.  1.
         11    1    3    3    0    0 -0.60556298988E+01  0.16414792091E+02 -0.38259632118E+01  0.17909607690E+02  0.51100000000E-03 0. -1.
        -11    1    3    3    0    0 -0.14902597048E+01  0.93545757411E+01 -0.12790851603E+01  0.95585051338E+01  0.51100000000E-03 0.  1.
         12    1    3    3    0    0 -0.54585053405E+01  0.14425083508E+02 -0.10528419009E+02  0.18674204711E+02  0.00000000000E+00 0. -1.
</event>
<event>
 7    1  0.4081218E-008  0.4614231E+02  0.7816164E-02  0.1320468E+00
        -11   -1    0    0    0    0  0.00000000000E+00  0.00000000000E+00  0.45593999997E+02  0.45594000000E+02  0.51100000000E-03 0. -1.
         11   -1    0    0    0    0 -0.00000000000E+00 -0.00000000000E+00 -0.45593999997E+02  0.45594000000E+02  0.51100000000E-03 0.  1.
    9900012    2    1    2    0    0  0.25076855038E+02 -0.13315260671E+02  0.34970977295E+02  0.46142311213E+02  0.99999402870E+01 0.  0.
        -12    1    1    2    0    0 -0.25076855038E+02  0.13315260671E+02 -0.34970977295E+02  0.45045688787E+02  0.00000000000E+00 0.  1.
         11    1    3    3    0    0  0.10528553555E+01 -0.40334615749E+00  0.20098051171E+01  0.23044542504E+01  0.51100000000E-03 0. -1.
        -11    1    3    3    0    0  0.18557835913E+02 -0.11097218057E+02  0.30913551903E+02  0.37725180105E+02  0.51100000000E-03 0.  1.
         12    1    3    3    0    0  0.54661637690E+01 -0.18146964558E+01  0.20476202752E+01  0.61126768578E+01  0.00000000000E+00 0. -1.
</event>
<event>
 7    1  0.4081218E-008  0.4614232E+02  0.7816164E-02  0.1320468E+00
        -11   -1    0    0    0    0  0.00000000000E+00  0.00000000000E+00  0.45593999997E+02  0.45594000000E+02  0.51100000000E-03 0. -1.
         11   -1    0    0    0    0 -0.00000000000E+00 -0.00000000000E+00 -0.45593999997E+02  0.45594000000E+02  0.51100000000E-03 0.  1.
    9900012    2    1    2    0    0  0.38922406393E+02  0.19449607651E+02 -0.11656438530E+02  0.46142317450E+02  0.99999971627E+01 0.  0.
        -12    1    1    2    0    0 -0.38922406393E+02 -0.19449607651E+02  0.11656438530E+02  0.45045682550E+02  0.00000000000E+00 0.  1.
         11    1    3    3    0    0  0.14205056965E+02  0.66986006767E+01 -0.78384456988E+01  0.17552667194E+02  0.51100000000E-03 0. -1.
        -11    1    3    3    0    0  0.60508066123E+01  0.34382465142E+01  0.13712427113E+01  0.70932437281E+01  0.51100000000E-03 0.  1.
         12    1    3    3    0    0  0.18666542816E+02  0.93127604599E+01 -0.51892355420E+01  0.21496406528E+02  0.00000000000E+00 0. -1.
</event>
<event>
 7    1  0.4081218E-008  0.4614232E+02  0.7816164E-02  0.1320468E+00
        -11   -1    0    0    0    0  0.00000000000E+00  0.00000000000E+00  0.45593999997E+02  0.45594000000E+02  0.51100000000E-03 0.  1.
         11   -1    0    0    0    0 -0.00000000000E+00 -0.00000000000E+00 -0.45593999997E+02  0.45594000000E+02  0.51100000000E-03 0. -1.
    9900012    2    1    2    0    0 -0.18665032218E+02  0.40989714721E+02  0.75734369520E+00  0.46142315300E+02  0.99999775616E+01 0.  0.
        -12    1    1    2    0    0  0.18665032218E+02 -0.40989714721E+02 -0.75734369520E+00  0.45045684700E+02  0.00000000000E+00 0.  1.
         11    1    3    3    0    0 -0.26356035474E+01  0.73386288656E+01 -0.23924232280E+01  0.81563207912E+01  0.51100000000E-03 0. -1.
        -11    1    3    3    0    0 -0.52133662790E+01  0.16314777965E+02  0.37919574341E+01  0.17542237869E+02  0.51100000000E-03 0.  1.
        -12    1    3    3    0    0 -0.10816062392E+02  0.17336307890E+02 -0.64219051091E+00  0.20443756641E+02  0.00000000000E+00 0.  1.
</event>
<event>
 7    1  0.4081218E-008  0.4614232E+02  0.7816164E-02  0.1320468E+00
        -11   -1    0    0    0    0  0.00000000000E+00  0.00000000000E+00  0.45593999997E+02  0.45594000000E+02  0.51100000000E-03 0.  1.
         11   -1    0    0    0    0 -0.00000000000E+00 -0.00000000000E+00 -0.45593999997E+02  0.45594000000E+02  0.51100000000E-03 0. -1.
    9900012    2    1    2    0    0  0.37601487040E+02  0.35345191485E+01 -0.24550941704E+02  0.46142318833E+02  0.10000009774E+02 0.  0.
        -12    1    1    2    0    0 -0.37601487040E+02 -0.35345191485E+01  0.24550941704E+02  0.45045681167E+02  0.00000000000E+00 0.  1.
         11    1    3    3    0    0  0.27161916689E+02  0.10411439145E+01 -0.21504525024E+02  0.34659750369E+02  0.51100000000E-03 0. -1.
        -11    1    3    3    0    0  0.96922169437E+01  0.25717197282E+01 -0.34808579293E+01  0.10614574124E+02  0.51100000000E-03 0.  1.
         12    1    3    3    0    0  0.74735340751E+00 -0.78344494305E-01  0.43444124936E+00  0.86799434022E+00  0.00000000000E+00 0. -1.
</event>
<event>
 7    1  0.4081218E-008  0.4614232E+02  0.7816164E-02  0.1320468E+00
        -11   -1    0    0    0    0  0.00000000000E+00  0.00000000000E+00  0.45593999997E+02  0.45594000000E+02  0.51100000000E-03 0.  1.
         11   -1    0    0    0    0 -0.00000000000E+00 -0.00000000000E+00 -0.45593999997E+02  0.45594000000E+02  0.51100000000E-03 0. -1.
    9900012    2    1    2    0    0 -0.27277190965E+02 -0.34934981018E+02 -0.80383713603E+01  0.46142318078E+02  0.10000002891E+02 0.  0.
        -12    1    1    2    0    0  0.27277190965E+02  0.34934981018E+02  0.80383713603E+01  0.45045681922E+02  0.00000000000E+00 0.  1.
         11    1    3    3    0    0 -0.49995754759E+01 -0.66025813578E+01 -0.31026827071E+01  0.88440079019E+01  0.51100000000E-03 0.  1.
        -11    1    3    3    0    0 -0.33373149733E+01 -0.59458850495E+01 -0.41129186456E+01  0.79628713602E+01  0.51100000000E-03 0. -1.
        -12    1    3    3    0    0 -0.18940300516E+02 -0.22386514610E+02 -0.82277000756E+00  0.29335438816E+02  0.00000000000E+00 0.  1.
</event>
<event>
 7    1  0.4081218E-008  0.4614232E+02  0.7816164E-02  0.1320468E+00
        -11   -1    0    0    0    0  0.00000000000E+00  0.00000000000E+00  0.45593999997E+02  0.45594000000E+02  0.51100000000E-03 0.  1.
         11   -1    0    0    0    0 -0.00000000000E+00 -0.00000000000E+00 -0.45593999997E+02  0.45594000000E+02  0.51100000000E-03 0. -1.
    9900012    2    1    2    0    0 -0.30344088383E+02 -0.10169712459E+02 -0.31700579853E+02  0.46142317473E+02  0.99999973751E+01 0.  0.
        -12    1    1    2    0    0  0.30344088383E+02  0.10169712459E+02  0.31700579853E+02  0.45045682527E+02  0.00000000000E+00 0.  1.
         11    1    3    3    0    0 -0.11562769017E+02 -0.12327193329E+01 -0.14197058367E+02  0.18351394793E+02  0.51100000000E-03 0. -1.
        -11    1    3    3    0    0 -0.68573230586E+01 -0.36292215201E+00 -0.48743214422E+01  0.84210214228E+01  0.51100000000E-03 0.  1.
         12    1    3    3    0    0 -0.11923996307E+02 -0.85740709738E+01 -0.12629200044E+02  0.19369901258E+02  0.00000000000E+00 0. -1.
</event>
<event>
 7    1  0.4081218E-008  0.4614232E+02  0.7816164E-02  0.1320468E+00
        -11   -1    0    0    0    0  0.00000000000E+00  0.00000000000E+00  0.45593999997E+02  0.45594000000E+02  0.51100000000E-03 0. -1.
         11   -1    0    0    0    0 -0.00000000000E+00 -0.00000000000E+00 -0.45593999997E+02  0.45594000000E+02  0.51100000000E-03 0.  1.
    9900012    2    1    2    0    0 -0.20867507618E+02  0.13055914815E+02  0.37725372158E+02  0.46142317740E+02  0.99999998059E+01 0.  0.
        -12    1    1    2    0    0  0.20867507618E+02 -0.13055914815E+02 -0.37725372158E+02  0.45045682260E+02  0.00000000000E+00 0.  1.
         11    1    3    3    0    0 -0.18867696479E+02  0.85653170147E+01  0.29026016853E+02  0.35663206258E+02  0.51100000000E-03 0. -1.
        -11    1    3    3    0    0 -0.22303450817E+00 -0.28235460416E+00 -0.42069005701E-01  0.36226865264E+00  0.51100000000E-03 0.  1.
         12    1    3    3    0    0 -0.17767766301E+01  0.47729524046E+01  0.87414243103E+01  0.10116842829E+02  0.00000000000E+00 0. -1.
</event>
<event>
 7    1  0.4081218E-008  0.4614232E+02  0.7816164E-02  0.1320468E+00
        -11   -1    0    0    0    0  0.00000000000E+00  0.00000000000E+00  0.45593999997E+02  0.45594000000E+02  0.51100000000E-03 0. -1.
         11   -1    0    0    0    0 -0.00000000000E+00 -0.00000000000E+00 -0.45593999997E+02  0.45594000000E+02  0.51100000000E-03 0.  1.
    9900012    2    1    2    0    0 -0.22395824021E+02  0.28079838373E+02  0.27185713342E+02  0.46142320223E+02  0.10000022452E+02 0.  0.
        -12    1    1    2    0    0  0.22395824021E+02 -0.28079838373E+02 -0.27185713342E+02  0.45045679777E+02  0.00000000000E+00 0.  1.
         11    1    3    3    0    0 -0.78740758060E+01  0.84219696417E+01  0.38799981209E+01  0.12164909705E+02  0.51100000000E-03 0. -1.
        -11    1    3    3    0    0 -0.11296813086E+02  0.12843508350E+02  0.17412880453E+02  0.24408648029E+02  0.51100000000E-03 0.  1.
        -12    1    3    3    0    0 -0.32249351295E+01  0.68143603809E+01  0.58928347676E+01  0.95687624900E+01  0.00000000000E+00 0.  1.
</event>
<event>
 7    1  0.4081218E-008  0.4614232E+02  0.7816164E-02  0.1320468E+00
        -11   -1    0    0    0    0  0.00000000000E+00  0.00000000000E+00  0.45593999997E+02  0.45594000000E+02  0.51100000000E-03 0.  1.
         11   -1    0    0    0    0 -0.00000000000E+00 -0.00000000000E+00 -0.45593999997E+02  0.45594000000E+02  0.51100000000E-03 0. -1.
    9900012    2    1    2    0    0 -0.35337160563E+02  0.94036611156E+01 -0.26305317024E+02  0.46142318046E+02  0.10000002597E+02 0.  0.
        -12    1    1    2    0    0  0.35337160563E+02 -0.94036611156E+01  0.26305317024E+02  0.45045681954E+02  0.00000000000E+00 0.  1.
         11    1    3    3    0    0 -0.79562019766E+01  0.24382059892E+01 -0.80274490798E+01  0.11562263504E+02  0.51100000000E-03 0. -1.
        -11    1    3    3    0    0 -0.10617997686E+02  0.54191246491E+01 -0.42127181555E+01  0.12643408613E+02  0.51100000000E-03 0.  1.
        -12    1    3    3    0    0 -0.16762960900E+02  0.15463304772E+01 -0.14065149788E+02  0.21936645929E+02  0.00000000000E+00 0.  1.
</event>
<event>
 7    1  0.4081218E-008  0.4614232E+02  0.7816164E-02  0.1320468E+00
        -11   -1    0    0    0    0  0.00000000000E+00  0.00000000000E+00  0.45593999997E+02  0.45594000000E+02  0.51100000000E-03 0.  1.
         11   -1    0    0    0    0 -0.00000000000E+00 -0.00000000000E+00 -0.45593999997E+02  0.45594000000E+02  0.51100000000E-03 0. -1.
    9900012    2    1    2    0    0 -0.40199290489E+02 -0.19760076294E+02 -0.47613080818E+01  0.46142316238E+02  0.99999861106E+01 0.  0.
        -12    1    1    2    0    0  0.40199290489E+02  0.19760076294E+02  0.47613080818E+01  0.45045683762E+02  0.00000000000E+00 0.  1.
         11    1    3    3    0    0 -0.16212813479E+02 -0.69325270043E+01 -0.18756059463E+01  0.17732262955E+02  0.51100000000E-03 0. -1.
        -11    1    3    3    0    0  0.49482616320E+00 -0.33008035135E-01  0.33703720977E+00  0.59961387914E+00  0.51100000000E-03 0.  1.
        -12    1    3    3    0    0 -0.24481303173E+02 -0.12794541254E+02 -0.32227393452E+01  0.27810439404E+02  0.00000000000E+00 0.  1.
</event>
<event>
 7    1  0.4081218E-008  0.4614232E+02  0.7816164E-02  0.1320468E+00
        -11   -1    0    0    0    0  0.00000000000E+00  0.00000000000E+00  0.45593999997E+02  0.45594000000E+02  0.51100000000E-03 0. -1.
         11   -1    0    0    0    0 -0.00000000000E+00 -0.00000000000E+00 -0.45593999997E+02  0.45594000000E+02  0.51100000000E-03 0.  1.
    9900012    2    1    2    0    0  0.28571526031E+01 -0.10846113145E+02  0.43626963985E+02  0.46142317878E+02  0.10000001063E+02 0.  0.
        -12    1    1    2    0    0 -0.28571526031E+01  0.10846113145E+02 -0.43626963985E+02  0.45045682122E+02  0.00000000000E+00 0.  1.
         11    1    3    3    0    0  0.15760052006E+01 -0.18220602545E+01  0.18659749293E+02  0.18814620376E+02  0.51100000000E-03 0. -1.
        -11    1    3    3    0    0  0.32636336988E+01 -0.46636206749E+01  0.89251547869E+01  0.10585794772E+02  0.51100000000E-03 0.  1.
        -12    1    3    3    0    0 -0.19824862963E+01 -0.43604322160E+01  0.16042059905E+02  0.16741902730E+02  0.00000000000E+00 0.  1.
</event>
<event>
 7    1  0.4081218E-008  0.4614232E+02  0.7816164E-02  0.1320468E+00
        -11   -1    0    0    0    0  0.00000000000E+00  0.00000000000E+00  0.45593999997E+02  0.45594000000E+02  0.51100000000E-03 0.  1.
         11   -1    0    0    0    0 -0.00000000000E+00 -0.00000000000E+00 -0.45593999997E+02  0.45594000000E+02  0.51100000000E-03 0. -1.
    9900012    2    1    2    0    0 -0.49736011660E+01 -0.28904745197E+01 -0.44676861294E+02  0.46142317781E+02  0.10000000184E+02 0.  0.
        -12    1    1    2    0    0  0.49736011660E+01  0.28904745197E+01  0.44676861294E+02  0.45045682219E+02  0.00000000000E+00 0.  1.
         11    1    3    3    0    0 -0.28582803308E+01  0.37389990713E+00 -0.80567719427E+01  0.85569353152E+01  0.51100000000E-03 0.  1.
        -11    1    3    3    0    0  0.95009548390E+00  0.16942298871E+01 -0.39791594804E+01  0.44279574038E+01  0.51100000000E-03 0. -1.
         12    1    3    3    0    0 -0.30654163191E+01 -0.49586043139E+01 -0.32640929870E+02  0.33157425062E+02  0.00000000000E+00 0. -1.
</event>
<event>
 7    1  0.4081218E-008  0.4614232E+02  0.7816164E-02  0.1320468E+00
        -11   -1    0    0    0    0  0.00000000000E+00  0.00000000000E+00  0.45593999997E+02  0.45594000000E+02  0.51100000000E-03 0. -1.
         11   -1    0    0    0    0 -0.00000000000E+00 -0.00000000000E+00 -0.45593999997E+02  0.45594000000E+02  0.51100000000E-03 0.  1.
    9900012    2    1    2    0    0 -0.14397954917E+01  0.27775230071E+02  0.35434121166E+02  0.46142319193E+02  0.10000013056E+02 0.  0.
        -12    1    1    2    0    0  0.14397954917E+01 -0.27775230071E+02 -0.35434121166E+02  0.45045680807E+02  0.00000000000E+00 0.  1.
         11    1    3    3    0    0 -0.81642233622E+00  0.86504985450E+01  0.13799999188E+02  0.16307594806E+02  0.51100000000E-03 0. -1.
        -11    1    3    3    0    0 -0.85440390155E+00  0.77647365173E+00 -0.34283312810E+00  0.12043471981E+01  0.51100000000E-03 0.  1.
        -12    1    3    3    0    0  0.23103074605E+00  0.18348257874E+02  0.21976955106E+02  0.28630377189E+02  0.00000000000E+00 0.  1.
</event>
<event>
 7    1  0.4081218E-008  0.4614232E+02  0.7816164E-02  0.1320468E+00
        -11   -1    0    0    0    0  0.00000000000E+00  0.00000000000E+00  0.45593999997E+02  0.45594000000E+02  0.51100000000E-03 0.  1.
         11   -1    0    0    0    0 -0.00000000000E+00 -0.00000000000E+00 -0.45593999997E+02  0.45594000000E+02  0.51100000000E-03 0. -1.
    9900012    2    1    2    0    0  0.23388668048E+02 -0.31393487460E+02 -0.22283010954E+02  0.46142318463E+02  0.10000006401E+02 0.  0.
        -12    1    1    2    0    0 -0.23388668048E+02  0.31393487460E+02  0.22283010954E+02  0.45045681537E+02  0.00000000000E+00 0.  1.
         11    1    3    3    0    0  0.18548867155E+02 -0.19329816762E+02 -0.14378106501E+02  0.30404477229E+02  0.51100000000E-03 0. -1.
        -11    1    3    3    0    0  0.40637686313E+01 -0.10275427282E+02 -0.47461410165E+01  0.12025991690E+02  0.51100000000E-03 0.  1.
         12    1    3    3    0    0  0.77603226232E+00 -0.17882434154E+01 -0.31587634371E+01  0.37118495439E+01  0.00000000000E+00 0. -1.
</event>
<event>
 7    1  0.4081218E-008  0.4614232E+02  0.7816164E-02  0.1320468E+00
        -11   -1    0    0    0    0  0.00000000000E+00  0.00000000000E+00  0.45593999997E+02  0.45594000000E+02  0.51100000000E-03 0.  1.
         11   -1    0    0    0    0 -0.00000000000E+00 -0.00000000000E+00 -0.45593999997E+02  0.45594000000E+02  0.51100000000E-03 0. -1.
    9900012    2    1    2    0    0 -0.16126431973E+02  0.46587224439E+01 -0.41801292471E+02  0.46142317019E+02  0.99999932300E+01 0.  0.
        -12    1    1    2    0    0  0.16126431973E+02 -0.46587224439E+01  0.41801292471E+02  0.45045682981E+02  0.00000000000E+00 0.  1.
         11    1    3    3    0    0 -0.13748000347E+01 -0.13757260935E+01 -0.92930898440E+01  0.94944308165E+01  0.51100000000E-03 0. -1.
        -11    1    3    3    0    0 -0.13501348098E+02  0.34151292107E+01 -0.28226809723E+02  0.31475423673E+02  0.51100000000E-03 0.  1.
        -12    1    3    3    0    0 -0.12502838404E+01  0.26193193266E+01 -0.42813929040E+01  0.51724625291E+01  0.00000000000E+00 0.  1.
</event>
<event>
 7    1  0.4081218E-008  0.4614232E+02  0.7816164E-02  0.1320468E+00
        -11   -1    0    0    0    0  0.00000000000E+00  0.00000000000E+00  0.45593999997E+02  0.45594000000E+02  0.51100000000E-03 0. -1.
         11   -1    0    0    0    0 -0.00000000000E+00 -0.00000000000E+00 -0.45593999997E+02  0.45594000000E+02  0.51100000000E-03 0.  1.
    9900012    2    1    2    0    0  0.40327765227E+02 -0.52942308973E+00  0.20062516076E+02  0.46142317762E+02  0.10000000009E+02 0.  0.
        -12    1    1    2    0    0 -0.40327765227E+02  0.52942308973E+00 -0.20062516076E+02  0.45045682238E+02  0.00000000000E+00 0.  1.
         11    1    3    3    0    0  0.95909609013E+01  0.51049513511E+00  0.40018326601E+01  0.10404893137E+02  0.51100000000E-03 0. -1.
        -11    1    3    3    0    0  0.73343846535E+01  0.26468749398E+01  0.15325680564E+01  0.79465659440E+01  0.51100000000E-03 0.  1.
        -12    1    3    3    0    0  0.23402419672E+02 -0.36867931647E+01  0.14528115359E+02  0.27790858681E+02  0.00000000000E+00 0.  1.
</event>
<event>
 7    1  0.4081218E-008  0.4614232E+02  0.7816164E-02  0.1320468E+00
        -11   -1    0    0    0    0  0.00000000000E+00  0.00000000000E+00  0.45593999997E+02  0.45594000000E+02  0.51100000000E-03 0. -1.
         11   -1    0    0    0    0 -0.00000000000E+00 -0.00000000000E+00 -0.45593999997E+02  0.45594000000E+02  0.51100000000E-03 0.  1.
    9900012    2    1    2    0    0 -0.19697510657E+02 -0.22823493379E+02  0.33469533974E+02  0.46142317848E+02  0.10000000794E+02 0.  0.
        -12    1    1    2    0    0  0.19697510657E+02  0.22823493379E+02 -0.33469533974E+02  0.45045682152E+02  0.00000000000E+00 0.  1.
         11    1    3    3    0    0 -0.18295316149E+02 -0.19765751664E+02  0.24385960011E+02  0.36332885624E+02  0.51100000000E-03 0. -1.
        -11    1    3    3    0    0 -0.13088750705E+01 -0.11494982523E+01  0.35300171770E+01  0.39364351530E+01  0.51100000000E-03 0.  1.
        -12    1    3    3    0    0 -0.93319437168E-01 -0.19082434634E+01  0.55535567856E+01  0.58729970717E+01  0.00000000000E+00 0.  1.
</event>
<event>
 7    1  0.4081218E-008  0.4614232E+02  0.7816164E-02  0.1320468E+00
        -11   -1    0    0    0    0  0.00000000000E+00  0.00000000000E+00  0.45593999997E+02  0.45594000000E+02  0.51100000000E-03 0. -1.
         11   -1    0    0    0    0 -0.00000000000E+00 -0.00000000000E+00 -0.45593999997E+02  0.45594000000E+02  0.51100000000E-03 0.  1.
    9900012    2    1    2    0    0  0.32625902175E+02 -0.23810698622E+02  0.19942783267E+02  0.46142318009E+02  0.10000002261E+02 0.  0.
        -12    1    1    2    0    0 -0.32625902175E+02  0.23810698622E+02 -0.19942783267E+02  0.45045681991E+02  0.00000000000E+00 0.  1.
         11    1    3    3    0    0  0.35461902432E+01 -0.52096274203E+01  0.49667354395E+01  0.80239730986E+01  0.51100000000E-03 0. -1.
        -11    1    3    3    0    0  0.16427181037E+02 -0.81755291025E+01  0.10425360892E+02  0.21104021013E+02  0.51100000000E-03 0.  1.
         12    1    3    3    0    0  0.12652530895E+02 -0.10425542099E+02  0.45506869356E+01  0.17014323898E+02  0.00000000000E+00 0. -1.
</event>
<event>
 7    1  0.4081218E-008  0.4614232E+02  0.7816164E-02  0.1320468E+00
        -11   -1    0    0    0    0  0.00000000000E+00  0.00000000000E+00  0.45593999997E+02  0.45594000000E+02  0.51100000000E-03 0.  1.
         11   -1    0    0    0    0 -0.00000000000E+00 -0.00000000000E+00 -0.45593999997E+02  0.45594000000E+02  0.51100000000E-03 0. -1.
    9900012    2    1    2    0    0 -0.30653236761E+02  0.15452538434E+02 -0.29166960738E+02  0.46142318002E+02  0.10000002197E+02 0.  0.
        -12    1    1    2    0    0  0.30653236761E+02 -0.15452538434E+02  0.29166960738E+02  0.45045681998E+02  0.00000000000E+00 0.  1.
         11    1    3    3    0    0 -0.22018872877E+02  0.11396663139E+02 -0.24492991926E+02  0.34851418153E+02  0.51100000000E-03 0. -1.
        -11    1    3    3    0    0 -0.46289519717E+01  0.15548535006E+00 -0.27047384803E+01  0.53634860453E+01  0.51100000000E-03 0.  1.
        -12    1    3    3    0    0 -0.40054119118E+01  0.39003899451E+01 -0.19692303314E+01  0.59274138041E+01  0.00000000000E+00 0.  1.
</event>
<event>
 7    1  0.4081218E-008  0.4614232E+02  0.7816164E-02  0.1320468E+00
        -11   -1    0    0    0    0  0.00000000000E+00  0.00000000000E+00  0.45593999997E+02  0.45594000000E+02  0.51100000000E-03 0.  1.
         11   -1    0    0    0    0 -0.00000000000E+00 -0.00000000000E+00 -0.45593999997E+02  0.45594000000E+02  0.51100000000E-03 0. -1.
    9900012    2    1    2    0    0 -0.33200434961E+02 -0.68247990853E+01 -0.29669289441E+02  0.46142317630E+02  0.99999988089E+01 0.  0.
        -12    1    1    2    0    0  0.33200434961E+02  0.68247990853E+01  0.29669289441E+02  0.45045682370E+02  0.00000000000E+00 0.  1.
         11    1    3    3    0    0 -0.21914099131E+02 -0.20643955140E+01 -0.20551636940E+02  0.30114103850E+02  0.51100000000E-03 0. -1.
        -11    1    3    3    0    0 -0.87889841232E+01 -0.53947205349E+01 -0.85352802453E+01  0.13386570162E+02  0.51100000000E-03 0.  1.
         12    1    3    3    0    0 -0.24973517077E+01  0.63431696365E+00 -0.58237225629E+00  0.26416436185E+01  0.00000000000E+00 0. -1.
</event>
<event>
 7    1  0.4081218E-008  0.4614232E+02  0.7816164E-02  0.1320468E+00
        -11   -1    0    0    0    0  0.00000000000E+00  0.00000000000E+00  0.45593999997E+02  0.45594000000E+02  0.51100000000E-03 0. -1.
         11   -1    0    0    0    0 -0.00000000000E+00 -0.00000000000E+00 -0.45593999997E+02  0.45594000000E+02  0.51100000000E-03 0.  1.
    9900012    2    1    2    0    0 -0.11898842258E+02  0.18086638089E+02  0.39501956659E+02  0.46142317584E+02  0.99999983857E+01 0.  0.
        -12    1    1    2    0    0  0.11898842258E+02 -0.18086638089E+02 -0.39501956659E+02  0.45045682416E+02  0.00000000000E+00 0.  1.
         11    1    3    3    0    0 -0.87884132404E+01  0.77250159964E+01  0.18081114292E+02  0.21536916532E+02  0.51100000000E-03 0. -1.
        -11    1    3    3    0    0 -0.61412814437E+00  0.32437715376E+01  0.22261336145E+01  0.39818184660E+01  0.51100000000E-03 0.  1.
        -12    1    3    3    0    0 -0.24963008728E+01  0.71178505552E+01  0.19194708753E+02  0.20623582586E+02  0.00000000000E+00 0.  1.
</event>
<event>
 7    1  0.4081218E-008  0.4614232E+02  0.7816164E-02  0.1320468E+00
        -11   -1    0    0    0    0  0.00000000000E+00  0.00000000000E+00  0.45593999997E+02  0.45594000000E+02  0.51100000000E-03 0. -1.
         11   -1    0    0    0    0 -0.00000000000E+00 -0.00000000000E+00 -0.45593999997E+02  0.45594000000E+02  0.51100000000E-03 0.  1.
    9900012    2    1    2    0    0  0.16238251389E+02 -0.96669114815E+01  0.40889894512E+02  0.46142318087E+02  0.10000002973E+02 0.  0.
        -12    1    1    2    0    0 -0.16238251389E+02  0.96669114815E+01 -0.40889894512E+02  0.45045681913E+02  0.00000000000E+00 0.  1.
         11    1    3    3    0    0  0.11011716601E+02 -0.70683812188E+01  0.29969054783E+02  0.32701133931E+02  0.51100000000E-03 0. -1.
        -11    1    3    3    0    0  0.11859168422E+01  0.61970856664E+00  0.65175969981E+01  0.66535335240E+01  0.51100000000E-03 0.  1.
        -12    1    3    3    0    0  0.40406179464E+01 -0.32182388294E+01  0.44032427315E+01  0.67876506321E+01  0.00000000000E+00 0.  1.
</event>
<event>
 7    1  0.4081218E-008  0.4614232E+02  0.7816164E-02  0.1320468E+00
        -11   -1    0    0    0    0  0.00000000000E+00  0.00000000000E+00  0.45593999997E+02  0.45594000000E+02  0.51100000000E-03 0.  1.
         11   -1    0    0    0    0 -0.00000000000E+00 -0.00000000000E+00 -0.45593999997E+02  0.45594000000E+02  0.51100000000E-03 0. -1.
    9900012    2    1    2    0    0  0.95951935949E+00 -0.31522748870E+01 -0.44925004459E+02  0.46142317188E+02  0.99999947777E+01 0.  0.
        -12    1    1    2    0    0 -0.95951935949E+00  0.31522748870E+01  0.44925004459E+02  0.45045682812E+02  0.00000000000E+00 0.  1.
         11    1    3    3    0    0  0.54284675477E+00 -0.12990108105E+01 -0.91418627353E+00  0.16786448370E+01  0.51100000000E-03 0.  1.
        -11    1    3    3    0    0  0.12409357187E+01  0.17961001280E+01 -0.24522623213E+02  0.24619604924E+02  0.51100000000E-03 0. -1.
        -12    1    3    3    0    0 -0.82426311395E+00 -0.36493642045E+01 -0.19488194972E+02  0.19844067427E+02  0.00000000000E+00 0.  1.
</event>
<event>
 7    1  0.4081218E-008  0.4614232E+02  0.7816164E-02  0.1320468E+00
        -11   -1    0    0    0    0  0.00000000000E+00  0.00000000000E+00  0.45593999997E+02  0.45594000000E+02  0.51100000000E-03 0.  1.
         11   -1    0    0    0    0 -0.00000000000E+00 -0.00000000000E+00 -0.45593999997E+02  0.45594000000E+02  0.51100000000E-03 0. -1.
    9900012    2    1    2    0    0 -0.20538559488E+01 -0.33969540740E+02 -0.29512127421E+02  0.46142315553E+02  0.99999798635E+01 0.  0.
        -12    1    1    2    0    0  0.20538559488E+01  0.33969540740E+02  0.29512127421E+02  0.45045684447E+02  0.00000000000E+00 0.  1.
         11    1    3    3    0    0 -0.23415695494E+01 -0.15217179477E+02 -0.14500580332E+02  0.21149759559E+02  0.51100000000E-03 0. -1.
        -11    1    3    3    0    0 -0.17431914080E+01 -0.81029112691E+00 -0.15753556021E+01  0.24853638626E+01  0.51100000000E-03 0.  1.
         12    1    3    3    0    0  0.20309050086E+01 -0.17942070137E+02 -0.13436191487E+02  0.22507192131E+02  0.00000000000E+00 0. -1.
</event>
<event>
 7    1  0.4081218E-008  0.4614232E+02  0.7816164E-02  0.1320468E+00
        -11   -1    0    0    0    0  0.00000000000E+00  0.00000000000E+00  0.45593999997E+02  0.45594000000E+02  0.51100000000E-03 0. -1.
         11   -1    0    0    0    0 -0.00000000000E+00 -0.00000000000E+00 -0.45593999997E+02  0.45594000000E+02  0.51100000000E-03 0.  1.
    9900012    2    1    2    0    0 -0.17737684661E+02 -0.39950264197E+02  0.10884135356E+02  0.46142317977E+02  0.10000001964E+02 0.  0.
        -12    1    1    2    0    0  0.17737684661E+02  0.39950264197E+02 -0.10884135356E+02  0.45045682023E+02  0.00000000000E+00 0.  1.
         11    1    3    3    0    0 -0.13839405412E+02 -0.23613541693E+02  0.81805458182E+01  0.28566585789E+02  0.51100000000E-03 0. -1.
        -11    1    3    3    0    0 -0.33133573055E+00  0.23525412568E+00  0.14902604901E+00  0.43282432279E+00  0.51100000000E-03 0.  1.
        -12    1    3    3    0    0 -0.35669435180E+01 -0.16571976629E+02  0.25545634884E+01  0.17142907865E+02  0.00000000000E+00 0.  1.
</event>
<event>
 7    1  0.4081218E-008  0.4614232E+02  0.7816164E-02  0.1320468E+00
        -11   -1    0    0    0    0  0.00000000000E+00  0.00000000000E+00  0.45593999997E+02  0.45594000000E+02  0.51100000000E-03 0.  1.
         11   -1    0    0    0    0 -0.00000000000E+00 -0.00000000000E+00 -0.45593999997E+02  0.45594000000E+02  0.51100000000E-03 0. -1.
    9900012    2    1    2    0    0 -0.95829745865E+01  0.38766177339E+02 -0.20843795510E+02  0.46142315205E+02  0.99999766890E+01 0.  0.
        -12    1    1    2    0    0  0.95829745865E+01 -0.38766177339E+02  0.20843795510E+02  0.45045684795E+02  0.00000000000E+00 0.  1.
         11    1    3    3    0    0 -0.25124005085E+01  0.24534422350E+02 -0.13283503925E+02  0.28012524219E+02  0.51100000000E-03 0. -1.
        -11    1    3    3    0    0 -0.36282279027E+00  0.12981831994E+01  0.54906891788E+00  0.14554713786E+01  0.51100000000E-03 0.  1.
         12    1    3    3    0    0 -0.67077512878E+01  0.12933571790E+02 -0.81093605030E+01  0.16674319607E+02  0.00000000000E+00 0. -1.
</event>
<event>
 7    1  0.4081218E-008  0.4614233E+02  0.7816164E-02  0.1320468E+00
        -11   -1    0    0    0    0  0.00000000000E+00  0.00000000000E+00  0.45593999997E+02  0.45594000000E+02  0.51100000000E-03 0. -1.
         11   -1    0    0    0    0 -0.00000000000E+00 -0.00000000000E+00 -0.45593999997E+02  0.45594000000E+02  0.51100000000E-03 0.  1.
    9900012    2    1    2    0    0  0.16545435242E+02  0.22396088546E+02  0.35408705512E+02  0.46142327227E+02  0.10000086320E+02 0.  0.
        -12    1    1    2    0    0 -0.16545435242E+02 -0.22396088546E+02 -0.35408705512E+02  0.45045672773E+02  0.00000000000E+00 0.  1.
         11    1    3    3    0    0  0.98571140603E+01  0.13499041927E+02  0.18091308180E+02  0.24630920861E+02  0.51100000000E-03 0. -1.
        -11    1    3    3    0    0  0.38483998677E+01  0.39311265409E+01  0.34074678754E+01  0.64710721682E+01  0.51100000000E-03 0.  1.
        -12    1    3    3    0    0  0.28399213136E+01  0.49659200778E+01  0.13909929457E+02  0.15040334198E+02  0.00000000000E+00 0.  1.
</event>
<event>
 7    1  0.4081218E-008  0.4614232E+02  0.7816164E-02  0.1320468E+00
        -11   -1    0    0    0    0  0.00000000000E+00  0.00000000000E+00  0.45593999997E+02  0.45594000000E+02  0.51100000000E-03 0.  1.
         11   -1    0    0    0    0 -0.00000000000E+00 -0.00000000000E+00 -0.45593999997E+02  0.45594000000E+02  0.51100000000E-03 0. -1.
    9900012    2    1    2    0    0  0.18322623664E+02  0.38177200580E+02 -0.15358915634E+02  0.46142317949E+02  0.10000001710E+02 0.  0.
        -12    1    1    2    0    0 -0.18322623664E+02 -0.38177200580E+02  0.15358915634E+02  0.45045682051E+02  0.00000000000E+00 0.  1.
         11    1    3    3    0    0  0.64833540821E+01  0.97336405305E+01 -0.41362393331E+01  0.12405084208E+02  0.51100000000E-03 0. -1.
        -11    1    3    3    0    0  0.44607821539E+00  0.76789268091E+01 -0.41513022914E+00  0.77030666674E+01  0.51100000000E-03 0.  1.
        -12    1    3    3    0    0  0.11393191366E+02  0.20764633240E+02 -0.10807546071E+02  0.26034167073E+02  0.00000000000E+00 0.  1.
</event>
<event>
 7    1  0.4081218E-008  0.4614232E+02  0.7816164E-02  0.1320468E+00
        -11   -1    0    0    0    0  0.00000000000E+00  0.00000000000E+00  0.45593999997E+02  0.45594000000E+02  0.51100000000E-03 0. -1.
         11   -1    0    0    0    0 -0.00000000000E+00 -0.00000000000E+00 -0.45593999997E+02  0.45594000000E+02  0.51100000000E-03 0.  1.
    9900012    2    1    2    0    0  0.31282467570E+02 -0.21451723552E+02  0.24297001550E+02  0.46142317577E+02  0.99999983243E+01 0.  0.
        -12    1    1    2    0    0 -0.31282467570E+02  0.21451723552E+02 -0.24297001550E+02  0.45045682423E+02  0.00000000000E+00 0.  1.
         11    1    3    3    0    0  0.76358441589E+01 -0.53754992414E+01  0.76749152567E+01  0.12087449382E+02  0.51100000000E-03 0. -1.
        -11    1    3    3    0    0  0.24119617792E+02 -0.15515671227E+02  0.15208038898E+02  0.32461923286E+02  0.51100000000E-03 0.  1.
        -12    1    3    3    0    0 -0.47299438163E+00 -0.56055308387E+00  0.14140473957E+01  0.15929449087E+01  0.00000000000E+00 0.  1.
</event>
<event>
 7    1  0.4081218E-008  0.4614232E+02  0.7816164E-02  0.1320468E+00
        -11   -1    0    0    0    0  0.00000000000E+00  0.00000000000E+00  0.45593999997E+02  0.45594000000E+02  0.51100000000E-03 0. -1.
         11   -1    0    0    0    0 -0.00000000000E+00 -0.00000000000E+00 -0.45593999997E+02  0.45594000000E+02  0.51100000000E-03 0.  1.
    9900012    2    1    2    0    0  0.44989850433E+02  0.13853951389E+01 -0.17627841926E+01  0.46142319077E+02  0.10000011999E+02 0.  0.
        -12    1    1    2    0    0 -0.44989850433E+02 -0.13853951389E+01  0.17627841926E+01  0.45045680923E+02  0.00000000000E+00 0.  1.
         11    1    3    3    0    0  0.69913322439E+01  0.15920542432E+00 -0.11930061821E+01  0.70941762682E+01  0.51100000000E-03 0. -1.
        -11    1    3    3    0    0  0.33665828439E+02 -0.35452880179E+00  0.20750243099E+01  0.33731578992E+02  0.51100000000E-03 0.  1.
        -12    1    3    3    0    0  0.43326897507E+01  0.15807185164E+01 -0.26448023204E+01  0.53165638168E+01  0.00000000000E+00 0.  1.
</event>
<event>
 7    1  0.4081218E-008  0.4614232E+02  0.7816164E-02  0.1320468E+00
        -11   -1    0    0    0    0  0.00000000000E+00  0.00000000000E+00  0.45593999997E+02  0.45594000000E+02  0.51100000000E-03 0.  1.
         11   -1    0    0    0    0 -0.00000000000E+00 -0.00000000000E+00 -0.45593999997E+02  0.45594000000E+02  0.51100000000E-03 0. -1.
    9900012    2    1    2    0    0  0.78561099244E+01  0.22302621079E+02 -0.38340423302E+02  0.46142318419E+02  0.10000005999E+02 0.  0.
        -12    1    1    2    0    0 -0.78561099244E+01 -0.22302621079E+02  0.38340423302E+02  0.45045681581E+02  0.00000000000E+00 0.  1.
         11    1    3    3    0    0  0.53403967074E+01  0.61743705784E+01 -0.16775864685E+02  0.18656696525E+02  0.51100000000E-03 0. -1.
        -11    1    3    3    0    0 -0.12217631602E+01  0.22338802984E+01 -0.44457772169E+01  0.51232667051E+01  0.51100000000E-03 0.  1.
         12    1    3    3    0    0  0.37374763772E+01  0.13894370202E+02 -0.17118781400E+02  0.22362355189E+02  0.00000000000E+00 0. -1.
</event>
<event>
 7    1  0.4331830E-008  0.4614232E+02  0.7816164E-02  0.1320468E+00
        -11   -1    0    0    0    0  0.00000000000E+00  0.00000000000E+00  0.45593999997E+02  0.45594000000E+02  0.51100000000E-03 0.  1.
         11   -1    0    0    0    0 -0.00000000000E+00 -0.00000000000E+00 -0.45593999997E+02  0.45594000000E+02  0.51100000000E-03 0. -1.
    9900012    2    1    2    0    0  0.26326963003E+02 -0.39430538732E+01 -0.36338091405E+02  0.46142317168E+02  0.99999945961E+01 0.  0.
        -12    1    1    2    0    0 -0.26326963003E+02  0.39430538732E+01  0.36338091405E+02  0.45045682832E+02  0.00000000000E+00 0.  1.
         11    1    3    3    0    0  0.17015814000E+02 -0.37237665604E+01 -0.28228561131E+02  0.33170107435E+02  0.51100000000E-03 0. -1.
        -11    1    3    3    0    0  0.63546365064E+01 -0.24607035251E+00 -0.77011976418E+01  0.99875122591E+01  0.51100000000E-03 0.  1.
        -12    1    3    3    0    0  0.29565124970E+01  0.26783039687E-01 -0.40833263232E+00  0.29846974745E+01  0.00000000000E+00 0.  1.
</event>
<event>
 7    1  0.4081218E-008  0.4614232E+02  0.7816164E-02  0.1320468E+00
        -11   -1    0    0    0    0  0.00000000000E+00  0.00000000000E+00  0.45593999997E+02  0.45594000000E+02  0.51100000000E-03 0.  1.
         11   -1    0    0    0    0 -0.00000000000E+00 -0.00000000000E+00 -0.45593999997E+02  0.45594000000E+02  0.51100000000E-03 0. -1.
    9900012    2    1    2    0    0 -0.16340427938E+02 -0.41584204711E+02 -0.57321712292E+01  0.46142318147E+02  0.10000003514E+02 0.  0.
        -12    1    1    2    0    0  0.16340427938E+02  0.41584204711E+02  0.57321712292E+01  0.45045681853E+02  0.00000000000E+00 0.  1.
         11    1    3    3    0    0 -0.11301514452E+02 -0.34109395075E+02 -0.54547326948E+01  0.36344589285E+02  0.51100000000E-03 0. -1.
        -11    1    3    3    0    0 -0.93715826277E+00 -0.43087985124E+01  0.86056176185E+00  0.44927249011E+01  0.51100000000E-03 0.  1.
         12    1    3    3    0    0 -0.41017552226E+01 -0.31660111241E+01 -0.11380002962E+01  0.53050039603E+01  0.00000000000E+00 0. -1.
</event>
<event>
 7    1  0.4081218E-008  0.4614232E+02  0.7816164E-02  0.1320468E+00
        -11   -1    0    0    0    0  0.00000000000E+00  0.00000000000E+00  0.45593999997E+02  0.45594000000E+02  0.51100000000E-03 0. -1.
         11   -1    0    0    0    0 -0.00000000000E+00 -0.00000000000E+00 -0.45593999997E+02  0.45594000000E+02  0.51100000000E-03 0.  1.
    9900012    2    1    2    0    0  0.66924842225E+00 -0.41489485657E+02  0.17529636612E+02  0.46142317928E+02  0.10000001524E+02 0.  0.
        -12    1    1    2    0    0 -0.66924842225E+00  0.41489485657E+02 -0.17529636612E+02  0.45045682072E+02  0.00000000000E+00 0.  1.
         11    1    3    3    0    0  0.22759285135E+01 -0.33656730154E+02  0.15679841377E+02  0.37199633885E+02  0.51100000000E-03 0. -1.
        -11    1    3    3    0    0  0.50187017172E+00 -0.20570142682E+01 -0.77844960030E+00  0.22559178643E+01  0.51100000000E-03 0.  1.
         12    1    3    3    0    0 -0.21085502630E+01 -0.57757412346E+01  0.26282448356E+01  0.66867661793E+01  0.00000000000E+00 0. -1.
</event>
<event>
 7    1  0.4081218E-008  0.4614232E+02  0.7816164E-02  0.1320468E+00
        -11   -1    0    0    0    0  0.00000000000E+00  0.00000000000E+00  0.45593999997E+02  0.45594000000E+02  0.51100000000E-03 0.  1.
         11   -1    0    0    0    0 -0.00000000000E+00 -0.00000000000E+00 -0.45593999997E+02  0.45594000000E+02  0.51100000000E-03 0. -1.
    9900012    2    1    2    0    0  0.15141586801E+02 -0.40715163398E+02 -0.11921458465E+02  0.46142319260E+02  0.10000013671E+02 0.  0.
        -12    1    1    2    0    0 -0.15141586801E+02  0.40715163398E+02  0.11921458465E+02  0.45045680740E+02  0.00000000000E+00 0.  1.
         11    1    3    3    0    0 -0.23719681523E+00 -0.99057598220E-01 -0.12465059826E+00  0.28567948769E+00  0.51100000000E-03 0.  1.
        -11    1    3    3    0    0  0.40379779778E+01 -0.79938233009E+01 -0.61416331104E+01  0.10859380030E+02  0.51100000000E-03 0. -1.
         12    1    3    3    0    0  0.11340805638E+02 -0.32622282499E+02 -0.56551747561E+01  0.34997259743E+02  0.00000000000E+00 0. -1.
</event>
<event>
 7    1  0.4081218E-008  0.4614232E+02  0.7816164E-02  0.1320468E+00
        -11   -1    0    0    0    0  0.00000000000E+00  0.00000000000E+00  0.45593999997E+02  0.45594000000E+02  0.51100000000E-03 0.  1.
         11   -1    0    0    0    0 -0.00000000000E+00 -0.00000000000E+00 -0.45593999997E+02  0.45594000000E+02  0.51100000000E-03 0. -1.
    9900012    2    1    2    0    0  0.29165300025E+02 -0.28676632482E+02 -0.18871923780E+02  0.46142317818E+02  0.10000000518E+02 0.  0.
        -12    1    1    2    0    0 -0.29165300025E+02  0.28676632482E+02  0.18871923780E+02  0.45045682182E+02  0.00000000000E+00 0.  1.
         11    1    3    3    0    0  0.19017753965E+02 -0.16668015280E+02 -0.73064732334E+01  0.26322656603E+02  0.51100000000E-03 0. -1.
        -11    1    3    3    0    0  0.67405307029E+01 -0.60811894156E+01 -0.80433189537E+01  0.12128915818E+02  0.51100000000E-03 0.  1.
         12    1    3    3    0    0  0.34070153575E+01 -0.59274277863E+01 -0.35221315932E+01  0.76907453974E+01  0.00000000000E+00 0. -1.
</event>
<event>
 7    1  0.4081218E-008  0.4614231E+02  0.7816164E-02  0.1320468E+00
        -11   -1    0    0    0    0  0.00000000000E+00  0.00000000000E+00  0.45593999997E+02  0.45594000000E+02  0.51100000000E-03 0.  1.
         11   -1    0    0    0    0 -0.00000000000E+00 -0.00000000000E+00 -0.45593999997E+02  0.45594000000E+02  0.51100000000E-03 0. -1.
    9900012    2    1    2    0    0  0.30466718111E+02 -0.12864254305E+02 -0.30584374461E+02  0.46142313054E+02  0.99999570802E+01 0.  0.
        -12    1    1    2    0    0 -0.30466718111E+02  0.12864254305E+02  0.30584374461E+02  0.45045686946E+02  0.00000000000E+00 0.  1.
         11    1    3    3    0    0  0.17284939207E+02 -0.64731744305E+01 -0.14204994386E+02  0.23290619923E+02  0.51100000000E-03 0.  1.
        -11    1    3    3    0    0  0.89687787213E+01 -0.91092686892E+00 -0.89245798742E+01  0.12685302744E+02  0.51100000000E-03 0. -1.
         12    1    3    3    0    0  0.42130001824E+01 -0.54801530051E+01 -0.74548002001E+01  0.10166390388E+02  0.00000000000E+00 0. -1.
</event>
<event>
 7    1  0.4081218E-008  0.4614232E+02  0.7816164E-02  0.1320468E+00
        -11   -1    0    0    0    0  0.00000000000E+00  0.00000000000E+00  0.45593999997E+02  0.45594000000E+02  0.51100000000E-03 0.  1.
         11   -1    0    0    0    0 -0.00000000000E+00 -0.00000000000E+00 -0.45593999997E+02  0.45594000000E+02  0.51100000000E-03 0. -1.
    9900012    2    1    2    0    0  0.35164747240E+02  0.28149593095E+02  0.39301702733E+00  0.46142317607E+02  0.99999985944E+01 0.  0.
        -12    1    1    2    0    0 -0.35164747240E+02 -0.28149593095E+02 -0.39301702733E+00  0.45045682393E+02  0.00000000000E+00 0.  1.
         11    1    3    3    0    0  0.11313741140E+02  0.87144153246E+01 -0.27023585356E+00  0.14283374976E+02  0.51100000000E-03 0. -1.
        -11    1    3    3    0    0  0.14507021201E+02  0.10468076956E+02 -0.35536803197E+01  0.18239049957E+02  0.51100000000E-03 0.  1.
        -12    1    3    3    0    0  0.93439848995E+01  0.89671008150E+01  0.42169332006E+01  0.13619892674E+02  0.00000000000E+00 0.  1.
</event>
<event>
 7    1  0.4081218E-008  0.4614232E+02  0.7816164E-02  0.1320468E+00
        -11   -1    0    0    0    0  0.00000000000E+00  0.00000000000E+00  0.45593999997E+02  0.45594000000E+02  0.51100000000E-03 0.  1.
         11   -1    0    0    0    0 -0.00000000000E+00 -0.00000000000E+00 -0.45593999997E+02  0.45594000000E+02  0.51100000000E-03 0. -1.
    9900012    2    1    2    0    0  0.18425471097E+02  0.52926549980E+00 -0.41101524990E+02  0.46142318036E+02  0.10000002509E+02 0.  0.
        -12    1    1    2    0    0 -0.18425471097E+02 -0.52926549980E+00  0.41101524990E+02  0.45045681964E+02  0.00000000000E+00 0.  1.
         11    1    3    3    0    0  0.82678741256E+01  0.43963035221E+01 -0.15479313928E+02  0.18091279313E+02  0.51100000000E-03 0. -1.
        -11    1    3    3    0    0  0.67464603157E+01 -0.13575261620E+01 -0.12589668384E+02  0.14347729937E+02  0.51100000000E-03 0.  1.
        -12    1    3    3    0    0  0.34111366553E+01 -0.25095118603E+01 -0.13032542678E+02  0.13703308787E+02  0.00000000000E+00 0.  1.
</event>
<event>
 7    1  0.4081218E-008  0.4614232E+02  0.7816164E-02  0.1320468E+00
        -11   -1    0    0    0    0  0.00000000000E+00  0.00000000000E+00  0.45593999997E+02  0.45594000000E+02  0.51100000000E-03 0.  1.
         11   -1    0    0    0    0 -0.00000000000E+00 -0.00000000000E+00 -0.45593999997E+02  0.45594000000E+02  0.51100000000E-03 0. -1.
    9900012    2    1    2    0    0  0.21804770318E+02 -0.82316341829E+01 -0.38547445628E+02  0.46142319026E+02  0.10000011532E+02 0.  0.
        -12    1    1    2    0    0 -0.21804770318E+02  0.82316341829E+01  0.38547445628E+02  0.45045680974E+02  0.00000000000E+00 0.  1.
         11    1    3    3    0    0  0.39631897550E+01 -0.75423822320E+00 -0.10687058834E+02  0.11423177103E+02  0.51100000000E-03 0. -1.
        -11    1    3    3    0    0  0.17204221033E+01  0.11726834668E+01 -0.12571230034E+01  0.24321589655E+01  0.51100000000E-03 0.  1.
         12    1    3    3    0    0  0.16121158460E+02 -0.86500794265E+01 -0.26603263791E+02  0.32286982957E+02  0.00000000000E+00 0. -1.
</event>
<event>
 7    1  0.4081218E-008  0.4614232E+02  0.7816164E-02  0.1320468E+00
        -11   -1    0    0    0    0  0.00000000000E+00  0.00000000000E+00  0.45593999997E+02  0.45594000000E+02  0.51100000000E-03 0. -1.
         11   -1    0    0    0    0 -0.00000000000E+00 -0.00000000000E+00 -0.45593999997E+02  0.45594000000E+02  0.51100000000E-03 0.  1.
    9900012    2    1    2    0    0  0.41196300304E+02 -0.15901377068E+02  0.88951974271E+01  0.46142317758E+02  0.99999999726E+01 0.  0.
        -12    1    1    2    0    0 -0.41196300304E+02  0.15901377068E+02 -0.88951974271E+01  0.45045682242E+02  0.00000000000E+00 0.  1.
         11    1    3    3    0    0  0.21636319190E+02 -0.69726074882E+01  0.91522177048E+01  0.24505318860E+02  0.51100000000E-03 0. -1.
        -11    1    3    3    0    0  0.13506613201E+02 -0.55566723433E+01 -0.11513706631E+01  0.14650285402E+02  0.51100000000E-03 0.  1.
        -12    1    3    3    0    0  0.60533679127E+01 -0.33720972369E+01  0.89435038539E+00  0.69867134959E+01  0.00000000000E+00 0.  1.
</event>
<event>
 7    1  0.4081218E-008  0.4614232E+02  0.7816164E-02  0.1320468E+00
        -11   -1    0    0    0    0  0.00000000000E+00  0.00000000000E+00  0.45593999997E+02  0.45594000000E+02  0.51100000000E-03 0.  1.
         11   -1    0    0    0    0 -0.00000000000E+00 -0.00000000000E+00 -0.45593999997E+02  0.45594000000E+02  0.51100000000E-03 0. -1.
    9900012    2    1    2    0    0  0.37681594084E+01  0.23669518304E+02 -0.38140113777E+02  0.46142318731E+02  0.10000008846E+02 0.  0.
        -12    1    1    2    0    0 -0.37681594084E+01 -0.23669518304E+02  0.38140113777E+02  0.45045681269E+02  0.00000000000E+00 0.  1.
         11    1    3    3    0    0  0.12190845688E+01  0.64288666214E+01 -0.63602912294E+01  0.91252286550E+01  0.51100000000E-03 0. -1.
        -11    1    3    3    0    0 -0.16579920128E+01  0.54903422305E+00 -0.24452018483E+01  0.30048940801E+01  0.51100000000E-03 0.  1.
         12    1    3    3    0    0  0.42070668525E+01  0.16691617460E+02 -0.29334620699E+02  0.34012195996E+02  0.00000000000E+00 0. -1.
</event>
<event>
 7    1  0.4081218E-008  0.4614233E+02  0.7816164E-02  0.1320468E+00
        -11   -1    0    0    0    0  0.00000000000E+00  0.00000000000E+00  0.45593999997E+02  0.45594000000E+02  0.51100000000E-03 0.  1.
         11   -1    0    0    0    0 -0.00000000000E+00 -0.00000000000E+00 -0.45593999997E+02  0.45594000000E+02  0.51100000000E-03 0. -1.
    9900012    2    1    2    0    0 -0.20320574780E+02 -0.47728120606E+01 -0.39917506685E+02  0.46142325021E+02  0.10000066199E+02 0.  0.
        -12    1    1    2    0    0  0.20320574780E+02  0.47728120606E+01  0.39917506685E+02  0.45045674979E+02  0.00000000000E+00 0.  1.
         11    1    3    3    0    0 -0.10046203775E+02 -0.59053570472E+01 -0.24692329173E+02  0.27304039488E+02  0.51100000000E-03 0. -1.
        -11    1    3    3    0    0 -0.16497234999E+00 -0.76526148491E+00 -0.14329459740E+01  0.16328427488E+01  0.51100000000E-03 0.  1.
        -12    1    3    3    0    0 -0.10109398655E+02  0.18978064715E+01 -0.13792231538E+02  0.17205442784E+02  0.00000000000E+00 0.  1.
</event>
<event>
 7    1  0.4081218E-008  0.4614232E+02  0.7816164E-02  0.1320468E+00
        -11   -1    0    0    0    0  0.00000000000E+00  0.00000000000E+00  0.45593999997E+02  0.45594000000E+02  0.51100000000E-03 0.  1.
         11   -1    0    0    0    0 -0.00000000000E+00 -0.00000000000E+00 -0.45593999997E+02  0.45594000000E+02  0.51100000000E-03 0. -1.
    9900012    2    1    2    0    0  0.22331373498E+02 -0.49937857551E+01 -0.38800584563E+02  0.46142317622E+02  0.99999987332E+01 0.  0.
        -12    1    1    2    0    0 -0.22331373498E+02  0.49937857551E+01  0.38800584563E+02  0.45045682378E+02  0.00000000000E+00 0.  1.
         11    1    3    3    0    0  0.13111379713E+02 -0.27258954854E+01 -0.20533341440E+02  0.24514422186E+02  0.51100000000E-03 0. -1.
        -11    1    3    3    0    0  0.69671546041E+01 -0.35710964087E+01 -0.86597613104E+01  0.11674135473E+02  0.51100000000E-03 0.  1.
        -12    1    3    3    0    0  0.22528391809E+01  0.13032061390E+01 -0.96074818127E+01  0.99537599629E+01  0.00000000000E+00 0.  1.
</event>
<event>
 7    1  0.4081218E-008  0.4614232E+02  0.7816164E-02  0.1320468E+00
        -11   -1    0    0    0    0  0.00000000000E+00  0.00000000000E+00  0.45593999997E+02  0.45594000000E+02  0.51100000000E-03 0.  1.
         11   -1    0    0    0    0 -0.00000000000E+00 -0.00000000000E+00 -0.45593999997E+02  0.45594000000E+02  0.51100000000E-03 0. -1.
    9900012    2    1    2    0    0 -0.89208259002E+01  0.61332183913E+01 -0.43725461493E+02  0.46142317795E+02  0.10000000309E+02 0.  0.
        -12    1    1    2    0    0  0.89208259002E+01 -0.61332183913E+01  0.43725461493E+02  0.45045682205E+02  0.00000000000E+00 0.  1.
         11    1    3    3    0    0 -0.21579775682E+01 -0.13505152820E+01 -0.11876831822E+02  0.12146600064E+02  0.51100000000E-03 0. -1.
        -11    1    3    3    0    0  0.91388213086E+00 -0.76010535366E-01 -0.46749351258E+01  0.47640294754E+01  0.51100000000E-03 0.  1.
         12    1    3    3    0    0 -0.76767304629E+01  0.75597442087E+01 -0.27173694544E+02  0.29231688256E+02  0.00000000000E+00 0. -1.
</event>
<event>
 7    1  0.4081218E-008  0.4614232E+02  0.7816164E-02  0.1320468E+00
        -11   -1    0    0    0    0  0.00000000000E+00  0.00000000000E+00  0.45593999997E+02  0.45594000000E+02  0.51100000000E-03 0.  1.
         11   -1    0    0    0    0 -0.00000000000E+00 -0.00000000000E+00 -0.45593999997E+02  0.45594000000E+02  0.51100000000E-03 0. -1.
    9900012    2    1    2    0    0  0.96360768732E+01 -0.31746149996E+02 -0.30470330706E+02  0.46142322401E+02  0.10000042307E+02 0.  0.
        -12    1    1    2    0    0 -0.96360768732E+01  0.31746149996E+02  0.30470330706E+02  0.45045677599E+02  0.00000000000E+00 0.  1.
         11    1    3    3    0    0  0.21753176643E+01 -0.47236473879E+01 -0.39215120305E+01  0.65133024229E+01  0.51100000000E-03 0. -1.
        -11    1    3    3    0    0 -0.20536472008E+01 -0.59024675292E+01 -0.60155119865E+01  0.86742708328E+01  0.51100000000E-03 0.  1.
        -12    1    3    3    0    0  0.95144064097E+01 -0.21120035079E+02 -0.20533306689E+02  0.30954749145E+02  0.00000000000E+00 0.  1.
</event>
<event>
 7    1  0.4081218E-008  0.4614232E+02  0.7816164E-02  0.1320468E+00
        -11   -1    0    0    0    0  0.00000000000E+00  0.00000000000E+00  0.45593999997E+02  0.45594000000E+02  0.51100000000E-03 0.  1.
         11   -1    0    0    0    0 -0.00000000000E+00 -0.00000000000E+00 -0.45593999997E+02  0.45594000000E+02  0.51100000000E-03 0. -1.
    9900012    2    1    2    0    0  0.19992190983E+02 -0.38993652119E+02 -0.10436514541E+02  0.46142318280E+02  0.10000004730E+02 0.  0.
        -12    1    1    2    0    0 -0.19992190983E+02  0.38993652119E+02  0.10436514541E+02  0.45045681720E+02  0.00000000000E+00 0.  1.
         11    1    3    3    0    0  0.15876058410E+02 -0.29468744436E+02 -0.49660241953E+01  0.33839585190E+02  0.51100000000E-03 0. -1.
        -11    1    3    3    0    0  0.22766790113E+01 -0.16119109657E+01 -0.21688448581E+01  0.35334703284E+01  0.51100000000E-03 0.  1.
        -12    1    3    3    0    0  0.18394535624E+01 -0.79129967174E+01 -0.33016454877E+01  0.87692627618E+01  0.00000000000E+00 0.  1.
</event>
<event>
 7    1  0.4081218E-008  0.4614232E+02  0.7816164E-02  0.1320468E+00
        -11   -1    0    0    0    0  0.00000000000E+00  0.00000000000E+00  0.45593999997E+02  0.45594000000E+02  0.51100000000E-03 0.  1.
         11   -1    0    0    0    0 -0.00000000000E+00 -0.00000000000E+00 -0.45593999997E+02  0.45594000000E+02  0.51100000000E-03 0. -1.
    9900012    2    1    2    0    0  0.23425878207E+02  0.38248285244E+02 -0.41725744303E+01  0.46142317951E+02  0.10000001732E+02 0.  0.
        -12    1    1    2    0    0 -0.23425878207E+02 -0.38248285244E+02  0.41725744303E+01  0.45045682049E+02  0.00000000000E+00 0.  1.
         11    1    3    3    0    0  0.55592381197E+00  0.38725031435E+01 -0.12915863308E+01  0.41198940996E+01  0.51100000000E-03 0. -1.
        -11    1    3    3    0    0  0.10021384202E+01  0.51611060844E+01 -0.16457982691E+01  0.55090788370E+01  0.51100000000E-03 0.  1.
         12    1    3    3    0    0  0.21867815975E+02  0.29214676016E+02 -0.12351898305E+01  0.36513345014E+02  0.00000000000E+00 0. -1.
</event>
<event>
 7    1  0.4081218E-008  0.4614232E+02  0.7816164E-02  0.1320468E+00
        -11   -1    0    0    0    0  0.00000000000E+00  0.00000000000E+00  0.45593999997E+02  0.45594000000E+02  0.51100000000E-03 0.  1.
         11   -1    0    0    0    0 -0.00000000000E+00 -0.00000000000E+00 -0.45593999997E+02  0.45594000000E+02  0.51100000000E-03 0. -1.
    9900012    2    1    2    0    0  0.27223856823E+02  0.94685826210E+01 -0.34616774385E+02  0.46142317566E+02  0.99999982186E+01 0.  0.
        -12    1    1    2    0    0 -0.27223856823E+02 -0.94685826210E+01  0.34616774385E+02  0.45045682434E+02  0.00000000000E+00 0.  1.
         11    1    3    3    0    0  0.14558489505E+02  0.44931807591E+01 -0.14813244518E+02  0.21250188315E+02  0.51100000000E-03 0. -1.
        -11    1    3    3    0    0 -0.37337434809E+00  0.10646453344E+01 -0.41506989191E+00  0.12021486465E+01  0.51100000000E-03 0.  1.
         12    1    3    3    0    0  0.13038741666E+02  0.39107565275E+01 -0.19388459975E+02  0.23689980605E+02  0.00000000000E+00 0. -1.
</event>
<event>
 7    1  0.4081218E-008  0.4614232E+02  0.7816164E-02  0.1320468E+00
        -11   -1    0    0    0    0  0.00000000000E+00  0.00000000000E+00  0.45593999997E+02  0.45594000000E+02  0.51100000000E-03 0. -1.
         11   -1    0    0    0    0 -0.00000000000E+00 -0.00000000000E+00 -0.45593999997E+02  0.45594000000E+02  0.51100000000E-03 0.  1.
    9900012    2    1    2    0    0  0.21738045882E+02  0.38148856949E+02  0.10061586585E+02  0.46142318188E+02  0.10000003896E+02 0.  0.
        -12    1    1    2    0    0 -0.21738045882E+02 -0.38148856949E+02 -0.10061586585E+02  0.45045681812E+02  0.00000000000E+00 0.  1.
         11    1    3    3    0    0  0.93445835500E+00  0.36893891738E+01  0.28013952655E+01  0.47257402158E+01  0.51100000000E-03 0. -1.
        -11    1    3    3    0    0  0.63430853905E+01  0.89056161706E+01 -0.81723716523E+00  0.10964151061E+02  0.51100000000E-03 0.  1.
         12    1    3    3    0    0  0.14460502136E+02  0.25553851604E+02  0.80774284852E+01  0.30452426911E+02  0.00000000000E+00 0. -1.
</event>
<event>
 7    1  0.4081218E-008  0.4614232E+02  0.7816164E-02  0.1320468E+00
        -11   -1    0    0    0    0  0.00000000000E+00  0.00000000000E+00  0.45593999997E+02  0.45594000000E+02  0.51100000000E-03 0.  1.
         11   -1    0    0    0    0 -0.00000000000E+00 -0.00000000000E+00 -0.45593999997E+02  0.45594000000E+02  0.51100000000E-03 0. -1.
    9900012    2    1    2    0    0 -0.28737017145E+02 -0.18521666016E+02 -0.29329937338E+02  0.46142317736E+02  0.99999997697E+01 0.  0.
        -12    1    1    2    0    0  0.28737017145E+02  0.18521666016E+02  0.29329937338E+02  0.45045682264E+02  0.00000000000E+00 0.  1.
         11    1    3    3    0    0 -0.55861766275E+01 -0.15447554297E+01 -0.44649316119E+01  0.73162321731E+01  0.51100000000E-03 0. -1.
        -11    1    3    3    0    0 -0.13336415941E+02 -0.48919517422E+01 -0.10789986732E+02  0.17838581668E+02  0.51100000000E-03 0.  1.
         12    1    3    3    0    0 -0.98144245760E+01 -0.12084958844E+02 -0.14075018994E+02  0.20987503894E+02  0.00000000000E+00 0. -1.
</event>
<event>
 7    1  0.4081218E-008  0.4614232E+02  0.7816164E-02  0.1320468E+00
        -11   -1    0    0    0    0  0.00000000000E+00  0.00000000000E+00  0.45593999997E+02  0.45594000000E+02  0.51100000000E-03 0. -1.
         11   -1    0    0    0    0 -0.00000000000E+00 -0.00000000000E+00 -0.45593999997E+02  0.45594000000E+02  0.51100000000E-03 0.  1.
    9900012    2    1    2    0    0  0.64497830652E+01 -0.28520399150E+02  0.34265151594E+02  0.46142317820E+02  0.10000000536E+02 0.  0.
        -12    1    1    2    0    0 -0.64497830652E+01  0.28520399150E+02 -0.34265151594E+02  0.45045682180E+02  0.00000000000E+00 0.  1.
         11    1    3    3    0    0  0.19435971589E+01 -0.13840406043E+02  0.13274943224E+02  0.19275853476E+02  0.51100000000E-03 0. -1.
        -11    1    3    3    0    0 -0.17073519274E+01 -0.35964736615E+01  0.61942491763E+01  0.73633142348E+01  0.51100000000E-03 0.  1.
         12    1    3    3    0    0  0.62135378336E+01 -0.11083519446E+02  0.14795959194E+02  0.19503150109E+02  0.00000000000E+00 0. -1.
</event>
<event>
 7    1  0.4081218E-008  0.4614232E+02  0.7816164E-02  0.1320468E+00
        -11   -1    0    0    0    0  0.00000000000E+00  0.00000000000E+00  0.45593999997E+02  0.45594000000E+02  0.51100000000E-03 0. -1.
         11   -1    0    0    0    0 -0.00000000000E+00 -0.00000000000E+00 -0.45593999997E+02  0.45594000000E+02  0.51100000000E-03 0.  1.
    9900012    2    1    2    0    0  0.32761470356E+02 -0.43758591375E+01  0.30604760814E+02  0.46142317992E+02  0.10000002103E+02 0.  0.
        -12    1    1    2    0    0 -0.32761470356E+02  0.43758591375E+01 -0.30604760814E+02  0.45045682008E+02  0.00000000000E+00 0.  1.
         11    1    3    3    0    0  0.26666909526E+02 -0.33168444594E+01  0.20884928953E+02  0.34033891615E+02  0.51100000000E-03 0. -1.
        -11    1    3    3    0    0  0.35907468683E+01  0.12527260892E+01  0.48089472527E+01  0.61309672701E+01  0.51100000000E-03 0.  1.
        -12    1    3    3    0    0  0.25038139621E+01 -0.23117407673E+01  0.49108846086E+01  0.59774591066E+01  0.00000000000E+00 0.  1.
</event>
<event>
 7    1  0.4081218E-008  0.4614232E+02  0.7816164E-02  0.1320468E+00
        -11   -1    0    0    0    0  0.00000000000E+00  0.00000000000E+00  0.45593999997E+02  0.45594000000E+02  0.51100000000E-03 0.  1.
         11   -1    0    0    0    0 -0.00000000000E+00 -0.00000000000E+00 -0.45593999997E+02  0.45594000000E+02  0.51100000000E-03 0. -1.
    9900012    2    1    2    0    0  0.32021937379E+02  0.31424063340E+02 -0.40295734676E+01  0.46142315494E+02  0.99999793284E+01 0.  0.
        -12    1    1    2    0    0 -0.32021937379E+02 -0.31424063340E+02  0.40295734676E+01  0.45045684506E+02  0.00000000000E+00 0.  1.
         11    1    3    3    0    0  0.19945704003E+02  0.18594288999E+02  0.63633241118E+00  0.27276062962E+02  0.51100000000E-03 0. -1.
        -11    1    3    3    0    0  0.72406399626E+01  0.41968089017E+01 -0.25337775278E+01  0.87441466621E+01  0.51100000000E-03 0.  1.
         12    1    3    3    0    0  0.48355934137E+01  0.86329654389E+01 -0.21321283510E+01  0.10122105870E+02  0.00000000000E+00 0. -1.
</event>
<event>
 7    1  0.4081218E-008  0.4614232E+02  0.7816164E-02  0.1320468E+00
        -11   -1    0    0    0    0  0.00000000000E+00  0.00000000000E+00  0.45593999997E+02  0.45594000000E+02  0.51100000000E-03 0.  1.
         11   -1    0    0    0    0 -0.00000000000E+00 -0.00000000000E+00 -0.45593999997E+02  0.45594000000E+02  0.51100000000E-03 0. -1.
    9900012    2    1    2    0    0 -0.42408174920E+02  0.11638417655E+02 -0.97574276566E+01  0.46142318076E+02  0.10000002871E+02 0.  0.
        -12    1    1    2    0    0  0.42408174920E+02 -0.11638417655E+02  0.97574276566E+01  0.45045681924E+02  0.00000000000E+00 0.  1.
         11    1    3    3    0    0 -0.10787260014E+02  0.67295438577E+01 -0.13962864875E+01  0.12790674546E+02  0.51100000000E-03 0. -1.
        -11    1    3    3    0    0 -0.19402586372E+02  0.10833374772E+01 -0.41246242645E+01  0.19865711756E+02  0.51100000000E-03 0.  1.
         12    1    3    3    0    0 -0.12218328534E+02  0.38255363202E+01 -0.42365169045E+01  0.13485931773E+02  0.00000000000E+00 0. -1.
</event>
<event>
 7    1  0.4081218E-008  0.4614232E+02  0.7816164E-02  0.1320468E+00
        -11   -1    0    0    0    0  0.00000000000E+00  0.00000000000E+00  0.45593999997E+02  0.45594000000E+02  0.51100000000E-03 0. -1.
         11   -1    0    0    0    0 -0.00000000000E+00 -0.00000000000E+00 -0.45593999997E+02  0.45594000000E+02  0.51100000000E-03 0.  1.
    9900012    2    1    2    0    0 -0.10640516870E+02  0.12922548745E+02  0.41819861261E+02  0.46142315843E+02  0.99999825094E+01 0.  0.
        -12    1    1    2    0    0  0.10640516870E+02 -0.12922548745E+02 -0.41819861261E+02  0.45045684157E+02  0.00000000000E+00 0.  1.
         11    1    3    3    0    0 -0.27283691158E+00 -0.36838161872E+00 -0.82497611288E-01  0.46578011370E+00  0.51100000000E-03 0. -1.
        -11    1    3    3    0    0 -0.71869172060E-01  0.40454112605E+01  0.13315139624E+02  0.13916301984E+02  0.51100000000E-03 0.  1.
         12    1    3    3    0    0 -0.10295810786E+02  0.92455191028E+01  0.28587219248E+02  0.31760233745E+02  0.00000000000E+00 0. -1.
</event>
<event>
 7    1  0.4081218E-008  0.4614232E+02  0.7816164E-02  0.1320468E+00
        -11   -1    0    0    0    0  0.00000000000E+00  0.00000000000E+00  0.45593999997E+02  0.45594000000E+02  0.51100000000E-03 0.  1.
         11   -1    0    0    0    0 -0.00000000000E+00 -0.00000000000E+00 -0.45593999997E+02  0.45594000000E+02  0.51100000000E-03 0. -1.
    9900012    2    1    2    0    0 -0.79190409506E+01  0.32656764821E+02 -0.29998964096E+02  0.46142319352E+02  0.10000014510E+02 0.  0.
        -12    1    1    2    0    0  0.79190409506E+01 -0.32656764821E+02  0.29998964096E+02  0.45045680648E+02  0.00000000000E+00 0.  1.
         11    1    3    3    0    0 -0.73870465785E+01  0.28227296042E+02 -0.24181017175E+02  0.37895518085E+02  0.51100000000E-03 0. -1.
        -11    1    3    3    0    0 -0.15252814949E+01  0.32537819746E+01 -0.19602990271E+01  0.40934524932E+01  0.51100000000E-03 0.  1.
        -12    1    3    3    0    0  0.99328712277E+00  0.11756868043E+01 -0.38576478939E+01  0.41533487746E+01  0.00000000000E+00 0.  1.
</event>
<event>
 7    1  0.4081218E-008  0.4614232E+02  0.7816164E-02  0.1320468E+00
        -11   -1    0    0    0    0  0.00000000000E+00  0.00000000000E+00  0.45593999997E+02  0.45594000000E+02  0.51100000000E-03 0.  1.
         11   -1    0    0    0    0 -0.00000000000E+00 -0.00000000000E+00 -0.45593999997E+02  0.45594000000E+02  0.51100000000E-03 0. -1.
    9900012    2    1    2    0    0 -0.40848108500E+02 -0.40943526136E+01  0.18541354630E+02  0.46142317378E+02  0.99999965056E+01 0.  0.
        -12    1    1    2    0    0  0.40848108500E+02  0.40943526136E+01 -0.18541354630E+02  0.45045682622E+02  0.00000000000E+00 0.  1.
         11    1    3    3    0    0 -0.25201557445E+02 -0.62739049599E+01  0.97550749572E+01  0.27742420024E+02  0.51100000000E-03 0. -1.
        -11    1    3    3    0    0 -0.59391671874E+01  0.34408846028E+00  0.51628352454E+01  0.78769900203E+01  0.51100000000E-03 0.  1.
         12    1    3    3    0    0 -0.97073838678E+01  0.18354638861E+01  0.36234444279E+01  0.10522907334E+02  0.00000000000E+00 0. -1.
</event>
<event>
 7    1  0.4081218E-008  0.4614231E+02  0.7816164E-02  0.1320468E+00
        -11   -1    0    0    0    0  0.00000000000E+00  0.00000000000E+00  0.45593999997E+02  0.45594000000E+02  0.51100000000E-03 0.  1.
         11   -1    0    0    0    0 -0.00000000000E+00 -0.00000000000E+00 -0.45593999997E+02  0.45594000000E+02  0.51100000000E-03 0. -1.
    9900012    2    1    2    0    0  0.12883520448E+02  0.42865201281E+02  0.50698558869E+01  0.46142311874E+02  0.99999463169E+01 0.  0.
        -12    1    1    2    0    0 -0.12883520448E+02 -0.42865201281E+02 -0.50698558869E+01  0.45045688126E+02  0.00000000000E+00 0.  1.
         11    1    3    3    0    0  0.24919814548E+00  0.42033156390E+01  0.28898690442E+00  0.42206013516E+01  0.51100000000E-03 0. -1.
        -11    1    3    3    0    0  0.50041625115E+01  0.10717322668E+02 -0.24188931116E+01  0.12072849364E+02  0.51100000000E-03 0.  1.
        -12    1    3    3    0    0  0.76301597907E+01  0.27944562975E+02  0.71997620941E+01  0.29848861159E+02  0.00000000000E+00 0.  1.
</event>
<event>
 7    1  0.4081218E-008  0.4614232E+02  0.7816164E-02  0.1320468E+00
        -11   -1    0    0    0    0  0.00000000000E+00  0.00000000000E+00  0.45593999997E+02  0.45594000000E+02  0.51100000000E-03 0. -1.
         11   -1    0    0    0    0 -0.00000000000E+00 -0.00000000000E+00 -0.45593999997E+02  0.45594000000E+02  0.51100000000E-03 0.  1.
    9900012    2    1    2    0    0 -0.14974420619E+02  0.67046077473E-01  0.42483829069E+02  0.46142317627E+02  0.99999987761E+01 0.  0.
        -12    1    1    2    0    0  0.14974420619E+02 -0.67046077473E-01 -0.42483829069E+02  0.45045682373E+02  0.00000000000E+00 0.  1.
         11    1    3    3    0    0 -0.34083648243E+01  0.67800778855E+00  0.19345871071E+02  0.19655517624E+02  0.51100000000E-03 0. -1.
        -11    1    3    3    0    0  0.23441005419E+00  0.56040883966E+00  0.34522059793E+01  0.35052435758E+01  0.51100000000E-03 0.  1.
        -12    1    3    3    0    0 -0.11800465849E+02 -0.11713705507E+01  0.19685752019E+02  0.22981556427E+02  0.00000000000E+00 0.  1.
</event>
<event>
 7    1  0.4081218E-008  0.4614232E+02  0.7816164E-02  0.1320468E+00
        -11   -1    0    0    0    0  0.00000000000E+00  0.00000000000E+00  0.45593999997E+02  0.45594000000E+02  0.51100000000E-03 0. -1.
         11   -1    0    0    0    0 -0.00000000000E+00 -0.00000000000E+00 -0.45593999997E+02  0.45594000000E+02  0.51100000000E-03 0.  1.
    9900012    2    1    2    0    0  0.12525519708E+02  0.18627151842E+01  0.43229101003E+02  0.46142317351E+02  0.99999962608E+01 0.  0.
        -12    1    1    2    0    0 -0.12525519708E+02 -0.18627151842E+01 -0.43229101003E+02  0.45045682649E+02  0.00000000000E+00 0.  1.
         11    1    3    3    0    0  0.43241194060E+01 -0.16377526540E+01  0.78291245359E+01  0.90926032385E+01  0.51100000000E-03 0. -1.
        -11    1    3    3    0    0  0.13594373932E+01 -0.15030043941E+01  0.35157091141E+01  0.40579924927E+01  0.51100000000E-03 0.  1.
        -12    1    3    3    0    0  0.68419629085E+01  0.50034722323E+01  0.31884267353E+02  0.32991721620E+02  0.00000000000E+00 0.  1.
</event>
<event>
 7    1  0.4081218E-008  0.4614232E+02  0.7816164E-02  0.1320468E+00
        -11   -1    0    0    0    0  0.00000000000E+00  0.00000000000E+00  0.45593999997E+02  0.45594000000E+02  0.51100000000E-03 0. -1.
         11   -1    0    0    0    0 -0.00000000000E+00 -0.00000000000E+00 -0.45593999997E+02  0.45594000000E+02  0.51100000000E-03 0.  1.
    9900012    2    1    2    0    0 -0.23800826076E+02  0.23443335128E+01  0.38172481133E+02  0.46142317217E+02  0.99999950408E+01 0.  0.
        -12    1    1    2    0    0  0.23800826076E+02 -0.23443335128E+01 -0.38172481133E+02  0.45045682783E+02  0.00000000000E+00 0.  1.
         11    1    3    3    0    0 -0.95162173317E+01  0.54715332827E+01  0.18229926547E+02  0.21279715481E+02  0.51100000000E-03 0. -1.
        -11    1    3    3    0    0 -0.49212612430E+01 -0.70311943501E+00  0.49093901336E+01  0.69867947520E+01  0.51100000000E-03 0.  1.
         12    1    3    3    0    0 -0.93633475009E+01 -0.24240803349E+01  0.15033164452E+02  0.17875806985E+02  0.00000000000E+00 0. -1.
</event>
<event>
 7    1  0.4081218E-008  0.4614231E+02  0.7816164E-02  0.1320468E+00
        -11   -1    0    0    0    0  0.00000000000E+00  0.00000000000E+00  0.45593999997E+02  0.45594000000E+02  0.51100000000E-03 0. -1.
         11   -1    0    0    0    0 -0.00000000000E+00 -0.00000000000E+00 -0.45593999997E+02  0.45594000000E+02  0.51100000000E-03 0.  1.
    9900012    2    1    2    0    0  0.17271084074E+02  0.35885936148E+02  0.21048113604E+02  0.46142313807E+02  0.99999639419E+01 0.  0.
        -12    1    1    2    0    0 -0.17271084074E+02 -0.35885936148E+02 -0.21048113604E+02  0.45045686193E+02  0.00000000000E+00 0.  1.
         11    1    3    3    0    0  0.74540702323E+01  0.24962952442E+02  0.11950434776E+02  0.28662258272E+02  0.51100000000E-03 0. -1.
        -11    1    3    3    0    0  0.31914686732E+01  0.25746839219E+01  0.13999820849E+01  0.43329458442E+01  0.51100000000E-03 0.  1.
         12    1    3    3    0    0  0.66255451689E+01  0.83482997841E+01  0.76976967428E+01  0.13147109691E+02  0.00000000000E+00 0. -1.
</event>
<event>
 7    1  0.4081218E-008  0.4614232E+02  0.7816164E-02  0.1320468E+00
        -11   -1    0    0    0    0  0.00000000000E+00  0.00000000000E+00  0.45593999997E+02  0.45594000000E+02  0.51100000000E-03 0.  1.
         11   -1    0    0    0    0 -0.00000000000E+00 -0.00000000000E+00 -0.45593999997E+02  0.45594000000E+02  0.51100000000E-03 0. -1.
    9900012    2    1    2    0    0 -0.76385022020E+01  0.24586554638E+02 -0.36963064330E+02  0.46142317527E+02  0.99999978626E+01 0.  0.
        -12    1    1    2    0    0  0.76385022020E+01 -0.24586554638E+02  0.36963064330E+02  0.45045682473E+02  0.00000000000E+00 0.  1.
         11    1    3    3    0    0  0.10304174448E+00  0.44368904377E+00 -0.20428920867E+01  0.20930565945E+01  0.51100000000E-03 0. -1.
        -11    1    3    3    0    0 -0.69572170327E+00  0.12544702121E+01  0.29307573037E+00  0.14641099160E+01  0.51100000000E-03 0.  1.
         12    1    3    3    0    0 -0.70458222432E+01  0.22888395382E+02 -0.35213247973E+02  0.42585151016E+02  0.00000000000E+00 0. -1.
</event>
<event>
 7    1  0.4081218E-008  0.4614232E+02  0.7816164E-02  0.1320468E+00
        -11   -1    0    0    0    0  0.00000000000E+00  0.00000000000E+00  0.45593999997E+02  0.45594000000E+02  0.51100000000E-03 0.  1.
         11   -1    0    0    0    0 -0.00000000000E+00 -0.00000000000E+00 -0.45593999997E+02  0.45594000000E+02  0.51100000000E-03 0. -1.
    9900012    2    1    2    0    0  0.36515427037E+02 -0.23803516238E+02  0.11363524532E+02  0.46142317779E+02  0.10000000163E+02 0.  0.
        -12    1    1    2    0    0 -0.36515427037E+02  0.23803516238E+02 -0.11363524532E+02  0.45045682221E+02  0.00000000000E+00 0.  1.
         11    1    3    3    0    0  0.14663337542E+02 -0.86415968700E+01  0.56762371447E+01  0.17941859790E+02  0.51100000000E-03 0. -1.
        -11    1    3    3    0    0  0.17625328809E+02 -0.13953564985E+02  0.21968161109E+01  0.22587168762E+02  0.51100000000E-03 0.  1.
         12    1    3    3    0    0  0.42267606855E+01 -0.12083543826E+01  0.34904712766E+01  0.56132892263E+01  0.00000000000E+00 0. -1.
</event>
<event>
 7    1  0.4081218E-008  0.4614232E+02  0.7816164E-02  0.1320468E+00
        -11   -1    0    0    0    0  0.00000000000E+00  0.00000000000E+00  0.45593999997E+02  0.45594000000E+02  0.51100000000E-03 0. -1.
         11   -1    0    0    0    0 -0.00000000000E+00 -0.00000000000E+00 -0.45593999997E+02  0.45594000000E+02  0.51100000000E-03 0.  1.
    9900012    2    1    2    0    0  0.38092950391E+02 -0.21879695546E+01  0.23942710306E+02  0.46142318109E+02  0.10000003174E+02 0.  0.
        -12    1    1    2    0    0 -0.38092950391E+02  0.21879695546E+01 -0.23942710306E+02  0.45045681891E+02  0.00000000000E+00 0.  1.
         11    1    3    3    0    0  0.95975294740E+01  0.11692590128E+01  0.44929841572E+01  0.10661456070E+02  0.51100000000E-03 0. -1.
        -11    1    3    3    0    0  0.27093342439E+02 -0.49548458030E+01  0.17859356724E+02  0.32826153054E+02  0.51100000000E-03 0.  1.
         12    1    3    3    0    0  0.14020784775E+01  0.15976172357E+01  0.15903694248E+01  0.26547089852E+01  0.00000000000E+00 0. -1.
</event>
<event>
 7    1  0.4081218E-008  0.4614232E+02  0.7816164E-02  0.1320468E+00
        -11   -1    0    0    0    0  0.00000000000E+00  0.00000000000E+00  0.45593999997E+02  0.45594000000E+02  0.51100000000E-03 0. -1.
         11   -1    0    0    0    0 -0.00000000000E+00 -0.00000000000E+00 -0.45593999997E+02  0.45594000000E+02  0.51100000000E-03 0.  1.
    9900012    2    1    2    0    0 -0.31646804285E+02 -0.15404181139E+02  0.28112353637E+02  0.46142318242E+02  0.10000004383E+02 0.  0.
        -12    1    1    2    0    0  0.31646804285E+02  0.15404181139E+02 -0.28112353637E+02  0.45045681758E+02  0.00000000000E+00 0.  1.
         11    1    3    3    0    0 -0.15103716317E+01  0.24094644190E+00  0.19597894408E+01  0.24859711517E+01  0.51100000000E-03 0. -1.
        -11    1    3    3    0    0 -0.20874573804E+02 -0.10655745916E+02  0.12956299390E+02  0.26779814164E+02  0.51100000000E-03 0.  1.
         12    1    3    3    0    0 -0.92618588494E+01 -0.49893816649E+01  0.13196264807E+02  0.16876532926E+02  0.00000000000E+00 0. -1.
</event>
<event>
 7    1  0.4081218E-008  0.4614232E+02  0.7816164E-02  0.1320468E+00
        -11   -1    0    0    0    0  0.00000000000E+00  0.00000000000E+00  0.45593999997E+02  0.45594000000E+02  0.51100000000E-03 0.  1.
         11   -1    0    0    0    0 -0.00000000000E+00 -0.00000000000E+00 -0.45593999997E+02  0.45594000000E+02  0.51100000000E-03 0. -1.
    9900012    2    1    2    0    0  0.63589989708E+01 -0.32981520234E+02 -0.30014929512E+02  0.46142317205E+02  0.99999949267E+01 0.  0.
        -12    1    1    2    0    0 -0.63589989708E+01  0.32981520234E+02  0.30014929512E+02  0.45045682795E+02  0.00000000000E+00 0.  1.
         11    1    3    3    0    0  0.31036456590E+01 -0.14660028784E+02 -0.10955931842E+02  0.18562906645E+02  0.51100000000E-03 0. -1.
        -11    1    3    3    0    0 -0.17954291176E+01 -0.36789897173E+01 -0.20626642249E+01  0.45840064378E+01  0.51100000000E-03 0.  1.
        -12    1    3    3    0    0  0.50507824294E+01 -0.14642501733E+02 -0.16996333445E+02  0.22995404122E+02  0.00000000000E+00 0.  1.
</event>
<event>
 7    1  0.4081218E-008  0.4614231E+02  0.7816164E-02  0.1320468E+00
        -11   -1    0    0    0    0  0.00000000000E+00  0.00000000000E+00  0.45593999997E+02  0.45594000000E+02  0.51100000000E-03 0. -1.
         11   -1    0    0    0    0 -0.00000000000E+00 -0.00000000000E+00 -0.45593999997E+02  0.45594000000E+02  0.51100000000E-03 0.  1.
    9900012    2    1    2    0    0 -0.32734663067E+02 -0.13093230292E+02  0.28037889263E+02  0.46142311195E+02  0.99999401256E+01 0.  0.
        -12    1    1    2    0    0  0.32734663067E+02  0.13093230292E+02 -0.28037889263E+02  0.45045688805E+02  0.00000000000E+00 0.  1.
         11    1    3    3    0    0 -0.12143396713E+02 -0.80060587093E+01  0.13289814684E+02  0.19702239324E+02  0.51100000000E-03 0. -1.
        -11    1    3    3    0    0 -0.15155147947E+02 -0.10862392838E+01  0.10327144547E+02  0.18371400051E+02  0.51100000000E-03 0.  1.
        -12    1    3    3    0    0 -0.54361184070E+01 -0.40009322986E+01  0.44209300327E+01  0.80686718205E+01  0.00000000000E+00 0.  1.
</event>
<event>
 7    1  0.4081218E-008  0.4614231E+02  0.7816164E-02  0.1320468E+00
        -11   -1    0    0    0    0  0.00000000000E+00  0.00000000000E+00  0.45593999997E+02  0.45594000000E+02  0.51100000000E-03 0.  1.
         11   -1    0    0    0    0 -0.00000000000E+00 -0.00000000000E+00 -0.45593999997E+02  0.45594000000E+02  0.51100000000E-03 0. -1.
    9900012    2    1    2    0    0  0.42913712346E+02 -0.12401431490E+02 -0.58079515717E+01  0.46142306402E+02  0.99998964165E+01 0.  0.
        -12    1    1    2    0    0 -0.42913712346E+02  0.12401431490E+02  0.58079515717E+01  0.45045693598E+02  0.00000000000E+00 0.  1.
         11    1    3    3    0    0  0.86492592013E+01 -0.36159116023E+01 -0.23007657998E+01  0.96528765129E+01  0.51100000000E-03 0. -1.
        -11    1    3    3    0    0  0.44823852858E+01  0.15054076341E+01 -0.12919024354E+01  0.49017386873E+01  0.51100000000E-03 0.  1.
         12    1    3    3    0    0  0.29782067858E+02 -0.10290927522E+02 -0.22152833366E+01  0.31587691202E+02  0.00000000000E+00 0. -1.
</event>
<event>
 7    1  0.4081218E-008  0.4614232E+02  0.7816164E-02  0.1320468E+00
        -11   -1    0    0    0    0  0.00000000000E+00  0.00000000000E+00  0.45593999997E+02  0.45594000000E+02  0.51100000000E-03 0.  1.
         11   -1    0    0    0    0 -0.00000000000E+00 -0.00000000000E+00 -0.45593999997E+02  0.45594000000E+02  0.51100000000E-03 0. -1.
    9900012    2    1    2    0    0  0.62109946958E+01 -0.36800112025E+02 -0.25224767319E+02  0.46142316673E+02  0.99999900738E+01 0.  0.
        -12    1    1    2    0    0 -0.62109946958E+01  0.36800112025E+02  0.25224767319E+02  0.45045683327E+02  0.00000000000E+00 0.  1.
         11    1    3    3    0    0  0.22191002140E+01 -0.17703997169E+02 -0.10236789516E+02  0.20570556175E+02  0.51100000000E-03 0. -1.
        -11    1    3    3    0    0 -0.16114276910E+00  0.49436499981E+00  0.58415118880E-01  0.52323640193E+00  0.51100000000E-03 0.  1.
         12    1    3    3    0    0  0.41530372509E+01 -0.19590479855E+02 -0.15046392922E+02  0.25048524095E+02  0.00000000000E+00 0. -1.
</event>
<event>
 7    1 -0.4081218E-008  0.4614232E+02  0.7816164E-02  0.1320468E+00
        -11   -1    0    0    0    0  0.00000000000E+00  0.00000000000E+00  0.45593999997E+02  0.45594000000E+02  0.51100000000E-03 0. -1.
         11   -1    0    0    0    0 -0.00000000000E+00 -0.00000000000E+00 -0.45593999997E+02  0.45594000000E+02  0.51100000000E-03 0.  1.
    9900012    2    1    2    0    0 -0.30413836274E+02 -0.32342713249E+02 -0.76197801988E+01  0.46142316661E+02  0.99999899713E+01 0.  0.
        -12    1    1    2    0    0  0.30413836274E+02  0.32342713249E+02  0.76197801988E+01  0.45045683339E+02  0.00000000000E+00 0.  1.
         11    1    3    3    0    0 -0.85113875981E+01 -0.10841681416E+02  0.21016934254E+01  0.13942843695E+02  0.51100000000E-03 0. -1.
        -11    1    3    3    0    0 -0.20102791550E+02 -0.19869708172E+02 -0.88384280102E+01  0.29614951307E+02  0.51100000000E-03 0.  1.
         12    1    3    3    0    0 -0.17996571252E+01 -0.16313236598E+01 -0.88304561398E+00  0.25845216594E+01  0.00000000000E+00 0. -1.
</event>
<event>
 7    1  0.4081218E-008  0.4614232E+02  0.7816164E-02  0.1320468E+00
        -11   -1    0    0    0    0  0.00000000000E+00  0.00000000000E+00  0.45593999997E+02  0.45594000000E+02  0.51100000000E-03 0. -1.
         11   -1    0    0    0    0 -0.00000000000E+00 -0.00000000000E+00 -0.45593999997E+02  0.45594000000E+02  0.51100000000E-03 0.  1.
    9900012    2    1    2    0    0  0.35166861106E+00  0.42789891568E+02  0.14071778918E+02  0.46142318152E+02  0.10000003561E+02 0.  0.
        -12    1    1    2    0    0 -0.35166861106E+00 -0.42789891568E+02 -0.14071778918E+02  0.45045681848E+02  0.00000000000E+00 0.  1.
         11    1    3    3    0    0  0.41144726990E+01  0.24927264330E+02  0.75218696475E+01  0.26360499158E+02  0.51100000000E-03 0. -1.
        -11    1    3    3    0    0 -0.49854858986E+00  0.10133135685E+02  0.24201211382E+01  0.10430051586E+02  0.51100000000E-03 0.  1.
         12    1    3    3    0    0 -0.32642554980E+01  0.77294915529E+01  0.41297881328E+01  0.93517674075E+01  0.00000000000E+00 0. -1.
</event>
<event>
 7    1  0.4081218E-008  0.4614232E+02  0.7816164E-02  0.1320468E+00
        -11   -1    0    0    0    0  0.00000000000E+00  0.00000000000E+00  0.45593999997E+02  0.45594000000E+02  0.51100000000E-03 0.  1.
         11   -1    0    0    0    0 -0.00000000000E+00 -0.00000000000E+00 -0.45593999997E+02  0.45594000000E+02  0.51100000000E-03 0. -1.
    9900012    2    1    2    0    0 -0.50055109331E+01  0.44563248044E+02 -0.42632164950E+01  0.46142320620E+02  0.10000026072E+02 0.  0.
        -12    1    1    2    0    0  0.50055109331E+01 -0.44563248044E+02  0.42632164950E+01  0.45045679380E+02  0.00000000000E+00 0.  1.
         11    1    3    3    0    0 -0.16893601647E+01  0.16438744732E+02  0.25686566424E+01  0.16723763432E+02  0.51100000000E-03 0. -1.
        -11    1    3    3    0    0  0.39164073432E+00  0.26351325208E+01 -0.16835425432E+01  0.31514475441E+01  0.51100000000E-03 0.  1.
         12    1    3    3    0    0 -0.37077915027E+01  0.25489370791E+02 -0.51483305941E+01  0.26267109644E+02  0.00000000000E+00 0. -1.
</event>
<event>
 7    1  0.4081218E-008  0.4614232E+02  0.7816164E-02  0.1320468E+00
        -11   -1    0    0    0    0  0.00000000000E+00  0.00000000000E+00  0.45593999997E+02  0.45594000000E+02  0.51100000000E-03 0.  1.
         11   -1    0    0    0    0 -0.00000000000E+00 -0.00000000000E+00 -0.45593999997E+02  0.45594000000E+02  0.51100000000E-03 0. -1.
    9900012    2    1    2    0    0  0.17934697703E+02  0.12739902564E+02 -0.39308459344E+02  0.46142317909E+02  0.10000001347E+02 0.  0.
        -12    1    1    2    0    0 -0.17934697703E+02 -0.12739902564E+02  0.39308459344E+02  0.45045682091E+02  0.00000000000E+00 0.  1.
         11    1    3    3    0    0  0.65687091542E+00 -0.69424356769E+00 -0.33856629456E+00  0.10139432567E+01  0.51100000000E-03 0.  1.
        -11    1    3    3    0    0  0.12916869418E+02  0.10174879338E+02 -0.23130723729E+02  0.28379641745E+02  0.51100000000E-03 0. -1.
         12    1    3    3    0    0  0.43609573690E+01  0.32592667939E+01 -0.15839169321E+02  0.16748732907E+02  0.00000000000E+00 0. -1.
</event>
<event>
 7    1  0.4081218E-008  0.4614232E+02  0.7816164E-02  0.1320468E+00
        -11   -1    0    0    0    0  0.00000000000E+00  0.00000000000E+00  0.45593999997E+02  0.45594000000E+02  0.51100000000E-03 0.  1.
         11   -1    0    0    0    0 -0.00000000000E+00 -0.00000000000E+00 -0.45593999997E+02  0.45594000000E+02  0.51100000000E-03 0. -1.
    9900012    2    1    2    0    0 -0.33527263108E+02  0.11260260980E+02 -0.27897001479E+02  0.46142317184E+02  0.99999947350E+01 0.  0.
        -12    1    1    2    0    0  0.33527263108E+02 -0.11260260980E+02  0.27897001479E+02  0.45045682816E+02  0.00000000000E+00 0.  1.
         11    1    3    3    0    0 -0.13612733509E+02  0.67801290387E+01 -0.14795168423E+02  0.21217296536E+02  0.51100000000E-03 0. -1.
        -11    1    3    3    0    0 -0.14924840481E+02  0.73487366878E+00 -0.87207414228E+01  0.17301509585E+02  0.51100000000E-03 0.  1.
        -12    1    3    3    0    0 -0.49896891176E+01  0.37452582730E+01 -0.43810916333E+01  0.76235110626E+01  0.00000000000E+00 0.  1.
</event>
<event>
 7    1  0.4081218E-008  0.4614231E+02  0.7816164E-02  0.1320468E+00
        -11   -1    0    0    0    0  0.00000000000E+00  0.00000000000E+00  0.45593999997E+02  0.45594000000E+02  0.51100000000E-03 0.  1.
         11   -1    0    0    0    0 -0.00000000000E+00 -0.00000000000E+00 -0.45593999997E+02  0.45594000000E+02  0.51100000000E-03 0. -1.
    9900012    2    1    2    0    0  0.44229632319E+01  0.15781286260E+02 -0.41958344917E+02  0.46142308664E+02  0.99999170449E+01 0.  0.
        -12    1    1    2    0    0 -0.44229632319E+01 -0.15781286260E+02  0.41958344917E+02  0.45045691336E+02  0.00000000000E+00 0.  1.
         11    1    3    3    0    0 -0.95013239567E+00  0.10539690804E+00 -0.44836921740E+01  0.45844689823E+01  0.51100000000E-03 0. -1.
        -11    1    3    3    0    0  0.53222875943E+00  0.12061861117E+01 -0.26966747953E+00  0.13456868875E+01  0.51100000000E-03 0.  1.
         12    1    3    3    0    0  0.48408668681E+01  0.14469703240E+02 -0.37204985263E+02  0.40212152794E+02  0.00000000000E+00 0. -1.
</event>
<event>
 7    1  0.4081218E-008  0.4614232E+02  0.7816164E-02  0.1320468E+00
        -11   -1    0    0    0    0  0.00000000000E+00  0.00000000000E+00  0.45593999997E+02  0.45594000000E+02  0.51100000000E-03 0. -1.
         11   -1    0    0    0    0 -0.00000000000E+00 -0.00000000000E+00 -0.45593999997E+02  0.45594000000E+02  0.51100000000E-03 0.  1.
    9900012    2    1    2    0    0 -0.18267534168E+02  0.40313259395E+02  0.83816339746E+01  0.46142317902E+02  0.10000001282E+02 0.  0.
        -12    1    1    2    0    0  0.18267534168E+02 -0.40313259395E+02 -0.83816339746E+01  0.45045682098E+02  0.00000000000E+00 0.  1.
         11    1    3    3    0    0 -0.15832607792E+01  0.21932663432E+01 -0.11709641072E+00  0.27075530978E+01  0.51100000000E-03 0. -1.
        -11    1    3    3    0    0 -0.44097258442E+01  0.55074341014E+01  0.44806880669E+01  0.83578752213E+01  0.51100000000E-03 0.  1.
        -12    1    3    3    0    0 -0.12274547545E+02  0.32612558950E+02  0.40180423185E+01  0.35076889583E+02  0.00000000000E+00 0.  1.
</event>
<event>
 7    1  0.4081218E-008  0.4614232E+02  0.7816164E-02  0.1320468E+00
        -11   -1    0    0    0    0  0.00000000000E+00  0.00000000000E+00  0.45593999997E+02  0.45594000000E+02  0.51100000000E-03 0.  1.
         11   -1    0    0    0    0 -0.00000000000E+00 -0.00000000000E+00 -0.45593999997E+02  0.45594000000E+02  0.51100000000E-03 0. -1.
    9900012    2    1    2    0    0 -0.70787434887E+01 -0.28805381651E+02 -0.33900661629E+02  0.46142317850E+02  0.10000000814E+02 0.  0.
        -12    1    1    2    0    0  0.70787434887E+01  0.28805381651E+02  0.33900661629E+02  0.45045682150E+02  0.00000000000E+00 0.  1.
         11    1    3    3    0    0 -0.16143561967E+01 -0.19742178915E+01 -0.91058082766E+00  0.27079216971E+01  0.51100000000E-03 0.  1.
        -11    1    3    3    0    0 -0.38096492262E+01 -0.26156824079E+02 -0.30356337722E+02  0.40251709445E+02  0.51100000000E-03 0. -1.
         12    1    3    3    0    0 -0.16547380659E+01 -0.67433968032E+00 -0.26337430797E+01  0.31826867079E+01  0.00000000000E+00 0. -1.
</event>
<event>
 7    1  0.4081218E-008  0.4614232E+02  0.7816164E-02  0.1320468E+00
        -11   -1    0    0    0    0  0.00000000000E+00  0.00000000000E+00  0.45593999997E+02  0.45594000000E+02  0.51100000000E-03 0.  1.
         11   -1    0    0    0    0 -0.00000000000E+00 -0.00000000000E+00 -0.45593999997E+02  0.45594000000E+02  0.51100000000E-03 0. -1.
    9900012    2    1    2    0    0  0.42569168127E+02 -0.13193880334E+02 -0.65498802174E+01  0.46142317808E+02  0.10000000428E+02 0.  0.
        -12    1    1    2    0    0 -0.42569168127E+02  0.13193880334E+02  0.65498802174E+01  0.45045682192E+02  0.00000000000E+00 0.  1.
         11    1    3    3    0    0  0.83760605996E+01  0.21376840128E-01 -0.64201009310E+00  0.84006562456E+01  0.51100000000E-03 0. -1.
        -11    1    3    3    0    0  0.53113656623E+01 -0.59802805647E+00 -0.29000984062E+01  0.60810207845E+01  0.51100000000E-03 0.  1.
         12    1    3    3    0    0  0.28881741865E+02 -0.12617229118E+02 -0.30077717181E+01  0.31660640778E+02  0.00000000000E+00 0. -1.
</event>
<event>
 7    1  0.4081218E-008  0.4614232E+02  0.7816164E-02  0.1320468E+00
        -11   -1    0    0    0    0  0.00000000000E+00  0.00000000000E+00  0.45593999997E+02  0.45594000000E+02  0.51100000000E-03 0. -1.
         11   -1    0    0    0    0 -0.00000000000E+00 -0.00000000000E+00 -0.45593999997E+02  0.45594000000E+02  0.51100000000E-03 0.  1.
    9900012    2    1    2    0    0 -0.54327581277E+01  0.32535054537E+02  0.30676835752E+02  0.46142324444E+02  0.10000060935E+02 0.  0.
        -12    1    1    2    0    0  0.54327581277E+01 -0.32535054537E+02 -0.30676835752E+02  0.45045675556E+02  0.00000000000E+00 0.  1.
         11    1    3    3    0    0 -0.13417774816E+01  0.16855294380E+01  0.27635163162E+01  0.35040546496E+01  0.51100000000E-03 0. -1.
        -11    1    3    3    0    0 -0.52495788779E+01  0.13533846682E+02  0.15910028359E+02  0.21537225612E+02  0.51100000000E-03 0.  1.
         12    1    3    3    0    0  0.11585982319E+01  0.17315678417E+02  0.12003291077E+02  0.21101044182E+02  0.00000000000E+00 0. -1.
</event>
<event>
 7    1  0.4081218E-008  0.4614232E+02  0.7816164E-02  0.1320468E+00
        -11   -1    0    0    0    0  0.00000000000E+00  0.00000000000E+00  0.45593999997E+02  0.45594000000E+02  0.51100000000E-03 0.  1.
         11   -1    0    0    0    0 -0.00000000000E+00 -0.00000000000E+00 -0.45593999997E+02  0.45594000000E+02  0.51100000000E-03 0. -1.
    9900012    2    1    2    0    0  0.95056999978E+01  0.16179309388E+02 -0.40951010153E+02  0.46142316330E+02  0.99999869532E+01 0.  0.
        -12    1    1    2    0    0 -0.95056999978E+01 -0.16179309388E+02  0.40951010153E+02  0.45045683670E+02  0.00000000000E+00 0.  1.
         11    1    3    3    0    0  0.72981783282E+01  0.94617726926E+01 -0.19201315158E+02  0.22615902668E+02  0.51100000000E-03 0. -1.
        -11    1    3    3    0    0  0.23783047482E+01  0.58631813488E+01 -0.21753676741E+02  0.22655146899E+02  0.51100000000E-03 0.  1.
        -12    1    3    3    0    0 -0.17078307863E+00  0.85435534703E+00  0.39817468219E-02  0.87126676354E+00  0.00000000000E+00 0.  1.
</event>
<event>
 7    1  0.4081218E-008  0.4614232E+02  0.7816164E-02  0.1320468E+00
        -11   -1    0    0    0    0  0.00000000000E+00  0.00000000000E+00  0.45593999997E+02  0.45594000000E+02  0.51100000000E-03 0.  1.
         11   -1    0    0    0    0 -0.00000000000E+00 -0.00000000000E+00 -0.45593999997E+02  0.45594000000E+02  0.51100000000E-03 0. -1.
    9900012    2    1    2    0    0  0.31176877334E+01  0.64277664413E+01 -0.44475581711E+02  0.46142317335E+02  0.99999961107E+01 0.  0.
        -12    1    1    2    0    0 -0.31176877334E+01 -0.64277664413E+01  0.44475581711E+02  0.45045682665E+02  0.00000000000E+00 0.  1.
         11    1    3    3    0    0 -0.39888448734E+00  0.88674445889E+00 -0.41998722642E+01  0.43109571868E+01  0.51100000000E-03 0. -1.
        -11    1    3    3    0    0  0.10449331747E+01 -0.24445053870E+01 -0.14258447682E+02  0.14504165695E+02  0.51100000000E-03 0.  1.
         12    1    3    3    0    0  0.24716390460E+01  0.79855273694E+01 -0.26017261765E+02  0.27327194453E+02  0.00000000000E+00 0. -1.
</event>
<event>
 7    1  0.4081218E-008  0.4614232E+02  0.7816164E-02  0.1320468E+00
        -11   -1    0    0    0    0  0.00000000000E+00  0.00000000000E+00  0.45593999997E+02  0.45594000000E+02  0.51100000000E-03 0. -1.
         11   -1    0    0    0    0 -0.00000000000E+00 -0.00000000000E+00 -0.45593999997E+02  0.45594000000E+02  0.51100000000E-03 0.  1.
    9900012    2    1    2    0    0  0.11259201891E+02 -0.39244169493E+02  0.19032581621E+02  0.46142316194E+02  0.99999857085E+01 0.  0.
        -12    1    1    2    0    0 -0.11259201891E+02  0.39244169493E+02 -0.19032581621E+02  0.45045683806E+02  0.00000000000E+00 0.  1.
         11    1    3    3    0    0  0.58915088116E+01 -0.23610887307E+02  0.10022468671E+02  0.26317935976E+02  0.51100000000E-03 0. -1.
        -11    1    3    3    0    0  0.29723645122E+01 -0.12869084708E+02  0.43616455966E+01  0.13909430060E+02  0.51100000000E-03 0.  1.
         12    1    3    3    0    0  0.23953285671E+01 -0.27641974778E+01  0.46484673531E+01  0.59149501582E+01  0.00000000000E+00 0. -1.
</event>
<event>
 7    1  0.4081218E-008  0.4614232E+02  0.7816164E-02  0.1320468E+00
        -11   -1    0    0    0    0  0.00000000000E+00  0.00000000000E+00  0.45593999997E+02  0.45594000000E+02  0.51100000000E-03 0.  1.
         11   -1    0    0    0    0 -0.00000000000E+00 -0.00000000000E+00 -0.45593999997E+02  0.45594000000E+02  0.51100000000E-03 0. -1.
    9900012    2    1    2    0    0  0.38294387349E+02  0.21160546678E+02  0.10718428730E+02  0.46142317048E+02  0.99999934981E+01 0.  0.
        -12    1    1    2    0    0 -0.38294387349E+02 -0.21160546678E+02 -0.10718428730E+02  0.45045682952E+02  0.00000000000E+00 0.  1.
         11    1    3    3    0    0  0.23827241530E+02  0.17854288779E+02  0.55375358701E+01  0.30284936363E+02  0.51100000000E-03 0. -1.
        -11    1    3    3    0    0  0.71205336019E+01  0.26575884065E+01  0.23168147927E+01  0.79455903468E+01  0.51100000000E-03 0.  1.
         12    1    3    3    0    0  0.73466122174E+01  0.64866949232E+00  0.28640780674E+01  0.79117903384E+01  0.00000000000E+00 0. -1.
</event>
<event>
 7    1  0.4081218E-008  0.4614232E+02  0.7816164E-02  0.1320468E+00
        -11   -1    0    0    0    0  0.00000000000E+00  0.00000000000E+00  0.45593999997E+02  0.45594000000E+02  0.51100000000E-03 0. -1.
         11   -1    0    0    0    0 -0.00000000000E+00 -0.00000000000E+00 -0.45593999997E+02  0.45594000000E+02  0.51100000000E-03 0.  1.
    9900012    2    1    2    0    0 -0.77101196740E+01  0.31565494097E+02  0.31197553281E+02  0.46142315482E+02  0.99999792179E+01 0.  0.
        -12    1    1    2    0    0  0.77101196740E+01 -0.31565494097E+02 -0.31197553281E+02  0.45045684518E+02  0.00000000000E+00 0.  1.
         11    1    3    3    0    0 -0.20820107261E+01  0.57835836391E+01  0.45409170023E+01  0.76422860361E+01  0.51100000000E-03 0. -1.
        -11    1    3    3    0    0  0.86226817046E+00  0.15836735550E+01 -0.14874046771E+00  0.18093237174E+01  0.51100000000E-03 0.  1.
         12    1    3    3    0    0 -0.64903771183E+01  0.24198236903E+02  0.26805376747E+02  0.36690705729E+02  0.00000000000E+00 0. -1.
</event>
<event>
 7    1  0.4081218E-008  0.4614232E+02  0.7816164E-02  0.1320468E+00
        -11   -1    0    0    0    0  0.00000000000E+00  0.00000000000E+00  0.45593999997E+02  0.45594000000E+02  0.51100000000E-03 0.  1.
         11   -1    0    0    0    0 -0.00000000000E+00 -0.00000000000E+00 -0.45593999997E+02  0.45594000000E+02  0.51100000000E-03 0. -1.
    9900012    2    1    2    0    0 -0.18377049972E+01  0.31960106838E+02 -0.31690498797E+02  0.46142319821E+02  0.10000018785E+02 0.  0.
        -12    1    1    2    0    0  0.18377049972E+01 -0.31960106838E+02  0.31690498797E+02  0.45045680179E+02  0.00000000000E+00 0.  1.
         11    1    3    3    0    0 -0.16736794466E+01  0.10880441035E+02 -0.13510628859E+02  0.17427630144E+02  0.51100000000E-03 0. -1.
        -11    1    3    3    0    0  0.17739494038E+01  0.18207062987E+02 -0.12842635997E+02  0.22351226783E+02  0.51100000000E-03 0.  1.
        -12    1    3    3    0    0 -0.19379749544E+01  0.28726028164E+01 -0.53372339405E+01  0.63634628938E+01  0.00000000000E+00 0.  1.
</event>
<event>
 7    1  0.4081218E-008  0.4614232E+02  0.7816164E-02  0.1320468E+00
        -11   -1    0    0    0    0  0.00000000000E+00  0.00000000000E+00  0.45593999997E+02  0.45594000000E+02  0.51100000000E-03 0.  1.
         11   -1    0    0    0    0 -0.00000000000E+00 -0.00000000000E+00 -0.45593999997E+02  0.45594000000E+02  0.51100000000E-03 0. -1.
    9900012    2    1    2    0    0 -0.29363328597E+02  0.33733556804E+02 -0.53810422824E+01  0.46142317222E+02  0.99999950799E+01 0.  0.
        -12    1    1    2    0    0  0.29363328597E+02 -0.33733556804E+02  0.53810422824E+01  0.45045682778E+02  0.00000000000E+00 0.  1.
         11    1    3    3    0    0 -0.46901610537E+01  0.22267340073E+01 -0.15105720722E+01  0.54071973605E+01  0.51100000000E-03 0. -1.
        -11    1    3    3    0    0 -0.56359545325E+01  0.42752644192E+01 -0.24230954745E+01  0.74775170536E+01  0.51100000000E-03 0.  1.
        -12    1    3    3    0    0 -0.19037213010E+02  0.27231558377E+02 -0.14473747358E+01  0.33257602807E+02  0.00000000000E+00 0.  1.
</event>
<event>
 7    1  0.4081218E-008  0.4614232E+02  0.7816164E-02  0.1320468E+00
        -11   -1    0    0    0    0  0.00000000000E+00  0.00000000000E+00  0.45593999997E+02  0.45594000000E+02  0.51100000000E-03 0.  1.
         11   -1    0    0    0    0 -0.00000000000E+00 -0.00000000000E+00 -0.45593999997E+02  0.45594000000E+02  0.51100000000E-03 0. -1.
    9900012    2    1    2    0    0  0.30202181922E+02  0.30653118433E+02 -0.13316456700E+02  0.46142317837E+02  0.10000000689E+02 0.  0.
        -12    1    1    2    0    0 -0.30202181922E+02 -0.30653118433E+02  0.13316456700E+02  0.45045682163E+02  0.00000000000E+00 0.  1.
         11    1    3    3    0    0  0.76473479960E+01  0.10269717125E+02 -0.62313016145E+01  0.14240019005E+02  0.51100000000E-03 0. -1.
        -11    1    3    3    0    0  0.19727567236E+02  0.17702021517E+02 -0.83761225555E+01  0.27797444202E+02  0.51100000000E-03 0.  1.
        -12    1    3    3    0    0  0.28272666902E+01  0.26813797908E+01  0.12909674700E+01  0.41048546294E+01  0.00000000000E+00 0.  1.
</event>
<event>
 7    1  0.4081218E-008  0.4614232E+02  0.7816164E-02  0.1320468E+00
        -11   -1    0    0    0    0  0.00000000000E+00  0.00000000000E+00  0.45593999997E+02  0.45594000000E+02  0.51100000000E-03 0. -1.
         11   -1    0    0    0    0 -0.00000000000E+00 -0.00000000000E+00 -0.45593999997E+02  0.45594000000E+02  0.51100000000E-03 0.  1.
    9900012    2    1    2    0    0  0.15914784029E+01  0.43562927030E+02  0.11351296533E+02  0.46142319321E+02  0.10000014221E+02 0.  0.
        -12    1    1    2    0    0 -0.15914784029E+01 -0.43562927030E+02 -0.11351296533E+02  0.45045680679E+02  0.00000000000E+00 0.  1.
         11    1    3    3    0    0 -0.61610097115E+00  0.29395166168E+01 -0.13004406126E+01  0.32728404170E+01  0.51100000000E-03 0. -1.
        -11    1    3    3    0    0  0.80125894654E-01  0.11963699622E+02  0.59408043807E+01  0.13357757513E+02  0.51100000000E-03 0.  1.
         12    1    3    3    0    0  0.21274534794E+01  0.28659710790E+02  0.67109327646E+01  0.29511721391E+02  0.00000000000E+00 0. -1.
</event>
<event>
 7    1  0.4081218E-008  0.4614232E+02  0.7816164E-02  0.1320468E+00
        -11   -1    0    0    0    0  0.00000000000E+00  0.00000000000E+00  0.45593999997E+02  0.45594000000E+02  0.51100000000E-03 0.  1.
         11   -1    0    0    0    0 -0.00000000000E+00 -0.00000000000E+00 -0.45593999997E+02  0.45594000000E+02  0.51100000000E-03 0. -1.
    9900012    2    1    2    0    0 -0.28507820344E+02  0.31072097849E+02 -0.15841164322E+02  0.46142316826E+02  0.99999914734E+01 0.  0.
        -12    1    1    2    0    0  0.28507820344E+02 -0.31072097849E+02  0.15841164322E+02  0.45045683174E+02  0.00000000000E+00 0.  1.
         11    1    3    3    0    0 -0.19280091353E+02  0.15776917271E+02 -0.12166422092E+02  0.27724625659E+02  0.51100000000E-03 0. -1.
        -11    1    3    3    0    0 -0.45248872889E+01  0.69742783938E+01 -0.29913852358E+01  0.88353579430E+01  0.51100000000E-03 0.  1.
         12    1    3    3    0    0 -0.47028417027E+01  0.83209021839E+01 -0.68335699483E+00  0.95823332241E+01  0.00000000000E+00 0. -1.
</event>
<event>
 7    1  0.4081218E-008  0.4614232E+02  0.7816164E-02  0.1320468E+00
        -11   -1    0    0    0    0  0.00000000000E+00  0.00000000000E+00  0.45593999997E+02  0.45594000000E+02  0.51100000000E-03 0.  1.
         11   -1    0    0    0    0 -0.00000000000E+00 -0.00000000000E+00 -0.45593999997E+02  0.45594000000E+02  0.51100000000E-03 0. -1.
    9900012    2    1    2    0    0  0.30793306270E+02 -0.24856396973E+02 -0.21518486844E+02  0.46142318103E+02  0.10000003119E+02 0.  0.
        -12    1    1    2    0    0 -0.30793306270E+02  0.24856396973E+02  0.21518486844E+02  0.45045681897E+02  0.00000000000E+00 0.  1.
         11    1    3    3    0    0  0.25603845721E+01 -0.42809436513E+01 -0.56665258926E+01  0.75492757040E+01  0.51100000000E-03 0. -1.
        -11    1    3    3    0    0  0.38884580814E+01 -0.40483618122E+01 -0.12773066328E+01  0.57568091951E+01  0.51100000000E-03 0.  1.
         12    1    3    3    0    0  0.24344463617E+02 -0.16527091509E+02 -0.14574654318E+02  0.32836233204E+02  0.00000000000E+00 0. -1.
</event>
<event>
 7    1  0.4081218E-008  0.4614232E+02  0.7816164E-02  0.1320468E+00
        -11   -1    0    0    0    0  0.00000000000E+00  0.00000000000E+00  0.45593999997E+02  0.45594000000E+02  0.51100000000E-03 0.  1.
         11   -1    0    0    0    0 -0.00000000000E+00 -0.00000000000E+00 -0.45593999997E+02  0.45594000000E+02  0.51100000000E-03 0. -1.
    9900012    2    1    2    0    0 -0.43166598412E+02  0.35331925949E+01  0.12380419240E+02  0.46142318199E+02  0.10000003991E+02 0.  0.
        -12    1    1    2    0    0  0.43166598412E+02 -0.35331925949E+01 -0.12380419240E+02  0.45045681801E+02  0.00000000000E+00 0.  1.
         11    1    3    3    0    0 -0.21456722122E+02 -0.13225544410E+01  0.93211537258E+01  0.23431260775E+02  0.51100000000E-03 0. -1.
        -11    1    3    3    0    0 -0.53603722955E+01  0.25321270076E+01  0.69210233813E-01  0.59287476457E+01  0.51100000000E-03 0.  1.
         12    1    3    3    0    0 -0.16349503994E+02  0.23236200284E+01  0.29900552802E+01  0.16782309778E+02  0.00000000000E+00 0. -1.
</event>
<event>
 7    1  0.4081218E-008  0.4614232E+02  0.7816164E-02  0.1320468E+00
        -11   -1    0    0    0    0  0.00000000000E+00  0.00000000000E+00  0.45593999997E+02  0.45594000000E+02  0.51100000000E-03 0.  1.
         11   -1    0    0    0    0 -0.00000000000E+00 -0.00000000000E+00 -0.45593999997E+02  0.45594000000E+02  0.51100000000E-03 0. -1.
    9900012    2    1    2    0    0  0.83186176520E+01  0.37354082497E+02 -0.23761030567E+02  0.46142318160E+02  0.10000003641E+02 0.  0.
        -12    1    1    2    0    0 -0.83186176520E+01 -0.37354082497E+02  0.23761030567E+02  0.45045681840E+02  0.00000000000E+00 0.  1.
         11    1    3    3    0    0  0.42427926021E+01  0.44020325789E+01 -0.23382240195E+01  0.65457216345E+01  0.51100000000E-03 0. -1.
        -11    1    3    3    0    0  0.20476647880E+01  0.18134222563E+02 -0.10276675096E+02  0.20944044746E+02  0.51100000000E-03 0.  1.
         12    1    3    3    0    0  0.20281602618E+01  0.14817827355E+02 -0.11146131452E+02  0.18652551780E+02  0.00000000000E+00 0. -1.
</event>
<event>
 7    1  0.4081218E-008  0.4614232E+02  0.7816164E-02  0.1320468E+00
        -11   -1    0    0    0    0  0.00000000000E+00  0.00000000000E+00  0.45593999997E+02  0.45594000000E+02  0.51100000000E-03 0.  1.
         11   -1    0    0    0    0 -0.00000000000E+00 -0.00000000000E+00 -0.45593999997E+02  0.45594000000E+02  0.51100000000E-03 0. -1.
    9900012    2    1    2    0    0 -0.41114205392E+02  0.18396225362E+02  0.56093581227E+00  0.46142316061E+02  0.99999844938E+01 0.  0.
        -12    1    1    2    0    0  0.41114205392E+02 -0.18396225362E+02 -0.56093581227E+00  0.45045683939E+02  0.00000000000E+00 0.  1.
         11    1    3    3    0    0 -0.61634118823E+01  0.46877673998E+01 -0.15352629637E+01  0.78942917259E+01  0.51100000000E-03 0. -1.
        -11    1    3    3    0    0 -0.77521310455E+01  0.57338505722E+01  0.22615936120E+01  0.99039075146E+01  0.51100000000E-03 0.  1.
        -12    1    3    3    0    0 -0.27198662464E+02  0.79746073903E+01 -0.16539483603E+00  0.28344116820E+02  0.00000000000E+00 0.  1.
</event>
<event>
 7    1  0.4081218E-008  0.4614232E+02  0.7816164E-02  0.1320468E+00
        -11   -1    0    0    0    0  0.00000000000E+00  0.00000000000E+00  0.45593999997E+02  0.45594000000E+02  0.51100000000E-03 0.  1.
         11   -1    0    0    0    0 -0.00000000000E+00 -0.00000000000E+00 -0.45593999997E+02  0.45594000000E+02  0.51100000000E-03 0. -1.
    9900012    2    1    2    0    0  0.10898829700E+02 -0.14539777930E+02 -0.41218005436E+02  0.46142316486E+02  0.99999883754E+01 0.  0.
        -12    1    1    2    0    0 -0.10898829700E+02  0.14539777930E+02  0.41218005436E+02  0.45045683514E+02  0.00000000000E+00 0.  1.
         11    1    3    3    0    0  0.18953298967E+01 -0.72970655544E+01 -0.10437522703E+02  0.12875609560E+02  0.51100000000E-03 0. -1.
        -11    1    3    3    0    0  0.25873572845E+01 -0.37064358266E+01 -0.17764653620E+02  0.18330712009E+02  0.51100000000E-03 0.  1.
         12    1    3    3    0    0  0.64161425183E+01 -0.35362765486E+01 -0.13015829114E+02  0.14935994917E+02  0.00000000000E+00 0. -1.
</event>
<event>
 7    1  0.4081218E-008  0.4614232E+02  0.7816164E-02  0.1320468E+00
        -11   -1    0    0    0    0  0.00000000000E+00  0.00000000000E+00  0.45593999997E+02  0.45594000000E+02  0.51100000000E-03 0.  1.
         11   -1    0    0    0    0 -0.00000000000E+00 -0.00000000000E+00 -0.45593999997E+02  0.45594000000E+02  0.51100000000E-03 0. -1.
    9900012    2    1    2    0    0  0.10485307479E+02  0.13456387071E+02 -0.41690497558E+02  0.46142316382E+02  0.99999874264E+01 0.  0.
        -12    1    1    2    0    0 -0.10485307479E+02 -0.13456387071E+02  0.41690497558E+02  0.45045683618E+02  0.00000000000E+00 0.  1.
         11    1    3    3    0    0  0.53812168270E+01  0.58090101126E+01 -0.17912847821E+02  0.19584999626E+02  0.51100000000E-03 0. -1.
        -11    1    3    3    0    0  0.54813872952E+00  0.64605262653E+01 -0.17826947664E+02  0.18969420628E+02  0.51100000000E-03 0.  1.
        -12    1    3    3    0    0  0.45559519223E+01  0.11868506932E+01 -0.59507020730E+01  0.75878961279E+01  0.00000000000E+00 0.  1.
</event>
<event>
 7    1  0.4081218E-008  0.4614232E+02  0.7816164E-02  0.1320468E+00
        -11   -1    0    0    0    0  0.00000000000E+00  0.00000000000E+00  0.45593999997E+02  0.45594000000E+02  0.51100000000E-03 0.  1.
         11   -1    0    0    0    0 -0.00000000000E+00 -0.00000000000E+00 -0.45593999997E+02  0.45594000000E+02  0.51100000000E-03 0. -1.
    9900012    2    1    2    0    0 -0.12426020300E+00 -0.33745391045E+02 -0.29838675832E+02  0.46142318378E+02  0.10000005629E+02 0.  0.
        -12    1    1    2    0    0  0.12426020300E+00  0.33745391045E+02  0.29838675832E+02  0.45045681622E+02  0.00000000000E+00 0.  1.
         11    1    3    3    0    0 -0.37573202320E+00 -0.85547203721E+01 -0.86950816399E+01  0.12203641267E+02  0.51100000000E-03 0. -1.
        -11    1    3    3    0    0 -0.33477688766E+01 -0.96984327335E+01 -0.11162407928E+02  0.15161349048E+02  0.51100000000E-03 0.  1.
        -12    1    3    3    0    0  0.35992406968E+01 -0.15492237939E+02 -0.99811862641E+01  0.18777328063E+02  0.00000000000E+00 0.  1.
</event>
<event>
 7    1  0.4081218E-008  0.4614232E+02  0.7816164E-02  0.1320468E+00
        -11   -1    0    0    0    0  0.00000000000E+00  0.00000000000E+00  0.45593999997E+02  0.45594000000E+02  0.51100000000E-03 0.  1.
         11   -1    0    0    0    0 -0.00000000000E+00 -0.00000000000E+00 -0.45593999997E+02  0.45594000000E+02  0.51100000000E-03 0. -1.
    9900012    2    1    2    0    0  0.30592400436E+02  0.14851156347E+02 -0.29540847355E+02  0.46142317946E+02  0.10000001688E+02 0.  0.
        -12    1    1    2    0    0 -0.30592400436E+02 -0.14851156347E+02  0.29540847355E+02  0.45045682054E+02  0.00000000000E+00 0.  1.
         11    1    3    3    0    0  0.38911924899E+01  0.21256571373E+01 -0.57886404317E+00  0.44715636080E+01  0.51100000000E-03 0. -1.
        -11    1    3    3    0    0  0.25379028647E+01  0.16726714936E+01 -0.12744856887E+01  0.32959209498E+01  0.51100000000E-03 0.  1.
         12    1    3    3    0    0  0.24163305081E+02  0.11052827716E+02 -0.27687497623E+02  0.38374833388E+02  0.00000000000E+00 0. -1.
</event>
<event>
 7    1  0.4081218E-008  0.4614232E+02  0.7816164E-02  0.1320468E+00
        -11   -1    0    0    0    0  0.00000000000E+00  0.00000000000E+00  0.45593999997E+02  0.45594000000E+02  0.51100000000E-03 0. -1.
         11   -1    0    0    0    0 -0.00000000000E+00 -0.00000000000E+00 -0.45593999997E+02  0.45594000000E+02  0.51100000000E-03 0.  1.
    9900012    2    1    2    0    0  0.21546855754E+02  0.26461611803E+02  0.29404584029E+02  0.46142318143E+02  0.10000003478E+02 0.  0.
        -12    1    1    2    0    0 -0.21546855754E+02 -0.26461611803E+02 -0.29404584029E+02  0.45045681857E+02  0.00000000000E+00 0.  1.
         11    1    3    3    0    0  0.35259354990E+01  0.58628141430E+01  0.59707635568E+01  0.90804641143E+01  0.51100000000E-03 0. -1.
        -11    1    3    3    0    0 -0.90319720649E+00  0.16269802796E+01  0.21328917629E+01  0.28305578173E+01  0.51100000000E-03 0.  1.
         12    1    3    3    0    0  0.18924117461E+02  0.18971817381E+02  0.21300928709E+02  0.34231296211E+02  0.00000000000E+00 0. -1.
</event>
<event>
 7    1  0.4081218E-008  0.4614232E+02  0.7816164E-02  0.1320468E+00
        -11   -1    0    0    0    0  0.00000000000E+00  0.00000000000E+00  0.45593999997E+02  0.45594000000E+02  0.51100000000E-03 0.  1.
         11   -1    0    0    0    0 -0.00000000000E+00 -0.00000000000E+00 -0.45593999997E+02  0.45594000000E+02  0.51100000000E-03 0. -1.
    9900012    2    1    2    0    0  0.34564718552E+02  0.16397694163E+02 -0.23780430669E+02  0.46142322902E+02  0.10000046877E+02 0.  0.
        -12    1    1    2    0    0 -0.34564718552E+02 -0.16397694163E+02  0.23780430669E+02  0.45045677098E+02  0.00000000000E+00 0.  1.
         11    1    3    3    0    0  0.16628996899E+02  0.70036014727E+01 -0.10966305376E+02  0.21114777415E+02  0.51100000000E-03 0. -1.
        -11    1    3    3    0    0  0.38449700512E+01  0.83009802156E+00 -0.60251624002E+01  0.71955152442E+01  0.51100000000E-03 0.  1.
        -12    1    3    3    0    0  0.14090751602E+02  0.85639946689E+01 -0.67889628924E+01  0.17832030242E+02  0.00000000000E+00 0.  1.
</event>
<event>
 7    1  0.4081218E-008  0.4614232E+02  0.7816164E-02  0.1320468E+00
        -11   -1    0    0    0    0  0.00000000000E+00  0.00000000000E+00  0.45593999997E+02  0.45594000000E+02  0.51100000000E-03 0.  1.
         11   -1    0    0    0    0 -0.00000000000E+00 -0.00000000000E+00 -0.45593999997E+02  0.45594000000E+02  0.51100000000E-03 0. -1.
    9900012    2    1    2    0    0 -0.29694798834E+02  0.90941058876E+01 -0.32628664323E+02  0.46142316797E+02  0.99999912110E+01 0.  0.
        -12    1    1    2    0    0  0.29694798834E+02 -0.90941058876E+01  0.32628664323E+02  0.45045683203E+02  0.00000000000E+00 0.  1.
         11    1    3    3    0    0 -0.10108784596E+02  0.30818041086E+01 -0.13512062356E+02  0.17154033693E+02  0.51100000000E-03 0. -1.
        -11    1    3    3    0    0 -0.93164533705E+00 -0.11240988829E+01 -0.19001700369E+00  0.14723002599E+01  0.51100000000E-03 0.  1.
         12    1    3    3    0    0 -0.18654368902E+02  0.71364006618E+01 -0.18926584963E+02  0.27515982844E+02  0.00000000000E+00 0. -1.
</event>
<event>
 7    1  0.4081218E-008  0.4614232E+02  0.7816164E-02  0.1320468E+00
        -11   -1    0    0    0    0  0.00000000000E+00  0.00000000000E+00  0.45593999997E+02  0.45594000000E+02  0.51100000000E-03 0. -1.
         11   -1    0    0    0    0 -0.00000000000E+00 -0.00000000000E+00 -0.45593999997E+02  0.45594000000E+02  0.51100000000E-03 0.  1.
    9900012    2    1    2    0    0 -0.42658565400E+02 -0.10853139075E+02  0.95692014648E+01  0.46142318227E+02  0.10000004245E+02 0.  0.
        -12    1    1    2    0    0  0.42658565400E+02  0.10853139075E+02 -0.95692014648E+01  0.45045681773E+02  0.00000000000E+00 0.  1.
         11    1    3    3    0    0 -0.74455020927E+01 -0.47196743844E+01  0.19995539335E+01  0.90393054988E+01  0.51100000000E-03 0. -1.
        -11    1    3    3    0    0 -0.19086495302E+02 -0.38148058595E+01  0.85968942133E+00  0.19482969815E+02  0.51100000000E-03 0.  1.
         12    1    3    3    0    0 -0.16126568005E+02 -0.23186588309E+01  0.67099581099E+01  0.17620042913E+02  0.00000000000E+00 0. -1.
</event>
<event>
 7    1  0.4081218E-008  0.4614232E+02  0.7816164E-02  0.1320468E+00
        -11   -1    0    0    0    0  0.00000000000E+00  0.00000000000E+00  0.45593999997E+02  0.45594000000E+02  0.51100000000E-03 0. -1.
         11   -1    0    0    0    0 -0.00000000000E+00 -0.00000000000E+00 -0.45593999997E+02  0.45594000000E+02  0.51100000000E-03 0.  1.
    9900012    2    1    2    0    0  0.67442826240E+01  0.37794288607E+02  0.23563104676E+02  0.46142317616E+02  0.99999986780E+01 0.  0.
        -12    1    1    2    0    0 -0.67442826240E+01 -0.37794288607E+02 -0.23563104676E+02  0.45045682384E+02  0.00000000000E+00 0.  1.
         11    1    3    3    0    0  0.48357267566E+01  0.16540245086E+02  0.98725226997E+01  0.19860278585E+02  0.51100000000E-03 0. -1.
        -11    1    3    3    0    0 -0.17793995279E+01  0.98574845699E+01  0.36802275992E+01  0.10671473196E+02  0.51100000000E-03 0.  1.
        -12    1    3    3    0    0  0.36879553953E+01  0.11396558952E+02  0.10010354377E+02  0.15610565835E+02  0.00000000000E+00 0.  1.
</event>
<event>
 7    1  0.4081218E-008  0.4614232E+02  0.7816164E-02  0.1320468E+00
        -11   -1    0    0    0    0  0.00000000000E+00  0.00000000000E+00  0.45593999997E+02  0.45594000000E+02  0.51100000000E-03 0.  1.
         11   -1    0    0    0    0 -0.00000000000E+00 -0.00000000000E+00 -0.45593999997E+02  0.45594000000E+02  0.51100000000E-03 0. -1.
    9900012    2    1    2    0    0  0.21071702271E+02 -0.30865539485E+02 -0.25147870208E+02  0.46142317185E+02  0.99999947462E+01 0.  0.
        -12    1    1    2    0    0 -0.21071702271E+02  0.30865539485E+02  0.25147870208E+02  0.45045682815E+02  0.00000000000E+00 0.  1.
         11    1    3    3    0    0  0.64257449584E+01 -0.16741711015E+02 -0.10808901907E+02  0.20938181551E+02  0.51100000000E-03 0. -1.
        -11    1    3    3    0    0  0.74195895611E+01 -0.91301693992E+01 -0.65556582234E+01  0.13467997532E+02  0.51100000000E-03 0.  1.
        -12    1    3    3    0    0  0.72263677511E+01 -0.49936590713E+01 -0.77833100766E+01  0.11736138102E+02  0.00000000000E+00 0.  1.
</event>
<event>
 7    1  0.4081218E-008  0.4614232E+02  0.7816164E-02  0.1320468E+00
        -11   -1    0    0    0    0  0.00000000000E+00  0.00000000000E+00  0.45593999997E+02  0.45594000000E+02  0.51100000000E-03 0.  1.
         11   -1    0    0    0    0 -0.00000000000E+00 -0.00000000000E+00 -0.45593999997E+02  0.45594000000E+02  0.51100000000E-03 0. -1.
    9900012    2    1    2    0    0  0.38607369569E+01 -0.32213437632E+02 -0.31249045437E+02  0.46142315471E+02  0.99999791205E+01 0.  0.
        -12    1    1    2    0    0 -0.38607369569E+01  0.32213437632E+02  0.31249045437E+02  0.45045684529E+02  0.00000000000E+00 0.  1.
         11    1    3    3    0    0  0.65729813832E+01 -0.22609791517E+02 -0.18770037725E+02  0.30111809530E+02  0.51100000000E-03 0. -1.
        -11    1    3    3    0    0 -0.14253224370E+01 -0.61374544583E+01 -0.87167879303E+01  0.10755569876E+02  0.51100000000E-03 0.  1.
         12    1    3    3    0    0 -0.12869219894E+01 -0.34661916570E+01 -0.37622197817E+01  0.52749360656E+01  0.00000000000E+00 0. -1.
</event>
<event>
 7    1  0.4081218E-008  0.4614232E+02  0.7816164E-02  0.1320468E+00
        -11   -1    0    0    0    0  0.00000000000E+00  0.00000000000E+00  0.45593999997E+02  0.45594000000E+02  0.51100000000E-03 0.  1.
         11   -1    0    0    0    0 -0.00000000000E+00 -0.00000000000E+00 -0.45593999997E+02  0.45594000000E+02  0.51100000000E-03 0. -1.
    9900012    2    1    2    0    0 -0.72749436176E+01 -0.25951064381E+02 -0.36093363530E+02  0.46142318320E+02  0.10000005095E+02 0.  0.
        -12    1    1    2    0    0  0.72749436176E+01  0.25951064381E+02  0.36093363530E+02  0.45045681680E+02  0.00000000000E+00 0.  1.
         11    1    3    3    0    0  0.14411604918E+01 -0.75787683256E+01 -0.87130554685E+01  0.11637525886E+02  0.51100000000E-03 0. -1.
        -11    1    3    3    0    0 -0.43957439015E+01 -0.11597790365E+02 -0.12591371808E+02  0.17674103939E+02  0.51100000000E-03 0.  1.
        -12    1    3    3    0    0 -0.43203602079E+01 -0.67745056899E+01 -0.14788936254E+02  0.16830688494E+02  0.00000000000E+00 0.  1.
</event>
<event>
 7    1  0.5604994E-008  0.4614232E+02  0.7816164E-02  0.1320468E+00
        -11   -1    0    0    0    0  0.00000000000E+00  0.00000000000E+00  0.45593999997E+02  0.45594000000E+02  0.51100000000E-03 0.  1.
         11   -1    0    0    0    0 -0.00000000000E+00 -0.00000000000E+00 -0.45593999997E+02  0.45594000000E+02  0.51100000000E-03 0. -1.
    9900012    2    1    2    0    0  0.35943856152E+02  0.13702025512E+02 -0.23439436596E+02  0.46142317786E+02  0.10000000225E+02 0.  0.
        -12    1    1    2    0    0 -0.35943856152E+02 -0.13702025512E+02  0.23439436596E+02  0.45045682214E+02  0.00000000000E+00 0.  1.
         11    1    3    3    0    0  0.18606416481E+02  0.42401354396E+01 -0.11393487773E+02  0.22225864364E+02  0.51100000000E-03 0. -1.
        -11    1    3    3    0    0  0.56877355570E+01  0.30715248534E+01 -0.74344072324E+01  0.98516502094E+01  0.51100000000E-03 0.  1.
        -12    1    3    3    0    0  0.11649704114E+02  0.63903652188E+01 -0.46115415905E+01  0.14064803213E+02  0.00000000000E+00 0.  1.
</event>
<event>
 7    1  0.4081218E-008  0.4614232E+02  0.7816164E-02  0.1320468E+00
        -11   -1    0    0    0    0  0.00000000000E+00  0.00000000000E+00  0.45593999997E+02  0.45594000000E+02  0.51100000000E-03 0.  1.
         11   -1    0    0    0    0 -0.00000000000E+00 -0.00000000000E+00 -0.45593999997E+02  0.45594000000E+02  0.51100000000E-03 0. -1.
    9900012    2    1    2    0    0 -0.15517094883E+02 -0.45728078257E+01 -0.42040725250E+02  0.46142318913E+02  0.10000010505E+02 0.  0.
        -12    1    1    2    0    0  0.15517094883E+02  0.45728078257E+01  0.42040725250E+02  0.45045681087E+02  0.00000000000E+00 0.  1.
         11    1    3    3    0    0 -0.29022531703E+01 -0.29234094209E+01 -0.42778096596E+01  0.59387752821E+01  0.51100000000E-03 0. -1.
        -11    1    3    3    0    0  0.20766124046E+00  0.69769217553E+00 -0.14649638994E+01  0.16358536152E+01  0.51100000000E-03 0.  1.
         12    1    3    3    0    0 -0.12822502953E+02 -0.23470905803E+01 -0.36297951691E+02  0.38567690016E+02  0.00000000000E+00 0. -1.
</event>
<event>
 7    1  0.4081218E-008  0.4614232E+02  0.7816164E-02  0.1320468E+00
        -11   -1    0    0    0    0  0.00000000000E+00  0.00000000000E+00  0.45593999997E+02  0.45594000000E+02  0.51100000000E-03 0.  1.
         11   -1    0    0    0    0 -0.00000000000E+00 -0.00000000000E+00 -0.45593999997E+02  0.45594000000E+02  0.51100000000E-03 0. -1.
    9900012    2    1    2    0    0 -0.12472404041E+02 -0.22767377244E+02 -0.36813029213E+02  0.46142318198E+02  0.10000003988E+02 0.  0.
        -12    1    1    2    0    0  0.12472404041E+02  0.22767377244E+02  0.36813029213E+02  0.45045681802E+02  0.00000000000E+00 0.  1.
         11    1    3    3    0    0 -0.88406634504E+01 -0.16077988983E+02 -0.23105130812E+02  0.29504340869E+02  0.51100000000E-03 0. -1.
        -11    1    3    3    0    0 -0.38095877431E+01 -0.24933341981E+01 -0.39997779086E+01  0.60603545915E+01  0.51100000000E-03 0.  1.
         12    1    3    3    0    0  0.17784715233E+00 -0.41960540635E+01 -0.97081204918E+01  0.10577622738E+02  0.00000000000E+00 0. -1.
</event>
<event>
 7    1  0.4081218E-008  0.4614232E+02  0.7816164E-02  0.1320468E+00
        -11   -1    0    0    0    0  0.00000000000E+00  0.00000000000E+00  0.45593999997E+02  0.45594000000E+02  0.51100000000E-03 0. -1.
         11   -1    0    0    0    0 -0.00000000000E+00 -0.00000000000E+00 -0.45593999997E+02  0.45594000000E+02  0.51100000000E-03 0.  1.
    9900012    2    1    2    0    0 -0.30360668297E+02 -0.68051401851E+01  0.32573507195E+02  0.46142317816E+02  0.10000000503E+02 0.  0.
        -12    1    1    2    0    0  0.30360668297E+02  0.68051401851E+01 -0.32573507195E+02  0.45045682184E+02  0.00000000000E+00 0.  1.
         11    1    3    3    0    0 -0.20752942859E+02 -0.69290749706E+01  0.25549514149E+02  0.33637395719E+02  0.51100000000E-03 0. -1.
        -11    1    3    3    0    0  0.16804709216E+00  0.16609033200E+00 -0.23149819652E+00  0.33078316111E+00  0.51100000000E-03 0.  1.
        -12    1    3    3    0    0 -0.97757725308E+01 -0.42155546560E-01  0.72554912430E+01  0.12174138936E+02  0.00000000000E+00 0.  1.
</event>
<event>
 7    1  0.4081218E-008  0.4614232E+02  0.7816164E-02  0.1320468E+00
        -11   -1    0    0    0    0  0.00000000000E+00  0.00000000000E+00  0.45593999997E+02  0.45594000000E+02  0.51100000000E-03 0.  1.
         11   -1    0    0    0    0 -0.00000000000E+00 -0.00000000000E+00 -0.45593999997E+02  0.45594000000E+02  0.51100000000E-03 0. -1.
    9900012    2    1    2    0    0 -0.27872079861E+02 -0.15215408117E+01  0.35354567224E+02  0.46142319343E+02  0.10000014428E+02 0.  0.
        -12    1    1    2    0    0  0.27872079861E+02  0.15215408117E+01 -0.35354567224E+02  0.45045680657E+02  0.00000000000E+00 0.  1.
         11    1    3    3    0    0 -0.17245487345E+02  0.31587077079E+01  0.23273987490E+02  0.29138681543E+02  0.51100000000E-03 0. -1.
        -11    1    3    3    0    0  0.13221001663E+00  0.11218848120E+00  0.29203322594E+00  0.33963128535E+00  0.51100000000E-03 0.  1.
         12    1    3    3    0    0 -0.10758802533E+02 -0.47924370008E+01  0.11788546508E+02  0.16664006515E+02  0.00000000000E+00 0. -1.
</event>
<event>
 7    1  0.4081218E-008  0.4614232E+02  0.7816164E-02  0.1320468E+00
        -11   -1    0    0    0    0  0.00000000000E+00  0.00000000000E+00  0.45593999997E+02  0.45594000000E+02  0.51100000000E-03 0.  1.
         11   -1    0    0    0    0 -0.00000000000E+00 -0.00000000000E+00 -0.45593999997E+02  0.45594000000E+02  0.51100000000E-03 0. -1.
    9900012    2    1    2    0    0  0.40728366544E+02 -0.13730209295E+02 -0.13483142390E+02  0.46142316330E+02  0.99999869503E+01 0.  0.
        -12    1    1    2    0    0 -0.40728366544E+02  0.13730209295E+02  0.13483142390E+02  0.45045683670E+02  0.00000000000E+00 0.  1.
         11    1    3    3    0    0  0.19680324154E+02 -0.44081321579E+01 -0.65051844714E+01  0.21191135250E+02  0.51100000000E-03 0. -1.
        -11    1    3    3    0    0  0.21534461221E+02 -0.91283267704E+01 -0.65913031729E+01  0.24300301386E+02  0.51100000000E-03 0.  1.
        -12    1    3    3    0    0 -0.48641883067E+00 -0.19375036650E+00 -0.38665474572E+00  0.65087969375E+00  0.00000000000E+00 0.  1.
</event>
<event>
 7    1  0.4081218E-008  0.4614232E+02  0.7816164E-02  0.1320468E+00
        -11   -1    0    0    0    0  0.00000000000E+00  0.00000000000E+00  0.45593999997E+02  0.45594000000E+02  0.51100000000E-03 0. -1.
         11   -1    0    0    0    0 -0.00000000000E+00 -0.00000000000E+00 -0.45593999997E+02  0.45594000000E+02  0.51100000000E-03 0.  1.
    9900012    2    1    2    0    0 -0.85911959902E+00 -0.17729299518E+02  0.41401054447E+02  0.46142318107E+02  0.10000003158E+02 0.  0.
        -12    1    1    2    0    0  0.85911959902E+00  0.17729299518E+02 -0.41401054447E+02  0.45045681893E+02  0.00000000000E+00 0.  1.
         11    1    3    3    0    0  0.30145299582E+01 -0.11655214798E+02  0.29682020009E+02  0.32030512561E+02  0.51100000000E-03 0. -1.
        -11    1    3    3    0    0 -0.64490837300E+00 -0.37995517256E+01  0.66472024756E+01  0.76836059983E+01  0.51100000000E-03 0.  1.
        -12    1    3    3    0    0 -0.32287411843E+01 -0.22745329943E+01  0.50718319618E+01  0.64281995478E+01  0.00000000000E+00 0.  1.
</event>
<event>
 7    1  0.4081218E-008  0.4614232E+02  0.7816164E-02  0.1320468E+00
        -11   -1    0    0    0    0  0.00000000000E+00  0.00000000000E+00  0.45593999997E+02  0.45594000000E+02  0.51100000000E-03 0. -1.
         11   -1    0    0    0    0 -0.00000000000E+00 -0.00000000000E+00 -0.45593999997E+02  0.45594000000E+02  0.51100000000E-03 0.  1.
    9900012    2    1    2    0    0  0.29828553531E+02  0.18460948074E+02  0.28258879218E+02  0.46142318029E+02  0.10000002446E+02 0.  0.
        -12    1    1    2    0    0 -0.29828553531E+02 -0.18460948074E+02 -0.28258879218E+02  0.45045681971E+02  0.00000000000E+00 0.  1.
         11    1    3    3    0    0  0.20819248739E+02  0.93775525966E+01  0.17729552311E+02  0.28908764003E+02  0.51100000000E-03 0. -1.
        -11    1    3    3    0    0  0.11543949850E+01  0.46847822192E+00 -0.34310800195E+00  0.12922163085E+01  0.51100000000E-03 0.  1.
         12    1    3    3    0    0  0.78549098071E+01  0.86149172554E+01  0.10872434908E+02  0.15941337718E+02  0.00000000000E+00 0. -1.
</event>
<event>
 7    1  0.4081218E-008  0.4614232E+02  0.7816164E-02  0.1320468E+00
        -11   -1    0    0    0    0  0.00000000000E+00  0.00000000000E+00  0.45593999997E+02  0.45594000000E+02  0.51100000000E-03 0.  1.
         11   -1    0    0    0    0 -0.00000000000E+00 -0.00000000000E+00 -0.45593999997E+02  0.45594000000E+02  0.51100000000E-03 0. -1.
    9900012    2    1    2    0    0 -0.88022401029E+00  0.21736234922E+02 -0.39444581524E+02  0.46142315251E+02  0.99999771098E+01 0.  0.
        -12    1    1    2    0    0  0.88022401029E+00 -0.21736234922E+02  0.39444581524E+02  0.45045684749E+02  0.00000000000E+00 0.  1.
         11    1    3    3    0    0  0.18396429476E+01  0.12095916047E+01 -0.24137671172E+01  0.32670583071E+01  0.51100000000E-03 0. -1.
        -11    1    3    3    0    0  0.15732149587E+01  0.35023343484E+01 -0.45550393683E+01  0.59573261705E+01  0.51100000000E-03 0.  1.
         12    1    3    3    0    0 -0.42930819166E+01  0.17024308969E+02 -0.32475775039E+02  0.36917930773E+02  0.00000000000E+00 0. -1.
</event>
<event>
 7    1  0.4081218E-008  0.4614232E+02  0.7816164E-02  0.1320468E+00
        -11   -1    0    0    0    0  0.00000000000E+00  0.00000000000E+00  0.45593999997E+02  0.45594000000E+02  0.51100000000E-03 0.  1.
         11   -1    0    0    0    0 -0.00000000000E+00 -0.00000000000E+00 -0.45593999997E+02  0.45594000000E+02  0.51100000000E-03 0. -1.
    9900012    2    1    2    0    0 -0.20714241682E+02 -0.24094253185E+02 -0.31929620427E+02  0.46142317570E+02  0.99999982568E+01 0.  0.
        -12    1    1    2    0    0  0.20714241682E+02  0.24094253185E+02  0.31929620427E+02  0.45045682430E+02  0.00000000000E+00 0.  1.
         11    1    3    3    0    0 -0.18910327551E+02 -0.19986290465E+02 -0.29962463401E+02  0.40679251566E+02  0.51100000000E-03 0. -1.
        -11    1    3    3    0    0 -0.18110100105E+01 -0.12952817499E+01 -0.12777085249E+01  0.25671095430E+01  0.51100000000E-03 0.  1.
         12    1    3    3    0    0  0.70958799504E-02 -0.28126809698E+01 -0.68944850126E+00  0.28959564613E+01  0.00000000000E+00 0. -1.
</event>
<event>
 7    1  0.4081218E-008  0.4614232E+02  0.7816164E-02  0.1320468E+00
        -11   -1    0    0    0    0  0.00000000000E+00  0.00000000000E+00  0.45593999997E+02  0.45594000000E+02  0.51100000000E-03 0.  1.
         11   -1    0    0    0    0 -0.00000000000E+00 -0.00000000000E+00 -0.45593999997E+02  0.45594000000E+02  0.51100000000E-03 0. -1.
    9900012    2    1    2    0    0 -0.41807914977E+01  0.11527066054E+02 -0.43344679402E+02  0.46142317612E+02  0.99999986409E+01 0.  0.
        -12    1    1    2    0    0  0.41807914977E+01 -0.11527066054E+02  0.43344679402E+02  0.45045682388E+02  0.00000000000E+00 0.  1.
         11    1    3    3    0    0 -0.32868095397E-01  0.34092491445E+01 -0.11032715760E+02  0.11547505243E+02  0.51100000000E-03 0. -1.
        -11    1    3    3    0    0  0.19125195115E+01  0.34016780494E+01 -0.57814004858E+01  0.69752230267E+01  0.51100000000E-03 0.  1.
        -12    1    3    3    0    0 -0.60604429138E+01  0.47161388601E+01 -0.26530563156E+02  0.27619589342E+02  0.00000000000E+00 0.  1.
</event>
<event>
 7    1  0.4081218E-008  0.4614232E+02  0.7816164E-02  0.1320468E+00
        -11   -1    0    0    0    0  0.00000000000E+00  0.00000000000E+00  0.45593999997E+02  0.45594000000E+02  0.51100000000E-03 0.  1.
         11   -1    0    0    0    0 -0.00000000000E+00 -0.00000000000E+00 -0.45593999997E+02  0.45594000000E+02  0.51100000000E-03 0. -1.
    9900012    2    1    2    0    0 -0.13241499526E+02  0.33063480845E+02 -0.27578658398E+02  0.46142317917E+02  0.10000001422E+02 0.  0.
        -12    1    1    2    0    0  0.13241499526E+02 -0.33063480845E+02  0.27578658398E+02  0.45045682083E+02  0.00000000000E+00 0.  1.
         11    1    3    3    0    0  0.36907199320E+00  0.32335774947E+01 -0.50824549323E+01  0.60351956017E+01  0.51100000000E-03 0.  1.
        -11    1    3    3    0    0 -0.85952873421E+01  0.17393739811E+02 -0.16279704948E+02  0.25326862075E+02  0.51100000000E-03 0. -1.
        -12    1    3    3    0    0 -0.50152841771E+01  0.12436163540E+02 -0.62164985171E+01  0.14780260241E+02  0.00000000000E+00 0.  1.
</event>
<event>
 7    1  0.4081218E-008  0.4614232E+02  0.7816164E-02  0.1320468E+00
        -11   -1    0    0    0    0  0.00000000000E+00  0.00000000000E+00  0.45593999997E+02  0.45594000000E+02  0.51100000000E-03 0.  1.
         11   -1    0    0    0    0 -0.00000000000E+00 -0.00000000000E+00 -0.45593999997E+02  0.45594000000E+02  0.51100000000E-03 0. -1.
    9900012    2    1    2    0    0  0.35666427909E+02  0.26985969485E+02 -0.53644004757E+01  0.46142318506E+02  0.10000006794E+02 0.  0.
        -12    1    1    2    0    0 -0.35666427909E+02 -0.26985969485E+02  0.53644004757E+01  0.45045681494E+02  0.00000000000E+00 0.  1.
         11    1    3    3    0    0  0.18684767234E+02  0.10555279940E+02 -0.50501114549E+01  0.22046271503E+02  0.51100000000E-03 0. -1.
        -11    1    3    3    0    0  0.29724735671E-01  0.89674554252E+00  0.60943370328E+00  0.10846408750E+01  0.51100000000E-03 0.  1.
        -12    1    3    3    0    0  0.16951935939E+02  0.15533944002E+02 -0.92372272405E+00  0.23011406129E+02  0.00000000000E+00 0.  1.
</event>
<event>
 7    1  0.4081218E-008  0.4614232E+02  0.7816164E-02  0.1320468E+00
        -11   -1    0    0    0    0  0.00000000000E+00  0.00000000000E+00  0.45593999997E+02  0.45594000000E+02  0.51100000000E-03 0. -1.
         11   -1    0    0    0    0 -0.00000000000E+00 -0.00000000000E+00 -0.45593999997E+02  0.45594000000E+02  0.51100000000E-03 0.  1.
    9900012    2    1    2    0    0  0.35664086603E+02  0.19505369207E+02  0.19409454351E+02  0.46142318528E+02  0.10000006989E+02 0.  0.
        -12    1    1    2    0    0 -0.35664086603E+02 -0.19505369207E+02 -0.19409454351E+02  0.45045681472E+02  0.00000000000E+00 0.  1.
         11    1    3    3    0    0  0.88843691665E+01  0.84004835478E+01  0.39011956816E+01  0.12834308214E+02  0.51100000000E-03 0. -1.
        -11    1    3    3    0    0  0.83634053082E+01  0.62180688759E+01  0.52935199950E+01  0.11688981268E+02  0.51100000000E-03 0.  1.
        -12    1    3    3    0    0  0.18416312128E+02  0.48868167837E+01  0.10214738674E+02  0.21619029045E+02  0.00000000000E+00 0.  1.
</event>
<event>
 7    1  0.4081218E-008  0.4614232E+02  0.7816164E-02  0.1320468E+00
        -11   -1    0    0    0    0  0.00000000000E+00  0.00000000000E+00  0.45593999997E+02  0.45594000000E+02  0.51100000000E-03 0.  1.
         11   -1    0    0    0    0 -0.00000000000E+00 -0.00000000000E+00 -0.45593999997E+02  0.45594000000E+02  0.51100000000E-03 0. -1.
    9900012    2    1    2    0    0  0.44355165413E+02  0.52846517218E+01 -0.58142279258E+01  0.46142317754E+02  0.99999999369E+01 0.  0.
        -12    1    1    2    0    0 -0.44355165413E+02 -0.52846517218E+01  0.58142279258E+01  0.45045682246E+02  0.00000000000E+00 0.  1.
         11    1    3    3    0    0  0.11324467593E+02 -0.28861729412E+00 -0.24269941739E+01  0.11585213299E+02  0.51100000000E-03 0. -1.
        -11    1    3    3    0    0  0.20867444092E+02  0.43209461216E+00  0.20180953042E+00  0.20872892853E+02  0.51100000000E-03 0.  1.
        -12    1    3    3    0    0  0.12163253728E+02  0.51411744038E+01 -0.35890432823E+01  0.13684211602E+02  0.00000000000E+00 0.  1.
</event>
<event>
 7    1  0.4081218E-008  0.4614232E+02  0.7816164E-02  0.1320468E+00
        -11   -1    0    0    0    0  0.00000000000E+00  0.00000000000E+00  0.45593999997E+02  0.45594000000E+02  0.51100000000E-03 0. -1.
         11   -1    0    0    0    0 -0.00000000000E+00 -0.00000000000E+00 -0.45593999997E+02  0.45594000000E+02  0.51100000000E-03 0.  1.
    9900012    2    1    2    0    0 -0.32587974957E+02  0.19713789379E+02  0.24052105878E+02  0.46142318735E+02  0.10000008880E+02 0.  0.
        -12    1    1    2    0    0  0.32587974957E+02 -0.19713789379E+02 -0.24052105878E+02  0.45045681265E+02  0.00000000000E+00 0.  1.
         11    1    3    3    0    0 -0.38036012425E+01  0.81667388769E+00  0.45764705846E+01  0.60065316052E+01  0.51100000000E-03 0.  1.
        -11    1    3    3    0    0 -0.23602804219E+02  0.12382087862E+02  0.16197732644E+02  0.31189341287E+02  0.51100000000E-03 0. -1.
        -12    1    3    3    0    0 -0.51815694952E+01  0.65150276293E+01  0.32779026492E+01  0.89464458430E+01  0.00000000000E+00 0.  1.
</event>
<event>
 7    1  0.4081218E-008  0.4614232E+02  0.7816164E-02  0.1320468E+00
        -11   -1    0    0    0    0  0.00000000000E+00  0.00000000000E+00  0.45593999997E+02  0.45594000000E+02  0.51100000000E-03 0. -1.
         11   -1    0    0    0    0 -0.00000000000E+00 -0.00000000000E+00 -0.45593999997E+02  0.45594000000E+02  0.51100000000E-03 0.  1.
    9900012    2    1    2    0    0 -0.16955236626E+02 -0.22794743134E+02  0.34957590463E+02  0.46142317692E+02  0.99999993674E+01 0.  0.
        -12    1    1    2    0    0  0.16955236626E+02  0.22794743134E+02 -0.34957590463E+02  0.45045682308E+02  0.00000000000E+00 0.  1.
         11    1    3    3    0    0 -0.12720016001E+02 -0.16546120012E+02  0.19068427625E+02  0.28269733406E+02  0.51100000000E-03 0. -1.
        -11    1    3    3    0    0 -0.36231232689E+01 -0.26989521118E+01  0.77254422734E+01  0.89495152553E+01  0.51100000000E-03 0.  1.
        -12    1    3    3    0    0 -0.61209735693E+00 -0.35496710103E+01  0.81637205649E+01  0.89230690302E+01  0.00000000000E+00 0.  1.
</event>
<event>
 7    1  0.4081218E-008  0.4614232E+02  0.7816164E-02  0.1320468E+00
        -11   -1    0    0    0    0  0.00000000000E+00  0.00000000000E+00  0.45593999997E+02  0.45594000000E+02  0.51100000000E-03 0.  1.
         11   -1    0    0    0    0 -0.00000000000E+00 -0.00000000000E+00 -0.45593999997E+02  0.45594000000E+02  0.51100000000E-03 0. -1.
    9900012    2    1    2    0    0 -0.22381930281E+01  0.26375122519E+02 -0.36448002965E+02  0.46142317454E+02  0.99999972004E+01 0.  0.
        -12    1    1    2    0    0  0.22381930281E+01 -0.26375122519E+02  0.36448002965E+02  0.45045682546E+02  0.00000000000E+00 0.  1.
         11    1    3    3    0    0 -0.36666396273E+01  0.55272469291E+01 -0.10005725259E+02  0.12004550928E+02  0.51100000000E-03 0. -1.
        -11    1    3    3    0    0  0.23806518699E+01  0.99523569756E+01 -0.94447828915E+01  0.13925546195E+02  0.51100000000E-03 0.  1.
        -12    1    3    3    0    0 -0.95220527069E+00  0.10895518614E+02 -0.16997494814E+02  0.20212220331E+02  0.00000000000E+00 0.  1.
</event>
<event>
 7    1  0.4081218E-008  0.4614232E+02  0.7816164E-02  0.1320468E+00
        -11   -1    0    0    0    0  0.00000000000E+00  0.00000000000E+00  0.45593999997E+02  0.45594000000E+02  0.51100000000E-03 0. -1.
         11   -1    0    0    0    0 -0.00000000000E+00 -0.00000000000E+00 -0.45593999997E+02  0.45594000000E+02  0.51100000000E-03 0.  1.
    9900012    2    1    2    0    0 -0.11205734896E+02 -0.50578345698E+01  0.43335472258E+02  0.46142319398E+02  0.10000014924E+02 0.  0.
        -12    1    1    2    0    0  0.11205734896E+02  0.50578345698E+01 -0.43335472258E+02  0.45045680602E+02  0.00000000000E+00 0.  1.
         11    1    3    3    0    0 -0.12164753626E+02 -0.62201046541E+01  0.38341039133E+02  0.40702656115E+02  0.51100000000E-03 0. -1.
        -11    1    3    3    0    0  0.80797663748E+00 -0.98411920601E-01  0.26667707037E+01  0.27882211893E+01  0.51100000000E-03 0.  1.
         12    1    3    3    0    0  0.15104209317E+00  0.12606820049E+01  0.23276624211E+01  0.26514420940E+01  0.00000000000E+00 0. -1.
</event>
<event>
 7    1  0.4081218E-008  0.4614232E+02  0.7816164E-02  0.1320468E+00
        -11   -1    0    0    0    0  0.00000000000E+00  0.00000000000E+00  0.45593999997E+02  0.45594000000E+02  0.51100000000E-03 0.  1.
         11   -1    0    0    0    0 -0.00000000000E+00 -0.00000000000E+00 -0.45593999997E+02  0.45594000000E+02  0.51100000000E-03 0. -1.
    9900012    2    1    2    0    0  0.10005524287E+01 -0.32694536322E+02 -0.30970628076E+02  0.46142316368E+02  0.99999872950E+01 0.  0.
        -12    1    1    2    0    0 -0.10005524287E+01  0.32694536322E+02  0.30970628076E+02  0.45045683632E+02  0.00000000000E+00 0.  1.
         11    1    3    3    0    0  0.28183711968E+01 -0.11084263728E+02 -0.12283189626E+02  0.16783350865E+02  0.51100000000E-03 0. -1.
        -11    1    3    3    0    0  0.20152226910E+01 -0.65907432592E+01 -0.78451083885E+01  0.10442449190E+02  0.51100000000E-03 0.  1.
        -12    1    3    3    0    0 -0.38330414590E+01 -0.15019529334E+02 -0.10842330062E+02  0.18916516313E+02  0.00000000000E+00 0.  1.
</event>
<event>
 7    1  0.4081218E-008  0.4614232E+02  0.7816164E-02  0.1320468E+00
        -11   -1    0    0    0    0  0.00000000000E+00  0.00000000000E+00  0.45593999997E+02  0.45594000000E+02  0.51100000000E-03 0.  1.
         11   -1    0    0    0    0 -0.00000000000E+00 -0.00000000000E+00 -0.45593999997E+02  0.45594000000E+02  0.51100000000E-03 0. -1.
    9900012    2    1    2    0    0 -0.15067620485E+02  0.40503226648E+02 -0.12710975096E+02  0.46142318255E+02  0.10000004505E+02 0.  0.
        -12    1    1    2    0    0  0.15067620485E+02 -0.40503226648E+02  0.12710975096E+02  0.45045681745E+02  0.00000000000E+00 0.  1.
         11    1    3    3    0    0 -0.62455019601E+01  0.16759604014E+02 -0.70153932274E+01  0.19212141053E+02  0.51100000000E-03 0. -1.
        -11    1    3    3    0    0  0.26131619587E+00  0.87136387734E+01 -0.26073683333E+01  0.90991294482E+01  0.51100000000E-03 0.  1.
         12    1    3    3    0    0 -0.90834347208E+01  0.15029983860E+02 -0.30882135353E+01  0.17831047754E+02  0.00000000000E+00 0. -1.
</event>
<event>
 7    1  0.4081218E-008  0.4614231E+02  0.7816164E-02  0.1320468E+00
        -11   -1    0    0    0    0  0.00000000000E+00  0.00000000000E+00  0.45593999997E+02  0.45594000000E+02  0.51100000000E-03 0.  1.
         11   -1    0    0    0    0 -0.00000000000E+00 -0.00000000000E+00 -0.45593999997E+02  0.45594000000E+02  0.51100000000E-03 0. -1.
    9900012    2    1    2    0    0  0.12100590082E+02 -0.31554163933E+02 -0.29782951884E+02  0.46142314693E+02  0.99999720247E+01 0.  0.
        -12    1    1    2    0    0 -0.12100590082E+02  0.31554163933E+02  0.29782951884E+02  0.45045685307E+02  0.00000000000E+00 0.  1.
         11    1    3    3    0    0  0.85116180269E+01 -0.20045437458E+02 -0.21928718230E+02  0.30905272815E+02  0.51100000000E-03 0. -1.
        -11    1    3    3    0    0  0.32150784257E+01 -0.28261006654E+01 -0.17902589169E+01  0.46398924023E+01  0.51100000000E-03 0.  1.
        -12    1    3    3    0    0  0.37389362907E+00 -0.86826258096E+01 -0.60639747369E+01  0.10597149476E+02  0.00000000000E+00 0.  1.
</event>
<event>
 7    1  0.4081218E-008  0.4614232E+02  0.7816164E-02  0.1320468E+00
        -11   -1    0    0    0    0  0.00000000000E+00  0.00000000000E+00  0.45593999997E+02  0.45594000000E+02  0.51100000000E-03 0. -1.
         11   -1    0    0    0    0 -0.00000000000E+00 -0.00000000000E+00 -0.45593999997E+02  0.45594000000E+02  0.51100000000E-03 0.  1.
    9900012    2    1    2    0    0  0.12834804949E+02 -0.43117312811E+02  0.22975308556E+01  0.46142317297E+02  0.99999957722E+01 0.  0.
        -12    1    1    2    0    0 -0.12834804949E+02  0.43117312811E+02 -0.22975308556E+01  0.45045682703E+02  0.00000000000E+00 0.  1.
         11    1    3    3    0    0 -0.84608879596E-01 -0.90105607139E-01  0.68405754205E+00  0.69513499761E+00  0.51100000000E-03 0.  1.
        -11    1    3    3    0    0  0.10164625572E+02 -0.22282015561E+02  0.79351548305E+00  0.24503826182E+02  0.51100000000E-03 0. -1.
         12    1    3    3    0    0  0.27547882567E+01 -0.20745191643E+02  0.81995783054E+00  0.20943356118E+02  0.00000000000E+00 0. -1.
</event>
<event>
 7    1  0.4081218E-008  0.4614232E+02  0.7816164E-02  0.1320468E+00
        -11   -1    0    0    0    0  0.00000000000E+00  0.00000000000E+00  0.45593999997E+02  0.45594000000E+02  0.51100000000E-03 0. -1.
         11   -1    0    0    0    0 -0.00000000000E+00 -0.00000000000E+00 -0.45593999997E+02  0.45594000000E+02  0.51100000000E-03 0.  1.
    9900012    2    1    2    0    0 -0.18091316786E+02  0.40182012952E+02  0.93393558921E+01  0.46142317894E+02  0.10000001212E+02 0.  0.
        -12    1    1    2    0    0  0.18091316786E+02 -0.40182012952E+02 -0.93393558921E+01  0.45045682106E+02  0.00000000000E+00 0.  1.
         11    1    3    3    0    0 -0.99212828599E+01  0.15069477648E+02  0.51606510121E+01  0.18765748834E+02  0.51100000000E-03 0. -1.
        -11    1    3    3    0    0  0.56249071981E-01  0.70623951967E+01 -0.18876626614E+00  0.70651413883E+01  0.51100000000E-03 0.  1.
        -12    1    3    3    0    0 -0.82262829985E+01  0.18050140107E+02  0.43674711462E+01  0.20311427672E+02  0.00000000000E+00 0.  1.
</event>
<event>
 7    1  0.4081218E-008  0.4614232E+02  0.7816164E-02  0.1320468E+00
        -11   -1    0    0    0    0  0.00000000000E+00  0.00000000000E+00  0.45593999997E+02  0.45594000000E+02  0.51100000000E-03 0. -1.
         11   -1    0    0    0    0 -0.00000000000E+00 -0.00000000000E+00 -0.45593999997E+02  0.45594000000E+02  0.51100000000E-03 0.  1.
    9900012    2    1    2    0    0  0.48412858222E+01  0.44780792076E+02 -0.59675774200E+00  0.46142317552E+02  0.99999980953E+01 0.  0.
        -12    1    1    2    0    0 -0.48412858222E+01 -0.44780792076E+02  0.59675774200E+00  0.45045682448E+02  0.00000000000E+00 0.  1.
         11    1    3    3    0    0  0.43244608340E+00  0.15914764128E+02  0.14868230473E+01  0.15989914631E+02  0.51100000000E-03 0. -1.
        -11    1    3    3    0    0  0.85453966123E+00  0.15216338458E+02 -0.43905121296E+01  0.15860132128E+02  0.51100000000E-03 0.  1.
         12    1    3    3    0    0  0.35543000775E+01  0.13649689490E+02  0.23069313404E+01  0.14292270793E+02  0.00000000000E+00 0. -1.
</event>
<event>
 7    1  0.4081218E-008  0.4614232E+02  0.7816164E-02  0.1320468E+00
        -11   -1    0    0    0    0  0.00000000000E+00  0.00000000000E+00  0.45593999997E+02  0.45594000000E+02  0.51100000000E-03 0. -1.
         11   -1    0    0    0    0 -0.00000000000E+00 -0.00000000000E+00 -0.45593999997E+02  0.45594000000E+02  0.51100000000E-03 0.  1.
    9900012    2    1    2    0    0 -0.27409923225E+02 -0.35668915524E+02 -0.23533053039E+01  0.46142317946E+02  0.10000001688E+02 0.  0.
        -12    1    1    2    0    0  0.27409923225E+02  0.35668915524E+02  0.23533053039E+01  0.45045682054E+02  0.00000000000E+00 0.  1.
         11    1    3    3    0    0 -0.14076484921E+02 -0.16851581988E+02  0.32757093812E+01  0.22200304400E+02  0.51100000000E-03 0. -1.
        -11    1    3    3    0    0 -0.18180949479E+01 -0.32454894941E+01 -0.20482651883E+01  0.42466530161E+01  0.51100000000E-03 0.  1.
         12    1    3    3    0    0 -0.11515343356E+02 -0.15571844042E+02 -0.35807494968E+01  0.19695360530E+02  0.00000000000E+00 0. -1.
</event>
<event>
 7    1  0.4081218E-008  0.4614232E+02  0.7816164E-02  0.1320468E+00
        -11   -1    0    0    0    0  0.00000000000E+00  0.00000000000E+00  0.45593999997E+02  0.45594000000E+02  0.51100000000E-03 0. -1.
         11   -1    0    0    0    0 -0.00000000000E+00 -0.00000000000E+00 -0.45593999997E+02  0.45594000000E+02  0.51100000000E-03 0.  1.
    9900012    2    1    2    0    0  0.29326527731E+02 -0.18329383128E+02  0.28863507724E+02  0.46142316602E+02  0.99999894329E+01 0.  0.
        -12    1    1    2    0    0 -0.29326527731E+02  0.18329383128E+02 -0.28863507724E+02  0.45045683398E+02  0.00000000000E+00 0.  1.
         11    1    3    3    0    0  0.88909318151E+01 -0.54331378479E+01  0.92645752676E+01  0.13942740425E+02  0.51100000000E-03 0. -1.
        -11    1    3    3    0    0  0.18695877780E+02 -0.93475891971E+01  0.13337587484E+02  0.24795251761E+02  0.51100000000E-03 0.  1.
        -12    1    3    3    0    0  0.17397181366E+01 -0.35486560826E+01  0.62613449728E+01  0.74043244159E+01  0.00000000000E+00 0.  1.
</event>
<event>
 7    1  0.4081218E-008  0.4614232E+02  0.7816164E-02  0.1320468E+00
        -11   -1    0    0    0    0  0.00000000000E+00  0.00000000000E+00  0.45593999997E+02  0.45594000000E+02  0.51100000000E-03 0.  1.
         11   -1    0    0    0    0 -0.00000000000E+00 -0.00000000000E+00 -0.45593999997E+02  0.45594000000E+02  0.51100000000E-03 0. -1.
    9900012    2    1    2    0    0  0.24511422098E+02  0.10203763889E+02 -0.36389379137E+02  0.46142317357E+02  0.99999963179E+01 0.  0.
        -12    1    1    2    0    0 -0.24511422098E+02 -0.10203763889E+02  0.36389379137E+02  0.45045682643E+02  0.00000000000E+00 0.  1.
         11    1    3    3    0    0  0.61531697183E+01  0.53454340521E+01 -0.13020489102E+02  0.15361259698E+02  0.51100000000E-03 0. -1.
        -11    1    3    3    0    0  0.71885658304E+01  0.51357610190E+01 -0.11106460610E+02  0.14191722499E+02  0.51100000000E-03 0.  1.
        -12    1    3    3    0    0  0.11169686549E+02 -0.27743118189E+00 -0.12262429425E+02  0.16589335161E+02  0.00000000000E+00 0.  1.
</event>
<event>
 7    1  0.4081218E-008  0.4614232E+02  0.7816164E-02  0.1320468E+00
        -11   -1    0    0    0    0  0.00000000000E+00  0.00000000000E+00  0.45593999997E+02  0.45594000000E+02  0.51100000000E-03 0.  1.
         11   -1    0    0    0    0 -0.00000000000E+00 -0.00000000000E+00 -0.45593999997E+02  0.45594000000E+02  0.51100000000E-03 0. -1.
    9900012    2    1    2    0    0  0.11675205527E+02  0.27912444901E+02 -0.33372120063E+02  0.46142318721E+02  0.10000008753E+02 0.  0.
        -12    1    1    2    0    0 -0.11675205527E+02 -0.27912444901E+02  0.33372120063E+02  0.45045681279E+02  0.00000000000E+00 0.  1.
         11    1    3    3    0    0  0.15223408457E+01  0.81078009582E+01 -0.88048239671E+01  0.12065607460E+02  0.51100000000E-03 0. -1.
        -11    1    3    3    0    0  0.76070947775E+01  0.12792759449E+02 -0.21173511955E+02  0.25881271106E+02  0.51100000000E-03 0.  1.
        -12    1    3    3    0    0  0.25457699034E+01  0.70118844929E+01 -0.33937841405E+01  0.81954401551E+01  0.00000000000E+00 0.  1.
</event>
<event>
 7    1  0.4081218E-008  0.4614232E+02  0.7816164E-02  0.1320468E+00
        -11   -1    0    0    0    0  0.00000000000E+00  0.00000000000E+00  0.45593999997E+02  0.45594000000E+02  0.51100000000E-03 0.  1.
         11   -1    0    0    0    0 -0.00000000000E+00 -0.00000000000E+00 -0.45593999997E+02  0.45594000000E+02  0.51100000000E-03 0. -1.
    9900012    2    1    2    0    0 -0.21862345038E+02  0.13713542170E+02 -0.36920050221E+02  0.46142317879E+02  0.10000001076E+02 0.  0.
        -12    1    1    2    0    0  0.21862345038E+02 -0.13713542170E+02  0.36920050221E+02  0.45045682121E+02  0.00000000000E+00 0.  1.
         11    1    3    3    0    0 -0.53425726607E+01  0.34286644048E+01 -0.14931655555E+02  0.16225078123E+02  0.51100000000E-03 0. -1.
        -11    1    3    3    0    0  0.21715973086E+00  0.41119053285E+00 -0.19471324565E+01  0.20018893744E+01  0.51100000000E-03 0.  1.
         12    1    3    3    0    0 -0.16736932108E+02  0.98736872327E+01 -0.20041262210E+02  0.27915350381E+02  0.00000000000E+00 0. -1.
</event>
<event>
 7    1  0.4081218E-008  0.4614232E+02  0.7816164E-02  0.1320468E+00
        -11   -1    0    0    0    0  0.00000000000E+00  0.00000000000E+00  0.45593999997E+02  0.45594000000E+02  0.51100000000E-03 0.  1.
         11   -1    0    0    0    0 -0.00000000000E+00 -0.00000000000E+00 -0.45593999997E+02  0.45594000000E+02  0.51100000000E-03 0. -1.
    9900012    2    1    2    0    0  0.33207750301E+02 -0.27796553715E+01 -0.30308944437E+02  0.46142320109E+02  0.10000021406E+02 0.  0.
        -12    1    1    2    0    0 -0.33207750301E+02  0.27796553715E+01  0.30308944437E+02  0.45045679891E+02  0.00000000000E+00 0.  1.
         11    1    3    3    0    0  0.14181795535E+02  0.58764125510E+00 -0.84604236095E+01  0.16524146416E+02  0.51100000000E-03 0. -1.
        -11    1    3    3    0    0  0.10201243763E+02  0.78126820499E+00 -0.11752463494E+02  0.15581917493E+02  0.51100000000E-03 0.  1.
        -12    1    3    3    0    0  0.88247110020E+01 -0.41485648315E+01 -0.10096057334E+02  0.14036256200E+02  0.00000000000E+00 0.  1.
</event>
<event>
 7    1  0.4081218E-008  0.4614232E+02  0.7816164E-02  0.1320468E+00
        -11   -1    0    0    0    0  0.00000000000E+00  0.00000000000E+00  0.45593999997E+02  0.45594000000E+02  0.51100000000E-03 0.  1.
         11   -1    0    0    0    0 -0.00000000000E+00 -0.00000000000E+00 -0.45593999997E+02  0.45594000000E+02  0.51100000000E-03 0. -1.
    9900012    2    1    2    0    0 -0.12109692595E+02 -0.71903075155E+01 -0.42787479765E+02  0.46142316505E+02  0.99999885466E+01 0.  0.
        -12    1    1    2    0    0  0.12109692595E+02  0.71903075155E+01  0.42787479765E+02  0.45045683495E+02  0.00000000000E+00 0.  1.
         11    1    3    3    0    0 -0.90384637005E+01 -0.85299959357E+01 -0.32638792555E+02  0.34924854136E+02  0.51100000000E-03 0. -1.
        -11    1    3    3    0    0 -0.27208285527E+01 -0.59197678375E+00 -0.53125646904E+01  0.59980570501E+01  0.51100000000E-03 0.  1.
        -12    1    3    3    0    0 -0.35040034152E+00  0.19316652039E+01 -0.48361225197E+01  0.52194053190E+01  0.00000000000E+00 0.  1.
</event>
<event>
 7    1  0.4081218E-008  0.4614232E+02  0.7816164E-02  0.1320468E+00
        -11   -1    0    0    0    0  0.00000000000E+00  0.00000000000E+00  0.45593999997E+02  0.45594000000E+02  0.51100000000E-03 0. -1.
         11   -1    0    0    0    0 -0.00000000000E+00 -0.00000000000E+00 -0.45593999997E+02  0.45594000000E+02  0.51100000000E-03 0.  1.
    9900012    2    1    2    0    0 -0.28611315917E+02  0.25882932517E+01  0.34695919769E+02  0.46142317532E+02  0.99999979064E+01 0.  0.
        -12    1    1    2    0    0  0.28611315917E+02 -0.25882932517E+01 -0.34695919769E+02  0.45045682468E+02  0.00000000000E+00 0.  1.
         11    1    3    3    0    0 -0.85889099910E+01  0.30830398334E+00  0.17661685158E+02  0.19641780700E+02  0.51100000000E-03 0. -1.
        -11    1    3    3    0    0 -0.53206802066E+01  0.16996956830E+01  0.48468530161E+01  0.73953084923E+01  0.51100000000E-03 0.  1.
        -12    1    3    3    0    0 -0.14701725719E+02  0.58029358538E+00  0.12187381595E+02  0.19105228340E+02  0.00000000000E+00 0.  1.
</event>
<event>
 7    1  0.4081218E-008  0.4614232E+02  0.7816164E-02  0.1320468E+00
        -11   -1    0    0    0    0  0.00000000000E+00  0.00000000000E+00  0.45593999997E+02  0.45594000000E+02  0.51100000000E-03 0.  1.
         11   -1    0    0    0    0 -0.00000000000E+00 -0.00000000000E+00 -0.45593999997E+02  0.45594000000E+02  0.51100000000E-03 0. -1.
    9900012    2    1    2    0    0 -0.65933976099E+01  0.27713107284E+02 -0.34894473201E+02  0.46142317994E+02  0.10000002124E+02 0.  0.
        -12    1    1    2    0    0  0.65933976099E+01 -0.27713107284E+02  0.34894473201E+02  0.45045682006E+02  0.00000000000E+00 0.  1.
         11    1    3    3    0    0  0.43691725359E+00  0.42288901620E+00  0.35598516993E+00  0.70459740905E+00  0.51100000000E-03 0. -1.
        -11    1    3    3    0    0  0.60745081317E+00  0.40754557552E+01 -0.37736681511E+01  0.55873882699E+01  0.51100000000E-03 0.  1.
         12    1    3    3    0    0 -0.76377656767E+01  0.23214762513E+02 -0.31476790220E+02  0.39850332315E+02  0.00000000000E+00 0. -1.
</event>
<event>
 7    1  0.4081218E-008  0.4614232E+02  0.7816164E-02  0.1320468E+00
        -11   -1    0    0    0    0  0.00000000000E+00  0.00000000000E+00  0.45593999997E+02  0.45594000000E+02  0.51100000000E-03 0. -1.
         11   -1    0    0    0    0 -0.00000000000E+00 -0.00000000000E+00 -0.45593999997E+02  0.45594000000E+02  0.51100000000E-03 0.  1.
    9900012    2    1    2    0    0 -0.15467271747E+02  0.36127513944E+02  0.22015443150E+02  0.46142317675E+02  0.99999992165E+01 0.  0.
        -12    1    1    2    0    0  0.15467271747E+02 -0.36127513944E+02 -0.22015443150E+02  0.45045682325E+02  0.00000000000E+00 0.  1.
         11    1    3    3    0    0 -0.41728717204E+01  0.40661981234E+01  0.32351946709E+01  0.66643312038E+01  0.51100000000E-03 0.  1.
        -11    1    3    3    0    0  0.22354829260E+00  0.62580681223E+01  0.18180478082E+01  0.65206355945E+01  0.51100000000E-03 0. -1.
         12    1    3    3    0    0 -0.11517948319E+02  0.25803247698E+02  0.16962200671E+02  0.32957350877E+02  0.00000000000E+00 0. -1.
</event>
<event>
 7    1  0.4081218E-008  0.4614232E+02  0.7816164E-02  0.1320468E+00
        -11   -1    0    0    0    0  0.00000000000E+00  0.00000000000E+00  0.45593999997E+02  0.45594000000E+02  0.51100000000E-03 0.  1.
         11   -1    0    0    0    0 -0.00000000000E+00 -0.00000000000E+00 -0.45593999997E+02  0.45594000000E+02  0.51100000000E-03 0. -1.
    9900012    2    1    2    0    0 -0.23020835137E+02 -0.36527032407E+02  0.12842523627E+02  0.46142319186E+02  0.10000012996E+02 0.  0.
        -12    1    1    2    0    0  0.23020835137E+02  0.36527032407E+02 -0.12842523627E+02  0.45045680814E+02  0.00000000000E+00 0.  1.
         11    1    3    3    0    0 -0.59955057735E+01 -0.96550713750E+01  0.11035320380E+01  0.11418593432E+02  0.51100000000E-03 0. -1.
        -11    1    3    3    0    0 -0.92935603090E+01 -0.20773272798E+02  0.71080301725E+01  0.23841627863E+02  0.51100000000E-03 0.  1.
        -12    1    3    3    0    0 -0.77317690548E+01 -0.60986882339E+01  0.46309614161E+01  0.10882097892E+02  0.00000000000E+00 0.  1.
</event>
<event>
 7    1  0.4081218E-008  0.4614232E+02  0.7816164E-02  0.1320468E+00
        -11   -1    0    0    0    0  0.00000000000E+00  0.00000000000E+00  0.45593999997E+02  0.45594000000E+02  0.51100000000E-03 0.  1.
         11   -1    0    0    0    0 -0.00000000000E+00 -0.00000000000E+00 -0.45593999997E+02  0.45594000000E+02  0.51100000000E-03 0. -1.
    9900012    2    1    2    0    0  0.19910671593E+02 -0.28564598452E+02 -0.28578704081E+02  0.46142318132E+02  0.10000003379E+02 0.  0.
        -12    1    1    2    0    0 -0.19910671593E+02  0.28564598452E+02  0.28578704081E+02  0.45045681868E+02  0.00000000000E+00 0.  1.
         11    1    3    3    0    0  0.12276685353E+02 -0.10410827515E+02 -0.14676180586E+02  0.21782851275E+02  0.51100000000E-03 0. -1.
        -11    1    3    3    0    0  0.21582174136E+01 -0.33321906387E+01 -0.13967665301E+01  0.42086047400E+01  0.51100000000E-03 0.  1.
         12    1    3    3    0    0  0.54757688265E+01 -0.14821580298E+02 -0.12505756965E+02  0.20150862116E+02  0.00000000000E+00 0. -1.
</event>
<event>
 7    1  0.4081218E-008  0.4614233E+02  0.7816164E-02  0.1320468E+00
        -11   -1    0    0    0    0  0.00000000000E+00  0.00000000000E+00  0.45593999997E+02  0.45594000000E+02  0.51100000000E-03 0.  1.
         11   -1    0    0    0    0 -0.00000000000E+00 -0.00000000000E+00 -0.45593999997E+02  0.45594000000E+02  0.51100000000E-03 0. -1.
    9900012    2    1    2    0    0 -0.22214372459E+02 -0.17259498222E+01 -0.39149143372E+02  0.46142326808E+02  0.10000082499E+02 0.  0.
        -12    1    1    2    0    0  0.22214372459E+02  0.17259498222E+01  0.39149143372E+02  0.45045673192E+02  0.00000000000E+00 0.  1.
         11    1    3    3    0    0 -0.21387736790E+00  0.59802313340E+00 -0.10966141707E+01  0.12672561292E+01  0.51100000000E-03 0. -1.
        -11    1    3    3    0    0 -0.64859106771E+01 -0.40146718338E+01 -0.17318669355E+02  0.18924083485E+02  0.51100000000E-03 0.  1.
         12    1    3    3    0    0 -0.15514584414E+02  0.16906988782E+01 -0.20733859846E+02  0.25950987194E+02  0.00000000000E+00 0. -1.
</event>
<event>
 7    1  0.4081218E-008  0.4614232E+02  0.7816164E-02  0.1320468E+00
        -11   -1    0    0    0    0  0.00000000000E+00  0.00000000000E+00  0.45593999997E+02  0.45594000000E+02  0.51100000000E-03 0.  1.
         11   -1    0    0    0    0 -0.00000000000E+00 -0.00000000000E+00 -0.45593999997E+02  0.45594000000E+02  0.51100000000E-03 0. -1.
    9900012    2    1    2    0    0 -0.19693893247E+01 -0.23716978853E+02 -0.38245783108E+02  0.46142317568E+02  0.99999982408E+01 0.  0.
        -12    1    1    2    0    0  0.19693893247E+01  0.23716978853E+02  0.38245783108E+02  0.45045682432E+02  0.00000000000E+00 0.  1.
         11    1    3    3    0    0  0.14391929810E+01 -0.16838851277E+02 -0.23636299483E+02  0.29056717679E+02  0.51100000000E-03 0. -1.
        -11    1    3    3    0    0 -0.57234244957E+00  0.55808202595E+00 -0.71171939343E+00  0.10703159269E+01  0.51100000000E-03 0.  1.
         12    1    3    3    0    0 -0.28362398561E+01 -0.74362096022E+01 -0.13897764231E+02  0.16015283962E+02  0.00000000000E+00 0. -1.
</event>
<event>
 7    1  0.4081218E-008  0.4614232E+02  0.7816164E-02  0.1320468E+00
        -11   -1    0    0    0    0  0.00000000000E+00  0.00000000000E+00  0.45593999997E+02  0.45594000000E+02  0.51100000000E-03 0.  1.
         11   -1    0    0    0    0 -0.00000000000E+00 -0.00000000000E+00 -0.45593999997E+02  0.45594000000E+02  0.51100000000E-03 0. -1.
    9900012    2    1    2    0    0 -0.18403330882E+01 -0.99235522908E+01 -0.43900453009E+02  0.46142317739E+02  0.99999998011E+01 0.  0.
        -12    1    1    2    0    0  0.18403330882E+01  0.99235522908E+01  0.43900453009E+02  0.45045682261E+02  0.00000000000E+00 0.  1.
         11    1    3    3    0    0 -0.12587934633E+01 -0.23106141999E+01 -0.56634985987E+01  0.62448951635E+01  0.51100000000E-03 0. -1.
        -11    1    3    3    0    0 -0.36900408203E+00 -0.52632479297E+01 -0.80911232550E+01  0.96594108811E+01  0.51100000000E-03 0.  1.
        -12    1    3    3    0    0 -0.21253554280E+00 -0.23496901612E+01 -0.30145831155E+02  0.30238011695E+02  0.00000000000E+00 0.  1.
</event>
<event>
 7    1  0.4081218E-008  0.4614232E+02  0.7816164E-02  0.1320468E+00
        -11   -1    0    0    0    0  0.00000000000E+00  0.00000000000E+00  0.45593999997E+02  0.45594000000E+02  0.51100000000E-03 0.  1.
         11   -1    0    0    0    0 -0.00000000000E+00 -0.00000000000E+00 -0.45593999997E+02  0.45594000000E+02  0.51100000000E-03 0. -1.
    9900012    2    1    2    0    0 -0.23494820320E+02  0.37946411110E+02  0.60972818590E+01  0.46142317143E+02  0.99999943658E+01 0.  0.
        -12    1    1    2    0    0  0.23494820320E+02 -0.37946411110E+02 -0.60972818590E+01  0.45045682857E+02  0.00000000000E+00 0.  1.
         11    1    3    3    0    0 -0.63131168051E+01  0.15203465591E+02  0.26707063381E+01  0.16677334391E+02  0.51100000000E-03 0. -1.
        -11    1    3    3    0    0 -0.91322887835E+01  0.10643492596E+02 -0.15369874896E+01  0.14108329592E+02  0.51100000000E-03 0.  1.
        -12    1    3    3    0    0 -0.80494147313E+01  0.12099452922E+02  0.49635630105E+01  0.15356653161E+02  0.00000000000E+00 0.  1.
</event>
<event>
 7    1  0.4081218E-008  0.4614232E+02  0.7816164E-02  0.1320468E+00
        -11   -1    0    0    0    0  0.00000000000E+00  0.00000000000E+00  0.45593999997E+02  0.45594000000E+02  0.51100000000E-03 0. -1.
         11   -1    0    0    0    0 -0.00000000000E+00 -0.00000000000E+00 -0.45593999997E+02  0.45594000000E+02  0.51100000000E-03 0.  1.
    9900012    2    1    2    0    0  0.14492281271E+02  0.21227077917E+02  0.36993220277E+02  0.46142318744E+02  0.10000008967E+02 0.  0.
        -12    1    1    2    0    0 -0.14492281271E+02 -0.21227077917E+02 -0.36993220277E+02  0.45045681256E+02  0.00000000000E+00 0.  1.
         11    1    3    3    0    0  0.86407111711E+01  0.89464301105E+01  0.20643735286E+02  0.24101126697E+02  0.51100000000E-03 0. -1.
        -11    1    3    3    0    0  0.25585840031E+01  0.24600693264E+01  0.13173571145E+01  0.37859903883E+01  0.51100000000E-03 0.  1.
        -12    1    3    3    0    0  0.32929860969E+01  0.98205784800E+01  0.15032127876E+02  0.18255201659E+02  0.00000000000E+00 0.  1.
</event>
<event>
 7    1  0.4081218E-008  0.4614232E+02  0.7816164E-02  0.1320468E+00
        -11   -1    0    0    0    0  0.00000000000E+00  0.00000000000E+00  0.45593999997E+02  0.45594000000E+02  0.51100000000E-03 0.  1.
         11   -1    0    0    0    0 -0.00000000000E+00 -0.00000000000E+00 -0.45593999997E+02  0.45594000000E+02  0.51100000000E-03 0. -1.
    9900012    2    1    2    0    0 -0.32839300863E+02 -0.47620988153E+00 -0.30829644007E+02  0.46142318669E+02  0.10000008275E+02 0.  0.
        -12    1    1    2    0    0  0.32839300863E+02  0.47620988153E+00  0.30829644007E+02  0.45045681331E+02  0.00000000000E+00 0.  1.
         11    1    3    3    0    0 -0.62788841424E+00  0.71290243634E+00  0.11784383279E+00  0.95726755639E+00  0.51100000000E-03 0. -1.
        -11    1    3    3    0    0 -0.30799455618E+01 -0.69827099624E+00 -0.61992826003E+01  0.69573523748E+01  0.51100000000E-03 0.  1.
         12    1    3    3    0    0 -0.29131466887E+02 -0.49084132164E+00 -0.24748205239E+02  0.38227698737E+02  0.00000000000E+00 0. -1.
</event>
<event>
 7    1  0.4081218E-008  0.4614232E+02  0.7816164E-02  0.1320468E+00
        -11   -1    0    0    0    0  0.00000000000E+00  0.00000000000E+00  0.45593999997E+02  0.45594000000E+02  0.51100000000E-03 0.  1.
         11   -1    0    0    0    0 -0.00000000000E+00 -0.00000000000E+00 -0.45593999997E+02  0.45594000000E+02  0.51100000000E-03 0. -1.
    9900012    2    1    2    0    0 -0.31999802217E+02  0.31337505879E+02 -0.48048800916E+01  0.46142317750E+02  0.99999999016E+01 0.  0.
        -12    1    1    2    0    0  0.31999802217E+02 -0.31337505879E+02  0.48048800916E+01  0.45045682250E+02  0.00000000000E+00 0.  1.
         11    1    3    3    0    0 -0.19412724487E+02  0.20340546289E+02 -0.57958032977E+01  0.28708588114E+02  0.51100000000E-03 0. -1.
        -11    1    3    3    0    0 -0.60209027810E+01  0.83170383684E+01  0.12075992369E+01  0.10338408664E+02  0.51100000000E-03 0.  1.
         12    1    3    3    0    0 -0.65661749483E+01  0.26799212223E+01 -0.21667603072E+00  0.70953209731E+01  0.00000000000E+00 0. -1.
</event>
<event>
 7    1  0.4081218E-008  0.4614232E+02  0.7816164E-02  0.1320468E+00
        -11   -1    0    0    0    0  0.00000000000E+00  0.00000000000E+00  0.45593999997E+02  0.45594000000E+02  0.51100000000E-03 0.  1.
         11   -1    0    0    0    0 -0.00000000000E+00 -0.00000000000E+00 -0.45593999997E+02  0.45594000000E+02  0.51100000000E-03 0. -1.
    9900012    2    1    2    0    0  0.14431235838E+02 -0.36698798905E+02 -0.21772713644E+02  0.46142317984E+02  0.10000002030E+02 0.  0.
        -12    1    1    2    0    0 -0.14431235838E+02  0.36698798905E+02  0.21772713644E+02  0.45045682016E+02  0.00000000000E+00 0.  1.
         11    1    3    3    0    0  0.27782567529E+01 -0.43112644712E+01 -0.41151547150E+01  0.65757288961E+01  0.51100000000E-03 0. -1.
        -11    1    3    3    0    0 -0.76134960678E+00 -0.42771928818E-01 -0.36649921388E+00  0.84605236040E+00  0.51100000000E-03 0.  1.
         12    1    3    3    0    0  0.12414328692E+02 -0.32344762505E+02 -0.17291059715E+02  0.38720536727E+02  0.00000000000E+00 0. -1.
</event>
<event>
 7    1  0.4081218E-008  0.4614232E+02  0.7816164E-02  0.1320468E+00
        -11   -1    0    0    0    0  0.00000000000E+00  0.00000000000E+00  0.45593999997E+02  0.45594000000E+02  0.51100000000E-03 0.  1.
         11   -1    0    0    0    0 -0.00000000000E+00 -0.00000000000E+00 -0.45593999997E+02  0.45594000000E+02  0.51100000000E-03 0. -1.
    9900012    2    1    2    0    0  0.23051512802E+02  0.19280106188E+02 -0.33556204481E+02  0.46142316564E+02  0.99999890816E+01 0.  0.
        -12    1    1    2    0    0 -0.23051512802E+02 -0.19280106188E+02  0.33556204481E+02  0.45045683436E+02  0.00000000000E+00 0.  1.
         11    1    3    3    0    0  0.10368136542E+02  0.82668689028E+01 -0.15294839903E+02  0.20242813656E+02  0.51100000000E-03 0. -1.
        -11    1    3    3    0    0  0.56024938939E+01  0.87657183567E+00 -0.35855696311E+01  0.67091449421E+01  0.51100000000E-03 0.  1.
        -12    1    3    3    0    0  0.70808823668E+01  0.10136665449E+02 -0.14675794947E+02  0.19190357965E+02  0.00000000000E+00 0.  1.
</event>
<event>
 7    1  0.4081218E-008  0.4614232E+02  0.7816164E-02  0.1320468E+00
        -11   -1    0    0    0    0  0.00000000000E+00  0.00000000000E+00  0.45593999997E+02  0.45594000000E+02  0.51100000000E-03 0.  1.
         11   -1    0    0    0    0 -0.00000000000E+00 -0.00000000000E+00 -0.45593999997E+02  0.45594000000E+02  0.51100000000E-03 0. -1.
    9900012    2    1    2    0    0 -0.40063468046E+02 -0.10539709224E+02  0.17690296447E+02  0.46142317291E+02  0.99999957100E+01 0.  0.
        -12    1    1    2    0    0  0.40063468046E+02  0.10539709224E+02 -0.17690296447E+02  0.45045682709E+02  0.00000000000E+00 0.  1.
         11    1    3    3    0    0 -0.86429596562E+01 -0.29824632758E+01  0.88266556243E+00  0.91855831370E+01  0.51100000000E-03 0.  1.
        -11    1    3    3    0    0 -0.16588427562E+02 -0.49358007170E+01  0.12306898764E+02  0.21236709141E+02  0.51100000000E-03 0. -1.
         12    1    3    3    0    0 -0.14832080828E+02 -0.26214452308E+01  0.45007321201E+01  0.15720025012E+02  0.00000000000E+00 0. -1.
</event>
<event>
 7    1  0.4081218E-008  0.4614232E+02  0.7816164E-02  0.1320468E+00
        -11   -1    0    0    0    0  0.00000000000E+00  0.00000000000E+00  0.45593999997E+02  0.45594000000E+02  0.51100000000E-03 0. -1.
         11   -1    0    0    0    0 -0.00000000000E+00 -0.00000000000E+00 -0.45593999997E+02  0.45594000000E+02  0.51100000000E-03 0.  1.
    9900012    2    1    2    0    0  0.62671473235E+01 -0.36298755999E+02  0.25927527117E+02  0.46142317798E+02  0.10000000341E+02 0.  0.
        -12    1    1    2    0    0 -0.62671473235E+01  0.36298755999E+02 -0.25927527117E+02  0.45045682202E+02  0.00000000000E+00 0.  1.
         11    1    3    3    0    0  0.62746328633E+01 -0.29564047317E+02  0.18797196416E+02  0.35591270063E+02  0.51100000000E-03 0. -1.
        -11    1    3    3    0    0  0.19332011884E+01 -0.30966210776E+01  0.31971090811E+01  0.48526112219E+01  0.51100000000E-03 0.  1.
        -12    1    3    3    0    0 -0.19406867283E+01 -0.36380876041E+01  0.39332216198E+01  0.56984365139E+01  0.00000000000E+00 0.  1.
</event>
<event>
 7    1  0.4081218E-008  0.4614232E+02  0.7816164E-02  0.1320468E+00
        -11   -1    0    0    0    0  0.00000000000E+00  0.00000000000E+00  0.45593999997E+02  0.45594000000E+02  0.51100000000E-03 0.  1.
         11   -1    0    0    0    0 -0.00000000000E+00 -0.00000000000E+00 -0.45593999997E+02  0.45594000000E+02  0.51100000000E-03 0. -1.
    9900012    2    1    2    0    0 -0.35205248890E+02  0.56393191449E+01 -0.27530022566E+02  0.46142316386E+02  0.99999874573E+01 0.  0.
        -12    1    1    2    0    0  0.35205248890E+02 -0.56393191449E+01  0.27530022566E+02  0.45045683614E+02  0.00000000000E+00 0.  1.
         11    1    3    3    0    0 -0.21638383868E+02  0.81409172372E+01 -0.18860049274E+02  0.29836146681E+02  0.51100000000E-03 0. -1.
        -11    1    3    3    0    0 -0.22249533066E+01 -0.37088882775E+00 -0.16978813522E+01  0.28232564684E+01  0.51100000000E-03 0.  1.
         12    1    3    3    0    0 -0.11341911715E+02 -0.21307092646E+01 -0.69720919399E+01  0.13482913237E+02  0.00000000000E+00 0. -1.
</event>
<event>
 7    1  0.4081218E-008  0.4614232E+02  0.7816164E-02  0.1320468E+00
        -11   -1    0    0    0    0  0.00000000000E+00  0.00000000000E+00  0.45593999997E+02  0.45594000000E+02  0.51100000000E-03 0.  1.
         11   -1    0    0    0    0 -0.00000000000E+00 -0.00000000000E+00 -0.45593999997E+02  0.45594000000E+02  0.51100000000E-03 0. -1.
    9900012    2    1    2    0    0  0.37005035740E+02  0.19263710600E+02 -0.16989711668E+02  0.46142317424E+02  0.99999969253E+01 0.  0.
        -12    1    1    2    0    0 -0.37005035740E+02 -0.19263710600E+02  0.16989711668E+02  0.45045682576E+02  0.00000000000E+00 0.  1.
         11    1    3    3    0    0  0.14042818725E+02  0.53499238743E+01 -0.76086007308E+01  0.16843789613E+02  0.51100000000E-03 0. -1.
        -11    1    3    3    0    0  0.13614460439E+02  0.10314464467E+02 -0.27875554321E+01  0.17306420075E+02  0.51100000000E-03 0.  1.
        -12    1    3    3    0    0  0.93477565765E+01  0.35993222585E+01 -0.65935555050E+01  0.11992107735E+02  0.00000000000E+00 0.  1.
</event>
<event>
 7    1  0.4081218E-008  0.4614232E+02  0.7816164E-02  0.1320468E+00
        -11   -1    0    0    0    0  0.00000000000E+00  0.00000000000E+00  0.45593999997E+02  0.45594000000E+02  0.51100000000E-03 0.  1.
         11   -1    0    0    0    0 -0.00000000000E+00 -0.00000000000E+00 -0.45593999997E+02  0.45594000000E+02  0.51100000000E-03 0. -1.
    9900012    2    1    2    0    0  0.23483555461E+01  0.13745690695E+02 -0.42832869409E+02  0.46142317762E+02  0.10000000008E+02 0.  0.
        -12    1    1    2    0    0 -0.23483555461E+01 -0.13745690695E+02  0.42832869409E+02  0.45045682238E+02  0.00000000000E+00 0.  1.
         11    1    3    3    0    0  0.10395532453E+01  0.37337897256E+01 -0.72232668472E+01  0.81974045204E+01  0.51100000000E-03 0. -1.
        -11    1    3    3    0    0 -0.28230792520E+01  0.12761897244E+01 -0.12859970894E+02  0.13227898107E+02  0.51100000000E-03 0.  1.
        -12    1    3    3    0    0  0.41318815528E+01  0.87357112450E+01 -0.22749631668E+02  0.24717015135E+02  0.00000000000E+00 0.  1.
</event>
<event>
 7    1  0.4081218E-008  0.4614232E+02  0.7816164E-02  0.1320468E+00
        -11   -1    0    0    0    0  0.00000000000E+00  0.00000000000E+00  0.45593999997E+02  0.45594000000E+02  0.51100000000E-03 0.  1.
         11   -1    0    0    0    0 -0.00000000000E+00 -0.00000000000E+00 -0.45593999997E+02  0.45594000000E+02  0.51100000000E-03 0. -1.
    9900012    2    1    2    0    0 -0.14483579100E+02 -0.36559251170E+02 -0.21971813519E+02  0.46142317644E+02  0.99999989276E+01 0.  0.
        -12    1    1    2    0    0  0.14483579100E+02  0.36559251170E+02  0.21971813519E+02  0.45045682356E+02  0.00000000000E+00 0.  1.
         11    1    3    3    0    0 -0.92148277658E+01 -0.28208111477E+02 -0.18417882822E+02  0.34926050617E+02  0.51100000000E-03 0.  1.
        -11    1    3    3    0    0 -0.42637159297E+01 -0.78577379121E+01 -0.42490968320E+01  0.98983909184E+01  0.51100000000E-03 0. -1.
        -12    1    3    3    0    0 -0.10050354041E+01 -0.49340178109E+00  0.69516613432E+00  0.13178761077E+01  0.00000000000E+00 0.  1.
</event>
<event>
 7    1  0.4081218E-008  0.4614232E+02  0.7816164E-02  0.1320468E+00
        -11   -1    0    0    0    0  0.00000000000E+00  0.00000000000E+00  0.45593999997E+02  0.45594000000E+02  0.51100000000E-03 0. -1.
         11   -1    0    0    0    0 -0.00000000000E+00 -0.00000000000E+00 -0.45593999997E+02  0.45594000000E+02  0.51100000000E-03 0.  1.
    9900012    2    1    2    0    0  0.26050565755E+02 -0.33781871705E+01  0.36593295627E+02  0.46142318636E+02  0.10000007978E+02 0.  0.
        -12    1    1    2    0    0 -0.26050565755E+02  0.33781871705E+01 -0.36593295627E+02  0.45045681364E+02  0.00000000000E+00 0.  1.
         11    1    3    3    0    0  0.42310336642E+01  0.52725391837E+00  0.41154141137E+01  0.59258987631E+01  0.51100000000E-03 0. -1.
        -11    1    3    3    0    0  0.92245502057E+01 -0.84647153471E+00  0.69294389116E+01  0.11568317269E+02  0.51100000000E-03 0.  1.
        -12    1    3    3    0    0  0.12594981885E+02 -0.30589695542E+01  0.25548442601E+02  0.28648102604E+02  0.00000000000E+00 0.  1.
</event>
<event>
 7    1  0.4081218E-008  0.4614231E+02  0.7816164E-02  0.1320468E+00
        -11   -1    0    0    0    0  0.00000000000E+00  0.00000000000E+00  0.45593999997E+02  0.45594000000E+02  0.51100000000E-03 0.  1.
         11   -1    0    0    0    0 -0.00000000000E+00 -0.00000000000E+00 -0.45593999997E+02  0.45594000000E+02  0.51100000000E-03 0. -1.
    9900012    2    1    2    0    0 -0.23174033416E+02 -0.21183323623E+02 -0.32300853489E+02  0.46142310299E+02  0.99999319558E+01 0.  0.
        -12    1    1    2    0    0  0.23174033416E+02  0.21183323623E+02  0.32300853489E+02  0.45045689701E+02  0.00000000000E+00 0.  1.
         11    1    3    3    0    0 -0.11088508329E+02 -0.15199770144E+02 -0.18101795566E+02  0.26108677339E+02  0.51100000000E-03 0. -1.
        -11    1    3    3    0    0 -0.67310744818E+00 -0.20314347305E+00 -0.28395680421E+01  0.29253184159E+01  0.51100000000E-03 0.  1.
         12    1    3    3    0    0 -0.11412417638E+02 -0.57804100058E+01 -0.11359489881E+02  0.17108314544E+02  0.00000000000E+00 0. -1.
</event>
<event>
 7    1  0.4081218E-008  0.4614232E+02  0.7816164E-02  0.1320468E+00
        -11   -1    0    0    0    0  0.00000000000E+00  0.00000000000E+00  0.45593999997E+02  0.45594000000E+02  0.51100000000E-03 0.  1.
         11   -1    0    0    0    0 -0.00000000000E+00 -0.00000000000E+00 -0.45593999997E+02  0.45594000000E+02  0.51100000000E-03 0. -1.
    9900012    2    1    2    0    0 -0.20169974169E+02 -0.22241990710E+02 -0.33579450193E+02  0.46142317810E+02  0.10000000444E+02 0.  0.
        -12    1    1    2    0    0  0.20169974169E+02  0.22241990710E+02  0.33579450193E+02  0.45045682190E+02  0.00000000000E+00 0.  1.
         11    1    3    3    0    0 -0.80632327329E+01 -0.57880392217E+01 -0.83573525470E+01  0.12975456138E+02  0.51100000000E-03 0. -1.
        -11    1    3    3    0    0  0.40676502564E+00 -0.14022100455E+01 -0.41824518562E+01  0.44299610143E+01  0.51100000000E-03 0.  1.
         12    1    3    3    0    0 -0.12513506462E+02 -0.15051741443E+02 -0.21039645789E+02  0.28736900657E+02  0.00000000000E+00 0. -1.
</event>
<event>
 7    1  0.4081218E-008  0.4614232E+02  0.7816164E-02  0.1320468E+00
        -11   -1    0    0    0    0  0.00000000000E+00  0.00000000000E+00  0.45593999997E+02  0.45594000000E+02  0.51100000000E-03 0.  1.
         11   -1    0    0    0    0 -0.00000000000E+00 -0.00000000000E+00 -0.45593999997E+02  0.45594000000E+02  0.51100000000E-03 0. -1.
    9900012    2    1    2    0    0  0.15019372982E+02  0.42447254885E+02 -0.13275368500E+01  0.46142319118E+02  0.10000012372E+02 0.  0.
        -12    1    1    2    0    0 -0.15019372982E+02 -0.42447254885E+02  0.13275368500E+01  0.45045680882E+02  0.00000000000E+00 0.  1.
         11    1    3    3    0    0  0.11831020672E+02  0.33881546192E+02 -0.12273445815E+01  0.35908753772E+02  0.51100000000E-03 0. -1.
        -11    1    3    3    0    0 -0.83497948219E+00  0.29949793028E+01 -0.10819991419E+01  0.32920835597E+01  0.51100000000E-03 0.  1.
         12    1    3    3    0    0  0.40233317917E+01  0.55707293906E+01  0.98180687331E+00  0.69414817860E+01  0.00000000000E+00 0. -1.
</event>
<event>
 7    1  0.4081218E-008  0.4614232E+02  0.7816164E-02  0.1320468E+00
        -11   -1    0    0    0    0  0.00000000000E+00  0.00000000000E+00  0.45593999997E+02  0.45594000000E+02  0.51100000000E-03 0.  1.
         11   -1    0    0    0    0 -0.00000000000E+00 -0.00000000000E+00 -0.45593999997E+02  0.45594000000E+02  0.51100000000E-03 0. -1.
    9900012    2    1    2    0    0 -0.96278161164E+01  0.43999696129E+02  0.66735012358E+00  0.46142318089E+02  0.10000002989E+02 0.  0.
        -12    1    1    2    0    0  0.96278161164E+01 -0.43999696129E+02 -0.66735012358E+00  0.45045681911E+02  0.00000000000E+00 0.  1.
         11    1    3    3    0    0 -0.32473575485E+01  0.60120195623E+01 -0.21503923434E+01  0.71633719544E+01  0.51100000000E-03 0. -1.
        -11    1    3    3    0    0 -0.86641208301E+00  0.14413810400E+02 -0.97858122491E+00  0.14472947924E+02  0.51100000000E-03 0.  1.
         12    1    3    3    0    0 -0.55140464848E+01  0.23573866167E+02  0.37963236919E+01  0.24505998210E+02  0.00000000000E+00 0. -1.
</event>
<event>
 7    1  0.4081218E-008  0.4614232E+02  0.7816164E-02  0.1320468E+00
        -11   -1    0    0    0    0  0.00000000000E+00  0.00000000000E+00  0.45593999997E+02  0.45594000000E+02  0.51100000000E-03 0.  1.
         11   -1    0    0    0    0 -0.00000000000E+00 -0.00000000000E+00 -0.45593999997E+02  0.45594000000E+02  0.51100000000E-03 0. -1.
    9900012    2    1    2    0    0  0.14879178544E+02 -0.36749455449E+02 -0.21382260410E+02  0.46142317741E+02  0.99999998173E+01 0.  0.
        -12    1    1    2    0    0 -0.14879178544E+02  0.36749455449E+02  0.21382260410E+02  0.45045682259E+02  0.00000000000E+00 0.  1.
         11    1    3    3    0    0  0.16322332365E+01 -0.69284245496E+01 -0.62166905236E+01  0.94506345504E+01  0.51100000000E-03 0. -1.
        -11    1    3    3    0    0  0.18470697237E+01 -0.23787437471E+01 -0.38643791538E+01  0.48993382088E+01  0.51100000000E-03 0.  1.
        -12    1    3    3    0    0  0.11399875584E+02 -0.27442287152E+02 -0.11301190732E+02  0.31792344982E+02  0.00000000000E+00 0.  1.
</event>
<event>
 7    1  0.4081218E-008  0.4614232E+02  0.7816164E-02  0.1320468E+00
        -11   -1    0    0    0    0  0.00000000000E+00  0.00000000000E+00  0.45593999997E+02  0.45594000000E+02  0.51100000000E-03 0. -1.
         11   -1    0    0    0    0 -0.00000000000E+00 -0.00000000000E+00 -0.45593999997E+02  0.45594000000E+02  0.51100000000E-03 0.  1.
    9900012    2    1    2    0    0  0.17256362729E+02  0.25519577109E+02  0.32864610201E+02  0.46142317919E+02  0.10000001442E+02 0.  0.
        -12    1    1    2    0    0 -0.17256362729E+02 -0.25519577109E+02 -0.32864610201E+02  0.45045682081E+02  0.00000000000E+00 0.  1.
         11    1    3    3    0    0  0.14386590980E+02  0.17209747939E+02  0.22829808488E+02  0.32005461721E+02  0.51100000000E-03 0. -1.
        -11    1    3    3    0    0  0.25755031988E+01  0.88958600854E+01  0.96567415478E+01  0.13379917824E+02  0.51100000000E-03 0.  1.
         12    1    3    3    0    0  0.29426855080E+00 -0.58603091540E+00  0.37806016512E+00  0.75693837414E+00  0.00000000000E+00 0. -1.
</event>
<event>
 7    1  0.4081218E-008  0.4614232E+02  0.7816164E-02  0.1320468E+00
        -11   -1    0    0    0    0  0.00000000000E+00  0.00000000000E+00  0.45593999997E+02  0.45594000000E+02  0.51100000000E-03 0.  1.
         11   -1    0    0    0    0 -0.00000000000E+00 -0.00000000000E+00 -0.45593999997E+02  0.45594000000E+02  0.51100000000E-03 0. -1.
    9900012    2    1    2    0    0  0.26638158139E+02 -0.15263240267E+02 -0.32962942012E+02  0.46142317426E+02  0.99999969474E+01 0.  0.
        -12    1    1    2    0    0 -0.26638158139E+02  0.15263240267E+02  0.32962942012E+02  0.45045682574E+02  0.00000000000E+00 0.  1.
         11    1    3    3    0    0  0.37871176749E+01 -0.24996110345E+01 -0.28516205369E+01  0.53592961809E+01  0.51100000000E-03 0.  1.
        -11    1    3    3    0    0  0.48415791879E+01 -0.63233812585E+01 -0.58117268313E+01  0.98591180435E+01  0.51100000000E-03 0. -1.
         12    1    3    3    0    0  0.18009461276E+02 -0.64402479743E+01 -0.24299594643E+02  0.30923903202E+02  0.00000000000E+00 0. -1.
</event>
<event>
 7    1  0.4081218E-008  0.4614231E+02  0.7816164E-02  0.1320468E+00
        -11   -1    0    0    0    0  0.00000000000E+00  0.00000000000E+00  0.45593999997E+02  0.45594000000E+02  0.51100000000E-03 0.  1.
         11   -1    0    0    0    0 -0.00000000000E+00 -0.00000000000E+00 -0.45593999997E+02  0.45594000000E+02  0.51100000000E-03 0. -1.
    9900012    2    1    2    0    0  0.29218752678E+02  0.25538086332E+01 -0.34188541421E+02  0.46142314179E+02  0.99999673384E+01 0.  0.
        -12    1    1    2    0    0 -0.29218752678E+02 -0.25538086332E+01  0.34188541421E+02  0.45045685821E+02  0.00000000000E+00 0.  1.
         11    1    3    3    0    0  0.11381329184E+02  0.79265133174E+00 -0.12062437926E+02  0.16603173163E+02  0.51100000000E-03 0. -1.
        -11    1    3    3    0    0  0.83564647605E+01  0.14320441876E+01 -0.46892206542E+01  0.96886554513E+01  0.51100000000E-03 0.  1.
        -12    1    3    3    0    0  0.94809587338E+01  0.32911311393E+00 -0.17436882841E+02  0.19850485565E+02  0.00000000000E+00 0.  1.
</event>
<event>
 7    1  0.4081218E-008  0.4614231E+02  0.7816164E-02  0.1320468E+00
        -11   -1    0    0    0    0  0.00000000000E+00  0.00000000000E+00  0.45593999997E+02  0.45594000000E+02  0.51100000000E-03 0.  1.
         11   -1    0    0    0    0 -0.00000000000E+00 -0.00000000000E+00 -0.45593999997E+02  0.45594000000E+02  0.51100000000E-03 0. -1.
    9900012    2    1    2    0    0  0.14594404495E+02 -0.34487634758E+02 -0.25034382211E+02  0.46142313342E+02  0.99999597066E+01 0.  0.
        -12    1    1    2    0    0 -0.14594404495E+02  0.34487634758E+02  0.25034382211E+02  0.45045686658E+02  0.00000000000E+00 0.  1.
         11    1    3    3    0    0  0.55055954804E+01 -0.14274599104E+02 -0.13052711861E+02  0.20110918635E+02  0.51100000000E-03 0. -1.
        -11    1    3    3    0    0  0.14170444821E+01 -0.10774589080E+02 -0.67336292121E+01  0.12784425976E+02  0.51100000000E-03 0.  1.
         12    1    3    3    0    0  0.76717645329E+01 -0.94384465739E+01 -0.52480411380E+01  0.13246968731E+02  0.00000000000E+00 0. -1.
</event>
<event>
 7    1  0.4081218E-008  0.4614232E+02  0.7816164E-02  0.1320468E+00
        -11   -1    0    0    0    0  0.00000000000E+00  0.00000000000E+00  0.45593999997E+02  0.45594000000E+02  0.51100000000E-03 0. -1.
         11   -1    0    0    0    0 -0.00000000000E+00 -0.00000000000E+00 -0.45593999997E+02  0.45594000000E+02  0.51100000000E-03 0.  1.
    9900012    2    1    2    0    0 -0.42327352741E+02  0.12867997790E+02  0.84807615678E+01  0.46142317921E+02  0.10000001455E+02 0.  0.
        -12    1    1    2    0    0  0.42327352741E+02 -0.12867997790E+02 -0.84807615678E+01  0.45045682079E+02  0.00000000000E+00 0.  1.
         11    1    3    3    0    0 -0.21425614160E+01  0.90541680612E+00 -0.32165137980E+00  0.23481500986E+01  0.51100000000E-03 0. -1.
        -11    1    3    3    0    0 -0.85127233708E+01  0.11830743768E+01  0.54351851955E+01  0.10168941073E+02  0.51100000000E-03 0.  1.
        -12    1    3    3    0    0 -0.31672067955E+02  0.10779506607E+02  0.33672277520E+01  0.33625226749E+02  0.00000000000E+00 0.  1.
</event>
<event>
 7    1  0.4081218E-008  0.4614232E+02  0.7816164E-02  0.1320468E+00
        -11   -1    0    0    0    0  0.00000000000E+00  0.00000000000E+00  0.45593999997E+02  0.45594000000E+02  0.51100000000E-03 0. -1.
         11   -1    0    0    0    0 -0.00000000000E+00 -0.00000000000E+00 -0.45593999997E+02  0.45594000000E+02  0.51100000000E-03 0.  1.
    9900012    2    1    2    0    0 -0.51516840573E+01 -0.40419633519E+02  0.19204865567E+02  0.46142317811E+02  0.10000000456E+02 0.  0.
        -12    1    1    2    0    0  0.51516840573E+01  0.40419633519E+02 -0.19204865567E+02  0.45045682189E+02  0.00000000000E+00 0.  1.
         11    1    3    3    0    0 -0.11812622675E+01 -0.11348723826E+02  0.82155231459E+01  0.14060004760E+02  0.51100000000E-03 0. -1.
        -11    1    3    3    0    0 -0.34533654073E+01 -0.29205533959E+02  0.11250634586E+02  0.31487548735E+02  0.51100000000E-03 0.  1.
        -12    1    3    3    0    0 -0.51705638252E+00  0.13462426700E+00 -0.26129216526E+00  0.59476431601E+00  0.00000000000E+00 0.  1.
</event>
<event>
 7    1  0.4081218E-008  0.4614232E+02  0.7816164E-02  0.1320468E+00
        -11   -1    0    0    0    0  0.00000000000E+00  0.00000000000E+00  0.45593999997E+02  0.45594000000E+02  0.51100000000E-03 0.  1.
         11   -1    0    0    0    0 -0.00000000000E+00 -0.00000000000E+00 -0.45593999997E+02  0.45594000000E+02  0.51100000000E-03 0. -1.
    9900012    2    1    2    0    0 -0.37068426089E+02  0.24217429315E+02  0.82801801789E+01  0.46142317864E+02  0.10000000934E+02 0.  0.
        -12    1    1    2    0    0  0.37068426089E+02 -0.24217429315E+02 -0.82801801789E+01  0.45045682136E+02  0.00000000000E+00 0.  1.
         11    1    3    3    0    0 -0.12834196347E+00 -0.11165991332E+00  0.50268315232E+00  0.53068842890E+00  0.51100000000E-03 0.  1.
        -11    1    3    3    0    0 -0.89339852163E+00  0.21833474719E+00 -0.10071600968E+01  0.13638924818E+01  0.51100000000E-03 0. -1.
         12    1    3    3    0    0 -0.36046685604E+02  0.24110754481E+02  0.87846571234E+01  0.44247736953E+02  0.00000000000E+00 0. -1.
</event>
<event>
 7    1  0.4081218E-008  0.4614232E+02  0.7816164E-02  0.1320468E+00
        -11   -1    0    0    0    0  0.00000000000E+00  0.00000000000E+00  0.45593999997E+02  0.45594000000E+02  0.51100000000E-03 0.  1.
         11   -1    0    0    0    0 -0.00000000000E+00 -0.00000000000E+00 -0.45593999997E+02  0.45594000000E+02  0.51100000000E-03 0. -1.
    9900012    2    1    2    0    0 -0.31604467097E+02  0.12005814126E+02 -0.29767963901E+02  0.46142316653E+02  0.99999898992E+01 0.  0.
        -12    1    1    2    0    0  0.31604467097E+02 -0.12005814126E+02  0.29767963901E+02  0.45045683347E+02  0.00000000000E+00 0.  1.
         11    1    3    3    0    0 -0.40166432936E+01 -0.53991561499E+00 -0.22377009242E+01  0.46294965068E+01  0.51100000000E-03 0. -1.
        -11    1    3    3    0    0 -0.18658875336E+01  0.86573326763E+00 -0.49078534492E+01  0.53214712362E+01  0.51100000000E-03 0.  1.
         12    1    3    3    0    0 -0.25721936270E+02  0.11679996473E+02 -0.22622409528E+02  0.36191348910E+02  0.00000000000E+00 0. -1.
</event>
<event>
 7    1  0.4081218E-008  0.4614232E+02  0.7816164E-02  0.1320468E+00
        -11   -1    0    0    0    0  0.00000000000E+00  0.00000000000E+00  0.45593999997E+02  0.45594000000E+02  0.51100000000E-03 0.  1.
         11   -1    0    0    0    0 -0.00000000000E+00 -0.00000000000E+00 -0.45593999997E+02  0.45594000000E+02  0.51100000000E-03 0. -1.
    9900012    2    1    2    0    0 -0.12616203255E+02  0.31548903009E+02 -0.29573832652E+02  0.46142318261E+02  0.10000004558E+02 0.  0.
        -12    1    1    2    0    0  0.12616203255E+02 -0.31548903009E+02  0.29573832652E+02  0.45045681739E+02  0.00000000000E+00 0.  1.
         11    1    3    3    0    0 -0.11301471499E+02  0.27929135521E+02 -0.26281293180E+02  0.39980823410E+02  0.51100000000E-03 0. -1.
        -11    1    3    3    0    0 -0.23816439909E+01  0.32761819025E+01 -0.28677902838E+01  0.49628436738E+01  0.51100000000E-03 0.  1.
        -12    1    3    3    0    0  0.10669122356E+01  0.34358558476E+00 -0.42474918776E+00  0.11986511774E+01  0.00000000000E+00 0.  1.
</event>
<event>
 7    1  0.4081218E-008  0.4614232E+02  0.7816164E-02  0.1320468E+00
        -11   -1    0    0    0    0  0.00000000000E+00  0.00000000000E+00  0.45593999997E+02  0.45594000000E+02  0.51100000000E-03 0. -1.
         11   -1    0    0    0    0 -0.00000000000E+00 -0.00000000000E+00 -0.45593999997E+02  0.45594000000E+02  0.51100000000E-03 0.  1.
    9900012    2    1    2    0    0 -0.43614864918E+02 -0.11010640045E+02  0.23712492060E+01  0.46142318090E+02  0.10000002995E+02 0.  0.
        -12    1    1    2    0    0  0.43614864918E+02  0.11010640045E+02 -0.23712492060E+01  0.45045681910E+02  0.00000000000E+00 0.  1.
         11    1    3    3    0    0 -0.13463092666E+02 -0.63896803584E+01  0.15591076117E+01  0.14983781099E+02  0.51100000000E-03 0. -1.
        -11    1    3    3    0    0 -0.26070948172E+01 -0.12270459232E+01 -0.16088710430E+01  0.33001592958E+01  0.51100000000E-03 0.  1.
         12    1    3    3    0    0 -0.27544677434E+02 -0.33939137637E+01  0.24210126373E+01  0.27858377695E+02  0.00000000000E+00 0. -1.
</event>
<event>
 7    1  0.4081218E-008  0.4614232E+02  0.7816164E-02  0.1320468E+00
        -11   -1    0    0    0    0  0.00000000000E+00  0.00000000000E+00  0.45593999997E+02  0.45594000000E+02  0.51100000000E-03 0.  1.
         11   -1    0    0    0    0 -0.00000000000E+00 -0.00000000000E+00 -0.45593999997E+02  0.45594000000E+02  0.51100000000E-03 0. -1.
    9900012    2    1    2    0    0 -0.10780610138E+02  0.38078388016E+02 -0.21515769087E+02  0.46142317541E+02  0.99999979896E+01 0.  0.
        -12    1    1    2    0    0  0.10780610138E+02 -0.38078388016E+02  0.21515769087E+02  0.45045682459E+02  0.00000000000E+00 0.  1.
         11    1    3    3    0    0 -0.38914934874E+01  0.16377962346E+02 -0.55320879134E+01  0.17719632308E+02  0.51100000000E-03 0. -1.
        -11    1    3    3    0    0 -0.49403293875E+01  0.64382374581E+01 -0.56556768031E+01  0.98916346670E+01  0.51100000000E-03 0.  1.
        -12    1    3    3    0    0 -0.19487872627E+01  0.15262188211E+02 -0.10328004370E+02  0.18531050566E+02  0.00000000000E+00 0.  1.
</event>
<event>
 7    1  0.4081218E-008  0.4614232E+02  0.7816164E-02  0.1320468E+00
        -11   -1    0    0    0    0  0.00000000000E+00  0.00000000000E+00  0.45593999997E+02  0.45594000000E+02  0.51100000000E-03 0. -1.
         11   -1    0    0    0    0 -0.00000000000E+00 -0.00000000000E+00 -0.45593999997E+02  0.45594000000E+02  0.51100000000E-03 0.  1.
    9900012    2    1    2    0    0  0.36180005689E+01  0.44895756287E+02 -0.62819658534E+00  0.46142317725E+02  0.99999996701E+01 0.  0.
        -12    1    1    2    0    0 -0.36180005689E+01 -0.44895756287E+02  0.62819658534E+00  0.45045682275E+02  0.00000000000E+00 0.  1.
         11    1    3    3    0    0  0.19945698169E+01  0.16612326199E+02 -0.42558812693E+01  0.17264420527E+02  0.51100000000E-03 0. -1.
        -11    1    3    3    0    0  0.20503815609E+01  0.16901965139E+02  0.36291998982E+00  0.17029744604E+02  0.51100000000E-03 0.  1.
        -12    1    3    3    0    0 -0.42695080886E+00  0.11381464949E+02  0.32647646942E+01  0.11848152594E+02  0.00000000000E+00 0.  1.
</event>
<event>
 7    1  0.4081218E-008  0.4614232E+02  0.7816164E-02  0.1320468E+00
        -11   -1    0    0    0    0  0.00000000000E+00  0.00000000000E+00  0.45593999997E+02  0.45594000000E+02  0.51100000000E-03 0.  1.
         11   -1    0    0    0    0 -0.00000000000E+00 -0.00000000000E+00 -0.45593999997E+02  0.45594000000E+02  0.51100000000E-03 0. -1.
    9900012    2    1    2    0    0 -0.40649273194E+02 -0.19353188767E+02  0.14844582203E+01  0.46142323816E+02  0.10000055213E+02 0.  0.
        -12    1    1    2    0    0  0.40649273194E+02  0.19353188767E+02 -0.14844582203E+01  0.45045676184E+02  0.00000000000E+00 0.  1.
         11    1    3    3    0    0 -0.27538206888E+02 -0.16953708781E+02  0.13961268135E+01  0.32368661547E+02  0.51100000000E-03 0. -1.
        -11    1    3    3    0    0 -0.54665927219E+01 -0.12137059244E+01  0.17392057180E+01  0.58635786725E+01  0.51100000000E-03 0.  1.
         12    1    3    3    0    0 -0.76444735845E+01 -0.11857740623E+01 -0.16508743112E+01  0.79100835964E+01  0.00000000000E+00 0. -1.
</event>
<event>
 7    1  0.4081218E-008  0.4614232E+02  0.7816164E-02  0.1320468E+00
        -11   -1    0    0    0    0  0.00000000000E+00  0.00000000000E+00  0.45593999997E+02  0.45594000000E+02  0.51100000000E-03 0.  1.
         11   -1    0    0    0    0 -0.00000000000E+00 -0.00000000000E+00 -0.45593999997E+02  0.45594000000E+02  0.51100000000E-03 0. -1.
    9900012    2    1    2    0    0 -0.19784023160E+02 -0.30925879529E+02 -0.26101644439E+02  0.46142318304E+02  0.10000004954E+02 0.  0.
        -12    1    1    2    0    0  0.19784023160E+02  0.30925879529E+02  0.26101644439E+02  0.45045681696E+02  0.00000000000E+00 0.  1.
         11    1    3    3    0    0 -0.67128429658E+01 -0.11288506923E+02 -0.79899263843E+01  0.15373079494E+02  0.51100000000E-03 0. -1.
        -11    1    3    3    0    0  0.43936805779E+00 -0.23001691069E+01 -0.40436956867E+01  0.46728254063E+01  0.51100000000E-03 0.  1.
         12    1    3    3    0    0 -0.13510548252E+02 -0.17337203499E+02 -0.14068022368E+02  0.26096413404E+02  0.00000000000E+00 0. -1.
</event>
<event>
 7    1  0.4081218E-008  0.4614232E+02  0.7816164E-02  0.1320468E+00
        -11   -1    0    0    0    0  0.00000000000E+00  0.00000000000E+00  0.45593999997E+02  0.45594000000E+02  0.51100000000E-03 0.  1.
         11   -1    0    0    0    0 -0.00000000000E+00 -0.00000000000E+00 -0.45593999997E+02  0.45594000000E+02  0.51100000000E-03 0. -1.
    9900012    2    1    2    0    0  0.41221876831E+02  0.16915289085E+02  0.66138731462E+01  0.46142318162E+02  0.10000003654E+02 0.  0.
        -12    1    1    2    0    0 -0.41221876831E+02 -0.16915289085E+02 -0.66138731462E+01  0.45045681838E+02  0.00000000000E+00 0.  1.
         11    1    3    3    0    0  0.21705820321E+02  0.13365590579E+02  0.33966741638E+01  0.25716124182E+02  0.51100000000E-03 0. -1.
        -11    1    3    3    0    0  0.99888598656E+00  0.31017361598E-01 -0.64042668237E+00  0.11869633050E+01  0.51100000000E-03 0.  1.
         12    1    3    3    0    0  0.18517170523E+02  0.35186811450E+01  0.38576256648E+01  0.19239230675E+02  0.00000000000E+00 0. -1.
</event>
<event>
 7    1  0.4081218E-008  0.4614232E+02  0.7816164E-02  0.1320468E+00
        -11   -1    0    0    0    0  0.00000000000E+00  0.00000000000E+00  0.45593999997E+02  0.45594000000E+02  0.51100000000E-03 0.  1.
         11   -1    0    0    0    0 -0.00000000000E+00 -0.00000000000E+00 -0.45593999997E+02  0.45594000000E+02  0.51100000000E-03 0. -1.
    9900012    2    1    2    0    0 -0.23027891240E+02  0.62307204191E+01 -0.38210049400E+02  0.46142317332E+02  0.99999960837E+01 0.  0.
        -12    1    1    2    0    0  0.23027891240E+02 -0.62307204191E+01  0.38210049400E+02  0.45045682668E+02  0.00000000000E+00 0.  1.
         11    1    3    3    0    0 -0.72397280659E+00 -0.16647671814E+01 -0.27397445333E+01  0.32866071810E+01  0.51100000000E-03 0. -1.
        -11    1    3    3    0    0 -0.54809740005E+01  0.18089764257E+01 -0.56265140145E+01  0.80604672271E+01  0.51100000000E-03 0.  1.
         12    1    3    3    0    0 -0.16822944432E+02  0.60865111748E+01 -0.29843790853E+02  0.34795242924E+02  0.00000000000E+00 0. -1.
</event>
<event>
 7    1  0.4081218E-008  0.4614232E+02  0.7816164E-02  0.1320468E+00
        -11   -1    0    0    0    0  0.00000000000E+00  0.00000000000E+00  0.45593999997E+02  0.45594000000E+02  0.51100000000E-03 0. -1.
         11   -1    0    0    0    0 -0.00000000000E+00 -0.00000000000E+00 -0.45593999997E+02  0.45594000000E+02  0.51100000000E-03 0.  1.
    9900012    2    1    2    0    0  0.82488988973E+01 -0.24423069692E+02  0.36940258687E+02  0.46142318986E+02  0.10000011167E+02 0.  0.
        -12    1    1    2    0    0 -0.82488988973E+01  0.24423069692E+02 -0.36940258687E+02  0.45045681014E+02  0.00000000000E+00 0.  1.
         11    1    3    3    0    0 -0.15293497348E+01 -0.36076232456E+01  0.34501398573E+01  0.52208544693E+01  0.51100000000E-03 0. -1.
        -11    1    3    3    0    0  0.41362827371E+01 -0.60445622105E+01  0.73847805197E+01  0.10400987972E+02  0.51100000000E-03 0.  1.
         12    1    3    3    0    0  0.56419658949E+01 -0.14770884236E+02  0.26105338310E+02  0.30520476545E+02  0.00000000000E+00 0. -1.
</event>
<event>
 7    1  0.4081218E-008  0.4614232E+02  0.7816164E-02  0.1320468E+00
        -11   -1    0    0    0    0  0.00000000000E+00  0.00000000000E+00  0.45593999997E+02  0.45594000000E+02  0.51100000000E-03 0.  1.
         11   -1    0    0    0    0 -0.00000000000E+00 -0.00000000000E+00 -0.45593999997E+02  0.45594000000E+02  0.51100000000E-03 0. -1.
    9900012    2    1    2    0    0  0.30854898465E+02 -0.11886480253E+01 -0.32797497524E+02  0.46142317773E+02  0.10000000113E+02 0.  0.
        -12    1    1    2    0    0 -0.30854898465E+02  0.11886480253E+01  0.32797497524E+02  0.45045682227E+02  0.00000000000E+00 0.  1.
         11    1    3    3    0    0  0.10834988204E+02 -0.18243147293E+01 -0.79276722658E+01  0.13548914401E+02  0.51100000000E-03 0. -1.
        -11    1    3    3    0    0  0.72582260487E+01 -0.10304560913E+00 -0.44870661118E+01  0.85338283510E+01  0.51100000000E-03 0.  1.
        -12    1    3    3    0    0  0.12761684212E+02  0.73871231312E+00 -0.20382759147E+02  0.24059575022E+02  0.00000000000E+00 0.  1.
</event>
<event>
 7    1  0.4081218E-008  0.4614232E+02  0.7816164E-02  0.1320468E+00
        -11   -1    0    0    0    0  0.00000000000E+00  0.00000000000E+00  0.45593999997E+02  0.45594000000E+02  0.51100000000E-03 0.  1.
         11   -1    0    0    0    0 -0.00000000000E+00 -0.00000000000E+00 -0.45593999997E+02  0.45594000000E+02  0.51100000000E-03 0. -1.
    9900012    2    1    2    0    0 -0.29478328458E+01  0.16988254969E+02 -0.41615178385E+02  0.46142316551E+02  0.99999889645E+01 0.  0.
        -12    1    1    2    0    0  0.29478328458E+01 -0.16988254969E+02  0.41615178385E+02  0.45045683449E+02  0.00000000000E+00 0.  1.
         11    1    3    3    0    0  0.16449923528E+01  0.67188053672E+01 -0.14291812666E+02  0.15877791249E+02  0.51100000000E-03 0. -1.
        -11    1    3    3    0    0 -0.52139489872E+01  0.82391387767E+01 -0.15945931398E+02  0.18690676827E+02  0.51100000000E-03 0.  1.
        -12    1    3    3    0    0  0.62112378856E+00  0.20303108255E+01 -0.11377434321E+02  0.11573848475E+02  0.00000000000E+00 0.  1.
</event>
<event>
 7    1  0.4081218E-008  0.4614232E+02  0.7816164E-02  0.1320468E+00
        -11   -1    0    0    0    0  0.00000000000E+00  0.00000000000E+00  0.45593999997E+02  0.45594000000E+02  0.51100000000E-03 0.  1.
         11   -1    0    0    0    0 -0.00000000000E+00 -0.00000000000E+00 -0.45593999997E+02  0.45594000000E+02  0.51100000000E-03 0. -1.
    9900012    2    1    2    0    0 -0.29361033379E+02  0.12597500167E+02 -0.31754467462E+02  0.46142317684E+02  0.99999992981E+01 0.  0.
        -12    1    1    2    0    0  0.29361033379E+02 -0.12597500167E+02  0.31754467462E+02  0.45045682316E+02  0.00000000000E+00 0.  1.
         11    1    3    3    0    0 -0.12876335123E+02  0.23877370387E+01 -0.11645039567E+02  0.17524504020E+02  0.51100000000E-03 0. -1.
        -11    1    3    3    0    0 -0.78955436735E+01  0.77574630188E+01 -0.13756252615E+02  0.17656509527E+02  0.51100000000E-03 0.  1.
         12    1    3    3    0    0 -0.85891545824E+01  0.24523001099E+01 -0.63531752792E+01  0.10961304138E+02  0.00000000000E+00 0. -1.
</event>
<event>
 7    1  0.4081218E-008  0.4614232E+02  0.7816164E-02  0.1320468E+00
        -11   -1    0    0    0    0  0.00000000000E+00  0.00000000000E+00  0.45593999997E+02  0.45594000000E+02  0.51100000000E-03 0.  1.
         11   -1    0    0    0    0 -0.00000000000E+00 -0.00000000000E+00 -0.45593999997E+02  0.45594000000E+02  0.51100000000E-03 0. -1.
    9900012    2    1    2    0    0  0.20339955659E+02 -0.17343856294E+02 -0.36257281042E+02  0.46142316789E+02  0.99999911370E+01 0.  0.
        -12    1    1    2    0    0 -0.20339955659E+02  0.17343856294E+02  0.36257281042E+02  0.45045683211E+02  0.00000000000E+00 0.  1.
         11    1    3    3    0    0  0.84395038616E+01 -0.65365578721E+01 -0.10973733535E+02  0.15309299207E+02  0.51100000000E-03 0. -1.
        -11    1    3    3    0    0  0.76686973228E+01 -0.22136372410E+01 -0.99879930456E+01  0.12785504050E+02  0.51100000000E-03 0.  1.
         12    1    3    3    0    0  0.42317544748E+01 -0.85936611809E+01 -0.15295554462E+02  0.18047513533E+02  0.00000000000E+00 0. -1.
</event>
<event>
 7    1  0.4081218E-008  0.4614232E+02  0.7816164E-02  0.1320468E+00
        -11   -1    0    0    0    0  0.00000000000E+00  0.00000000000E+00  0.45593999997E+02  0.45594000000E+02  0.51100000000E-03 0.  1.
         11   -1    0    0    0    0 -0.00000000000E+00 -0.00000000000E+00 -0.45593999997E+02  0.45594000000E+02  0.51100000000E-03 0. -1.
    9900012    2    1    2    0    0 -0.25732480882E+02  0.28892406039E+02 -0.23069064669E+02  0.46142318257E+02  0.10000004518E+02 0.  0.
        -12    1    1    2    0    0  0.25732480882E+02 -0.28892406039E+02  0.23069064669E+02  0.45045681743E+02  0.00000000000E+00 0.  1.
         11    1    3    3    0    0 -0.13826714314E+01  0.45958557378E+01 -0.50136927200E+01  0.69405176465E+01  0.51100000000E-03 0. -1.
        -11    1    3    3    0    0 -0.16439984021E+02  0.15724715393E+02 -0.91225966344E+01  0.24510436928E+02  0.51100000000E-03 0.  1.
         12    1    3    3    0    0 -0.79098254299E+01  0.85718349078E+01 -0.89327753146E+01  0.14691363682E+02  0.00000000000E+00 0. -1.
</event>
<event>
 7    1  0.4081218E-008  0.4614232E+02  0.7816164E-02  0.1320468E+00
        -11   -1    0    0    0    0  0.00000000000E+00  0.00000000000E+00  0.45593999997E+02  0.45594000000E+02  0.51100000000E-03 0.  1.
         11   -1    0    0    0    0 -0.00000000000E+00 -0.00000000000E+00 -0.45593999997E+02  0.45594000000E+02  0.51100000000E-03 0. -1.
    9900012    2    1    2    0    0  0.42331764272E+02  0.14249795270E+02 -0.58376935639E+01  0.46142316547E+02  0.99999889291E+01 0.  0.
        -12    1    1    2    0    0 -0.42331764272E+02 -0.14249795270E+02  0.58376935639E+01  0.45045683453E+02  0.00000000000E+00 0.  1.
         11    1    3    3    0    0  0.15994074060E+02  0.95351539590E+01 -0.64180235785E+00  0.18631733054E+02  0.51100000000E-03 0. -1.
        -11    1    3    3    0    0  0.55856863142E+01  0.12201538985E+01  0.41139461428E+00  0.57321822133E+01  0.51100000000E-03 0.  1.
         12    1    3    3    0    0  0.20752003898E+02  0.34944874126E+01 -0.56072858203E+01  0.21778401280E+02  0.00000000000E+00 0. -1.
</event>
<event>
 7    1  0.4081218E-008  0.4614232E+02  0.7816164E-02  0.1320468E+00
        -11   -1    0    0    0    0  0.00000000000E+00  0.00000000000E+00  0.45593999997E+02  0.45594000000E+02  0.51100000000E-03 0. -1.
         11   -1    0    0    0    0 -0.00000000000E+00 -0.00000000000E+00 -0.45593999997E+02  0.45594000000E+02  0.51100000000E-03 0.  1.
    9900012    2    1    2    0    0 -0.22064306023E+02 -0.24587918556E+02  0.30622118307E+02  0.46142317978E+02  0.10000001980E+02 0.  0.
        -12    1    1    2    0    0  0.22064306023E+02  0.24587918556E+02 -0.30622118307E+02  0.45045682022E+02  0.00000000000E+00 0.  1.
         11    1    3    3    0    0 -0.10554199753E+02 -0.11239507901E+02  0.18637984484E+02  0.24188677851E+02  0.51100000000E-03 0. -1.
        -11    1    3    3    0    0 -0.17253064339E+01 -0.38037893227E+01  0.52705893340E+01  0.67249243632E+01  0.51100000000E-03 0.  1.
         12    1    3    3    0    0 -0.97847998367E+01 -0.95446213322E+01  0.67135444886E+01  0.15228715764E+02  0.00000000000E+00 0. -1.
</event>
<event>
 7    1  0.4081218E-008  0.4614232E+02  0.7816164E-02  0.1320468E+00
        -11   -1    0    0    0    0  0.00000000000E+00  0.00000000000E+00  0.45593999997E+02  0.45594000000E+02  0.51100000000E-03 0. -1.
         11   -1    0    0    0    0 -0.00000000000E+00 -0.00000000000E+00 -0.45593999997E+02  0.45594000000E+02  0.51100000000E-03 0.  1.
    9900012    2    1    2    0    0 -0.42284091296E+02 -0.10891988087E+02 -0.11069494608E+02  0.46142317719E+02  0.99999996202E+01 0.  0.
        -12    1    1    2    0    0  0.42284091296E+02  0.10891988087E+02  0.11069494608E+02  0.45045682281E+02  0.00000000000E+00 0.  1.
         11    1    3    3    0    0 -0.99007968080E+01 -0.14024921132E+01 -0.29705206749E+01  0.10431526969E+02  0.51100000000E-03 0. -1.
        -11    1    3    3    0    0 -0.23305451836E+02 -0.97740789123E+01 -0.34458259280E+01  0.25505889917E+02  0.51100000000E-03 0.  1.
        -12    1    3    3    0    0 -0.90778426522E+01  0.28458293859E+00 -0.46531480049E+01  0.10204900834E+02  0.00000000000E+00 0.  1.
</event>
<event>
 7    1  0.4081218E-008  0.4614232E+02  0.7816164E-02  0.1320468E+00
        -11   -1    0    0    0    0  0.00000000000E+00  0.00000000000E+00  0.45593999997E+02  0.45594000000E+02  0.51100000000E-03 0. -1.
         11   -1    0    0    0    0 -0.00000000000E+00 -0.00000000000E+00 -0.45593999997E+02  0.45594000000E+02  0.51100000000E-03 0.  1.
    9900012    2    1    2    0    0  0.40816376545E+02 -0.18851361830E+02  0.27862042126E+01  0.46142319063E+02  0.10000011874E+02 0.  0.
        -12    1    1    2    0    0 -0.40816376545E+02  0.18851361830E+02 -0.27862042126E+01  0.45045680937E+02  0.00000000000E+00 0.  1.
         11    1    3    3    0    0  0.26762144642E+02 -0.11982705402E+02  0.21294620848E+01  0.29399527609E+02  0.51100000000E-03 0. -1.
        -11    1    3    3    0    0  0.10052099711E+02 -0.68428865882E+01  0.23705375141E+01  0.12389078005E+02  0.51100000000E-03 0.  1.
         12    1    3    3    0    0  0.40021321923E+01 -0.25769839799E-01 -0.17137953862E+01  0.43537134489E+01  0.00000000000E+00 0. -1.
</event>
<event>
 7    1  0.4081218E-008  0.4614232E+02  0.7816164E-02  0.1320468E+00
        -11   -1    0    0    0    0  0.00000000000E+00  0.00000000000E+00  0.45593999997E+02  0.45594000000E+02  0.51100000000E-03 0.  1.
         11   -1    0    0    0    0 -0.00000000000E+00 -0.00000000000E+00 -0.45593999997E+02  0.45594000000E+02  0.51100000000E-03 0. -1.
    9900012    2    1    2    0    0 -0.27159720720E+02 -0.27762065641E+02 -0.22819530652E+02  0.46142315441E+02  0.99999788431E+01 0.  0.
        -12    1    1    2    0    0  0.27159720720E+02  0.27762065641E+02  0.22819530652E+02  0.45045684559E+02  0.00000000000E+00 0.  1.
         11    1    3    3    0    0 -0.79212790588E+00 -0.29904269951E+01 -0.32230825686E+01  0.44674804685E+01  0.51100000000E-03 0. -1.
        -11    1    3    3    0    0  0.29015677555E-01  0.17998070784E+00  0.22965148549E+00  0.29321499049E+00  0.51100000000E-03 0.  1.
         12    1    3    3    0    0 -0.26396608492E+02 -0.24951619353E+02 -0.19826099569E+02  0.41381619982E+02  0.00000000000E+00 0. -1.
</event>
<event>
 7    1  0.4081218E-008  0.4614232E+02  0.7816164E-02  0.1320468E+00
        -11   -1    0    0    0    0  0.00000000000E+00  0.00000000000E+00  0.45593999997E+02  0.45594000000E+02  0.51100000000E-03 0.  1.
         11   -1    0    0    0    0 -0.00000000000E+00 -0.00000000000E+00 -0.45593999997E+02  0.45594000000E+02  0.51100000000E-03 0. -1.
    9900012    2    1    2    0    0  0.11401307238E+02  0.41984701431E+02 -0.11679408482E+02  0.46142317149E+02  0.99999944227E+01 0.  0.
        -12    1    1    2    0    0 -0.11401307238E+02 -0.41984701431E+02  0.11679408482E+02  0.45045682851E+02  0.00000000000E+00 0.  1.
         11    1    3    3    0    0  0.14504580116E+00  0.67036225025E+01 -0.52948196551E+01  0.85436940711E+01  0.51100000000E-03 0. -1.
        -11    1    3    3    0    0  0.41145619750E+01  0.11139058866E+02 -0.18788356603E+01  0.12022407261E+02  0.51100000000E-03 0.  1.
         12    1    3    3    0    0  0.71416994621E+01  0.24142020063E+02 -0.45057531662E+01  0.25576215817E+02  0.00000000000E+00 0. -1.
</event>
<event>
 7    1  0.4081218E-008  0.4614232E+02  0.7816164E-02  0.1320468E+00
        -11   -1    0    0    0    0  0.00000000000E+00  0.00000000000E+00  0.45593999997E+02  0.45594000000E+02  0.51100000000E-03 0.  1.
         11   -1    0    0    0    0 -0.00000000000E+00 -0.00000000000E+00 -0.45593999997E+02  0.45594000000E+02  0.51100000000E-03 0. -1.
    9900012    2    1    2    0    0  0.24613461179E+02  0.28908797354E+02 -0.24239893638E+02  0.46142317863E+02  0.10000000925E+02 0.  0.
        -12    1    1    2    0    0 -0.24613461179E+02 -0.28908797354E+02  0.24239893638E+02  0.45045682137E+02  0.00000000000E+00 0.  1.
         11    1    3    3    0    0  0.19819026434E+02  0.23916699465E+02 -0.19305318527E+02  0.36571814910E+02  0.51100000000E-03 0. -1.
        -11    1    3    3    0    0  0.21944640219E+00  0.22936370045E+01 -0.32777695520E+01  0.40065822005E+01  0.51100000000E-03 0.  1.
         12    1    3    3    0    0  0.45749883426E+01  0.26984608840E+01 -0.16568055594E+01  0.55639207524E+01  0.00000000000E+00 0. -1.
</event>
<event>
 7    1  0.4081218E-008  0.4614232E+02  0.7816164E-02  0.1320468E+00
        -11   -1    0    0    0    0  0.00000000000E+00  0.00000000000E+00  0.45593999997E+02  0.45594000000E+02  0.51100000000E-03 0. -1.
         11   -1    0    0    0    0 -0.00000000000E+00 -0.00000000000E+00 -0.45593999997E+02  0.45594000000E+02  0.51100000000E-03 0.  1.
    9900012    2    1    2    0    0 -0.10928843456E+01 -0.36675760741E+02  0.26130589144E+02  0.46142317508E+02  0.99999976955E+01 0.  0.
        -12    1    1    2    0    0  0.10928843456E+01  0.36675760741E+02 -0.26130589144E+02  0.45045682492E+02  0.00000000000E+00 0.  1.
         11    1    3    3    0    0  0.56678848991E-02 -0.46950765918E+00 -0.44598996677E+00  0.64759314274E+00  0.51100000000E-03 0.  1.
        -11    1    3    3    0    0 -0.25531692725E+01 -0.69940871521E+01  0.34403775539E+01  0.82019586929E+01  0.51100000000E-03 0. -1.
         12    1    3    3    0    0  0.14546170420E+01 -0.29212165930E+02  0.23136201557E+02  0.37292765673E+02  0.00000000000E+00 0. -1.
</event>
<event>
 7    1  0.4081218E-008  0.4614232E+02  0.7816164E-02  0.1320468E+00
        -11   -1    0    0    0    0  0.00000000000E+00  0.00000000000E+00  0.45593999997E+02  0.45594000000E+02  0.51100000000E-03 0. -1.
         11   -1    0    0    0    0 -0.00000000000E+00 -0.00000000000E+00 -0.45593999997E+02  0.45594000000E+02  0.51100000000E-03 0.  1.
    9900012    2    1    2    0    0  0.85000945820E+01 -0.38436920781E+02  0.21896689613E+02  0.46142317598E+02  0.99999985155E+01 0.  0.
        -12    1    1    2    0    0 -0.85000945820E+01  0.38436920781E+02 -0.21896689613E+02  0.45045682402E+02  0.00000000000E+00 0.  1.
         11    1    3    3    0    0  0.78979183967E+01 -0.32230648985E+02  0.18975110486E+02  0.38226256254E+02  0.51100000000E-03 0. -1.
        -11    1    3    3    0    0 -0.77902948909E+00 -0.15551324801E+01 -0.68622077414E+00  0.18698190254E+01  0.51100000000E-03 0.  1.
         12    1    3    3    0    0  0.13812056743E+01 -0.46511393158E+01  0.36077999011E+01  0.60462423187E+01  0.00000000000E+00 0. -1.
</event>
<event>
 7    1  0.4081218E-008  0.4614232E+02  0.7816164E-02  0.1320468E+00
        -11   -1    0    0    0    0  0.00000000000E+00  0.00000000000E+00  0.45593999997E+02  0.45594000000E+02  0.51100000000E-03 0.  1.
         11   -1    0    0    0    0 -0.00000000000E+00 -0.00000000000E+00 -0.45593999997E+02  0.45594000000E+02  0.51100000000E-03 0. -1.
    9900012    2    1    2    0    0 -0.37259937982E+02  0.51468285261E-01 -0.25314183478E+02  0.46142317492E+02  0.99999975500E+01 0.  0.
        -12    1    1    2    0    0  0.37259937982E+02 -0.51468285261E-01  0.25314183478E+02  0.45045682508E+02  0.00000000000E+00 0.  1.
         11    1    3    3    0    0 -0.15408758311E+02 -0.84374004469E+00 -0.96949714123E+01  0.18224549402E+02  0.51100000000E-03 0. -1.
        -11    1    3    3    0    0 -0.13407587131E+02 -0.16819790701E+01 -0.57753342599E+01  0.14695132947E+02  0.51100000000E-03 0.  1.
         12    1    3    3    0    0 -0.84435925405E+01  0.25771874001E+01 -0.98438778060E+01  0.13222635144E+02  0.00000000000E+00 0. -1.
</event>
<event>
 7    1  0.4081218E-008  0.4614232E+02  0.7816164E-02  0.1320468E+00
        -11   -1    0    0    0    0  0.00000000000E+00  0.00000000000E+00  0.45593999997E+02  0.45594000000E+02  0.51100000000E-03 0. -1.
         11   -1    0    0    0    0 -0.00000000000E+00 -0.00000000000E+00 -0.45593999997E+02  0.45594000000E+02  0.51100000000E-03 0.  1.
    9900012    2    1    2    0    0  0.41041470356E+02  0.47156137325E+01  0.17957567023E+02  0.46142317463E+02  0.99999972814E+01 0.  0.
        -12    1    1    2    0    0 -0.41041470356E+02 -0.47156137325E+01 -0.17957567023E+02  0.45045682537E+02  0.00000000000E+00 0.  1.
         11    1    3    3    0    0  0.23059128456E+02  0.81715895476E+00  0.68198480901E+01  0.24060371613E+02  0.51100000000E-03 0. -1.
        -11    1    3    3    0    0  0.42183320776E-01  0.52314431553E+00  0.11714846463E+01  0.12836806242E+01  0.51100000000E-03 0.  1.
         12    1    3    3    0    0  0.17940158579E+02  0.33753104622E+01  0.99662342863E+01  0.20798265226E+02  0.00000000000E+00 0. -1.
</event>
<event>
 7    1  0.4081218E-008  0.4614232E+02  0.7816164E-02  0.1320468E+00
        -11   -1    0    0    0    0  0.00000000000E+00  0.00000000000E+00  0.45593999997E+02  0.45594000000E+02  0.51100000000E-03 0.  1.
         11   -1    0    0    0    0 -0.00000000000E+00 -0.00000000000E+00 -0.45593999997E+02  0.45594000000E+02  0.51100000000E-03 0. -1.
    9900012    2    1    2    0    0 -0.40579813866E+02  0.47613939793E+01 -0.18966326057E+02  0.46142315522E+02  0.99999795835E+01 0.  0.
        -12    1    1    2    0    0  0.40579813866E+02 -0.47613939793E+01  0.18966326057E+02  0.45045684478E+02  0.00000000000E+00 0.  1.
         11    1    3    3    0    0 -0.34365411016E+02  0.36743016880E+00 -0.16390260792E+02  0.38075676334E+02  0.51100000000E-03 0. -1.
        -11    1    3    3    0    0 -0.14631493492E+01  0.69024004403E+00 -0.62445879237E+00  0.17341240961E+01  0.51100000000E-03 0.  1.
         12    1    3    3    0    0 -0.47512535008E+01  0.37037237665E+01 -0.19516064718E+01  0.63325150918E+01  0.00000000000E+00 0. -1.
</event>
<event>
 7    1  0.4081218E-008  0.4614232E+02  0.7816164E-02  0.1320468E+00
        -11   -1    0    0    0    0  0.00000000000E+00  0.00000000000E+00  0.45593999997E+02  0.45594000000E+02  0.51100000000E-03 0.  1.
         11   -1    0    0    0    0 -0.00000000000E+00 -0.00000000000E+00 -0.45593999997E+02  0.45594000000E+02  0.51100000000E-03 0. -1.
    9900012    2    1    2    0    0 -0.10496057104E+02  0.33479817853E+02 -0.28249743546E+02  0.46142318425E+02  0.10000006049E+02 0.  0.
        -12    1    1    2    0    0  0.10496057104E+02 -0.33479817853E+02  0.28249743546E+02  0.45045681575E+02  0.00000000000E+00 0.  1.
         11    1    3    3    0    0 -0.24537042025E+01  0.78619534492E+01 -0.81041803742E+01  0.11554597187E+02  0.51100000000E-03 0. -1.
        -11    1    3    3    0    0 -0.19317038801E+01  0.18545951448E+02 -0.11866878403E+02  0.22102185374E+02  0.51100000000E-03 0.  1.
        -12    1    3    3    0    0 -0.61106490212E+01  0.70719129552E+01 -0.82786847690E+01  0.12485535864E+02  0.00000000000E+00 0.  1.
</event>
<event>
 7    1  0.4081218E-008  0.4614232E+02  0.7816164E-02  0.1320468E+00
        -11   -1    0    0    0    0  0.00000000000E+00  0.00000000000E+00  0.45593999997E+02  0.45594000000E+02  0.51100000000E-03 0. -1.
         11   -1    0    0    0    0 -0.00000000000E+00 -0.00000000000E+00 -0.45593999997E+02  0.45594000000E+02  0.51100000000E-03 0.  1.
    9900012    2    1    2    0    0  0.34936566692E+01 -0.12188369530E+02  0.43224432117E+02  0.46142317404E+02  0.99999967398E+01 0.  0.
        -12    1    1    2    0    0 -0.34936566692E+01  0.12188369530E+02 -0.43224432117E+02  0.45045682596E+02  0.00000000000E+00 0.  1.
         11    1    3    3    0    0 -0.12966034416E+01 -0.23143062597E+01  0.10385749890E+02  0.10719188168E+02  0.51100000000E-03 0. -1.
        -11    1    3    3    0    0 -0.46425248470E+00 -0.74190045679E+01  0.16922987764E+02  0.18483632605E+02  0.51100000000E-03 0.  1.
         12    1    3    3    0    0  0.52545125955E+01 -0.24550587025E+01  0.15915694464E+02  0.16939496631E+02  0.00000000000E+00 0. -1.
</event>
<event>
 7    1  0.4081218E-008  0.4614232E+02  0.7816164E-02  0.1320468E+00
        -11   -1    0    0    0    0  0.00000000000E+00  0.00000000000E+00  0.45593999997E+02  0.45594000000E+02  0.51100000000E-03 0.  1.
         11   -1    0    0    0    0 -0.00000000000E+00 -0.00000000000E+00 -0.45593999997E+02  0.45594000000E+02  0.51100000000E-03 0. -1.
    9900012    2    1    2    0    0 -0.32799454618E+02 -0.30861608424E+02 -0.93297436544E+00  0.46142317200E+02  0.99999948862E+01 0.  0.
        -12    1    1    2    0    0  0.32799454618E+02  0.30861608424E+02  0.93297436544E+00  0.45045682800E+02  0.00000000000E+00 0.  1.
         11    1    3    3    0    0 -0.17776289732E+02 -0.12832496937E+02  0.36485787051E+00  0.21927210853E+02  0.51100000000E-03 0. -1.
        -11    1    3    3    0    0 -0.60043806243E+01 -0.44132793510E+01 -0.24458765043E+01  0.78429543825E+01  0.51100000000E-03 0.  1.
        -12    1    3    3    0    0 -0.90187842610E+01 -0.13615832136E+02  0.11480442683E+01  0.16372151964E+02  0.00000000000E+00 0.  1.
</event>
<event>
 7    1  0.4081218E-008  0.4614232E+02  0.7816164E-02  0.1320468E+00
        -11   -1    0    0    0    0  0.00000000000E+00  0.00000000000E+00  0.45593999997E+02  0.45594000000E+02  0.51100000000E-03 0. -1.
         11   -1    0    0    0    0 -0.00000000000E+00 -0.00000000000E+00 -0.45593999997E+02  0.45594000000E+02  0.51100000000E-03 0.  1.
    9900012    2    1    2    0    0 -0.28950157928E+02 -0.12898772057E+02  0.32009741263E+02  0.46142317628E+02  0.99999987842E+01 0.  0.
        -12    1    1    2    0    0  0.28950157928E+02  0.12898772057E+02 -0.32009741263E+02  0.45045682372E+02  0.00000000000E+00 0.  1.
         11    1    3    3    0    0 -0.11044695798E+02 -0.73489261750E+01  0.18929905978E+02  0.23115651879E+02  0.51100000000E-03 0. -1.
        -11    1    3    3    0    0 -0.81483990203E+01 -0.11012879986E+01  0.54070530774E+01  0.98410093533E+01  0.51100000000E-03 0.  1.
         12    1    3    3    0    0 -0.97570631094E+01 -0.44485578831E+01  0.76727822078E+01  0.13185656395E+02  0.00000000000E+00 0. -1.
</event>
<event>
 7    1  0.4081218E-008  0.4614232E+02  0.7816164E-02  0.1320468E+00
        -11   -1    0    0    0    0  0.00000000000E+00  0.00000000000E+00  0.45593999997E+02  0.45594000000E+02  0.51100000000E-03 0. -1.
         11   -1    0    0    0    0 -0.00000000000E+00 -0.00000000000E+00 -0.45593999997E+02  0.45594000000E+02  0.51100000000E-03 0.  1.
    9900012    2    1    2    0    0  0.80385706360E+01 -0.24184754307E+02  0.37142867189E+02  0.46142317169E+02  0.99999945965E+01 0.  0.
        -12    1    1    2    0    0 -0.80385706360E+01  0.24184754307E+02 -0.37142867189E+02  0.45045682831E+02  0.00000000000E+00 0.  1.
         11    1    3    3    0    0  0.88521290736E+00 -0.37515756532E+01  0.30799348831E+01  0.49339559096E+01  0.51100000000E-03 0. -1.
        -11    1    3    3    0    0  0.41318822337E+00 -0.16415621294E+01  0.90413636836E+01  0.91984622766E+01  0.51100000000E-03 0.  1.
         12    1    3    3    0    0  0.67401695053E+01 -0.18791616524E+02  0.25021568622E+02  0.32009898982E+02  0.00000000000E+00 0. -1.
</event>
<event>
 7    1  0.4081218E-008  0.4614232E+02  0.7816164E-02  0.1320468E+00
        -11   -1    0    0    0    0  0.00000000000E+00  0.00000000000E+00  0.45593999997E+02  0.45594000000E+02  0.51100000000E-03 0.  1.
         11   -1    0    0    0    0 -0.00000000000E+00 -0.00000000000E+00 -0.45593999997E+02  0.45594000000E+02  0.51100000000E-03 0. -1.
    9900012    2    1    2    0    0  0.24214745140E+02  0.67068551911E+01 -0.37386864629E+02  0.46142318347E+02  0.10000005344E+02 0.  0.
        -12    1    1    2    0    0 -0.24214745140E+02 -0.67068551911E+01  0.37386864629E+02  0.45045681653E+02  0.00000000000E+00 0.  1.
         11    1    3    3    0    0  0.19929200469E+01  0.12335343069E+01 -0.51027034760E+01  0.56152399971E+01  0.51100000000E-03 0. -1.
        -11    1    3    3    0    0  0.34796020240E+01  0.45574256347E+01 -0.75416544106E+01  0.94738751401E+01  0.51100000000E-03 0.  1.
         12    1    3    3    0    0  0.18742223069E+02  0.91589524960E+00 -0.24742506743E+02  0.31053203210E+02  0.00000000000E+00 0. -1.
</event>
<event>
 7    1  0.4081218E-008  0.4614232E+02  0.7816164E-02  0.1320468E+00
        -11   -1    0    0    0    0  0.00000000000E+00  0.00000000000E+00  0.45593999997E+02  0.45594000000E+02  0.51100000000E-03 0. -1.
         11   -1    0    0    0    0 -0.00000000000E+00 -0.00000000000E+00 -0.45593999997E+02  0.45594000000E+02  0.51100000000E-03 0.  1.
    9900012    2    1    2    0    0 -0.17121393845E+02 -0.14185625704E+02  0.39175750410E+02  0.46142317366E+02  0.99999963979E+01 0.  0.
        -12    1    1    2    0    0  0.17121393845E+02  0.14185625704E+02 -0.39175750410E+02  0.45045682634E+02  0.00000000000E+00 0.  1.
         11    1    3    3    0    0 -0.67230313000E+01 -0.32416611777E+01  0.13709461491E+02  0.15609511578E+02  0.51100000000E-03 0. -1.
        -11    1    3    3    0    0 -0.75910684047E+01 -0.37606654361E+01  0.90569518700E+01  0.12401423365E+02  0.51100000000E-03 0.  1.
        -12    1    3    3    0    0 -0.28072941398E+01 -0.71832990905E+01  0.16409337048E+02  0.18131382423E+02  0.00000000000E+00 0.  1.
</event>
<event>
 7    1  0.4081218E-008  0.4614232E+02  0.7816164E-02  0.1320468E+00
        -11   -1    0    0    0    0  0.00000000000E+00  0.00000000000E+00  0.45593999997E+02  0.45594000000E+02  0.51100000000E-03 0.  1.
         11   -1    0    0    0    0 -0.00000000000E+00 -0.00000000000E+00 -0.45593999997E+02  0.45594000000E+02  0.51100000000E-03 0. -1.
    9900012    2    1    2    0    0 -0.16004834960E+02 -0.38678916374E+02 -0.16640318054E+02  0.46142317644E+02  0.99999989354E+01 0.  0.
        -12    1    1    2    0    0  0.16004834960E+02  0.38678916374E+02  0.16640318054E+02  0.45045682356E+02  0.00000000000E+00 0.  1.
         11    1    3    3    0    0 -0.60261928249E+01 -0.81608842141E+01 -0.56696793460E+01  0.11621544444E+02  0.51100000000E-03 0. -1.
        -11    1    3    3    0    0 -0.50355969809E+01 -0.78491293162E+01 -0.14316274045E+01  0.94348092329E+01  0.51100000000E-03 0.  1.
        -12    1    3    3    0    0 -0.49430451547E+01 -0.22668902843E+02 -0.95390113035E+01  0.25085963967E+02  0.00000000000E+00 0.  1.
</event>
<event>
 7    1  0.4081218E-008  0.4614232E+02  0.7816164E-02  0.1320468E+00
        -11   -1    0    0    0    0  0.00000000000E+00  0.00000000000E+00  0.45593999997E+02  0.45594000000E+02  0.51100000000E-03 0.  1.
         11   -1    0    0    0    0 -0.00000000000E+00 -0.00000000000E+00 -0.45593999997E+02  0.45594000000E+02  0.51100000000E-03 0. -1.
    9900012    2    1    2    0    0  0.11134545093E+02  0.36364017736E+02 -0.24141119595E+02  0.46142317236E+02  0.99999952159E+01 0.  0.
        -12    1    1    2    0    0 -0.11134545093E+02 -0.36364017736E+02  0.24141119595E+02  0.45045682764E+02  0.00000000000E+00 0.  1.
         11    1    3    3    0    0  0.35386198481E+01  0.20561789127E+02 -0.13993299195E+02  0.25122130187E+02  0.51100000000E-03 0. -1.
        -11    1    3    3    0    0  0.43820409099E+01  0.14053283690E+02 -0.85881793189E+01  0.17042707803E+02  0.51100000000E-03 0.  1.
        -12    1    3    3    0    0  0.32138843349E+01  0.17489449199E+01 -0.15596410813E+01  0.39774792461E+01  0.00000000000E+00 0.  1.
</event>
<event>
 7    1  0.4081218E-008  0.4614232E+02  0.7816164E-02  0.1320468E+00
        -11   -1    0    0    0    0  0.00000000000E+00  0.00000000000E+00  0.45593999997E+02  0.45594000000E+02  0.51100000000E-03 0.  1.
         11   -1    0    0    0    0 -0.00000000000E+00 -0.00000000000E+00 -0.45593999997E+02  0.45594000000E+02  0.51100000000E-03 0. -1.
    9900012    2    1    2    0    0 -0.20764119964E+02 -0.11507165872E+02 -0.38282498756E+02  0.46142320348E+02  0.10000023591E+02 0.  0.
        -12    1    1    2    0    0  0.20764119964E+02  0.11507165872E+02  0.38282498756E+02  0.45045679652E+02  0.00000000000E+00 0.  1.
         11    1    3    3    0    0 -0.94366005630E+01 -0.43619849932E+01 -0.18241798577E+02  0.20996179625E+02  0.51100000000E-03 0. -1.
        -11    1    3    3    0    0 -0.11869187688E+02 -0.76305545857E+01 -0.19916337448E+02  0.24408266576E+02  0.51100000000E-03 0.  1.
         12    1    3    3    0    0  0.54166828691E+00  0.48537370648E+00 -0.12436273149E+00  0.73787414711E+00  0.00000000000E+00 0. -1.
</event>
<event>
 7    1  0.4081218E-008  0.4614232E+02  0.7816164E-02  0.1320468E+00
        -11   -1    0    0    0    0  0.00000000000E+00  0.00000000000E+00  0.45593999997E+02  0.45594000000E+02  0.51100000000E-03 0.  1.
         11   -1    0    0    0    0 -0.00000000000E+00 -0.00000000000E+00 -0.45593999997E+02  0.45594000000E+02  0.51100000000E-03 0. -1.
    9900012    2    1    2    0    0  0.27734154232E+02  0.10820003544E+02 -0.33806179030E+02  0.46142317319E+02  0.99999959648E+01 0.  0.
        -12    1    1    2    0    0 -0.27734154232E+02 -0.10820003544E+02  0.33806179030E+02  0.45045682681E+02  0.00000000000E+00 0.  1.
         11    1    3    3    0    0  0.91766011760E+01  0.19345198888E+01 -0.93445632570E+01  0.13239079993E+02  0.51100000000E-03 0. -1.
        -11    1    3    3    0    0  0.11846925595E+02  0.44332368227E+01 -0.91794717797E+01  0.15629009476E+02  0.51100000000E-03 0.  1.
         12    1    3    3    0    0  0.67106274610E+01  0.44522468326E+01 -0.15282143993E+02  0.17274227850E+02  0.00000000000E+00 0. -1.
</event>
<event>
 7    1  0.4081218E-008  0.4614232E+02  0.7816164E-02  0.1320468E+00
        -11   -1    0    0    0    0  0.00000000000E+00  0.00000000000E+00  0.45593999997E+02  0.45594000000E+02  0.51100000000E-03 0. -1.
         11   -1    0    0    0    0 -0.00000000000E+00 -0.00000000000E+00 -0.45593999997E+02  0.45594000000E+02  0.51100000000E-03 0.  1.
    9900012    2    1    2    0    0  0.34860128432E+02  0.61445744455E+01  0.27859093539E+02  0.46142318273E+02  0.10000004672E+02 0.  0.
        -12    1    1    2    0    0 -0.34860128432E+02 -0.61445744455E+01 -0.27859093539E+02  0.45045681727E+02  0.00000000000E+00 0.  1.
         11    1    3    3    0    0  0.98865040916E+01  0.11663993709E+01  0.13415847514E+02  0.16705939525E+02  0.51100000000E-03 0. -1.
        -11    1    3    3    0    0  0.47964579375E+01 -0.12739578029E+00  0.33463803824E+01  0.58498290878E+01  0.51100000000E-03 0.  1.
        -12    1    3    3    0    0  0.20177166403E+02  0.51055708549E+01  0.11096865643E+02  0.23586549661E+02  0.00000000000E+00 0.  1.
</event>
<event>
 7    1  0.4081218E-008  0.4614232E+02  0.7816164E-02  0.1320468E+00
        -11   -1    0    0    0    0  0.00000000000E+00  0.00000000000E+00  0.45593999997E+02  0.45594000000E+02  0.51100000000E-03 0. -1.
         11   -1    0    0    0    0 -0.00000000000E+00 -0.00000000000E+00 -0.45593999997E+02  0.45594000000E+02  0.51100000000E-03 0.  1.
    9900012    2    1    2    0    0  0.42047928382E+02 -0.10950755837E+02  0.11881337163E+02  0.46142317550E+02  0.99999980749E+01 0.  0.
        -12    1    1    2    0    0 -0.42047928382E+02  0.10950755837E+02 -0.11881337163E+02  0.45045682450E+02  0.00000000000E+00 0.  1.
         11    1    3    3    0    0  0.11169413524E+02 -0.51501504961E+01  0.51602369454E+01  0.13338211806E+02  0.51100000000E-03 0. -1.
        -11    1    3    3    0    0  0.26741406253E+02 -0.66493007286E+01  0.73870456185E+01  0.28528660182E+02  0.51100000000E-03 0.  1.
        -12    1    3    3    0    0  0.41371086053E+01  0.84869538734E+00 -0.66594540117E+00  0.42754455616E+01  0.00000000000E+00 0.  1.
</event>
<event>
 7    1  0.4081218E-008  0.4614232E+02  0.7816164E-02  0.1320468E+00
        -11   -1    0    0    0    0  0.00000000000E+00  0.00000000000E+00  0.45593999997E+02  0.45594000000E+02  0.51100000000E-03 0.  1.
         11   -1    0    0    0    0 -0.00000000000E+00 -0.00000000000E+00 -0.45593999997E+02  0.45594000000E+02  0.51100000000E-03 0. -1.
    9900012    2    1    2    0    0  0.17393462904E+02  0.34040066189E+02 -0.23829708374E+02  0.46142315865E+02  0.99999827115E+01 0.  0.
        -12    1    1    2    0    0 -0.17393462904E+02 -0.34040066189E+02  0.23829708374E+02  0.45045684135E+02  0.00000000000E+00 0.  1.
         11    1    3    3    0    0  0.94031847026E+01  0.23693809640E+02 -0.11140007268E+02  0.27819350460E+02  0.51100000000E-03 0. -1.
        -11    1    3    3    0    0  0.26794696045E+01  0.21547000499E+01 -0.29090943261E+01  0.45039005013E+01  0.51100000000E-03 0.  1.
         12    1    3    3    0    0  0.53108085972E+01  0.81915564992E+01 -0.97806067799E+01  0.13819064904E+02  0.00000000000E+00 0. -1.
</event>
<event>
 7    1  0.4081218E-008  0.4614232E+02  0.7816164E-02  0.1320468E+00
        -11   -1    0    0    0    0  0.00000000000E+00  0.00000000000E+00  0.45593999997E+02  0.45594000000E+02  0.51100000000E-03 0.  1.
         11   -1    0    0    0    0 -0.00000000000E+00 -0.00000000000E+00 -0.45593999997E+02  0.45594000000E+02  0.51100000000E-03 0. -1.
    9900012    2    1    2    0    0  0.51106220870E+01 -0.21124121508E+02 -0.39455880839E+02  0.46142317627E+02  0.99999987812E+01 0.  0.
        -12    1    1    2    0    0 -0.51106220870E+01  0.21124121508E+02  0.39455880839E+02  0.45045682373E+02  0.00000000000E+00 0.  1.
         11    1    3    3    0    0  0.14642792693E+01 -0.56810823007E+00 -0.60510972167E+01  0.62516108745E+01  0.51100000000E-03 0. -1.
        -11    1    3    3    0    0 -0.11071953200E+01 -0.18191903680E+01 -0.15666520199E+01  0.26438104857E+01  0.51100000000E-03 0.  1.
         12    1    3    3    0    0  0.47535381377E+01 -0.18736822910E+02 -0.31838131603E+02  0.37246896267E+02  0.00000000000E+00 0. -1.
</event>
<event>
 7    1  0.4081218E-008  0.4614232E+02  0.7816164E-02  0.1320468E+00
        -11   -1    0    0    0    0  0.00000000000E+00  0.00000000000E+00  0.45593999997E+02  0.45594000000E+02  0.51100000000E-03 0.  1.
         11   -1    0    0    0    0 -0.00000000000E+00 -0.00000000000E+00 -0.45593999997E+02  0.45594000000E+02  0.51100000000E-03 0. -1.
    9900012    2    1    2    0    0 -0.15483258949E+02  0.34437590193E+02 -0.24564904811E+02  0.46142317917E+02  0.10000001418E+02 0.  0.
        -12    1    1    2    0    0  0.15483258949E+02 -0.34437590193E+02  0.24564904811E+02  0.45045682083E+02  0.00000000000E+00 0.  1.
         11    1    3    3    0    0 -0.15059414689E+02  0.32602378029E+02 -0.21809405682E+02  0.42016082640E+02  0.51100000000E-03 0. -1.
        -11    1    3    3    0    0 -0.14249399185E+01  0.13070596210E+01 -0.18594654993E+01  0.26826238701E+01  0.51100000000E-03 0.  1.
         12    1    3    3    0    0  0.10010956592E+01  0.52815254285E+00 -0.89603363049E+00  0.14436114069E+01  0.00000000000E+00 0. -1.
</event>
<event>
 7    1  0.4081218E-008  0.4614232E+02  0.7816164E-02  0.1320468E+00
        -11   -1    0    0    0    0  0.00000000000E+00  0.00000000000E+00  0.45593999997E+02  0.45594000000E+02  0.51100000000E-03 0.  1.
         11   -1    0    0    0    0 -0.00000000000E+00 -0.00000000000E+00 -0.45593999997E+02  0.45594000000E+02  0.51100000000E-03 0. -1.
    9900012    2    1    2    0    0 -0.41940954668E+01 -0.37675232444E+02  0.24333104285E+02  0.46142317181E+02  0.99999947065E+01 0.  0.
        -12    1    1    2    0    0  0.41940954668E+01  0.37675232444E+02 -0.24333104285E+02  0.45045682819E+02  0.00000000000E+00 0.  1.
         11    1    3    3    0    0  0.11743576023E+01 -0.80347075614E+01  0.37605345800E+01  0.89485899427E+01  0.51100000000E-03 0. -1.
        -11    1    3    3    0    0 -0.12881006620E+01 -0.89535542511E+01  0.10397112249E+02  0.13781338122E+02  0.51100000000E-03 0.  1.
        -12    1    3    3    0    0 -0.40803524072E+01 -0.20686970632E+02  0.10175457456E+02  0.23412389116E+02  0.00000000000E+00 0.  1.
</event>
<event>
 7    1  0.4081218E-008  0.4614232E+02  0.7816164E-02  0.1320468E+00
        -11   -1    0    0    0    0  0.00000000000E+00  0.00000000000E+00  0.45593999997E+02  0.45594000000E+02  0.51100000000E-03 0.  1.
         11   -1    0    0    0    0 -0.00000000000E+00 -0.00000000000E+00 -0.45593999997E+02  0.45594000000E+02  0.51100000000E-03 0. -1.
    9900012    2    1    2    0    0 -0.10297233531E+02  0.39839719595E+02 -0.18326953051E+02  0.46142317810E+02  0.10000000447E+02 0.  0.
        -12    1    1    2    0    0  0.10297233531E+02 -0.39839719595E+02  0.18326953051E+02  0.45045682190E+02  0.00000000000E+00 0.  1.
         11    1    3    3    0    0 -0.46262968960E+01  0.32095306361E+02 -0.14539085183E+02  0.35537252449E+02  0.51100000000E-03 0. -1.
        -11    1    3    3    0    0 -0.26956597541E+01  0.41850897210E+01 -0.68754130038E+00  0.50253627514E+01  0.51100000000E-03 0.  1.
         12    1    3    3    0    0 -0.29752768807E+01  0.35593235131E+01 -0.31003265680E+01  0.55797026100E+01  0.00000000000E+00 0. -1.
</event>
<event>
 7    1  0.4081218E-008  0.4614232E+02  0.7816164E-02  0.1320468E+00
        -11   -1    0    0    0    0  0.00000000000E+00  0.00000000000E+00  0.45593999997E+02  0.45594000000E+02  0.51100000000E-03 0.  1.
         11   -1    0    0    0    0 -0.00000000000E+00 -0.00000000000E+00 -0.45593999997E+02  0.45594000000E+02  0.51100000000E-03 0. -1.
    9900012    2    1    2    0    0  0.13936248540E+02 -0.11017785413E+02 -0.41394479021E+02  0.46142317496E+02  0.99999975843E+01 0.  0.
        -12    1    1    2    0    0 -0.13936248540E+02  0.11017785413E+02  0.41394479021E+02  0.45045682504E+02  0.00000000000E+00 0.  1.
         11    1    3    3    0    0  0.68768108905E+01 -0.57336525865E+01 -0.24847762433E+02  0.26411675414E+02  0.51100000000E-03 0. -1.
        -11    1    3    3    0    0  0.70532463950E+01 -0.54092736363E+01 -0.10821475098E+02  0.14004029761E+02  0.51100000000E-03 0.  1.
        -12    1    3    3    0    0  0.61912549292E-02  0.12514081003E+00 -0.57252414904E+01  0.57266123212E+01  0.00000000000E+00 0.  1.
</event>
<event>
 7    1  0.4081218E-008  0.4614232E+02  0.7816164E-02  0.1320468E+00
        -11   -1    0    0    0    0  0.00000000000E+00  0.00000000000E+00  0.45593999997E+02  0.45594000000E+02  0.51100000000E-03 0.  1.
         11   -1    0    0    0    0 -0.00000000000E+00 -0.00000000000E+00 -0.45593999997E+02  0.45594000000E+02  0.51100000000E-03 0. -1.
    9900012    2    1    2    0    0 -0.35200299686E+02 -0.24672969155E+02 -0.13464656615E+02  0.46142317824E+02  0.10000000574E+02 0.  0.
        -12    1    1    2    0    0  0.35200299686E+02  0.24672969155E+02  0.13464656615E+02  0.45045682176E+02  0.00000000000E+00 0.  1.
         11    1    3    3    0    0 -0.67764582890E+01 -0.28900683075E+01 -0.19251958914E+01  0.76144114182E+01  0.51100000000E-03 0. -1.
        -11    1    3    3    0    0 -0.61410405108E+01 -0.93693826964E+00 -0.13413904697E+01  0.63552781630E+01  0.51100000000E-03 0.  1.
         12    1    3    3    0    0 -0.22282800886E+02 -0.20845962578E+02 -0.10198070254E+02  0.32172628243E+02  0.00000000000E+00 0. -1.
</event>
<event>
 7    1  0.4081218E-008  0.4614232E+02  0.7816164E-02  0.1320468E+00
        -11   -1    0    0    0    0  0.00000000000E+00  0.00000000000E+00  0.45593999997E+02  0.45594000000E+02  0.51100000000E-03 0.  1.
         11   -1    0    0    0    0 -0.00000000000E+00 -0.00000000000E+00 -0.45593999997E+02  0.45594000000E+02  0.51100000000E-03 0. -1.
    9900012    2    1    2    0    0  0.62300410808E+01 -0.11092129870E+01 -0.44598987766E+02  0.46142317909E+02  0.10000001347E+02 0.  0.
        -12    1    1    2    0    0 -0.62300410808E+01  0.11092129870E+01  0.44598987766E+02  0.45045682091E+02  0.00000000000E+00 0.  1.
         11    1    3    3    0    0  0.28307251058E+01 -0.79582968660E-01 -0.16803764776E+02  0.17040711516E+02  0.51100000000E-03 0. -1.
        -11    1    3    3    0    0  0.24546271927E+01 -0.41807644381E+01 -0.20994702651E+02  0.21547192986E+02  0.51100000000E-03 0.  1.
         12    1    3    3    0    0  0.94468878235E+00  0.31511344197E+01 -0.68005203391E+01  0.75544134060E+01  0.00000000000E+00 0. -1.
</event>
<event>
 7    1  0.4081218E-008  0.4614232E+02  0.7816164E-02  0.1320468E+00
        -11   -1    0    0    0    0  0.00000000000E+00  0.00000000000E+00  0.45593999997E+02  0.45594000000E+02  0.51100000000E-03 0. -1.
         11   -1    0    0    0    0 -0.00000000000E+00 -0.00000000000E+00 -0.45593999997E+02  0.45594000000E+02  0.51100000000E-03 0.  1.
    9900012    2    1    2    0    0 -0.71623052920E+01 -0.22498195988E+02  0.38362039158E+02  0.46142317763E+02  0.10000000019E+02 0.  0.
        -12    1    1    2    0    0  0.71623052920E+01  0.22498195988E+02 -0.38362039158E+02  0.45045682237E+02  0.00000000000E+00 0.  1.
         11    1    3    3    0    0 -0.38941824893E+01 -0.11042032285E+02  0.23653918541E+02  0.26393161934E+02  0.51100000000E-03 0. -1.
        -11    1    3    3    0    0 -0.21988117204E+01 -0.10750097121E+02  0.99184628628E+01  0.14791053611E+02  0.51100000000E-03 0.  1.
        -12    1    3    3    0    0 -0.10693110822E+01 -0.70606658176E+00  0.47896577544E+01  0.49581022188E+01  0.00000000000E+00 0.  1.
</event>
<event>
 7    1  0.4081218E-008  0.4614232E+02  0.7816164E-02  0.1320468E+00
        -11   -1    0    0    0    0  0.00000000000E+00  0.00000000000E+00  0.45593999997E+02  0.45594000000E+02  0.51100000000E-03 0. -1.
         11   -1    0    0    0    0 -0.00000000000E+00 -0.00000000000E+00 -0.45593999997E+02  0.45594000000E+02  0.51100000000E-03 0.  1.
    9900012    2    1    2    0    0  0.11398607033E+02 -0.33257945529E+02  0.28161930079E+02  0.46142317756E+02  0.99999999516E+01 0.  0.
        -12    1    1    2    0    0 -0.11398607033E+02  0.33257945529E+02 -0.28161930079E+02  0.45045682244E+02  0.00000000000E+00 0.  1.
         11    1    3    3    0    0  0.19561097365E+01 -0.85200793550E+01  0.74596746374E+01  0.11491947767E+02  0.51100000000E-03 0. -1.
        -11    1    3    3    0    0  0.83455301495E+01 -0.20049872742E+02  0.12279308259E+02  0.24948480555E+02  0.51100000000E-03 0.  1.
        -12    1    3    3    0    0  0.10969671467E+01 -0.46879934314E+01  0.84229471831E+01  0.97018894336E+01  0.00000000000E+00 0.  1.
</event>
<event>
 7    1  0.4081218E-008  0.4614232E+02  0.7816164E-02  0.1320468E+00
        -11   -1    0    0    0    0  0.00000000000E+00  0.00000000000E+00  0.45593999997E+02  0.45594000000E+02  0.51100000000E-03 0.  1.
         11   -1    0    0    0    0 -0.00000000000E+00 -0.00000000000E+00 -0.45593999997E+02  0.45594000000E+02  0.51100000000E-03 0. -1.
    9900012    2    1    2    0    0  0.30577443855E+02 -0.21678842938E+02 -0.24983217931E+02  0.46142317832E+02  0.10000000648E+02 0.  0.
        -12    1    1    2    0    0 -0.30577443855E+02  0.21678842938E+02  0.24983217931E+02  0.45045682168E+02  0.00000000000E+00 0.  1.
         11    1    3    3    0    0  0.16098850708E+02 -0.13533607692E+02 -0.94618426280E+01  0.23062046688E+02  0.51100000000E-03 0. -1.
        -11    1    3    3    0    0  0.15143420253E+01 -0.14870560337E+01 -0.38995921288E+01  0.44397507192E+01  0.51100000000E-03 0.  1.
         12    1    3    3    0    0  0.12964251122E+02 -0.66581792117E+01 -0.11621783174E+02  0.18640520425E+02  0.00000000000E+00 0. -1.
</event>
<event>
 7    1  0.4081218E-008  0.4614232E+02  0.7816164E-02  0.1320468E+00
        -11   -1    0    0    0    0  0.00000000000E+00  0.00000000000E+00  0.45593999997E+02  0.45594000000E+02  0.51100000000E-03 0.  1.
         11   -1    0    0    0    0 -0.00000000000E+00 -0.00000000000E+00 -0.45593999997E+02  0.45594000000E+02  0.51100000000E-03 0. -1.
    9900012    2    1    2    0    0 -0.21478856770E+02  0.22878063484E+02 -0.32316658325E+02  0.46142317829E+02  0.10000000621E+02 0.  0.
        -12    1    1    2    0    0  0.21478856770E+02 -0.22878063484E+02  0.32316658325E+02  0.45045682171E+02  0.00000000000E+00 0.  1.
         11    1    3    3    0    0 -0.95697363093E+00  0.31695850862E+01 -0.30148788319E+01  0.44778971383E+01  0.51100000000E-03 0. -1.
        -11    1    3    3    0    0 -0.61594639400E+01  0.55336575663E+01 -0.37084327800E+01  0.90726421749E+01  0.51100000000E-03 0.  1.
        -12    1    3    3    0    0 -0.14362419199E+02  0.14174820832E+02 -0.25593346713E+02  0.32591778516E+02  0.00000000000E+00 0.  1.
</event>
<event>
 7    1  0.4081218E-008  0.4614232E+02  0.7816164E-02  0.1320468E+00
        -11   -1    0    0    0    0  0.00000000000E+00  0.00000000000E+00  0.45593999997E+02  0.45594000000E+02  0.51100000000E-03 0.  1.
         11   -1    0    0    0    0 -0.00000000000E+00 -0.00000000000E+00 -0.45593999997E+02  0.45594000000E+02  0.51100000000E-03 0. -1.
    9900012    2    1    2    0    0  0.33434201326E+02 -0.11698215313E+02 -0.27828394234E+02  0.46142316683E+02  0.99999901707E+01 0.  0.
        -12    1    1    2    0    0 -0.33434201326E+02  0.11698215313E+02  0.27828394234E+02  0.45045683317E+02  0.00000000000E+00 0.  1.
         11    1    3    3    0    0  0.84161483746E+01 -0.63788961311E+00 -0.77689506786E+01  0.11471488636E+02  0.51100000000E-03 0. -1.
        -11    1    3    3    0    0  0.12732465871E+02 -0.86213660976E+01 -0.82220562543E+01  0.17436910559E+02  0.51100000000E-03 0.  1.
        -12    1    3    3    0    0  0.12285587081E+02 -0.24389596027E+01 -0.11837387301E+02  0.17233917488E+02  0.00000000000E+00 0.  1.
</event>
<event>
 7    1  0.4081218E-008  0.4614232E+02  0.7816164E-02  0.1320468E+00
        -11   -1    0    0    0    0  0.00000000000E+00  0.00000000000E+00  0.45593999997E+02  0.45594000000E+02  0.51100000000E-03 0.  1.
         11   -1    0    0    0    0 -0.00000000000E+00 -0.00000000000E+00 -0.45593999997E+02  0.45594000000E+02  0.51100000000E-03 0. -1.
    9900012    2    1    2    0    0  0.15873760889E+02 -0.36443734724E+02 -0.21189418255E+02  0.46142317284E+02  0.99999956467E+01 0.  0.
        -12    1    1    2    0    0 -0.15873760889E+02  0.36443734724E+02  0.21189418255E+02  0.45045682716E+02  0.00000000000E+00 0.  1.
         11    1    3    3    0    0  0.47678431319E+01 -0.16825699412E+02 -0.10705893052E+02  0.20504941724E+02  0.51100000000E-03 0. -1.
        -11    1    3    3    0    0  0.13612714709E+01 -0.76031261548E+00  0.62484502131E+00  0.16797520212E+01  0.51100000000E-03 0.  1.
         12    1    3    3    0    0  0.97446462864E+01 -0.18857722696E+02 -0.11108370225E+02  0.23957623538E+02  0.00000000000E+00 0. -1.
</event>
<event>
 7    1  0.4081218E-008  0.4614232E+02  0.7816164E-02  0.1320468E+00
        -11   -1    0    0    0    0  0.00000000000E+00  0.00000000000E+00  0.45593999997E+02  0.45594000000E+02  0.51100000000E-03 0.  1.
         11   -1    0    0    0    0 -0.00000000000E+00 -0.00000000000E+00 -0.45593999997E+02  0.45594000000E+02  0.51100000000E-03 0. -1.
    9900012    2    1    2    0    0  0.27232124382E+02  0.11982551084E+01 -0.35862083878E+02  0.46142317924E+02  0.10000001481E+02 0.  0.
        -12    1    1    2    0    0 -0.27232124382E+02 -0.11982551084E+01  0.35862083878E+02  0.45045682076E+02  0.00000000000E+00 0.  1.
         11    1    3    3    0    0  0.88557562875E+01 -0.13646353054E+01 -0.13518802423E+02  0.16218651860E+02  0.51100000000E-03 0. -1.
        -11    1    3    3    0    0  0.82302904349E+01  0.29099136595E+01 -0.56909519900E+01  0.10420758752E+02  0.51100000000E-03 0.  1.
        -12    1    3    3    0    0  0.10146077660E+02 -0.34702324575E+00 -0.16652329464E+02  0.19502907311E+02  0.00000000000E+00 0.  1.
</event>
<event>
 7    1  0.4081218E-008  0.4614232E+02  0.7816164E-02  0.1320468E+00
        -11   -1    0    0    0    0  0.00000000000E+00  0.00000000000E+00  0.45593999997E+02  0.45594000000E+02  0.51100000000E-03 0.  1.
         11   -1    0    0    0    0 -0.00000000000E+00 -0.00000000000E+00 -0.45593999997E+02  0.45594000000E+02  0.51100000000E-03 0. -1.
    9900012    2    1    2    0    0  0.25790796471E+02 -0.21260185670E+02 -0.30198557957E+02  0.46142316744E+02  0.99999907263E+01 0.  0.
        -12    1    1    2    0    0 -0.25790796471E+02  0.21260185670E+02  0.30198557957E+02  0.45045683256E+02  0.00000000000E+00 0.  1.
         11    1    3    3    0    0  0.10891924160E+02 -0.74305914063E+01 -0.11951968847E+02  0.17795990002E+02  0.51100000000E-03 0. -1.
        -11    1    3    3    0    0  0.14896824744E+00 -0.24348205806E+01 -0.47315793970E+01  0.53233811294E+01  0.51100000000E-03 0.  1.
         12    1    3    3    0    0  0.14749904064E+02 -0.11394773683E+02 -0.13515009713E+02  0.23022945613E+02  0.00000000000E+00 0. -1.
</event>
<event>
 7    1  0.4081218E-008  0.4614232E+02  0.7816164E-02  0.1320468E+00
        -11   -1    0    0    0    0  0.00000000000E+00  0.00000000000E+00  0.45593999997E+02  0.45594000000E+02  0.51100000000E-03 0.  1.
         11   -1    0    0    0    0 -0.00000000000E+00 -0.00000000000E+00 -0.45593999997E+02  0.45594000000E+02  0.51100000000E-03 0. -1.
    9900012    2    1    2    0    0 -0.43444591487E+02 -0.10371243927E+02 -0.58410883384E+01  0.46142317155E+02  0.99999944693E+01 0.  0.
        -12    1    1    2    0    0  0.43444591487E+02  0.10371243927E+02  0.58410883384E+01  0.45045682845E+02  0.00000000000E+00 0.  1.
         11    1    3    3    0    0 -0.16113944225E+02 -0.45703372719E+01 -0.18399752629E+01  0.16850302386E+02  0.51100000000E-03 0. -1.
        -11    1    3    3    0    0 -0.19537274987E+02 -0.53059065216E+01  0.55209267748E+00  0.20252470579E+02  0.51100000000E-03 0.  1.
         12    1    3    3    0    0 -0.77933722743E+01 -0.49500013319E+00 -0.45532057530E+01  0.90395441902E+01  0.00000000000E+00 0. -1.
</event>
<event>
 7    1  0.4081218E-008  0.4614232E+02  0.7816164E-02  0.1320468E+00
        -11   -1    0    0    0    0  0.00000000000E+00  0.00000000000E+00  0.45593999997E+02  0.45594000000E+02  0.51100000000E-03 0.  1.
         11   -1    0    0    0    0 -0.00000000000E+00 -0.00000000000E+00 -0.45593999997E+02  0.45594000000E+02  0.51100000000E-03 0. -1.
    9900012    2    1    2    0    0  0.13719357376E+02  0.47239531448E+01 -0.42644776036E+02  0.46142318484E+02  0.10000006591E+02 0.  0.
        -12    1    1    2    0    0 -0.13719357376E+02 -0.47239531448E+01  0.42644776036E+02  0.45045681516E+02  0.00000000000E+00 0.  1.
         11    1    3    3    0    0  0.38691676932E+01 -0.25361445258E+00 -0.14883646642E+02  0.15380432912E+02  0.51100000000E-03 0.  1.
        -11    1    3    3    0    0  0.96245209101E+01  0.51522523025E+01 -0.28199468386E+02  0.30238834700E+02  0.51100000000E-03 0. -1.
         12    1    3    3    0    0  0.22566877319E+00 -0.17468470514E+00  0.43833899270E+00  0.52305087126E+00  0.00000000000E+00 0. -1.
</event>
<event>
 7    1  0.4081218E-008  0.4614232E+02  0.7816164E-02  0.1320468E+00
        -11   -1    0    0    0    0  0.00000000000E+00  0.00000000000E+00  0.45593999997E+02  0.45594000000E+02  0.51100000000E-03 0. -1.
         11   -1    0    0    0    0 -0.00000000000E+00 -0.00000000000E+00 -0.45593999997E+02  0.45594000000E+02  0.51100000000E-03 0.  1.
    9900012    2    1    2    0    0 -0.10286696282E+02  0.26904761606E+02  0.34632804831E+02  0.46142317766E+02  0.10000000046E+02 0.  0.
        -12    1    1    2    0    0  0.10286696282E+02 -0.26904761606E+02 -0.34632804831E+02  0.45045682234E+02  0.00000000000E+00 0.  1.
         11    1    3    3    0    0 -0.39668704799E+00  0.10593571834E+02  0.14069064614E+02  0.17615893511E+02  0.51100000000E-03 0. -1.
        -11    1    3    3    0    0 -0.23847606889E+01  0.14331541361E+01  0.50146536141E+01  0.57347855628E+01  0.51100000000E-03 0.  1.
         12    1    3    3    0    0 -0.75052485454E+01  0.14878035636E+02  0.15549086602E+02  0.22791638692E+02  0.00000000000E+00 0. -1.
</event>
<event>
 7    1  0.4081218E-008  0.4614232E+02  0.7816164E-02  0.1320468E+00
        -11   -1    0    0    0    0  0.00000000000E+00  0.00000000000E+00  0.45593999997E+02  0.45594000000E+02  0.51100000000E-03 0.  1.
         11   -1    0    0    0    0 -0.00000000000E+00 -0.00000000000E+00 -0.45593999997E+02  0.45594000000E+02  0.51100000000E-03 0. -1.
    9900012    2    1    2    0    0 -0.11909529881E+02 -0.24937467994E+02 -0.35572451044E+02  0.46142317796E+02  0.10000000319E+02 0.  0.
        -12    1    1    2    0    0  0.11909529881E+02  0.24937467994E+02  0.35572451044E+02  0.45045682204E+02  0.00000000000E+00 0.  1.
         11    1    3    3    0    0 -0.42219401549E+01 -0.16419603867E+02 -0.23100447977E+02  0.28654124778E+02  0.51100000000E-03 0. -1.
        -11    1    3    3    0    0 -0.38070412710E+01 -0.65370276590E+01 -0.97893641965E+01  0.12371658963E+02  0.51100000000E-03 0.  1.
        -12    1    3    3    0    0 -0.38805484553E+01 -0.19808364681E+01 -0.26826388705E+01  0.51165340551E+01  0.00000000000E+00 0.  1.
</event>
<event>
 7    1  0.4081218E-008  0.4614232E+02  0.7816164E-02  0.1320468E+00
        -11   -1    0    0    0    0  0.00000000000E+00  0.00000000000E+00  0.45593999997E+02  0.45594000000E+02  0.51100000000E-03 0.  1.
         11   -1    0    0    0    0 -0.00000000000E+00 -0.00000000000E+00 -0.45593999997E+02  0.45594000000E+02  0.51100000000E-03 0. -1.
    9900012    2    1    2    0    0 -0.28273614376E+01 -0.44335583280E+02 -0.74481967638E+01  0.46142317050E+02  0.99999935115E+01 0.  0.
        -12    1    1    2    0    0  0.28273614376E+01  0.44335583280E+02  0.74481967638E+01  0.45045682950E+02  0.00000000000E+00 0.  1.
         11    1    3    3    0    0  0.18610970432E+01 -0.11817902564E+02 -0.18051873416E+01  0.12098975362E+02  0.51100000000E-03 0. -1.
        -11    1    3    3    0    0  0.26456310903E+00 -0.16058360062E+02 -0.50833675640E+01  0.16845816916E+02  0.51100000000E-03 0.  1.
        -12    1    3    3    0    0 -0.49530215898E+01 -0.16459320654E+02 -0.55964185815E+00  0.17197524771E+02  0.00000000000E+00 0.  1.
</event>
<event>
 7    1  0.4081218E-008  0.4614232E+02  0.7816164E-02  0.1320468E+00
        -11   -1    0    0    0    0  0.00000000000E+00  0.00000000000E+00  0.45593999997E+02  0.45594000000E+02  0.51100000000E-03 0. -1.
         11   -1    0    0    0    0 -0.00000000000E+00 -0.00000000000E+00 -0.45593999997E+02  0.45594000000E+02  0.51100000000E-03 0.  1.
    9900012    2    1    2    0    0 -0.29641251066E+02  0.26344999474E+02  0.21364706767E+02  0.46142318106E+02  0.10000003142E+02 0.  0.
        -12    1    1    2    0    0  0.29641251066E+02 -0.26344999474E+02 -0.21364706767E+02  0.45045681894E+02  0.00000000000E+00 0.  1.
         11    1    3    3    0    0 -0.38702836838E+01  0.49754532972E+01  0.34048353508E+01  0.71642958714E+01  0.51100000000E-03 0. -1.
        -11    1    3    3    0    0 -0.57450872010E+01  0.46385838094E+01  0.84068010624E+01  0.11189137190E+02  0.51100000000E-03 0.  1.
         12    1    3    3    0    0 -0.20025880181E+02  0.16730962368E+02  0.95530703542E+01  0.27788885044E+02  0.00000000000E+00 0. -1.
</event>
<event>
 7    1  0.4081218E-008  0.4614232E+02  0.7816164E-02  0.1320468E+00
        -11   -1    0    0    0    0  0.00000000000E+00  0.00000000000E+00  0.45593999997E+02  0.45594000000E+02  0.51100000000E-03 0.  1.
         11   -1    0    0    0    0 -0.00000000000E+00 -0.00000000000E+00 -0.45593999997E+02  0.45594000000E+02  0.51100000000E-03 0. -1.
    9900012    2    1    2    0    0 -0.23996203562E+02 -0.15313700597E+02 -0.34911120686E+02  0.46142316978E+02  0.99999928547E+01 0.  0.
        -12    1    1    2    0    0  0.23996203562E+02  0.15313700597E+02  0.34911120686E+02  0.45045683022E+02  0.00000000000E+00 0.  1.
         11    1    3    3    0    0 -0.25673215276E+01  0.84737131717E+00 -0.32752999935E+01  0.42469716603E+01  0.51100000000E-03 0.  1.
        -11    1    3    3    0    0 -0.27215079756E+01 -0.61825633364E-01 -0.23487395853E+01  0.35954145757E+01  0.51100000000E-03 0. -1.
         12    1    3    3    0    0 -0.18707374059E+02 -0.16099246281E+02 -0.29287081107E+02  0.38299930742E+02  0.00000000000E+00 0. -1.
</event>
<event>
 7    1  0.4081218E-008  0.4614232E+02  0.7816164E-02  0.1320468E+00
        -11   -1    0    0    0    0  0.00000000000E+00  0.00000000000E+00  0.45593999997E+02  0.45594000000E+02  0.51100000000E-03 0.  1.
         11   -1    0    0    0    0 -0.00000000000E+00 -0.00000000000E+00 -0.45593999997E+02  0.45594000000E+02  0.51100000000E-03 0. -1.
    9900012    2    1    2    0    0 -0.47754473506E+01 -0.44124821454E+02 -0.77012112078E+01  0.46142318522E+02  0.10000006935E+02 0.  0.
        -12    1    1    2    0    0  0.47754473506E+01  0.44124821454E+02  0.77012112078E+01  0.45045681478E+02  0.00000000000E+00 0.  1.
         11    1    3    3    0    0 -0.15099843141E+01 -0.30044188756E+02 -0.29395902349E+01  0.30225395310E+02  0.51100000000E-03 0. -1.
        -11    1    3    3    0    0  0.10928634273E+01 -0.15449201108E+01 -0.30440647924E+00  0.19167139028E+01  0.51100000000E-03 0.  1.
        -12    1    3    3    0    0 -0.43583264639E+01 -0.12535712588E+02 -0.44572144937E+01  0.14000209309E+02  0.00000000000E+00 0.  1.
</event>
<event>
 7    1  0.4081218E-008  0.4614232E+02  0.7816164E-02  0.1320468E+00
        -11   -1    0    0    0    0  0.00000000000E+00  0.00000000000E+00  0.45593999997E+02  0.45594000000E+02  0.51100000000E-03 0.  1.
         11   -1    0    0    0    0 -0.00000000000E+00 -0.00000000000E+00 -0.45593999997E+02  0.45594000000E+02  0.51100000000E-03 0. -1.
    9900012    2    1    2    0    0  0.22719041987E+01 -0.36518193980E+01 -0.44839894380E+02  0.46142318058E+02  0.10000002712E+02 0.  0.
        -12    1    1    2    0    0 -0.22719041987E+01  0.36518193980E+01  0.44839894380E+02  0.45045681942E+02  0.00000000000E+00 0.  1.
         11    1    3    3    0    0  0.63739842295E+00 -0.10675034015E+01 -0.16516160407E+02  0.16562892112E+02  0.51100000000E-03 0. -1.
        -11    1    3    3    0    0 -0.12920554110E+01  0.31649487251E+00 -0.21946381237E+02  0.21986660180E+02  0.51100000000E-03 0.  1.
         12    1    3    3    0    0  0.29265611867E+01 -0.29008108690E+01 -0.63773527353E+01  0.75927657667E+01  0.00000000000E+00 0. -1.
</event>
<event>
 7    1  0.4081218E-008  0.4614232E+02  0.7816164E-02  0.1320468E+00
        -11   -1    0    0    0    0  0.00000000000E+00  0.00000000000E+00  0.45593999997E+02  0.45594000000E+02  0.51100000000E-03 0.  1.
         11   -1    0    0    0    0 -0.00000000000E+00 -0.00000000000E+00 -0.45593999997E+02  0.45594000000E+02  0.51100000000E-03 0. -1.
    9900012    2    1    2    0    0 -0.21791434910E+02 -0.21398695242E+02 -0.33111066378E+02  0.46142317519E+02  0.99999977919E+01 0.  0.
        -12    1    1    2    0    0  0.21791434910E+02  0.21398695242E+02  0.33111066378E+02  0.45045682481E+02  0.00000000000E+00 0.  1.
         11    1    3    3    0    0 -0.11964059021E+02 -0.15451460747E+02 -0.20539093253E+02  0.28350320975E+02  0.51100000000E-03 0. -1.
        -11    1    3    3    0    0 -0.25221721832E-01 -0.14498791049E-01  0.44770646381E+00  0.44865096573E+00  0.51100000000E-03 0.  1.
         12    1    3    3    0    0 -0.98021541672E+01 -0.59327357039E+01 -0.13019679589E+02  0.17343345578E+02  0.00000000000E+00 0. -1.
</event>
<event>
 7    1  0.4081218E-008  0.4614232E+02  0.7816164E-02  0.1320468E+00
        -11   -1    0    0    0    0  0.00000000000E+00  0.00000000000E+00  0.45593999997E+02  0.45594000000E+02  0.51100000000E-03 0.  1.
         11   -1    0    0    0    0 -0.00000000000E+00 -0.00000000000E+00 -0.45593999997E+02  0.45594000000E+02  0.51100000000E-03 0. -1.
    9900012    2    1    2    0    0  0.22343528440E+02 -0.37377134597E+02  0.11525198025E+02  0.46142316041E+02  0.99999843105E+01 0.  0.
        -12    1    1    2    0    0 -0.22343528440E+02  0.37377134597E+02 -0.11525198025E+02  0.45045683959E+02  0.00000000000E+00 0.  1.
         11    1    3    3    0    0  0.80921589474E+01 -0.17197645536E+02  0.41278206233E+01  0.19449446053E+02  0.51100000000E-03 0. -1.
        -11    1    3    3    0    0  0.13475059971E+01 -0.39982440617E+01 -0.10354053525E+01  0.43443978287E+01  0.51100000000E-03 0.  1.
        -12    1    3    3    0    0  0.12903863495E+02 -0.16181244999E+02  0.84327827540E+01  0.22348472158E+02  0.00000000000E+00 0.  1.
</event>
<event>
 7    1  0.4081218E-008  0.4614232E+02  0.7816164E-02  0.1320468E+00
        -11   -1    0    0    0    0  0.00000000000E+00  0.00000000000E+00  0.45593999997E+02  0.45594000000E+02  0.51100000000E-03 0.  1.
         11   -1    0    0    0    0 -0.00000000000E+00 -0.00000000000E+00 -0.45593999997E+02  0.45594000000E+02  0.51100000000E-03 0. -1.
    9900012    2    1    2    0    0  0.18764846472E+02  0.25384462738E+02 -0.32134452645E+02  0.46142318094E+02  0.10000003033E+02 0.  0.
        -12    1    1    2    0    0 -0.18764846472E+02 -0.25384462738E+02  0.32134452645E+02  0.45045681906E+02  0.00000000000E+00 0.  1.
         11    1    3    3    0    0  0.69884919167E+01  0.63831619563E+01 -0.58991736653E+01  0.11152758673E+02  0.51100000000E-03 0. -1.
        -11    1    3    3    0    0  0.38271279851E+01  0.58889341298E+01 -0.43302052044E+01  0.82508866901E+01  0.51100000000E-03 0.  1.
        -12    1    3    3    0    0  0.79492265700E+01  0.13112366652E+02 -0.21905073775E+02  0.26738672730E+02  0.00000000000E+00 0.  1.
</event>
<event>
 7    1  0.4081218E-008  0.4614232E+02  0.7816164E-02  0.1320468E+00
        -11   -1    0    0    0    0  0.00000000000E+00  0.00000000000E+00  0.45593999997E+02  0.45594000000E+02  0.51100000000E-03 0. -1.
         11   -1    0    0    0    0 -0.00000000000E+00 -0.00000000000E+00 -0.45593999997E+02  0.45594000000E+02  0.51100000000E-03 0.  1.
    9900012    2    1    2    0    0  0.32236175220E+02  0.24632210495E+02  0.19575410766E+02  0.46142317705E+02  0.99999994926E+01 0.  0.
        -12    1    1    2    0    0 -0.32236175220E+02 -0.24632210495E+02 -0.19575410766E+02  0.45045682295E+02  0.00000000000E+00 0.  1.
         11    1    3    3    0    0  0.78810053271E+01  0.83808962038E+01  0.50923470557E+01  0.12581004131E+02  0.51100000000E-03 0. -1.
        -11    1    3    3    0    0  0.16573225397E+01  0.32150414136E+01 -0.59681419607E-01  0.36175642945E+01  0.51100000000E-03 0.  1.
         12    1    3    3    0    0  0.22697847354E+02  0.13036272878E+02  0.14542745130E+02  0.29943749280E+02  0.00000000000E+00 0. -1.
</event>
<event>
 7    1  0.4081218E-008  0.4614232E+02  0.7816164E-02  0.1320468E+00
        -11   -1    0    0    0    0  0.00000000000E+00  0.00000000000E+00  0.45593999997E+02  0.45594000000E+02  0.51100000000E-03 0. -1.
         11   -1    0    0    0    0 -0.00000000000E+00 -0.00000000000E+00 -0.45593999997E+02  0.45594000000E+02  0.51100000000E-03 0.  1.
    9900012    2    1    2    0    0  0.11123611434E+02  0.23318985381E+02  0.36899913824E+02  0.46142318179E+02  0.10000003808E+02 0.  0.
        -12    1    1    2    0    0 -0.11123611434E+02 -0.23318985381E+02 -0.36899913824E+02  0.45045681821E+02  0.00000000000E+00 0.  1.
         11    1    3    3    0    0  0.49614808176E+00  0.27324496753E+00  0.13372656406E+01  0.14522759331E+01  0.51100000000E-03 0. -1.
        -11    1    3    3    0    0  0.48998686460E+01  0.20680879936E+01  0.68562554563E+01  0.86772080671E+01  0.51100000000E-03 0.  1.
         12    1    3    3    0    0  0.57275947059E+01  0.20977652420E+02  0.28706392727E+02  0.36012834178E+02  0.00000000000E+00 0. -1.
</event>
<event>
 7    1  0.4081218E-008  0.4614232E+02  0.7816164E-02  0.1320468E+00
        -11   -1    0    0    0    0  0.00000000000E+00  0.00000000000E+00  0.45593999997E+02  0.45594000000E+02  0.51100000000E-03 0.  1.
         11   -1    0    0    0    0 -0.00000000000E+00 -0.00000000000E+00 -0.45593999997E+02  0.45594000000E+02  0.51100000000E-03 0. -1.
    9900012    2    1    2    0    0 -0.25479937273E+01 -0.44649130418E+02 -0.53922503540E+01  0.46142317820E+02  0.10000000540E+02 0.  0.
        -12    1    1    2    0    0  0.25479937273E+01  0.44649130418E+02  0.53922503540E+01  0.45045682180E+02  0.00000000000E+00 0.  1.
         11    1    3    3    0    0  0.90112899100E+00 -0.74234261274E+01 -0.16714325249E+01  0.76624392901E+01  0.51100000000E-03 0. -1.
        -11    1    3    3    0    0 -0.12429501371E+01 -0.28882316826E+00 -0.35432462579E+00  0.13243451467E+01  0.51100000000E-03 0.  1.
         12    1    3    3    0    0 -0.22061725812E+01 -0.36936881123E+02 -0.33664932033E+01  0.37155533384E+02  0.00000000000E+00 0. -1.
</event>
<event>
 7    1  0.4081218E-008  0.4614232E+02  0.7816164E-02  0.1320468E+00
        -11   -1    0    0    0    0  0.00000000000E+00  0.00000000000E+00  0.45593999997E+02  0.45594000000E+02  0.51100000000E-03 0. -1.
         11   -1    0    0    0    0 -0.00000000000E+00 -0.00000000000E+00 -0.45593999997E+02  0.45594000000E+02  0.51100000000E-03 0.  1.
    9900012    2    1    2    0    0  0.40197247416E+02  0.16368364434E+02  0.12057004996E+02  0.46142318481E+02  0.10000006568E+02 0.  0.
        -12    1    1    2    0    0 -0.40197247416E+02 -0.16368364434E+02 -0.12057004996E+02  0.45045681519E+02  0.00000000000E+00 0.  1.
         11    1    3    3    0    0  0.16203218034E+02  0.47811840507E+01  0.21080994461E+00  0.16895219344E+02  0.51100000000E-03 0. -1.
        -11    1    3    3    0    0  0.12523769079E+01  0.17014112691E+00  0.86861124945E+00  0.15335845872E+01  0.51100000000E-03 0.  1.
         12    1    3    3    0    0  0.22741652474E+02  0.11417039256E+02  0.10977583802E+02  0.27713514550E+02  0.00000000000E+00 0. -1.
</event>
<event>
 7    1  0.4081218E-008  0.4614232E+02  0.7816164E-02  0.1320468E+00
        -11   -1    0    0    0    0  0.00000000000E+00  0.00000000000E+00  0.45593999997E+02  0.45594000000E+02  0.51100000000E-03 0.  1.
         11   -1    0    0    0    0 -0.00000000000E+00 -0.00000000000E+00 -0.45593999997E+02  0.45594000000E+02  0.51100000000E-03 0. -1.
    9900012    2    1    2    0    0  0.34562167248E+01  0.27098364196E+02 -0.35816848063E+02  0.46142318950E+02  0.10000010838E+02 0.  0.
        -12    1    1    2    0    0 -0.34562167248E+01 -0.27098364196E+02  0.35816848063E+02  0.45045681050E+02  0.00000000000E+00 0.  1.
         11    1    3    3    0    0  0.37881202519E+01  0.17016960945E+02 -0.18805160571E+02  0.25642949893E+02  0.51100000000E-03 0. -1.
        -11    1    3    3    0    0  0.53300652220E+00  0.31265964574E+01 -0.15642873796E+01  0.35364808252E+01  0.51100000000E-03 0.  1.
         12    1    3    3    0    0 -0.86491004930E+00  0.69548067936E+01 -0.15447400113E+02  0.16962888232E+02  0.00000000000E+00 0. -1.
</event>
<event>
 7    1  0.4081218E-008  0.4614232E+02  0.7816164E-02  0.1320468E+00
        -11   -1    0    0    0    0  0.00000000000E+00  0.00000000000E+00  0.45593999997E+02  0.45594000000E+02  0.51100000000E-03 0.  1.
         11   -1    0    0    0    0 -0.00000000000E+00 -0.00000000000E+00 -0.45593999997E+02  0.45594000000E+02  0.51100000000E-03 0. -1.
    9900012    2    1    2    0    0 -0.12692436720E+02  0.19641798962E+02 -0.38499548695E+02  0.46142318009E+02  0.10000002261E+02 0.  0.
        -12    1    1    2    0    0  0.12692436720E+02 -0.19641798962E+02  0.38499548695E+02  0.45045681991E+02  0.00000000000E+00 0.  1.
         11    1    3    3    0    0 -0.36145352833E+01  0.33229944982E+01 -0.64112540473E+01  0.80753536437E+01  0.51100000000E-03 0. -1.
        -11    1    3    3    0    0  0.44670238903E+00 -0.35441960850E+00 -0.40122861328E+01  0.40526036762E+01  0.51100000000E-03 0.  1.
        -12    1    3    3    0    0 -0.95246038255E+01  0.16673224072E+02 -0.28076008514E+02  0.34014360689E+02  0.00000000000E+00 0.  1.
</event>
<event>
 7    1  0.4081218E-008  0.4614232E+02  0.7816164E-02  0.1320468E+00
        -11   -1    0    0    0    0  0.00000000000E+00  0.00000000000E+00  0.45593999997E+02  0.45594000000E+02  0.51100000000E-03 0.  1.
         11   -1    0    0    0    0 -0.00000000000E+00 -0.00000000000E+00 -0.45593999997E+02  0.45594000000E+02  0.51100000000E-03 0. -1.
    9900012    2    1    2    0    0 -0.26669880246E+02  0.91317124548E-01 -0.36301826882E+02  0.46142317786E+02  0.10000000229E+02 0.  0.
        -12    1    1    2    0    0  0.26669880246E+02 -0.91317124548E-01  0.36301826882E+02  0.45045682214E+02  0.00000000000E+00 0.  1.
         11    1    3    3    0    0 -0.21129760150E+02  0.20708140658E+01 -0.31487659927E+02  0.37976673931E+02  0.51100000000E-03 0. -1.
        -11    1    3    3    0    0 -0.35007684141E+01  0.23325516768E+00 -0.19635200170E+01  0.40205967941E+01  0.51100000000E-03 0.  1.
        -12    1    3    3    0    0 -0.20393516818E+01 -0.22127521089E+01 -0.28506469376E+01  0.41450470613E+01  0.00000000000E+00 0.  1.
</event>
<event>
 7    1  0.4081218E-008  0.4614232E+02  0.7816164E-02  0.1320468E+00
        -11   -1    0    0    0    0  0.00000000000E+00  0.00000000000E+00  0.45593999997E+02  0.45594000000E+02  0.51100000000E-03 0.  1.
         11   -1    0    0    0    0 -0.00000000000E+00 -0.00000000000E+00 -0.45593999997E+02  0.45594000000E+02  0.51100000000E-03 0. -1.
    9900012    2    1    2    0    0  0.55911555609E+01 -0.34799270953E+02 -0.28051082102E+02  0.46142317782E+02  0.10000000192E+02 0.  0.
        -12    1    1    2    0    0 -0.55911555609E+01  0.34799270953E+02  0.28051082102E+02  0.45045682218E+02  0.00000000000E+00 0.  1.
         11    1    3    3    0    0  0.45552758145E+01 -0.27094876429E+02 -0.21100396329E+02  0.34642597938E+02  0.51100000000E-03 0. -1.
        -11    1    3    3    0    0  0.32499212860E-01 -0.61252301757E+01 -0.23987288575E+01  0.65782521461E+01  0.51100000000E-03 0.  1.
         12    1    3    3    0    0  0.10033805336E+01 -0.15791643485E+01 -0.45519569160E+01  0.49214676977E+01  0.00000000000E+00 0. -1.
</event>
<event>
 7    1  0.4081218E-008  0.4614232E+02  0.7816164E-02  0.1320468E+00
        -11   -1    0    0    0    0  0.00000000000E+00  0.00000000000E+00  0.45593999997E+02  0.45594000000E+02  0.51100000000E-03 0. -1.
         11   -1    0    0    0    0 -0.00000000000E+00 -0.00000000000E+00 -0.45593999997E+02  0.45594000000E+02  0.51100000000E-03 0.  1.
    9900012    2    1    2    0    0 -0.90508320458E+01  0.80744429941E+01  0.43382016459E+02  0.46142317161E+02  0.99999945315E+01 0.  0.
        -12    1    1    2    0    0  0.90508320458E+01 -0.80744429941E+01 -0.43382016459E+02  0.45045682839E+02  0.00000000000E+00 0.  1.
         11    1    3    3    0    0 -0.56496205900E+01  0.43835496541E+01  0.34487424285E+02  0.35220961861E+02  0.51100000000E-03 0. -1.
        -11    1    3    3    0    0 -0.74190285392E+00 -0.74558805618E+00  0.23874986161E+01  0.26089214816E+01  0.51100000000E-03 0.  1.
        -12    1    3    3    0    0 -0.26593086019E+01  0.44364813962E+01  0.65070935578E+01  0.83124338186E+01  0.00000000000E+00 0.  1.
</event>
<event>
 7    1  0.4081218E-008  0.4614232E+02  0.7816164E-02  0.1320468E+00
        -11   -1    0    0    0    0  0.00000000000E+00  0.00000000000E+00  0.45593999997E+02  0.45594000000E+02  0.51100000000E-03 0.  1.
         11   -1    0    0    0    0 -0.00000000000E+00 -0.00000000000E+00 -0.45593999997E+02  0.45594000000E+02  0.51100000000E-03 0. -1.
    9900012    2    1    2    0    0 -0.29941105326E+02  0.33362160984E+02 -0.44283286177E+01  0.46142315767E+02  0.99999818206E+01 0.  0.
        -12    1    1    2    0    0  0.29941105326E+02 -0.33362160984E+02  0.44283286177E+01  0.45045684233E+02  0.00000000000E+00 0.  1.
         11    1    3    3    0    0 -0.55971830851E+01  0.46690313628E+01 -0.13772303111E+01  0.74178889144E+01  0.51100000000E-03 0. -1.
        -11    1    3    3    0    0 -0.81599487659E+01  0.58728762680E+01 -0.37738289509E+01  0.10738585788E+02  0.51100000000E-03 0.  1.
         12    1    3    3    0    0 -0.16183973475E+02  0.22820253353E+02  0.72273064440E+00  0.27985841065E+02  0.00000000000E+00 0. -1.
</event>
<event>
 7    1  0.4081218E-008  0.4614232E+02  0.7816164E-02  0.1320468E+00
        -11   -1    0    0    0    0  0.00000000000E+00  0.00000000000E+00  0.45593999997E+02  0.45594000000E+02  0.51100000000E-03 0.  1.
         11   -1    0    0    0    0 -0.00000000000E+00 -0.00000000000E+00 -0.45593999997E+02  0.45594000000E+02  0.51100000000E-03 0. -1.
    9900012    2    1    2    0    0  0.58123581756E+01  0.36264992796E+02 -0.26080268088E+02  0.46142316593E+02  0.99999893519E+01 0.  0.
        -12    1    1    2    0    0 -0.58123581756E+01 -0.36264992796E+02  0.26080268088E+02  0.45045683407E+02  0.00000000000E+00 0.  1.
         11    1    3    3    0    0  0.37168777369E+01  0.19220456752E+02 -0.11335788235E+02  0.22621698279E+02  0.51100000000E-03 0. -1.
        -11    1    3    3    0    0  0.25123355263E+01  0.17465021989E+02 -0.14622039847E+02  0.22915995994E+02  0.51100000000E-03 0.  1.
        -12    1    3    3    0    0 -0.41685508754E+00 -0.42048594534E+00 -0.12244000568E+00  0.60462231949E+00  0.00000000000E+00 0.  1.
</event>
<event>
 7    1  0.4081218E-008  0.4614232E+02  0.7816164E-02  0.1320468E+00
        -11   -1    0    0    0    0  0.00000000000E+00  0.00000000000E+00  0.45593999997E+02  0.45594000000E+02  0.51100000000E-03 0.  1.
         11   -1    0    0    0    0 -0.00000000000E+00 -0.00000000000E+00 -0.45593999997E+02  0.45594000000E+02  0.51100000000E-03 0. -1.
    9900012    2    1    2    0    0  0.47149849357E+01 -0.17422604633E+02 -0.41271481650E+02  0.46142318379E+02  0.10000005631E+02 0.  0.
        -12    1    1    2    0    0 -0.47149849357E+01  0.17422604633E+02  0.41271481650E+02  0.45045681621E+02  0.00000000000E+00 0.  1.
         11    1    3    3    0    0  0.35827701751E+01 -0.10202610575E+02 -0.22806230333E+02  0.25239921690E+02  0.51100000000E-03 0. -1.
        -11    1    3    3    0    0 -0.92015750412E+00 -0.53189022844E+01 -0.57648340548E+01  0.78975137406E+01  0.51100000000E-03 0.  1.
         12    1    3    3    0    0  0.20523722647E+01 -0.19010917737E+01 -0.12700417263E+02  0.13004882948E+02  0.00000000000E+00 0. -1.
</event>
<event>
 7    1  0.4875223E-008  0.4614232E+02  0.7816164E-02  0.1320468E+00
        -11   -1    0    0    0    0  0.00000000000E+00  0.00000000000E+00  0.45593999997E+02  0.45594000000E+02  0.51100000000E-03 0.  1.
         11   -1    0    0    0    0 -0.00000000000E+00 -0.00000000000E+00 -0.45593999997E+02  0.45594000000E+02  0.51100000000E-03 0. -1.
    9900012    2    1    2    0    0 -0.11597906869E+02  0.35481840181E+02 -0.25211923202E+02  0.46142317655E+02  0.99999990332E+01 0.  0.
        -12    1    1    2    0    0  0.11597906869E+02 -0.35481840181E+02  0.25211923202E+02  0.45045682345E+02  0.00000000000E+00 0.  1.
         11    1    3    3    0    0 -0.76146197127E+01  0.17924314970E+02 -0.14831728436E+02  0.24479454021E+02  0.51100000000E-03 0. -1.
        -11    1    3    3    0    0 -0.38399873340E+01  0.54901271392E+01 -0.54095230217E+01  0.86110358444E+01  0.51100000000E-03 0.  1.
        -12    1    3    3    0    0 -0.14329982277E+00  0.12067398072E+02 -0.49706717447E+01  0.13051827790E+02  0.00000000000E+00 0.  1.
</event>
<event>
 7    1  0.4081218E-008  0.4614232E+02  0.7816164E-02  0.1320468E+00
        -11   -1    0    0    0    0  0.00000000000E+00  0.00000000000E+00  0.45593999997E+02  0.45594000000E+02  0.51100000000E-03 0.  1.
         11   -1    0    0    0    0 -0.00000000000E+00 -0.00000000000E+00 -0.45593999997E+02  0.45594000000E+02  0.51100000000E-03 0. -1.
    9900012    2    1    2    0    0 -0.14557221256E+02 -0.40257362184E+02 -0.14019474384E+02  0.46142316936E+02  0.99999924760E+01 0.  0.
        -12    1    1    2    0    0  0.14557221256E+02  0.40257362184E+02  0.14019474384E+02  0.45045683064E+02  0.00000000000E+00 0.  1.
         11    1    3    3    0    0 -0.49623512387E+01 -0.80895250793E+01 -0.53419352126E+01  0.10890436993E+02  0.51100000000E-03 0. -1.
        -11    1    3    3    0    0 -0.63986217019E+01 -0.11349037052E+02 -0.44620488462E+01  0.13771451698E+02  0.51100000000E-03 0.  1.
         12    1    3    3    0    0 -0.31962483156E+01 -0.20818800052E+02 -0.42154903251E+01  0.21480428245E+02  0.00000000000E+00 0. -1.
</event>
<event>
 7    1  0.4081218E-008  0.4614232E+02  0.7816164E-02  0.1320468E+00
        -11   -1    0    0    0    0  0.00000000000E+00  0.00000000000E+00  0.45593999997E+02  0.45594000000E+02  0.51100000000E-03 0.  1.
         11   -1    0    0    0    0 -0.00000000000E+00 -0.00000000000E+00 -0.45593999997E+02  0.45594000000E+02  0.51100000000E-03 0. -1.
    9900012    2    1    2    0    0 -0.93965400458E+01 -0.40737408880E+02 -0.16771463580E+02  0.46142318323E+02  0.10000005125E+02 0.  0.
        -12    1    1    2    0    0  0.93965400458E+01  0.40737408880E+02  0.16771463580E+02  0.45045681677E+02  0.00000000000E+00 0.  1.
         11    1    3    3    0    0 -0.83776768541E+01 -0.35211033396E+02 -0.13242668361E+02  0.38540506066E+02  0.51100000000E-03 0. -1.
        -11    1    3    3    0    0 -0.84021856657E+00 -0.36015998438E+01 -0.14060837686E+00  0.37009809039E+01  0.51100000000E-03 0.  1.
        -12    1    3    3    0    0 -0.17864462514E+00 -0.19247756410E+01 -0.33881868416E+01  0.39008313529E+01  0.00000000000E+00 0.  1.
</event>
<event>
 7    1  0.4081218E-008  0.4614231E+02  0.7816164E-02  0.1320468E+00
        -11   -1    0    0    0    0  0.00000000000E+00  0.00000000000E+00  0.45593999997E+02  0.45594000000E+02  0.51100000000E-03 0.  1.
         11   -1    0    0    0    0 -0.00000000000E+00 -0.00000000000E+00 -0.45593999997E+02  0.45594000000E+02  0.51100000000E-03 0. -1.
    9900012    2    1    2    0    0 -0.87164307292E+01 -0.19719214945E+02 -0.39551109823E+02  0.46142313292E+02  0.99999592494E+01 0.  0.
        -12    1    1    2    0    0  0.87164307292E+01  0.19719214945E+02  0.39551109823E+02  0.45045686708E+02  0.00000000000E+00 0.  1.
         11    1    3    3    0    0  0.61091116318E+00 -0.81205281651E+00 -0.78423543277E+00  0.12836150908E+01  0.51100000000E-03 0. -1.
        -11    1    3    3    0    0 -0.52283041580E+01 -0.43333169408E+01 -0.74875315274E+01  0.10108210955E+02  0.51100000000E-03 0.  1.
         12    1    3    3    0    0 -0.40990377344E+01 -0.14573845188E+02 -0.31279342863E+02  0.34750487246E+02  0.00000000000E+00 0. -1.
</event>
<event>
 7    1  0.4081218E-008  0.4614232E+02  0.7816164E-02  0.1320468E+00
        -11   -1    0    0    0    0  0.00000000000E+00  0.00000000000E+00  0.45593999997E+02  0.45594000000E+02  0.51100000000E-03 0. -1.
         11   -1    0    0    0    0 -0.00000000000E+00 -0.00000000000E+00 -0.45593999997E+02  0.45594000000E+02  0.51100000000E-03 0.  1.
    9900012    2    1    2    0    0 -0.18679497174E+02 -0.12989535447E+02  0.38877523702E+02  0.46142317688E+02  0.99999993291E+01 0.  0.
        -12    1    1    2    0    0  0.18679497174E+02  0.12989535447E+02 -0.38877523702E+02  0.45045682312E+02  0.00000000000E+00 0.  1.
         11    1    3    3    0    0 -0.11722987355E+02 -0.21890448962E+01  0.18033566452E+02  0.21620126487E+02  0.51100000000E-03 0. -1.
        -11    1    3    3    0    0 -0.15103937365E+01 -0.33741779410E+01  0.55075851105E+01  0.66332390299E+01  0.51100000000E-03 0.  1.
         12    1    3    3    0    0 -0.54461160829E+01 -0.74263126094E+01  0.15336372140E+02  0.17888952171E+02  0.00000000000E+00 0. -1.
</event>
<event>
 7    1  0.4081218E-008  0.4614232E+02  0.7816164E-02  0.1320468E+00
        -11   -1    0    0    0    0  0.00000000000E+00  0.00000000000E+00  0.45593999997E+02  0.45594000000E+02  0.51100000000E-03 0.  1.
         11   -1    0    0    0    0 -0.00000000000E+00 -0.00000000000E+00 -0.45593999997E+02  0.45594000000E+02  0.51100000000E-03 0. -1.
    9900012    2    1    2    0    0 -0.76828833009E+01 -0.40742103857E+02 -0.17611564391E+02  0.46142324039E+02  0.10000057249E+02 0.  0.
        -12    1    1    2    0    0  0.76828833009E+01  0.40742103857E+02  0.17611564391E+02  0.45045675961E+02  0.00000000000E+00 0.  1.
         11    1    3    3    0    0 -0.57350437233E+01 -0.27930587575E+02 -0.11407114778E+02  0.30710433351E+02  0.51100000000E-03 0. -1.
        -11    1    3    3    0    0 -0.62570284810E+00 -0.92979200108E+00 -0.27779180565E+01  0.29954709495E+01  0.51100000000E-03 0.  1.
        -12    1    3    3    0    0 -0.13221367295E+01 -0.11881724281E+02 -0.34265315565E+01  0.12436419739E+02  0.00000000000E+00 0.  1.
</event>
<event>
 7    1  0.4081218E-008  0.4614232E+02  0.7816164E-02  0.1320468E+00
        -11   -1    0    0    0    0  0.00000000000E+00  0.00000000000E+00  0.45593999997E+02  0.45594000000E+02  0.51100000000E-03 0.  1.
         11   -1    0    0    0    0 -0.00000000000E+00 -0.00000000000E+00 -0.45593999997E+02  0.45594000000E+02  0.51100000000E-03 0. -1.
    9900012    2    1    2    0    0  0.16635503720E+02  0.40129968692E+02  0.11914661530E+02  0.46142317292E+02  0.99999957217E+01 0.  0.
        -12    1    1    2    0    0 -0.16635503720E+02 -0.40129968692E+02 -0.11914661530E+02  0.45045682708E+02  0.00000000000E+00 0.  1.
         11    1    3    3    0    0  0.70372560890E+01  0.83350584961E+01  0.26364068185E+01  0.11222602843E+02  0.51100000000E-03 0. -1.
        -11    1    3    3    0    0  0.21394409795E+00  0.54599005149E+01  0.27035236077E-02  0.54640912583E+01  0.51100000000E-03 0.  1.
        -12    1    3    3    0    0  0.93843035334E+01  0.26335009681E+02  0.92755511876E+01  0.29455623191E+02  0.00000000000E+00 0.  1.
</event>
<event>
 7    1  0.4081218E-008  0.4614232E+02  0.7816164E-02  0.1320468E+00
        -11   -1    0    0    0    0  0.00000000000E+00  0.00000000000E+00  0.45593999997E+02  0.45594000000E+02  0.51100000000E-03 0. -1.
         11   -1    0    0    0    0 -0.00000000000E+00 -0.00000000000E+00 -0.45593999997E+02  0.45594000000E+02  0.51100000000E-03 0.  1.
    9900012    2    1    2    0    0  0.10144393451E+02  0.42942058368E+02 -0.90655615524E+01  0.46142317614E+02  0.99999986606E+01 0.  0.
        -12    1    1    2    0    0 -0.10144393451E+02 -0.42942058368E+02  0.90655615524E+01  0.45045682386E+02  0.00000000000E+00 0.  1.
         11    1    3    3    0    0  0.18983169351E+01  0.63102669889E+01 -0.35472183151E+01  0.74837046102E+01  0.51100000000E-03 0. -1.
        -11    1    3    3    0    0  0.17585213750E+01  0.66394998197E+01 -0.39709188926E+01  0.79336972714E+01  0.51100000000E-03 0.  1.
         12    1    3    3    0    0  0.64875551410E+01  0.29992291559E+02 -0.15474243447E+01  0.30724915733E+02  0.00000000000E+00 0. -1.
</event>
<event>
 7    1  0.4081218E-008  0.4614232E+02  0.7816164E-02  0.1320468E+00
        -11   -1    0    0    0    0  0.00000000000E+00  0.00000000000E+00  0.45593999997E+02  0.45594000000E+02  0.51100000000E-03 0. -1.
         11   -1    0    0    0    0 -0.00000000000E+00 -0.00000000000E+00 -0.45593999997E+02  0.45594000000E+02  0.51100000000E-03 0.  1.
    9900012    2    1    2    0    0  0.24089716428E+01  0.42764464165E+02  0.13946717000E+02  0.46142318134E+02  0.10000003401E+02 0.  0.
        -12    1    1    2    0    0 -0.24089716428E+01 -0.42764464165E+02 -0.13946717000E+02  0.45045681866E+02  0.00000000000E+00 0.  1.
         11    1    3    3    0    0  0.29694426212E+01  0.12308638996E+02  0.49265334112E+01  0.13586423927E+02  0.51100000000E-03 0. -1.
        -11    1    3    3    0    0  0.30996396145E+01  0.90825949227E+01  0.27927707703E+01  0.99950420262E+01  0.51100000000E-03 0.  1.
         12    1    3    3    0    0 -0.36601105929E+01  0.21373230246E+02  0.62274128186E+01  0.22560852181E+02  0.00000000000E+00 0. -1.
</event>
<event>
 7    1  0.4081218E-008  0.4614232E+02  0.7816164E-02  0.1320468E+00
        -11   -1    0    0    0    0  0.00000000000E+00  0.00000000000E+00  0.45593999997E+02  0.45594000000E+02  0.51100000000E-03 0.  1.
         11   -1    0    0    0    0 -0.00000000000E+00 -0.00000000000E+00 -0.45593999997E+02  0.45594000000E+02  0.51100000000E-03 0. -1.
    9900012    2    1    2    0    0  0.43605026710E+02  0.11087946744E+02 -0.21845613561E+01  0.46142320677E+02  0.10000026585E+02 0.  0.
        -12    1    1    2    0    0 -0.43605026710E+02 -0.11087946744E+02  0.21845613561E+01  0.45045679323E+02  0.00000000000E+00 0.  1.
         11    1    3    3    0    0  0.12849973396E+02  0.44222739169E+01 -0.39803833228E+01  0.14160571123E+02  0.51100000000E-03 0. -1.
        -11    1    3    3    0    0  0.21502042818E+02  0.24523263452E+01 -0.87768469603E-01  0.21641613928E+02  0.51100000000E-03 0.  1.
         12    1    3    3    0    0  0.92530104965E+01  0.42133464816E+01  0.18835904363E+01  0.10340135625E+02  0.00000000000E+00 0. -1.
</event>
<event>
 7    1  0.4081218E-008  0.4614232E+02  0.7816164E-02  0.1320468E+00
        -11   -1    0    0    0    0  0.00000000000E+00  0.00000000000E+00  0.45593999997E+02  0.45594000000E+02  0.51100000000E-03 0.  1.
         11   -1    0    0    0    0 -0.00000000000E+00 -0.00000000000E+00 -0.45593999997E+02  0.45594000000E+02  0.51100000000E-03 0. -1.
    9900012    2    1    2    0    0  0.11401083820E+02  0.35822060762E+02 -0.24817510023E+02  0.46142317041E+02  0.99999934290E+01 0.  0.
        -12    1    1    2    0    0 -0.11401083820E+02 -0.35822060762E+02  0.24817510023E+02  0.45045682959E+02  0.00000000000E+00 0.  1.
         11    1    3    3    0    0  0.18343017325E+01  0.25073393919E+01 -0.38442631244E+01  0.49426483693E+01  0.51100000000E-03 0. -1.
        -11    1    3    3    0    0  0.42498073244E+01  0.49736271074E+01 -0.50131050847E+01  0.82419082590E+01  0.51100000000E-03 0.  1.
         12    1    3    3    0    0  0.53169747628E+01  0.28341094263E+02 -0.15960141814E+02  0.32957760412E+02  0.00000000000E+00 0. -1.
</event>
<event>
 7    1  0.4081218E-008  0.4614232E+02  0.7816164E-02  0.1320468E+00
        -11   -1    0    0    0    0  0.00000000000E+00  0.00000000000E+00  0.45593999997E+02  0.45594000000E+02  0.51100000000E-03 0.  1.
         11   -1    0    0    0    0 -0.00000000000E+00 -0.00000000000E+00 -0.45593999997E+02  0.45594000000E+02  0.51100000000E-03 0. -1.
    9900012    2    1    2    0    0 -0.19912313765E+01  0.67267643037E+01 -0.44496056182E+02  0.46142319007E+02  0.10000011363E+02 0.  0.
        -12    1    1    2    0    0  0.19912313765E+01 -0.67267643037E+01  0.44496056182E+02  0.45045680993E+02  0.00000000000E+00 0.  1.
         11    1    3    3    0    0 -0.33612480300E+01  0.43159362320E+01 -0.12612703383E+02  0.13747930054E+02  0.51100000000E-03 0. -1.
        -11    1    3    3    0    0 -0.69457462011E+00 -0.87291661741E+00 -0.22829137730E+01  0.25408882069E+01  0.51100000000E-03 0.  1.
         12    1    3    3    0    0  0.20645912736E+01  0.32837446891E+01 -0.29600439025E+02  0.29853500746E+02  0.00000000000E+00 0. -1.
</event>
<event>
 7    1  0.4081218E-008  0.4614232E+02  0.7816164E-02  0.1320468E+00
        -11   -1    0    0    0    0  0.00000000000E+00  0.00000000000E+00  0.45593999997E+02  0.45594000000E+02  0.51100000000E-03 0.  1.
         11   -1    0    0    0    0 -0.00000000000E+00 -0.00000000000E+00 -0.45593999997E+02  0.45594000000E+02  0.51100000000E-03 0. -1.
    9900012    2    1    2    0    0 -0.23938426775E+02  0.36428843991E+02  0.11358015554E+02  0.46142317984E+02  0.10000002029E+02 0.  0.
        -12    1    1    2    0    0  0.23938426775E+02 -0.36428843991E+02 -0.11358015554E+02  0.45045682016E+02  0.00000000000E+00 0.  1.
         11    1    3    3    0    0 -0.11771397197E+02  0.12616159748E+02  0.24844158816E+01  0.17432888496E+02  0.51100000000E-03 0. -1.
        -11    1    3    3    0    0 -0.88489592811E+01  0.11267555544E+02  0.47108797422E+01  0.15081587334E+02  0.51100000000E-03 0.  1.
        -12    1    3    3    0    0 -0.33180702967E+01  0.12545128699E+02  0.41627199302E+01  0.13627842154E+02  0.00000000000E+00 0.  1.
</event>
<event>
 7    1  0.4081218E-008  0.4614232E+02  0.7816164E-02  0.1320468E+00
        -11   -1    0    0    0    0  0.00000000000E+00  0.00000000000E+00  0.45593999997E+02  0.45594000000E+02  0.51100000000E-03 0.  1.
         11   -1    0    0    0    0 -0.00000000000E+00 -0.00000000000E+00 -0.45593999997E+02  0.45594000000E+02  0.51100000000E-03 0. -1.
    9900012    2    1    2    0    0 -0.16342914159E+02  0.21787287665E+02 -0.35879473691E+02  0.46142318972E+02  0.10000011040E+02 0.  0.
        -12    1    1    2    0    0  0.16342914159E+02 -0.21787287665E+02  0.35879473691E+02  0.45045681028E+02  0.00000000000E+00 0.  1.
         11    1    3    3    0    0 -0.34793945987E+01  0.32466701378E+01 -0.15375980654E+01  0.50011260561E+01  0.51100000000E-03 0.  1.
        -11    1    3    3    0    0 -0.89573272504E+01  0.11241981368E+02 -0.22074696430E+02  0.26342135056E+02  0.51100000000E-03 0. -1.
        -12    1    3    3    0    0 -0.39061923094E+01  0.72986361589E+01 -0.12267179195E+02  0.14799057860E+02  0.00000000000E+00 0.  1.
</event>
<event>
 7    1  0.4081218E-008  0.4614232E+02  0.7816164E-02  0.1320468E+00
        -11   -1    0    0    0    0  0.00000000000E+00  0.00000000000E+00  0.45593999997E+02  0.45594000000E+02  0.51100000000E-03 0.  1.
         11   -1    0    0    0    0 -0.00000000000E+00 -0.00000000000E+00 -0.45593999997E+02  0.45594000000E+02  0.51100000000E-03 0. -1.
    9900012    2    1    2    0    0  0.26402413646E+02  0.36485603439E+02 -0.90931224114E+00  0.46142317039E+02  0.99999934188E+01 0.  0.
        -12    1    1    2    0    0 -0.26402413646E+02 -0.36485603439E+02  0.90931224114E+00  0.45045682961E+02  0.00000000000E+00 0.  1.
         11    1    3    3    0    0  0.40256465601E+00 -0.32914817454E+00 -0.32638013967E+00  0.61393898700E+00  0.51100000000E-03 0.  1.
        -11    1    3    3    0    0  0.10153847387E+02  0.14101253004E+02  0.28950291335E+01  0.17616104762E+02  0.51100000000E-03 0. -1.
        -12    1    3    3    0    0  0.15846001602E+02  0.22713498610E+02 -0.34779612350E+01  0.27912273290E+02  0.00000000000E+00 0.  1.
</event>
<event>
 7    1  0.4081218E-008  0.4614232E+02  0.7816164E-02  0.1320468E+00
        -11   -1    0    0    0    0  0.00000000000E+00  0.00000000000E+00  0.45593999997E+02  0.45594000000E+02  0.51100000000E-03 0. -1.
         11   -1    0    0    0    0 -0.00000000000E+00 -0.00000000000E+00 -0.45593999997E+02  0.45594000000E+02  0.51100000000E-03 0.  1.
    9900012    2    1    2    0    0 -0.44629416996E+01  0.44794640216E+02  0.16235361971E+01  0.46142317516E+02  0.99999977644E+01 0.  0.
        -12    1    1    2    0    0  0.44629416996E+01 -0.44794640216E+02 -0.16235361971E+01  0.45045682484E+02  0.00000000000E+00 0.  1.
         11    1    3    3    0    0 -0.37216746016E+01  0.11985431462E+02  0.28956318787E+01  0.12879678311E+02  0.51100000000E-03 0. -1.
        -11    1    3    3    0    0  0.16772588442E+01  0.12927342376E+02  0.11594205889E+01  0.13087155325E+02  0.51100000000E-03 0.  1.
         12    1    3    3    0    0 -0.24185259422E+01  0.19881866379E+02 -0.24315162705E+01  0.20175483880E+02  0.00000000000E+00 0. -1.
</event>
<event>
 7    1  0.4081218E-008  0.4614232E+02  0.7816164E-02  0.1320468E+00
        -11   -1    0    0    0    0  0.00000000000E+00  0.00000000000E+00  0.45593999997E+02  0.45594000000E+02  0.51100000000E-03 0.  1.
         11   -1    0    0    0    0 -0.00000000000E+00 -0.00000000000E+00 -0.45593999997E+02  0.45594000000E+02  0.51100000000E-03 0. -1.
    9900012    2    1    2    0    0 -0.41259437586E+02  0.12062178766E+02  0.13463881366E+02  0.46142318210E+02  0.10000004096E+02 0.  0.
        -12    1    1    2    0    0  0.41259437586E+02 -0.12062178766E+02 -0.13463881366E+02  0.45045681790E+02  0.00000000000E+00 0.  1.
         11    1    3    3    0    0 -0.13979229618E+02 -0.22759322198E+00  0.49204263728E+01  0.14821648199E+02  0.51100000000E-03 0. -1.
        -11    1    3    3    0    0 -0.13878390173E+02  0.81999941351E+01  0.44356291178E+01  0.16718983926E+02  0.51100000000E-03 0.  1.
         12    1    3    3    0    0 -0.13401817795E+02  0.40897778525E+01  0.41078258755E+01  0.14601686085E+02  0.00000000000E+00 0. -1.
</event>
<event>
 7    1  0.4081218E-008  0.4614232E+02  0.7816164E-02  0.1320468E+00
        -11   -1    0    0    0    0  0.00000000000E+00  0.00000000000E+00  0.45593999997E+02  0.45594000000E+02  0.51100000000E-03 0.  1.
         11   -1    0    0    0    0 -0.00000000000E+00 -0.00000000000E+00 -0.45593999997E+02  0.45594000000E+02  0.51100000000E-03 0. -1.
    9900012    2    1    2    0    0 -0.28182605152E+02  0.10103335544E+02 -0.33656752093E+02  0.46142316703E+02  0.99999903478E+01 0.  0.
        -12    1    1    2    0    0  0.28182605152E+02 -0.10103335544E+02  0.33656752093E+02  0.45045683297E+02  0.00000000000E+00 0.  1.
         11    1    3    3    0    0 -0.71382943856E+01  0.10586372615E+00 -0.12070955631E+02  0.14024065886E+02  0.51100000000E-03 0. -1.
        -11    1    3    3    0    0 -0.34200124072E+01 -0.61025524543E-01 -0.22913976880E+01  0.41171243126E+01  0.51100000000E-03 0.  1.
         12    1    3    3    0    0 -0.17624298359E+02  0.10058497343E+02 -0.19294398775E+02  0.28001126504E+02  0.00000000000E+00 0. -1.
</event>
<event>
 7    1  0.4081218E-008  0.4614232E+02  0.7816164E-02  0.1320468E+00
        -11   -1    0    0    0    0  0.00000000000E+00  0.00000000000E+00  0.45593999997E+02  0.45594000000E+02  0.51100000000E-03 0.  1.
         11   -1    0    0    0    0 -0.00000000000E+00 -0.00000000000E+00 -0.45593999997E+02  0.45594000000E+02  0.51100000000E-03 0. -1.
    9900012    2    1    2    0    0  0.19300771706E+02  0.26641593626E+00 -0.40700401636E+02  0.46142318084E+02  0.10000002946E+02 0.  0.
        -12    1    1    2    0    0 -0.19300771706E+02 -0.26641593626E+00  0.40700401636E+02  0.45045681916E+02  0.00000000000E+00 0.  1.
         11    1    3    3    0    0  0.12776557571E+02 -0.29191271653E+00 -0.25741370281E+02  0.28739237648E+02  0.51100000000E-03 0. -1.
        -11    1    3    3    0    0  0.62133365079E+01  0.15299589299E+01 -0.74318134343E+01  0.98070472657E+01  0.51100000000E-03 0.  1.
        -12    1    3    3    0    0  0.31087762751E+00 -0.97163027707E+00 -0.75272179207E+01  0.75960331701E+01  0.00000000000E+00 0.  1.
</event>
<event>
 7    1  0.4081218E-008  0.4614232E+02  0.7816164E-02  0.1320468E+00
        -11   -1    0    0    0    0  0.00000000000E+00  0.00000000000E+00  0.45593999997E+02  0.45594000000E+02  0.51100000000E-03 0.  1.
         11   -1    0    0    0    0 -0.00000000000E+00 -0.00000000000E+00 -0.45593999997E+02  0.45594000000E+02  0.51100000000E-03 0. -1.
    9900012    2    1    2    0    0  0.14242356116E+02 -0.16491935828E+02 -0.39424419457E+02  0.46142317580E+02  0.99999983514E+01 0.  0.
        -12    1    1    2    0    0 -0.14242356116E+02  0.16491935828E+02  0.39424419457E+02  0.45045682420E+02  0.00000000000E+00 0.  1.
         11    1    3    3    0    0  0.68309264016E+01 -0.14511815517E+02 -0.23708084346E+02  0.28623899258E+02  0.51100000000E-03 0. -1.
        -11    1    3    3    0    0  0.78577887671E+00 -0.44226490524E+00 -0.24370302467E+01  0.25984925195E+01  0.51100000000E-03 0.  1.
         12    1    3    3    0    0  0.66256508378E+01 -0.15378554059E+01 -0.13279304864E+02  0.14919925803E+02  0.00000000000E+00 0. -1.
</event>
<event>
 7    1  0.4081218E-008  0.4614232E+02  0.7816164E-02  0.1320468E+00
        -11   -1    0    0    0    0  0.00000000000E+00  0.00000000000E+00  0.45593999997E+02  0.45594000000E+02  0.51100000000E-03 0.  1.
         11   -1    0    0    0    0 -0.00000000000E+00 -0.00000000000E+00 -0.45593999997E+02  0.45594000000E+02  0.51100000000E-03 0. -1.
    9900012    2    1    2    0    0  0.19410110472E+02 -0.13598273482E+01 -0.40626492597E+02  0.46142318524E+02  0.10000006954E+02 0.  0.
        -12    1    1    2    0    0 -0.19410110472E+02  0.13598273482E+01  0.40626492597E+02  0.45045681476E+02  0.00000000000E+00 0.  1.
         11    1    3    3    0    0  0.13109043466E+02  0.12806863711E+00 -0.27155966045E+02  0.30154766029E+02  0.51100000000E-03 0. -1.
        -11    1    3    3    0    0  0.63547660245E+01 -0.25779943835E+00 -0.72409926453E+01  0.96375041648E+01  0.51100000000E-03 0.  1.
        -12    1    3    3    0    0 -0.53699018473E-01 -0.12300965469E+01 -0.62295339063E+01  0.63500483297E+01  0.00000000000E+00 0.  1.
</event>
<event>
 7    1  0.4081218E-008  0.4614232E+02  0.7816164E-02  0.1320468E+00
        -11   -1    0    0    0    0  0.00000000000E+00  0.00000000000E+00  0.45593999997E+02  0.45594000000E+02  0.51100000000E-03 0.  1.
         11   -1    0    0    0    0 -0.00000000000E+00 -0.00000000000E+00 -0.45593999997E+02  0.45594000000E+02  0.51100000000E-03 0. -1.
    9900012    2    1    2    0    0  0.38866416515E+02 -0.22398095263E+02 -0.41037182977E+01  0.46142317544E+02  0.99999980167E+01 0.  0.
        -12    1    1    2    0    0 -0.38866416515E+02  0.22398095263E+02  0.41037182977E+01  0.45045682456E+02  0.00000000000E+00 0.  1.
         11    1    3    3    0    0  0.92884220497E+01 -0.29791025711E+01  0.14620116270E+01  0.98634332036E+01  0.51100000000E-03 0.  1.
        -11    1    3    3    0    0  0.10704266898E+02 -0.57447013734E+01  0.62348910162E+00  0.12164360345E+02  0.51100000000E-03 0. -1.
        -12    1    3    3    0    0  0.18873727567E+02 -0.13674291319E+02 -0.61892190263E+01  0.24114523995E+02  0.00000000000E+00 0.  1.
</event>
<event>
 7    1  0.4081218E-008  0.4614232E+02  0.7816164E-02  0.1320468E+00
        -11   -1    0    0    0    0  0.00000000000E+00  0.00000000000E+00  0.45593999997E+02  0.45594000000E+02  0.51100000000E-03 0. -1.
         11   -1    0    0    0    0 -0.00000000000E+00 -0.00000000000E+00 -0.45593999997E+02  0.45594000000E+02  0.51100000000E-03 0.  1.
    9900012    2    1    2    0    0 -0.41656072491E+02  0.15344397999E+02 -0.76442411513E+01  0.46142319318E+02  0.10000014197E+02 0.  0.
        -12    1    1    2    0    0  0.41656072491E+02 -0.15344397999E+02  0.76442411513E+01  0.45045680682E+02  0.00000000000E+00 0.  1.
         11    1    3    3    0    0 -0.52317962296E+01  0.17500470475E+01  0.58246055848E-02  0.55167373187E+01  0.51100000000E-03 0. -1.
        -11    1    3    3    0    0 -0.12930023004E+02  0.59117724275E+00 -0.11301244053E+01  0.12992773639E+02  0.51100000000E-03 0.  1.
        -12    1    3    3    0    0 -0.23494253258E+02  0.13003173709E+02 -0.65199413516E+01  0.27632808360E+02  0.00000000000E+00 0.  1.
</event>
<event>
 7    1  0.4081218E-008  0.4614232E+02  0.7816164E-02  0.1320468E+00
        -11   -1    0    0    0    0  0.00000000000E+00  0.00000000000E+00  0.45593999997E+02  0.45594000000E+02  0.51100000000E-03 0.  1.
         11   -1    0    0    0    0 -0.00000000000E+00 -0.00000000000E+00 -0.45593999997E+02  0.45594000000E+02  0.51100000000E-03 0. -1.
    9900012    2    1    2    0    0  0.31930997201E+02  0.31671631267E+02  0.25362846976E+01  0.46142317084E+02  0.99999938243E+01 0.  0.
        -12    1    1    2    0    0 -0.31930997201E+02 -0.31671631267E+02 -0.25362846976E+01  0.45045682916E+02  0.00000000000E+00 0.  1.
         11    1    3    3    0    0  0.52651425667E+00 -0.29848800141E+00 -0.11222969408E+00  0.61555512736E+00  0.51100000000E-03 0. -1.
        -11    1    3    3    0    0  0.67025001596E+01  0.63274828789E+01 -0.25019604040E+01  0.95509347237E+01  0.51100000000E-03 0.  1.
         12    1    3    3    0    0  0.24701982784E+02  0.25642636389E+02  0.51504747957E+01  0.35975827233E+02  0.00000000000E+00 0. -1.
</event>
<event>
 7    1  0.4081218E-008  0.4614232E+02  0.7816164E-02  0.1320468E+00
        -11   -1    0    0    0    0  0.00000000000E+00  0.00000000000E+00  0.45593999997E+02  0.45594000000E+02  0.51100000000E-03 0. -1.
         11   -1    0    0    0    0 -0.00000000000E+00 -0.00000000000E+00 -0.45593999997E+02  0.45594000000E+02  0.51100000000E-03 0.  1.
    9900012    2    1    2    0    0  0.21042250250E+02 -0.35802382921E+02  0.17450684962E+02  0.46142319585E+02  0.10000016635E+02 0.  0.
        -12    1    1    2    0    0 -0.21042250250E+02  0.35802382921E+02 -0.17450684962E+02  0.45045680415E+02  0.00000000000E+00 0.  1.
         11    1    3    3    0    0  0.62084565082E+01 -0.12525748366E+02  0.81854717215E+01  0.16200038639E+02  0.51100000000E-03 0.  1.
        -11    1    3    3    0    0  0.12259227072E+02 -0.13438862004E+02  0.72122623044E+01  0.19568045078E+02  0.51100000000E-03 0. -1.
        -12    1    3    3    0    0  0.25745666692E+01 -0.98377725517E+01  0.20529509356E+01  0.10374235869E+02  0.00000000000E+00 0.  1.
</event>
<event>
 7    1  0.4081218E-008  0.4614232E+02  0.7816164E-02  0.1320468E+00
        -11   -1    0    0    0    0  0.00000000000E+00  0.00000000000E+00  0.45593999997E+02  0.45594000000E+02  0.51100000000E-03 0. -1.
         11   -1    0    0    0    0 -0.00000000000E+00 -0.00000000000E+00 -0.45593999997E+02  0.45594000000E+02  0.51100000000E-03 0.  1.
    9900012    2    1    2    0    0  0.19691724086E+01  0.21486785592E+02  0.39541799732E+02  0.46142317398E+02  0.99999966916E+01 0.  0.
        -12    1    1    2    0    0 -0.19691724086E+01 -0.21486785592E+02 -0.39541799732E+02  0.45045682602E+02  0.00000000000E+00 0.  1.
         11    1    3    3    0    0  0.30242060553E+01  0.14222211933E+02  0.26406188190E+02  0.30144716113E+02  0.51100000000E-03 0. -1.
        -11    1    3    3    0    0 -0.54842411930E+00  0.69695659570E+01  0.72093989270E+01  0.10042462437E+02  0.51100000000E-03 0.  1.
        -12    1    3    3    0    0 -0.50660952743E+00  0.29500770211E+00  0.59262126144E+01  0.59551388488E+01  0.00000000000E+00 0.  1.
</event>
<event>
 7    1  0.4399508E-008  0.4614232E+02  0.7816164E-02  0.1320468E+00
        -11   -1    0    0    0    0  0.00000000000E+00  0.00000000000E+00  0.45593999997E+02  0.45594000000E+02  0.51100000000E-03 0.  1.
         11   -1    0    0    0    0 -0.00000000000E+00 -0.00000000000E+00 -0.45593999997E+02  0.45594000000E+02  0.51100000000E-03 0. -1.
    9900012    2    1    2    0    0 -0.21586905550E+02 -0.37265755121E+02 -0.13205396567E+02  0.46142317694E+02  0.99999993881E+01 0.  0.
        -12    1    1    2    0    0  0.21586905550E+02  0.37265755121E+02  0.13205396567E+02  0.45045682306E+02  0.00000000000E+00 0.  1.
         11    1    3    3    0    0 -0.98324507489E+01 -0.17912589635E+02 -0.77224043354E+01  0.21844300954E+02  0.51100000000E-03 0. -1.
        -11    1    3    3    0    0 -0.61411284702E+01 -0.12625683508E+02 -0.65108139617E+01  0.15476176583E+02  0.51100000000E-03 0.  1.
        -12    1    3    3    0    0 -0.56133263307E+01 -0.67274819774E+01  0.10278217300E+01  0.88218401572E+01  0.00000000000E+00 0.  1.
</event>
<event>
 7    1  0.4081218E-008  0.4614232E+02  0.7816164E-02  0.1320468E+00
        -11   -1    0    0    0    0  0.00000000000E+00  0.00000000000E+00  0.45593999997E+02  0.45594000000E+02  0.51100000000E-03 0.  1.
         11   -1    0    0    0    0 -0.00000000000E+00 -0.00000000000E+00 -0.45593999997E+02  0.45594000000E+02  0.51100000000E-03 0. -1.
    9900012    2    1    2    0    0 -0.16302863232E+02 -0.10828037449E+02 -0.40571957456E+02  0.46142317894E+02  0.10000001216E+02 0.  0.
        -12    1    1    2    0    0  0.16302863232E+02  0.10828037449E+02  0.40571957456E+02  0.45045682106E+02  0.00000000000E+00 0.  1.
         11    1    3    3    0    0 -0.58742496109E+00  0.90769158504E+00 -0.11924572591E+01  0.16096355719E+01  0.51100000000E-03 0. -1.
        -11    1    3    3    0    0 -0.40959612708E+01 -0.46220257166E+01 -0.66217496728E+01  0.90546998541E+01  0.51100000000E-03 0.  1.
         12    1    3    3    0    0 -0.11619477000E+02 -0.71137033174E+01 -0.32757750524E+02  0.35477982468E+02  0.00000000000E+00 0. -1.
</event>
<event>
 7    1  0.4081218E-008  0.4614232E+02  0.7816164E-02  0.1320468E+00
        -11   -1    0    0    0    0  0.00000000000E+00  0.00000000000E+00  0.45593999997E+02  0.45594000000E+02  0.51100000000E-03 0.  1.
         11   -1    0    0    0    0 -0.00000000000E+00 -0.00000000000E+00 -0.45593999997E+02  0.45594000000E+02  0.51100000000E-03 0. -1.
    9900012    2    1    2    0    0 -0.18900402953E+02 -0.30443125366E+02 -0.27296600057E+02  0.46142317760E+02  0.99999999913E+01 0.  0.
        -12    1    1    2    0    0  0.18900402953E+02  0.30443125366E+02  0.27296600057E+02  0.45045682240E+02  0.00000000000E+00 0.  1.
         11    1    3    3    0    0 -0.74021634699E+01 -0.10207144665E+02 -0.13109025702E+02  0.18188578322E+02  0.51100000000E-03 0. -1.
        -11    1    3    3    0    0 -0.26837182740E+01 -0.93545612695E+01 -0.35167177448E+01  0.10347824132E+02  0.51100000000E-03 0.  1.
        -12    1    3    3    0    0 -0.88145212088E+01 -0.10881419431E+02 -0.10670856610E+02  0.17605915306E+02  0.00000000000E+00 0.  1.
</event>
<event>
 7    1  0.4081218E-008  0.4614231E+02  0.7816164E-02  0.1320468E+00
        -11   -1    0    0    0    0  0.00000000000E+00  0.00000000000E+00  0.45593999997E+02  0.45594000000E+02  0.51100000000E-03 0.  1.
         11   -1    0    0    0    0 -0.00000000000E+00 -0.00000000000E+00 -0.45593999997E+02  0.45594000000E+02  0.51100000000E-03 0. -1.
    9900012    2    1    2    0    0  0.28147646019E+02  0.29807108434E+02  0.18664405997E+02  0.46142314959E+02  0.99999744465E+01 0.  0.
        -12    1    1    2    0    0 -0.28147646019E+02 -0.29807108434E+02 -0.18664405997E+02  0.45045685041E+02  0.00000000000E+00 0.  1.
         11    1    3    3    0    0  0.63542638907E+01  0.11197860263E+02  0.23984971468E+01  0.13096622957E+02  0.51100000000E-03 0. -1.
        -11    1    3    3    0    0  0.14813806528E+02  0.13959227491E+02  0.12126444612E+02  0.23693027564E+02  0.51100000000E-03 0.  1.
         12    1    3    3    0    0  0.69795756011E+01  0.46500206796E+01  0.41394642386E+01  0.93526644372E+01  0.00000000000E+00 0. -1.
</event>
<event>
 7    1  0.4808283E-008  0.4614232E+02  0.7816164E-02  0.1320468E+00
        -11   -1    0    0    0    0  0.00000000000E+00  0.00000000000E+00  0.45593999997E+02  0.45594000000E+02  0.51100000000E-03 0.  1.
         11   -1    0    0    0    0 -0.00000000000E+00 -0.00000000000E+00 -0.45593999997E+02  0.45594000000E+02  0.51100000000E-03 0. -1.
    9900012    2    1    2    0    0 -0.26904739683E+02 -0.35827605682E+02 -0.46509303216E+01  0.46142317641E+02  0.99999989077E+01 0.  0.
        -12    1    1    2    0    0  0.26904739683E+02  0.35827605682E+02  0.46509303216E+01  0.45045682359E+02  0.00000000000E+00 0.  1.
         11    1    3    3    0    0 -0.14819648359E+02 -0.21100217065E+02 -0.51791605730E+01  0.26299521710E+02  0.51100000000E-03 0. -1.
        -11    1    3    3    0    0 -0.42669895514E+01 -0.54233323090E+01 -0.24635213121E+01  0.73272553307E+01  0.51100000000E-03 0.  1.
        -12    1    3    3    0    0 -0.78181017723E+01 -0.93040563078E+01  0.29917515635E+01  0.12515540600E+02  0.00000000000E+00 0.  1.
</event>
<event>
 7    1  0.4081218E-008  0.4614232E+02  0.7816164E-02  0.1320468E+00
        -11   -1    0    0    0    0  0.00000000000E+00  0.00000000000E+00  0.45593999997E+02  0.45594000000E+02  0.51100000000E-03 0.  1.
         11   -1    0    0    0    0 -0.00000000000E+00 -0.00000000000E+00 -0.45593999997E+02  0.45594000000E+02  0.51100000000E-03 0. -1.
    9900012    2    1    2    0    0  0.11906453240E+02 -0.42578714191E+02 -0.86257176865E+01  0.46142317227E+02  0.99999951278E+01 0.  0.
        -12    1    1    2    0    0 -0.11906453240E+02  0.42578714191E+02  0.86257176865E+01  0.45045682773E+02  0.00000000000E+00 0.  1.
         11    1    3    3    0    0  0.63428627257E+00 -0.15732037513E+02 -0.53533904148E+01  0.16630036458E+02  0.51100000000E-03 0. -1.
        -11    1    3    3    0    0  0.10607749708E+01 -0.10077452330E+01 -0.66352889925E+00  0.16065692810E+01  0.51100000000E-03 0.  1.
         12    1    3    3    0    0  0.10211391996E+02 -0.25838931444E+02 -0.26087983724E+01  0.27905711488E+02  0.00000000000E+00 0. -1.
</event>
<event>
 7    1  0.4081218E-008  0.4614232E+02  0.7816164E-02  0.1320468E+00
        -11   -1    0    0    0    0  0.00000000000E+00  0.00000000000E+00  0.45593999997E+02  0.45594000000E+02  0.51100000000E-03 0.  1.
         11   -1    0    0    0    0 -0.00000000000E+00 -0.00000000000E+00 -0.45593999997E+02  0.45594000000E+02  0.51100000000E-03 0. -1.
    9900012    2    1    2    0    0  0.40963576906E+02  0.11112320877E+02 -0.15086922840E+02  0.46142317089E+02  0.99999938667E+01 0.  0.
        -12    1    1    2    0    0 -0.40963576906E+02 -0.11112320877E+02  0.15086922840E+02  0.45045682911E+02  0.00000000000E+00 0.  1.
         11    1    3    3    0    0  0.27137153900E+02  0.74476364529E+01 -0.11661891458E+02  0.30461321756E+02  0.51100000000E-03 0. -1.
        -11    1    3    3    0    0 -0.13461576668E+00 -0.40386460605E+00  0.46243624468E+00  0.62855036884E+00  0.51100000000E-03 0.  1.
         12    1    3    3    0    0  0.13961038773E+02  0.40685490299E+01 -0.38874676268E+01  0.15052444963E+02  0.00000000000E+00 0. -1.
</event>
<event>
 7    1  0.5574887E-008  0.4614232E+02  0.7816164E-02  0.1320468E+00
        -11   -1    0    0    0    0  0.00000000000E+00  0.00000000000E+00  0.45593999997E+02  0.45594000000E+02  0.51100000000E-03 0.  1.
         11   -1    0    0    0    0 -0.00000000000E+00 -0.00000000000E+00 -0.45593999997E+02  0.45594000000E+02  0.51100000000E-03 0. -1.
    9900012    2    1    2    0    0 -0.39758193286E+02  0.16473675941E+02 -0.13304795310E+02  0.46142317514E+02  0.99999977498E+01 0.  0.
        -12    1    1    2    0    0  0.39758193286E+02 -0.16473675941E+02  0.13304795310E+02  0.45045682486E+02  0.00000000000E+00 0.  1.
         11    1    3    3    0    0 -0.13777915251E+02  0.68820517419E+01 -0.49981802281E+01  0.16191830986E+02  0.51100000000E-03 0. -1.
        -11    1    3    3    0    0 -0.26378995476E+02  0.90356882073E+01 -0.86371697687E+01  0.29190679430E+02  0.51100000000E-03 0.  1.
        -12    1    3    3    0    0  0.39871744140E+00  0.55593599192E+00  0.33055468662E+00  0.75980709791E+00  0.00000000000E+00 0.  1.
</event>
<event>
 7    1  0.4081218E-008  0.4614232E+02  0.7816164E-02  0.1320468E+00
        -11   -1    0    0    0    0  0.00000000000E+00  0.00000000000E+00  0.45593999997E+02  0.45594000000E+02  0.51100000000E-03 0.  1.
         11   -1    0    0    0    0 -0.00000000000E+00 -0.00000000000E+00 -0.45593999997E+02  0.45594000000E+02  0.51100000000E-03 0. -1.
    9900012    2    1    2    0    0 -0.17638114385E+02 -0.35458715680E+02 -0.21463687137E+02  0.46142318051E+02  0.10000002644E+02 0.  0.
        -12    1    1    2    0    0  0.17638114385E+02  0.35458715680E+02  0.21463687137E+02  0.45045681949E+02  0.00000000000E+00 0.  1.
         11    1    3    3    0    0 -0.10679532134E+02 -0.26629447203E+02 -0.16073618807E+02  0.32886791981E+02  0.51100000000E-03 0. -1.
        -11    1    3    3    0    0 -0.21703300770E+01 -0.55563331975E+01 -0.43014464361E+01  0.73542921447E+01  0.51100000000E-03 0.  1.
        -12    1    3    3    0    0 -0.47882521737E+01 -0.32729352787E+01 -0.10886218943E+01  0.59012339258E+01  0.00000000000E+00 0.  1.
</event>
<event>
 7    1  0.4081218E-008  0.4614232E+02  0.7816164E-02  0.1320468E+00
        -11   -1    0    0    0    0  0.00000000000E+00  0.00000000000E+00  0.45593999997E+02  0.45594000000E+02  0.51100000000E-03 0.  1.
         11   -1    0    0    0    0 -0.00000000000E+00 -0.00000000000E+00 -0.45593999997E+02  0.45594000000E+02  0.51100000000E-03 0. -1.
    9900012    2    1    2    0    0  0.25585802532E+01  0.17438148231E+02 -0.41454531670E+02  0.46142317159E+02  0.99999945084E+01 0.  0.
        -12    1    1    2    0    0 -0.25585802532E+01 -0.17438148231E+02  0.41454531670E+02  0.45045682841E+02  0.00000000000E+00 0.  1.
         11    1    3    3    0    0  0.39745967462E+01  0.11431803062E+02 -0.20022272709E+02  0.23396045504E+02  0.51100000000E-03 0. -1.
        -11    1    3    3    0    0  0.64038856641E+00 -0.48909223351E+00 -0.23104971456E+01  0.24469789640E+01  0.51100000000E-03 0.  1.
         12    1    3    3    0    0 -0.20564050594E+01  0.64954374031E+01 -0.19121761815E+02  0.20299292691E+02  0.00000000000E+00 0. -1.
</event>
<event>
 7    1  0.4081218E-008  0.4614232E+02  0.7816164E-02  0.1320468E+00
        -11   -1    0    0    0    0  0.00000000000E+00  0.00000000000E+00  0.45593999997E+02  0.45594000000E+02  0.51100000000E-03 0.  1.
         11   -1    0    0    0    0 -0.00000000000E+00 -0.00000000000E+00 -0.45593999997E+02  0.45594000000E+02  0.51100000000E-03 0. -1.
    9900012    2    1    2    0    0  0.12833896370E+02  0.26416559673E+02 -0.34155085967E+02  0.46142318537E+02  0.10000007079E+02 0.  0.
        -12    1    1    2    0    0 -0.12833896370E+02 -0.26416559673E+02  0.34155085967E+02  0.45045681463E+02  0.00000000000E+00 0.  1.
         11    1    3    3    0    0  0.70011784753E+01  0.18795029128E+02 -0.27214665712E+02  0.33806917192E+02  0.51100000000E-03 0. -1.
        -11    1    3    3    0    0  0.62527664406E+01  0.66751341662E+01 -0.64351122700E+01  0.11183254199E+02  0.51100000000E-03 0.  1.
        -12    1    3    3    0    0 -0.42004854537E+00  0.94639637832E+00 -0.50530798539E+00  0.11521471458E+01  0.00000000000E+00 0.  1.
</event>
<event>
 7    1  0.4081218E-008  0.4614231E+02  0.7816164E-02  0.1320468E+00
        -11   -1    0    0    0    0  0.00000000000E+00  0.00000000000E+00  0.45593999997E+02  0.45594000000E+02  0.51100000000E-03 0.  1.
         11   -1    0    0    0    0 -0.00000000000E+00 -0.00000000000E+00 -0.45593999997E+02  0.45594000000E+02  0.51100000000E-03 0. -1.
    9900012    2    1    2    0    0 -0.30716913356E+02 -0.10616389288E+02 -0.31190991254E+02  0.46142307386E+02  0.99999053901E+01 0.  0.
        -12    1    1    2    0    0  0.30716913356E+02  0.10616389288E+02  0.31190991254E+02  0.45045692614E+02  0.00000000000E+00 0.  1.
         11    1    3    3    0    0 -0.10154037519E+02 -0.44931666141E+00 -0.61606950476E+01  0.11885307195E+02  0.51100000000E-03 0.  1.
        -11    1    3    3    0    0 -0.90854597308E+01 -0.29646359752E+01 -0.77933384320E+01  0.12331697740E+02  0.51100000000E-03 0. -1.
         12    1    3    3    0    0 -0.11477416107E+02 -0.72024366519E+01 -0.17236957775E+02  0.21925302450E+02  0.00000000000E+00 0. -1.
</event>
<event>
 7    1  0.4081218E-008  0.4614232E+02  0.7816164E-02  0.1320468E+00
        -11   -1    0    0    0    0  0.00000000000E+00  0.00000000000E+00  0.45593999997E+02  0.45594000000E+02  0.51100000000E-03 0.  1.
         11   -1    0    0    0    0 -0.00000000000E+00 -0.00000000000E+00 -0.45593999997E+02  0.45594000000E+02  0.51100000000E-03 0. -1.
    9900012    2    1    2    0    0  0.37384913040E+02  0.23693249636E+02 -0.83732668865E+01  0.46142318746E+02  0.10000008979E+02 0.  0.
        -12    1    1    2    0    0 -0.37384913040E+02 -0.23693249636E+02  0.83732668865E+01  0.45045681254E+02  0.00000000000E+00 0.  1.
         11    1    3    3    0    0  0.96476739716E+01  0.39313435381E+01  0.54310455016E+00  0.10432067767E+02  0.51100000000E-03 0.  1.
        -11    1    3    3    0    0 -0.27230363042E+00  0.52792301849E+00 -0.25218893220E+00  0.64533053487E+00  0.51100000000E-03 0. -1.
         12    1    3    3    0    0  0.28009542699E+02  0.19233983079E+02 -0.86641825044E+01  0.35064920444E+02  0.00000000000E+00 0. -1.
</event>
<event>
 7    1  0.4081218E-008  0.4614232E+02  0.7816164E-02  0.1320468E+00
        -11   -1    0    0    0    0  0.00000000000E+00  0.00000000000E+00  0.45593999997E+02  0.45594000000E+02  0.51100000000E-03 0.  1.
         11   -1    0    0    0    0 -0.00000000000E+00 -0.00000000000E+00 -0.45593999997E+02  0.45594000000E+02  0.51100000000E-03 0. -1.
    9900012    2    1    2    0    0 -0.35704720709E+02  0.42283598785E+01 -0.27136828723E+02  0.46142316729E+02  0.99999905910E+01 0.  0.
        -12    1    1    2    0    0  0.35704720709E+02 -0.42283598785E+01  0.27136828723E+02  0.45045683271E+02  0.00000000000E+00 0.  1.
         11    1    3    3    0    0 -0.14868782912E+02 -0.37676849703E+00 -0.11915552282E+02  0.19057886720E+02  0.51100000000E-03 0. -1.
        -11    1    3    3    0    0 -0.24651289117E+00  0.15711717730E+01 -0.10341313251E+01  0.18970443338E+01  0.51100000000E-03 0.  1.
         12    1    3    3    0    0 -0.20589424906E+02  0.30339566025E+01 -0.14187145116E+02  0.25187385675E+02  0.00000000000E+00 0. -1.
</event>
<event>
 7    1  0.4081218E-008  0.4614232E+02  0.7816164E-02  0.1320468E+00
        -11   -1    0    0    0    0  0.00000000000E+00  0.00000000000E+00  0.45593999997E+02  0.45594000000E+02  0.51100000000E-03 0.  1.
         11   -1    0    0    0    0 -0.00000000000E+00 -0.00000000000E+00 -0.45593999997E+02  0.45594000000E+02  0.51100000000E-03 0. -1.
    9900012    2    1    2    0    0 -0.16217131923E+02  0.35588365778E+01 -0.41874249695E+02  0.46142317930E+02  0.10000001544E+02 0.  0.
        -12    1    1    2    0    0  0.16217131923E+02 -0.35588365778E+01  0.41874249695E+02  0.45045682070E+02  0.00000000000E+00 0.  1.
         11    1    3    3    0    0 -0.10426021677E+01 -0.13304613841E+01 -0.89144186374E+01  0.90732577765E+01  0.51100000000E-03 0. -1.
        -11    1    3    3    0    0 -0.99821602862E+01  0.70787953954E+00 -0.16325821862E+02  0.19148813988E+02  0.51100000000E-03 0.  1.
         12    1    3    3    0    0 -0.51923694690E+01  0.41814184223E+01 -0.16634009195E+02  0.17920246166E+02  0.00000000000E+00 0. -1.
</event>
