<event>
 7    1  0.4592673E-010  0.4778727E+02  0.7816164E-02  0.1312668E+00
        -11   -1    0    0    0    0  0.00000000000E+00  0.00000000000E+00  0.45593999997E+02  0.45594000000E+02  0.51100000000E-03 0.  1.
         11   -1    0    0    0    0 -0.00000000000E+00 -0.00000000000E+00 -0.45593999997E+02  0.45594000000E+02  0.51100000000E-03 0. -1.
    9900012    2    1    2    0    0  0.34373588602E+02 -0.25485674928E+02 -0.72498080248E+01  0.47787274934E+02  0.20000017732E+02 0.  0.
        -12    1    1    2    0    0 -0.34373588602E+02  0.25485674928E+02  0.72498080248E+01  0.43400725066E+02  0.00000000000E+00 0.  1.
         11    1    3    3    0    0  0.21038408268E+02 -0.89956755098E+01 -0.17227199535E+01  0.22945687277E+02  0.51100000000E-03 0. -1.
        -11    1    3    3    0    0  0.13919795764E+01  0.15533736739E+01 -0.20526240675E+01  0.29264044040E+01  0.51100000000E-03 0.  1.
         12    1    3    3    0    0  0.11943200757E+02 -0.18043373092E+02 -0.34744640038E+01  0.21915183252E+02  0.00000000000E+00 0. -1.
</event>
<event>
 7    1  0.4592673E-010  0.4778727E+02  0.7816164E-02  0.1312668E+00
        -11   -1    0    0    0    0  0.00000000000E+00  0.00000000000E+00  0.45593999997E+02  0.45594000000E+02  0.51100000000E-03 0.  1.
         11   -1    0    0    0    0 -0.00000000000E+00 -0.00000000000E+00 -0.45593999997E+02  0.45594000000E+02  0.51100000000E-03 0. -1.
    9900012    2    1    2    0    0  0.23736028808E+02  0.98918963788E+01 -0.34962472719E+02  0.47787272170E+02  0.20000005133E+02 0.  0.
        -12    1    1    2    0    0 -0.23736028808E+02 -0.98918963788E+01  0.34962472719E+02  0.43400727830E+02  0.00000000000E+00 0.  1.
         11    1    3    3    0    0  0.41408970638E+01  0.57158623717E+01 -0.11455849357E+02  0.13455652935E+02  0.51100000000E-03 0. -1.
        -11    1    3    3    0    0  0.18759180273E+02  0.83256498906E+01 -0.17432117053E+02  0.26927717984E+02  0.51100000000E-03 0.  1.
         12    1    3    3    0    0  0.83595147075E+00 -0.41496158835E+01 -0.60745063089E+01  0.74039012512E+01  0.00000000000E+00 0. -1.
</event>
<event>
 7    1  0.4592673E-010  0.4778727E+02  0.7816164E-02  0.1312668E+00
        -11   -1    0    0    0    0  0.00000000000E+00  0.00000000000E+00  0.45593999997E+02  0.45594000000E+02  0.51100000000E-03 0.  1.
         11   -1    0    0    0    0 -0.00000000000E+00 -0.00000000000E+00 -0.45593999997E+02  0.45594000000E+02  0.51100000000E-03 0. -1.
    9900012    2    1    2    0    0 -0.42107717595E+02  0.76018808392E+01 -0.72646442316E+01  0.47787268104E+02  0.19999986592E+02 0.  0.
        -12    1    1    2    0    0  0.42107717595E+02 -0.76018808392E+01  0.72646442316E+01  0.43400731896E+02  0.00000000000E+00 0.  1.
         11    1    3    3    0    0 -0.71031035047E+01  0.42960130570E+01 -0.44480618659E+01  0.94178055941E+01  0.51100000000E-03 0. -1.
        -11    1    3    3    0    0 -0.34250498795E+02  0.63438676906E+01 -0.39144746219E+01  0.35052310007E+02  0.51100000000E-03 0.  1.
        -12    1    3    3    0    0 -0.75411529507E+00 -0.30379999085E+01  0.10978922562E+01  0.33171525030E+01  0.00000000000E+00 0.  1.
</event>
<event>
 7    1  0.4592673E-010  0.4778728E+02  0.7816164E-02  0.1312668E+00
        -11   -1    0    0    0    0  0.00000000000E+00  0.00000000000E+00  0.45593999997E+02  0.45594000000E+02  0.51100000000E-03 0.  1.
         11   -1    0    0    0    0 -0.00000000000E+00 -0.00000000000E+00 -0.45593999997E+02  0.45594000000E+02  0.51100000000E-03 0. -1.
    9900012    2    1    2    0    0 -0.38655249009E+02 -0.30333808522E+01 -0.19498536201E+02  0.47787278930E+02  0.20000035956E+02 0.  0.
        -12    1    1    2    0    0  0.38655249009E+02  0.30333808522E+01  0.19498536201E+02  0.43400721070E+02  0.00000000000E+00 0.  1.
         11    1    3    3    0    0 -0.25269437251E+02 -0.59104006212E+01 -0.11626845811E+02  0.28436962535E+02  0.51100000000E-03 0. -1.
        -11    1    3    3    0    0 -0.14284255090E+02 -0.25221533601E+00 -0.73047908316E+01  0.16045669989E+02  0.51100000000E-03 0.  1.
        -12    1    3    3    0    0  0.89844333071E+00  0.31292351050E+01 -0.56689955835E+00  0.33046464062E+01  0.00000000000E+00 0.  1.
</event>
<event>
 7    1  0.4592673E-010  0.4778727E+02  0.7816164E-02  0.1312668E+00
        -11   -1    0    0    0    0  0.00000000000E+00  0.00000000000E+00  0.45593999997E+02  0.45594000000E+02  0.51100000000E-03 0.  1.
         11   -1    0    0    0    0 -0.00000000000E+00 -0.00000000000E+00 -0.45593999997E+02  0.45594000000E+02  0.51100000000E-03 0. -1.
    9900012    2    1    2    0    0  0.33997884894E+00  0.42233532651E+02 -0.99918130614E+01  0.47787271964E+02  0.20000004193E+02 0.  0.
        -12    1    1    2    0    0 -0.33997884894E+00 -0.42233532651E+02  0.99918130614E+01  0.43400728036E+02  0.00000000000E+00 0.  1.
         11    1    3    3    0    0  0.63661158921E+01  0.16420979541E+02 -0.49429789013E+01  0.18292321923E+02  0.51100000000E-03 0. -1.
        -11    1    3    3    0    0  0.23415896195E+01  0.99459315649E+01  0.16437231894E+01  0.10349223296E+02  0.51100000000E-03 0.  1.
         12    1    3    3    0    0 -0.83677266627E+01  0.15866621545E+02 -0.66925573494E+01  0.19145726746E+02  0.00000000000E+00 0. -1.
</event>
<event>
 7    1  0.4592673E-010  0.4778725E+02  0.7816164E-02  0.1312668E+00
        -11   -1    0    0    0    0  0.00000000000E+00  0.00000000000E+00  0.45593999997E+02  0.45594000000E+02  0.51100000000E-03 0.  1.
         11   -1    0    0    0    0 -0.00000000000E+00 -0.00000000000E+00 -0.45593999997E+02  0.45594000000E+02  0.51100000000E-03 0. -1.
    9900012    2    1    2    0    0 -0.16765029410E+02  0.18379569179E+02 -0.35563324664E+02  0.47787253054E+02  0.19999917973E+02 0.  0.
        -12    1    1    2    0    0  0.16765029410E+02 -0.18379569179E+02  0.35563324664E+02  0.43400746946E+02  0.00000000000E+00 0.  1.
         11    1    3    3    0    0 -0.43324594415E+01  0.94010464222E+01 -0.12381686131E+02  0.16138650202E+02  0.51100000000E-03 0. -1.
        -11    1    3    3    0    0 -0.10108086112E+01  0.91585262011E+01 -0.14976586770E+02  0.17584040712E+02  0.51100000000E-03 0.  1.
        -12    1    3    3    0    0 -0.11421761357E+02 -0.18000344437E+00 -0.82050517638E+01  0.14064562140E+02  0.00000000000E+00 0.  1.
</event>
<event>
 7    1  0.4592673E-010  0.4778727E+02  0.7816164E-02  0.1312668E+00
        -11   -1    0    0    0    0  0.00000000000E+00  0.00000000000E+00  0.45593999997E+02  0.45594000000E+02  0.51100000000E-03 0.  1.
         11   -1    0    0    0    0 -0.00000000000E+00 -0.00000000000E+00 -0.45593999997E+02  0.45594000000E+02  0.51100000000E-03 0. -1.
    9900012    2    1    2    0    0 -0.51045819389E+01 -0.28451004319E+02 -0.32374481692E+02  0.47787268804E+02  0.19999989785E+02 0.  0.
        -12    1    1    2    0    0  0.51045819389E+01  0.28451004319E+02  0.32374481692E+02  0.43400731196E+02  0.00000000000E+00 0.  1.
         11    1    3    3    0    0  0.88189234197E+00 -0.89232584495E+01 -0.11268835528E+02  0.14401004475E+02  0.51100000000E-03 0.  1.
        -11    1    3    3    0    0 -0.20424533435E+01 -0.12128961424E+02 -0.21739728284E+02  0.24977972436E+02  0.51100000000E-03 0. -1.
         12    1    3    3    0    0 -0.39440209374E+01 -0.73987844458E+01  0.63408212038E+00  0.84082918934E+01  0.00000000000E+00 0. -1.
</event>
<event>
 7    1  0.4592673E-010  0.4778727E+02  0.7816164E-02  0.1312668E+00
        -11   -1    0    0    0    0  0.00000000000E+00  0.00000000000E+00  0.45593999997E+02  0.45594000000E+02  0.51100000000E-03 0.  1.
         11   -1    0    0    0    0 -0.00000000000E+00 -0.00000000000E+00 -0.45593999997E+02  0.45594000000E+02  0.51100000000E-03 0. -1.
    9900012    2    1    2    0    0 -0.24180168294E+02 -0.29378870278E+02 -0.20876420256E+02  0.47787268667E+02  0.19999989162E+02 0.  0.
        -12    1    1    2    0    0  0.24180168294E+02  0.29378870278E+02  0.20876420256E+02  0.43400731333E+02  0.00000000000E+00 0.  1.
         11    1    3    3    0    0 -0.37502382649E+01  0.13858065531E+01 -0.29926243707E+01  0.49940512344E+01  0.51100000000E-03 0.  1.
        -11    1    3    3    0    0  0.16216726654E+01 -0.29623528670E+01 -0.12343790307E+01  0.35956986241E+01  0.51100000000E-03 0. -1.
        -12    1    3    3    0    0 -0.22051602695E+02 -0.27802323964E+02 -0.16649416854E+02  0.39197518809E+02  0.00000000000E+00 0.  1.
</event>
<event>
 7    1  0.4592673E-010  0.4778727E+02  0.7816164E-02  0.1312668E+00
        -11   -1    0    0    0    0  0.00000000000E+00  0.00000000000E+00  0.45593999997E+02  0.45594000000E+02  0.51100000000E-03 0.  1.
         11   -1    0    0    0    0 -0.00000000000E+00 -0.00000000000E+00 -0.45593999997E+02  0.45594000000E+02  0.51100000000E-03 0. -1.
    9900012    2    1    2    0    0  0.12531853205E+02  0.11266803754E+01 -0.41536809629E+02  0.47787270656E+02  0.19999998230E+02 0.  0.
        -12    1    1    2    0    0 -0.12531853205E+02 -0.11266803754E+01  0.41536809629E+02  0.43400729344E+02  0.00000000000E+00 0.  1.
         11    1    3    3    0    0  0.91111690656E+01 -0.33641089789E+01 -0.12496006626E+02  0.15826585634E+02  0.51100000000E-03 0. -1.
        -11    1    3    3    0    0  0.34014705576E+01  0.10841572803E+01 -0.99140739032E+00  0.37051704195E+01  0.51100000000E-03 0.  1.
         12    1    3    3    0    0  0.19213581883E-01  0.34066320740E+01 -0.28049395612E+02  0.28255514603E+02  0.00000000000E+00 0. -1.
</event>
<event>
 7    1  0.4592673E-010  0.4778727E+02  0.7816164E-02  0.1312668E+00
        -11   -1    0    0    0    0  0.00000000000E+00  0.00000000000E+00  0.45593999997E+02  0.45594000000E+02  0.51100000000E-03 0.  1.
         11   -1    0    0    0    0 -0.00000000000E+00 -0.00000000000E+00 -0.45593999997E+02  0.45594000000E+02  0.51100000000E-03 0. -1.
    9900012    2    1    2    0    0  0.11574649333E+02 -0.11790019523E+01 -0.41812207237E+02  0.47787271586E+02  0.20000002470E+02 0.  0.
        -12    1    1    2    0    0 -0.11574649333E+02  0.11790019523E+01  0.41812207237E+02  0.43400728414E+02  0.00000000000E+00 0.  1.
         11    1    3    3    0    0  0.10101507262E+02  0.63253391588E+01 -0.29650629696E+02  0.31956379740E+02  0.51100000000E-03 0. -1.
        -11    1    3    3    0    0  0.33659714087E+01 -0.46918821021E+01 -0.40895425479E+01  0.70758660033E+01  0.51100000000E-03 0.  1.
        -12    1    3    3    0    0 -0.18928293377E+01 -0.28124590089E+01 -0.80720349935E+01  0.87550258431E+01  0.00000000000E+00 0.  1.
</event>
<event>
 7    1  0.4592673E-010  0.4778725E+02  0.7816164E-02  0.1312668E+00
        -11   -1    0    0    0    0  0.00000000000E+00  0.00000000000E+00  0.45593999997E+02  0.45594000000E+02  0.51100000000E-03 0. -1.
         11   -1    0    0    0    0 -0.00000000000E+00 -0.00000000000E+00 -0.45593999997E+02  0.45594000000E+02  0.51100000000E-03 0.  1.
    9900012    2    1    2    0    0  0.12069652230E+02 -0.77020176413E+01  0.40971061236E+02  0.47787246095E+02  0.19999886246E+02 0.  0.
        -12    1    1    2    0    0 -0.12069652230E+02  0.77020176413E+01 -0.40971061236E+02  0.43400753905E+02  0.00000000000E+00 0.  1.
         11    1    3    3    0    0  0.72586708853E-01 -0.52437576743E+00 -0.87087914522E+00  0.10191513737E+01  0.51100000000E-03 0. -1.
        -11    1    3    3    0    0 -0.30501035403E+01  0.11642596149E+01  0.10732855226E+02  0.11218414042E+02  0.51100000000E-03 0.  1.
         12    1    3    3    0    0  0.15047169062E+02 -0.83419014888E+01  0.31109085155E+02  0.35549680679E+02  0.00000000000E+00 0. -1.
</event>
<event>
 7    1  0.4592673E-010  0.4778727E+02  0.7816164E-02  0.1312668E+00
        -11   -1    0    0    0    0  0.00000000000E+00  0.00000000000E+00  0.45593999997E+02  0.45594000000E+02  0.51100000000E-03 0. -1.
         11   -1    0    0    0    0 -0.00000000000E+00 -0.00000000000E+00 -0.45593999997E+02  0.45594000000E+02  0.51100000000E-03 0.  1.
    9900012    2    1    2    0    0 -0.39623276746E+02  0.17262093192E+02 -0.39546448328E+01  0.47787272619E+02  0.20000007177E+02 0.  0.
        -12    1    1    2    0    0  0.39623276746E+02 -0.17262093192E+02  0.39546448328E+01  0.43400727381E+02  0.00000000000E+00 0.  1.
         11    1    3    3    0    0 -0.13587261269E+02  0.84618973937E+01 -0.95404927501E+00  0.16035198364E+02  0.51100000000E-03 0. -1.
        -11    1    3    3    0    0 -0.12465361440E+01  0.45783102197E+01  0.33594372333E+01  0.58138279654E+01  0.51100000000E-03 0.  1.
         12    1    3    3    0    0 -0.24789479333E+02  0.42218855790E+01 -0.63600327911E+01  0.25938246289E+02  0.00000000000E+00 0. -1.
</event>
<event>
 7    1  0.4592673E-010  0.4778727E+02  0.7816164E-02  0.1312668E+00
        -11   -1    0    0    0    0  0.00000000000E+00  0.00000000000E+00  0.45593999997E+02  0.45594000000E+02  0.51100000000E-03 0.  1.
         11   -1    0    0    0    0 -0.00000000000E+00 -0.00000000000E+00 -0.45593999997E+02  0.45594000000E+02  0.51100000000E-03 0. -1.
    9900012    2    1    2    0    0  0.30965886265E+02  0.29694314732E+02 -0.65562813683E+01  0.47787271147E+02  0.20000000467E+02 0.  0.
        -12    1    1    2    0    0 -0.30965886265E+02 -0.29694314732E+02  0.65562813683E+01  0.43400728853E+02  0.00000000000E+00 0.  1.
         11    1    3    3    0    0  0.91132777379E+01  0.24523816944E+01 -0.13861355944E+01  0.95387304842E+01  0.51100000000E-03 0. -1.
        -11    1    3    3    0    0  0.48465494721E+01  0.10002910723E+02  0.47399999901E+01  0.12083661071E+02  0.51100000000E-03 0.  1.
         12    1    3    3    0    0  0.17006059055E+02  0.17239022315E+02 -0.99101457640E+01  0.26164879591E+02  0.00000000000E+00 0. -1.
</event>
<event>
 7    1  0.4592673E-010  0.4778727E+02  0.7816164E-02  0.1312668E+00
        -11   -1    0    0    0    0  0.00000000000E+00  0.00000000000E+00  0.45593999997E+02  0.45594000000E+02  0.51100000000E-03 0.  1.
         11   -1    0    0    0    0 -0.00000000000E+00 -0.00000000000E+00 -0.45593999997E+02  0.45594000000E+02  0.51100000000E-03 0. -1.
    9900012    2    1    2    0    0  0.14989700229E+02  0.26621152876E+02 -0.30826063439E+02  0.47787273271E+02  0.20000010154E+02 0.  0.
        -12    1    1    2    0    0 -0.14989700229E+02 -0.26621152876E+02  0.30826063439E+02  0.43400726729E+02  0.00000000000E+00 0.  1.
         11    1    3    3    0    0  0.80532588750E+01  0.72103172996E+01 -0.33077259972E+01  0.11304189737E+02  0.51100000000E-03 0. -1.
        -11    1    3    3    0    0  0.63182621439E+01  0.11470682526E+02 -0.78615739286E+01  0.15274205021E+02  0.51100000000E-03 0.  1.
        -12    1    3    3    0    0  0.61817921043E+00  0.79401530513E+01 -0.19656763513E+02  0.21208878514E+02  0.00000000000E+00 0.  1.
</event>
<event>
 7    1  0.4592673E-010  0.4778727E+02  0.7816164E-02  0.1312668E+00
        -11   -1    0    0    0    0  0.00000000000E+00  0.00000000000E+00  0.45593999997E+02  0.45594000000E+02  0.51100000000E-03 0.  1.
         11   -1    0    0    0    0 -0.00000000000E+00 -0.00000000000E+00 -0.45593999997E+02  0.45594000000E+02  0.51100000000E-03 0. -1.
    9900012    2    1    2    0    0 -0.35499487630E+01 -0.15962332576E+02 -0.40202305580E+02  0.47787267616E+02  0.19999984369E+02 0.  0.
        -12    1    1    2    0    0  0.35499487630E+01  0.15962332576E+02  0.40202305580E+02  0.43400732384E+02  0.00000000000E+00 0.  1.
         11    1    3    3    0    0 -0.12348790838E+01 -0.77308718056E+01 -0.12628045590E+02  0.14857955476E+02  0.51100000000E-03 0. -1.
        -11    1    3    3    0    0 -0.11296971922E+01 -0.81116407779E+01 -0.36349032735E+01  0.89603266640E+01  0.51100000000E-03 0.  1.
         12    1    3    3    0    0 -0.11853724869E+01 -0.11981999255E+00 -0.23939356717E+02  0.23968985476E+02  0.00000000000E+00 0. -1.
</event>
<event>
 7    1  0.4592673E-010  0.4778727E+02  0.7816164E-02  0.1312668E+00
        -11   -1    0    0    0    0  0.00000000000E+00  0.00000000000E+00  0.45593999997E+02  0.45594000000E+02  0.51100000000E-03 0. -1.
         11   -1    0    0    0    0 -0.00000000000E+00 -0.00000000000E+00 -0.45593999997E+02  0.45594000000E+02  0.51100000000E-03 0.  1.
    9900012    2    1    2    0    0  0.24848116338E+02  0.23754870119E+02  0.26493406543E+02  0.47787270396E+02  0.19999997044E+02 0.  0.
        -12    1    1    2    0    0 -0.24848116338E+02 -0.23754870119E+02 -0.26493406543E+02  0.43400729604E+02  0.00000000000E+00 0.  1.
         11    1    3    3    0    0  0.38647605104E+01  0.11455874080E+02  0.88519719136E+01  0.14984352898E+02  0.51100000000E-03 0. -1.
        -11    1    3    3    0    0  0.56735481034E+01 -0.15449578381E+01  0.37442596966E+00  0.58920486989E+01  0.51100000000E-03 0.  1.
         12    1    3    3    0    0  0.15309807724E+02  0.13843953877E+02  0.17267008660E+02  0.26910868800E+02  0.00000000000E+00 0. -1.
</event>
<event>
 7    1  0.6505466E-010  0.4778727E+02  0.7816164E-02  0.1312668E+00
        -11   -1    0    0    0    0  0.00000000000E+00  0.00000000000E+00  0.45593999997E+02  0.45594000000E+02  0.51100000000E-03 0.  1.
         11   -1    0    0    0    0 -0.00000000000E+00 -0.00000000000E+00 -0.45593999997E+02  0.45594000000E+02  0.51100000000E-03 0. -1.
    9900012    2    1    2    0    0 -0.41334997003E+02 -0.32550415778E+01 -0.12823650584E+02  0.47787270891E+02  0.19999999301E+02 0.  0.
        -12    1    1    2    0    0  0.41334997003E+02  0.32550415778E+01  0.12823650584E+02  0.43400729109E+02  0.00000000000E+00 0.  1.
         11    1    3    3    0    0 -0.19992779342E+02 -0.63787033930E+01 -0.44375986364E+01  0.21449740435E+02  0.51100000000E-03 0. -1.
        -11    1    3    3    0    0 -0.79825097720E+00 -0.15711599452E+01  0.21474646642E+01  0.27780124083E+01  0.51100000000E-03 0.  1.
        -12    1    3    3    0    0 -0.20543966683E+02  0.46948217603E+01 -0.10533516612E+02  0.23559518048E+02  0.00000000000E+00 0.  1.
</event>
<event>
 7    1  0.4592673E-010  0.4778729E+02  0.7816164E-02  0.1312668E+00
        -11   -1    0    0    0    0  0.00000000000E+00  0.00000000000E+00  0.45593999997E+02  0.45594000000E+02  0.51100000000E-03 0. -1.
         11   -1    0    0    0    0 -0.00000000000E+00 -0.00000000000E+00 -0.45593999997E+02  0.45594000000E+02  0.51100000000E-03 0.  1.
    9900012    2    1    2    0    0 -0.24249311580E+02  0.23333769157E+02  0.27406716203E+02  0.47787285856E+02  0.20000067532E+02 0.  0.
        -12    1    1    2    0    0  0.24249311580E+02 -0.23333769157E+02 -0.27406716203E+02  0.43400714144E+02  0.00000000000E+00 0.  1.
         11    1    3    3    0    0 -0.34616490752E+01  0.60480778323E+01  0.25595888395E+01  0.74238638911E+01  0.51100000000E-03 0. -1.
        -11    1    3    3    0    0 -0.26681242200E+01  0.36221589729E+01  0.14937650033E+02  0.15600394586E+02  0.51100000000E-03 0.  1.
         12    1    3    3    0    0 -0.18119538285E+02  0.13663532352E+02  0.99094773302E+01  0.24763027378E+02  0.00000000000E+00 0. -1.
</event>
<event>
 7    1  0.4592673E-010  0.4778727E+02  0.7816164E-02  0.1312668E+00
        -11   -1    0    0    0    0  0.00000000000E+00  0.00000000000E+00  0.45593999997E+02  0.45594000000E+02  0.51100000000E-03 0.  1.
         11   -1    0    0    0    0 -0.00000000000E+00 -0.00000000000E+00 -0.45593999997E+02  0.45594000000E+02  0.51100000000E-03 0. -1.
    9900012    2    1    2    0    0 -0.76406388563E+01 -0.41546713857E+02 -0.99556221320E+01  0.47787271821E+02  0.20000003538E+02 0.  0.
        -12    1    1    2    0    0  0.76406388563E+01  0.41546713857E+02  0.99556221320E+01  0.43400728179E+02  0.00000000000E+00 0.  1.
         11    1    3    3    0    0 -0.66594814340E+01 -0.82760306282E+01 -0.23306036071E+01  0.10875343184E+02  0.51100000000E-03 0. -1.
        -11    1    3    3    0    0 -0.54352414338E+01 -0.12965125172E+02 -0.78917071054E+01  0.16121890754E+02  0.51100000000E-03 0.  1.
         12    1    3    3    0    0  0.44540840115E+01 -0.20305558057E+02  0.26668858055E+00  0.20790037883E+02  0.00000000000E+00 0. -1.
</event>
<event>
 7    1  0.4592673E-010  0.4778728E+02  0.7816164E-02  0.1312668E+00
        -11   -1    0    0    0    0  0.00000000000E+00  0.00000000000E+00  0.45593999997E+02  0.45594000000E+02  0.51100000000E-03 0.  1.
         11   -1    0    0    0    0 -0.00000000000E+00 -0.00000000000E+00 -0.45593999997E+02  0.45594000000E+02  0.51100000000E-03 0. -1.
    9900012    2    1    2    0    0 -0.21750363161E+02  0.57555788103E+01 -0.37113573834E+02  0.47787281713E+02  0.20000048641E+02 0.  0.
        -12    1    1    2    0    0  0.21750363161E+02 -0.57555788103E+01  0.37113573834E+02  0.43400718287E+02  0.00000000000E+00 0.  1.
         11    1    3    3    0    0 -0.10044408330E+02  0.29326657921E+01 -0.23320846766E+02  0.25560762146E+02  0.51100000000E-03 0. -1.
        -11    1    3    3    0    0 -0.39050826565E+01  0.69531821274E+01 -0.95234284579E+01  0.12421437200E+02  0.51100000000E-03 0.  1.
         12    1    3    3    0    0 -0.78008721746E+01 -0.41302691092E+01 -0.42692986108E+01  0.98050823672E+01  0.00000000000E+00 0. -1.
</event>
<event>
 7    1  0.4592673E-010  0.4778727E+02  0.7816164E-02  0.1312668E+00
        -11   -1    0    0    0    0  0.00000000000E+00  0.00000000000E+00  0.45593999997E+02  0.45594000000E+02  0.51100000000E-03 0. -1.
         11   -1    0    0    0    0 -0.00000000000E+00 -0.00000000000E+00 -0.45593999997E+02  0.45594000000E+02  0.51100000000E-03 0.  1.
    9900012    2    1    2    0    0 -0.29445482821E+02 -0.16796256456E+02  0.27101150649E+02  0.47787273554E+02  0.20000011444E+02 0.  0.
        -12    1    1    2    0    0  0.29445482821E+02  0.16796256456E+02 -0.27101150649E+02  0.43400726446E+02  0.00000000000E+00 0.  1.
         11    1    3    3    0    0 -0.66129311363E+00 -0.89074111828E+00  0.72295099214E+01  0.73141330509E+01  0.51100000000E-03 0. -1.
        -11    1    3    3    0    0 -0.22665864664E+01 -0.68826375635E+01  0.42616387186E+01  0.84065259691E+01  0.51100000000E-03 0.  1.
         12    1    3    3    0    0 -0.26517603241E+02 -0.90228777742E+01  0.15610002009E+02  0.32066614534E+02  0.00000000000E+00 0. -1.
</event>
<event>
 7    1  0.4592673E-010  0.4778727E+02  0.7816164E-02  0.1312668E+00
        -11   -1    0    0    0    0  0.00000000000E+00  0.00000000000E+00  0.45593999997E+02  0.45594000000E+02  0.51100000000E-03 0. -1.
         11   -1    0    0    0    0 -0.00000000000E+00 -0.00000000000E+00 -0.45593999997E+02  0.45594000000E+02  0.51100000000E-03 0.  1.
    9900012    2    1    2    0    0  0.26717467862E+02 -0.23508447279E+02  0.24842565258E+02  0.47787271538E+02  0.20000002251E+02 0.  0.
        -12    1    1    2    0    0 -0.26717467862E+02  0.23508447279E+02 -0.24842565258E+02  0.43400728462E+02  0.00000000000E+00 0.  1.
         11    1    3    3    0    0  0.18702605603E+02 -0.16056319408E+02  0.17560322936E+02  0.30264794583E+02  0.51100000000E-03 0. -1.
        -11    1    3    3    0    0  0.64333323763E+01 -0.10586965157E+02  0.51620972704E+01  0.13420836233E+02  0.51100000000E-03 0.  1.
        -12    1    3    3    0    0  0.15815298821E+01  0.31348372856E+01  0.21201450514E+01  0.41016407222E+01  0.00000000000E+00 0.  1.
</event>
<event>
 7    1  0.4592673E-010  0.4778728E+02  0.7816164E-02  0.1312668E+00
        -11   -1    0    0    0    0  0.00000000000E+00  0.00000000000E+00  0.45593999997E+02  0.45594000000E+02  0.51100000000E-03 0.  1.
         11   -1    0    0    0    0 -0.00000000000E+00 -0.00000000000E+00 -0.45593999997E+02  0.45594000000E+02  0.51100000000E-03 0. -1.
    9900012    2    1    2    0    0 -0.29433910838E+02  0.28977360387E+02  0.13325927322E+02  0.47787275798E+02  0.20000021675E+02 0.  0.
        -12    1    1    2    0    0  0.29433910838E+02 -0.28977360387E+02 -0.13325927322E+02  0.43400724202E+02  0.00000000000E+00 0.  1.
         11    1    3    3    0    0 -0.83577768323E+01  0.43745306255E+01  0.20589084009E+00  0.94356421653E+01  0.51100000000E-03 0. -1.
        -11    1    3    3    0    0 -0.14240739297E+02  0.12667757591E+02 -0.40209224290E+00  0.19063903497E+02  0.51100000000E-03 0.  1.
        -12    1    3    3    0    0 -0.68353947085E+01  0.11935072170E+02  0.13522128725E+02  0.19287730136E+02  0.00000000000E+00 0.  1.
</event>
<event>
 7    1  0.4592673E-010  0.4778727E+02  0.7816164E-02  0.1312668E+00
        -11   -1    0    0    0    0  0.00000000000E+00  0.00000000000E+00  0.45593999997E+02  0.45594000000E+02  0.51100000000E-03 0. -1.
         11   -1    0    0    0    0 -0.00000000000E+00 -0.00000000000E+00 -0.45593999997E+02  0.45594000000E+02  0.51100000000E-03 0.  1.
    9900012    2    1    2    0    0 -0.25042376999E+02 -0.51538581854E+01  0.35070504449E+02  0.47787272100E+02  0.20000004811E+02 0.  0.
        -12    1    1    2    0    0  0.25042376999E+02  0.51538581854E+01 -0.35070504449E+02  0.43400727900E+02  0.00000000000E+00 0.  1.
         11    1    3    3    0    0 -0.21266212305E+02  0.15343600894E+00  0.18151552243E+02  0.27959867265E+02  0.51100000000E-03 0. -1.
        -11    1    3    3    0    0 -0.35842898784E+01 -0.49513665657E+01  0.49875649190E+01  0.78891678194E+01  0.51100000000E-03 0.  1.
        -12    1    3    3    0    0 -0.19187481579E+00 -0.35592762864E+00  0.11931387288E+02  0.11938237015E+02  0.00000000000E+00 0.  1.
</event>
<event>
 7    1  0.4592673E-010  0.4778727E+02  0.7816164E-02  0.1312668E+00
        -11   -1    0    0    0    0  0.00000000000E+00  0.00000000000E+00  0.45593999997E+02  0.45594000000E+02  0.51100000000E-03 0.  1.
         11   -1    0    0    0    0 -0.00000000000E+00 -0.00000000000E+00 -0.45593999997E+02  0.45594000000E+02  0.51100000000E-03 0. -1.
    9900012    2    1    2    0    0  0.24346715788E+02  0.21530025203E+02 -0.28763148570E+02  0.47787271083E+02  0.20000000174E+02 0.  0.
        -12    1    1    2    0    0 -0.24346715788E+02 -0.21530025203E+02  0.28763148570E+02  0.43400728917E+02  0.00000000000E+00 0.  1.
         11    1    3    3    0    0  0.19006267243E+02  0.88734350878E+01 -0.10381198727E+02  0.23403959751E+02  0.51100000000E-03 0. -1.
        -11    1    3    3    0    0  0.19039104280E+01  0.62867875375E+01 -0.26816402558E+01  0.70950523030E+01  0.51100000000E-03 0.  1.
         12    1    3    3    0    0  0.34365381177E+01  0.63698025775E+01 -0.15700309587E+02  0.17288259029E+02  0.00000000000E+00 0. -1.
</event>
<event>
 7    1  0.4592673E-010  0.4778728E+02  0.7816164E-02  0.1312668E+00
        -11   -1    0    0    0    0  0.00000000000E+00  0.00000000000E+00  0.45593999997E+02  0.45594000000E+02  0.51100000000E-03 0.  1.
         11   -1    0    0    0    0 -0.00000000000E+00 -0.00000000000E+00 -0.45593999997E+02  0.45594000000E+02  0.51100000000E-03 0. -1.
    9900012    2    1    2    0    0 -0.17384398796E+01  0.11394416158E+02 -0.41842179776E+02  0.47787275338E+02  0.20000019574E+02 0.  0.
        -12    1    1    2    0    0  0.17384398796E+01 -0.11394416158E+02  0.41842179776E+02  0.43400724662E+02  0.00000000000E+00 0.  1.
         11    1    3    3    0    0  0.19565351790E+01  0.99520153083E-01 -0.66857969856E+00  0.20700080294E+01  0.51100000000E-03 0. -1.
        -11    1    3    3    0    0 -0.74310478015E+00  0.14706406628E+02 -0.35742415617E+02  0.38656834778E+02  0.51100000000E-03 0.  1.
        -12    1    3    3    0    0 -0.29518702784E+01 -0.34115106231E+01 -0.54311844607E+01  0.70604325305E+01  0.00000000000E+00 0.  1.
</event>
<event>
 7    1  0.4592673E-010  0.4778729E+02  0.7816164E-02  0.1312668E+00
        -11   -1    0    0    0    0  0.00000000000E+00  0.00000000000E+00  0.45593999997E+02  0.45594000000E+02  0.51100000000E-03 0.  1.
         11   -1    0    0    0    0 -0.00000000000E+00 -0.00000000000E+00 -0.45593999997E+02  0.45594000000E+02  0.51100000000E-03 0. -1.
    9900012    2    1    2    0    0 -0.33069477055E+02 -0.27953837407E+02 -0.29350070604E+01  0.47787290272E+02  0.20000087664E+02 0.  0.
        -12    1    1    2    0    0  0.33069477055E+02  0.27953837407E+02  0.29350070604E+01  0.43400709728E+02  0.00000000000E+00 0.  1.
         11    1    3    3    0    0 -0.59090617668E+01 -0.11195188126E+02 -0.65352536315E+01  0.14246360532E+02  0.51100000000E-03 0. -1.
        -11    1    3    3    0    0 -0.77553165362E+01 -0.80079579473E+01 -0.24440666864E+01  0.11412527647E+02  0.51100000000E-03 0.  1.
        -12    1    3    3    0    0 -0.19405098752E+02 -0.87506913340E+01  0.60443132574E+01  0.22128402092E+02  0.00000000000E+00 0.  1.
</event>
<event>
 7    1  0.4592673E-010  0.4778727E+02  0.7816164E-02  0.1312668E+00
        -11   -1    0    0    0    0  0.00000000000E+00  0.00000000000E+00  0.45593999997E+02  0.45594000000E+02  0.51100000000E-03 0.  1.
         11   -1    0    0    0    0 -0.00000000000E+00 -0.00000000000E+00 -0.45593999997E+02  0.45594000000E+02  0.51100000000E-03 0. -1.
    9900012    2    1    2    0    0  0.48154786601E+01 -0.43025481814E+02  0.30401150897E+01  0.47787271667E+02  0.20000002838E+02 0.  0.
        -12    1    1    2    0    0 -0.48154786601E+01  0.43025481814E+02 -0.30401150897E+01  0.43400728333E+02  0.00000000000E+00 0.  1.
         11    1    3    3    0    0 -0.10602394479E+01 -0.11892373816E+02 -0.73360798655E+01  0.14013234127E+02  0.51100000000E-03 0. -1.
        -11    1    3    3    0    0  0.22200136225E+01 -0.66200899020E+01  0.20901827504E+00  0.69855378959E+01  0.51100000000E-03 0.  1.
         12    1    3    3    0    0  0.36557044855E+01 -0.24513018097E+02  0.10167176680E+02  0.26788499643E+02  0.00000000000E+00 0. -1.
</event>
<event>
 7    1  0.4592673E-010  0.4778727E+02  0.7816164E-02  0.1312668E+00
        -11   -1    0    0    0    0  0.00000000000E+00  0.00000000000E+00  0.45593999997E+02  0.45594000000E+02  0.51100000000E-03 0. -1.
         11   -1    0    0    0    0 -0.00000000000E+00 -0.00000000000E+00 -0.45593999997E+02  0.45594000000E+02  0.51100000000E-03 0.  1.
    9900012    2    1    2    0    0  0.24127215660E+02 -0.36075435112E+02  0.25229241415E+00  0.47787271832E+02  0.20000003592E+02 0.  0.
        -12    1    1    2    0    0 -0.24127215660E+02  0.36075435112E+02 -0.25229241415E+00  0.43400728168E+02  0.00000000000E+00 0.  1.
         11    1    3    3    0    0  0.20071234956E+01 -0.78826732685E+01 -0.10185213698E+01  0.81977111822E+01  0.51100000000E-03 0. -1.
        -11    1    3    3    0    0 -0.28139632467E+01 -0.25320730713E+01 -0.46235335378E-01  0.37857523902E+01  0.51100000000E-03 0.  1.
         12    1    3    3    0    0  0.24934055411E+02 -0.25660688772E+02  0.13170491193E+01  0.35803808260E+02  0.00000000000E+00 0. -1.
</event>
<event>
 7    1  0.4592673E-010  0.4778727E+02  0.7816164E-02  0.1312668E+00
        -11   -1    0    0    0    0  0.00000000000E+00  0.00000000000E+00  0.45593999997E+02  0.45594000000E+02  0.51100000000E-03 0.  1.
         11   -1    0    0    0    0 -0.00000000000E+00 -0.00000000000E+00 -0.45593999997E+02  0.45594000000E+02  0.51100000000E-03 0. -1.
    9900012    2    1    2    0    0 -0.32441636022E+02  0.20130151906E+01 -0.28759537096E+02  0.47787274754E+02  0.20000016912E+02 0.  0.
        -12    1    1    2    0    0  0.32441636022E+02 -0.20130151906E+01  0.28759537096E+02  0.43400725246E+02  0.00000000000E+00 0.  1.
         11    1    3    3    0    0 -0.27332987504E+02 -0.11145422293E+01 -0.18440851133E+02  0.32990898761E+02  0.51100000000E-03 0. -1.
        -11    1    3    3    0    0 -0.58433883968E+01  0.70523432291E+00 -0.21856131041E+01  0.62784909260E+01  0.51100000000E-03 0.  1.
        -12    1    3    3    0    0  0.73473987926E+00  0.24223230970E+01 -0.81330728595E+01  0.85178850670E+01  0.00000000000E+00 0.  1.
</event>
<event>
 7    1  0.4592673E-010  0.4778727E+02  0.7816164E-02  0.1312668E+00
        -11   -1    0    0    0    0  0.00000000000E+00  0.00000000000E+00  0.45593999997E+02  0.45594000000E+02  0.51100000000E-03 0.  1.
         11   -1    0    0    0    0 -0.00000000000E+00 -0.00000000000E+00 -0.45593999997E+02  0.45594000000E+02  0.51100000000E-03 0. -1.
    9900012    2    1    2    0    0 -0.27984387874E+02 -0.20100625456E+02 -0.26390569429E+02  0.47787271168E+02  0.20000000564E+02 0.  0.
        -12    1    1    2    0    0  0.27984387874E+02  0.20100625456E+02  0.26390569429E+02  0.43400728832E+02  0.00000000000E+00 0.  1.
         11    1    3    3    0    0 -0.13682790054E+02 -0.73641311577E+01 -0.12442496860E+02  0.19906403486E+02  0.51100000000E-03 0. -1.
        -11    1    3    3    0    0 -0.53723448101E+01  0.27680924614E+01 -0.19986036345E+01  0.63654411773E+01  0.51100000000E-03 0.  1.
         12    1    3    3    0    0 -0.89292530096E+01 -0.15504586759E+02 -0.11949468934E+02  0.21515426505E+02  0.00000000000E+00 0. -1.
</event>
<event>
 7    1  0.4592673E-010  0.4778727E+02  0.7816164E-02  0.1312668E+00
        -11   -1    0    0    0    0  0.00000000000E+00  0.00000000000E+00  0.45593999997E+02  0.45594000000E+02  0.51100000000E-03 0.  1.
         11   -1    0    0    0    0 -0.00000000000E+00 -0.00000000000E+00 -0.45593999997E+02  0.45594000000E+02  0.51100000000E-03 0. -1.
    9900012    2    1    2    0    0  0.19928481819E+01  0.35002350989E+02 -0.25582955768E+02  0.47787266775E+02  0.19999980533E+02 0.  0.
        -12    1    1    2    0    0 -0.19928481819E+01 -0.35002350989E+02  0.25582955768E+02  0.43400733225E+02  0.00000000000E+00 0.  1.
         11    1    3    3    0    0 -0.15425037835E+01  0.22915700438E+02 -0.48072581382E+01  0.23465258907E+02  0.51100000000E-03 0. -1.
        -11    1    3    3    0    0  0.32901078398E+00  0.52188604228E+00 -0.70307917736E+00  0.93537892207E+00  0.51100000000E-03 0.  1.
         12    1    3    3    0    0  0.32063411815E+01  0.11564764509E+02 -0.20072618453E+02  0.23386628946E+02  0.00000000000E+00 0. -1.
</event>
<event>
 7    1  0.4592673E-010  0.4778728E+02  0.7816164E-02  0.1312668E+00
        -11   -1    0    0    0    0  0.00000000000E+00  0.00000000000E+00  0.45593999997E+02  0.45594000000E+02  0.51100000000E-03 0. -1.
         11   -1    0    0    0    0 -0.00000000000E+00 -0.00000000000E+00 -0.45593999997E+02  0.45594000000E+02  0.51100000000E-03 0.  1.
    9900012    2    1    2    0    0  0.12517349663E+02 -0.71555282556E+00  0.41550292465E+02  0.47787275786E+02  0.20000021617E+02 0.  0.
        -12    1    1    2    0    0 -0.12517349663E+02  0.71555282556E+00 -0.41550292465E+02  0.43400724214E+02  0.00000000000E+00 0.  1.
         11    1    3    3    0    0  0.12257284672E+02 -0.14658854821E+01  0.36069773422E+02  0.38123724933E+02  0.51100000000E-03 0. -1.
        -11    1    3    3    0    0  0.39400445633E+01  0.14775955032E+01  0.29008437698E+01  0.51109817521E+01  0.51100000000E-03 0.  1.
         12    1    3    3    0    0 -0.36799795728E+01 -0.72726284665E+00  0.25796752733E+01  0.45525691010E+01  0.00000000000E+00 0. -1.
</event>
<event>
 7    1  0.4592673E-010  0.4778727E+02  0.7816164E-02  0.1312668E+00
        -11   -1    0    0    0    0  0.00000000000E+00  0.00000000000E+00  0.45593999997E+02  0.45594000000E+02  0.51100000000E-03 0.  1.
         11   -1    0    0    0    0 -0.00000000000E+00 -0.00000000000E+00 -0.45593999997E+02  0.45594000000E+02  0.51100000000E-03 0. -1.
    9900012    2    1    2    0    0 -0.10538398922E+02 -0.58314116966E-01 -0.42101810744E+02  0.47787265902E+02  0.19999976552E+02 0.  0.
        -12    1    1    2    0    0  0.10538398922E+02  0.58314116966E-01  0.42101810744E+02  0.43400734098E+02  0.00000000000E+00 0.  1.
         11    1    3    3    0    0 -0.15638692799E+01  0.49420611777E+01 -0.10805852316E+02  0.11984827923E+02  0.51100000000E-03 0.  1.
        -11    1    3    3    0    0 -0.11048609965E+02 -0.14561385883E+00 -0.26330212807E+02  0.28554738526E+02  0.51100000000E-03 0. -1.
        -12    1    3    3    0    0  0.20740803232E+01 -0.48547614358E+01 -0.49657456208E+01  0.72476994527E+01  0.00000000000E+00 0.  1.
</event>
<event>
 7    1  0.4592673E-010  0.4778727E+02  0.7816164E-02  0.1312668E+00
        -11   -1    0    0    0    0  0.00000000000E+00  0.00000000000E+00  0.45593999997E+02  0.45594000000E+02  0.51100000000E-03 0.  1.
         11   -1    0    0    0    0 -0.00000000000E+00 -0.00000000000E+00 -0.45593999997E+02  0.45594000000E+02  0.51100000000E-03 0. -1.
    9900012    2    1    2    0    0  0.11646730943E+02 -0.41343542224E+02  0.62199938237E+01  0.47787272490E+02  0.20000006589E+02 0.  0.
        -12    1    1    2    0    0 -0.11646730943E+02  0.41343542224E+02 -0.62199938237E+01  0.43400727510E+02  0.00000000000E+00 0.  1.
         11    1    3    3    0    0  0.12838506293E+02 -0.15247536708E+02  0.37804170892E+01  0.20288079582E+02  0.51100000000E-03 0. -1.
        -11    1    3    3    0    0  0.29284713303E+01 -0.14230857357E+02  0.33358147216E+01  0.14907075688E+02  0.51100000000E-03 0.  1.
        -12    1    3    3    0    0 -0.41202466804E+01 -0.11865148159E+02 -0.89623798718E+00  0.12592117220E+02  0.00000000000E+00 0.  1.
</event>
<event>
 7    1  0.4592673E-010  0.4778727E+02  0.7816164E-02  0.1312668E+00
        -11   -1    0    0    0    0  0.00000000000E+00  0.00000000000E+00  0.45593999997E+02  0.45594000000E+02  0.51100000000E-03 0.  1.
         11   -1    0    0    0    0 -0.00000000000E+00 -0.00000000000E+00 -0.45593999997E+02  0.45594000000E+02  0.51100000000E-03 0. -1.
    9900012    2    1    2    0    0 -0.23833991468E+02 -0.30724024369E+02 -0.19276895773E+02  0.47787268055E+02  0.19999986369E+02 0.  0.
        -12    1    1    2    0    0  0.23833991468E+02  0.30724024369E+02  0.19276895773E+02  0.43400731945E+02  0.00000000000E+00 0.  1.
         11    1    3    3    0    0 -0.46886520659E+00 -0.51677472724E+01 -0.22227058660E+01  0.56449861011E+01  0.51100000000E-03 0. -1.
        -11    1    3    3    0    0 -0.22303698968E+01 -0.11883717269E+02 -0.67359710515E+00  0.12109955381E+02  0.51100000000E-03 0.  1.
         12    1    3    3    0    0 -0.21134756365E+02 -0.13672559828E+02 -0.16380592801E+02  0.30032326573E+02  0.00000000000E+00 0. -1.
</event>
<event>
 7    1  0.4592673E-010  0.4778726E+02  0.7816164E-02  0.1312668E+00
        -11   -1    0    0    0    0  0.00000000000E+00  0.00000000000E+00  0.45593999997E+02  0.45594000000E+02  0.51100000000E-03 0.  1.
         11   -1    0    0    0    0 -0.00000000000E+00 -0.00000000000E+00 -0.45593999997E+02  0.45594000000E+02  0.51100000000E-03 0. -1.
    9900012    2    1    2    0    0  0.22419090261E+02 -0.36146044101E+02  0.86297250055E+01  0.47787259616E+02  0.19999947891E+02 0.  0.
        -12    1    1    2    0    0 -0.22419090261E+02  0.36146044101E+02 -0.86297250055E+01  0.43400740384E+02  0.00000000000E+00 0.  1.
         11    1    3    3    0    0  0.21059143084E+02 -0.24858207553E+02  0.10403295549E+02  0.34200095741E+02  0.51100000000E-03 0. -1.
        -11    1    3    3    0    0  0.32289820398E+01 -0.24045992824E+01  0.89714283984E+00  0.41247167489E+01  0.51100000000E-03 0.  1.
        -12    1    3    3    0    0 -0.18690348628E+01 -0.88832372652E+01 -0.26707133829E+01  0.94624471255E+01  0.00000000000E+00 0.  1.
</event>
<event>
 7    1  0.4592673E-010  0.4778727E+02  0.7816164E-02  0.1312668E+00
        -11   -1    0    0    0    0  0.00000000000E+00  0.00000000000E+00  0.45593999997E+02  0.45594000000E+02  0.51100000000E-03 0.  1.
         11   -1    0    0    0    0 -0.00000000000E+00 -0.00000000000E+00 -0.45593999997E+02  0.45594000000E+02  0.51100000000E-03 0. -1.
    9900012    2    1    2    0    0 -0.36864687738E+02 -0.22032890290E+02 -0.62585797587E+01  0.47787271007E+02  0.19999999828E+02 0.  0.
        -12    1    1    2    0    0  0.36864687738E+02  0.22032890290E+02  0.62585797587E+01  0.43400728993E+02  0.00000000000E+00 0.  1.
         11    1    3    3    0    0 -0.35293452841E+00  0.94067698693E+00  0.90306414693E-01  0.10087573964E+01  0.51100000000E-03 0. -1.
        -11    1    3    3    0    0 -0.12582905166E+02 -0.80137864071E+01 -0.10516260234E+02  0.18252178078E+02  0.51100000000E-03 0.  1.
         12    1    3    3    0    0 -0.23928848044E+02 -0.14959780869E+02  0.41673740609E+01  0.28526335533E+02  0.00000000000E+00 0. -1.
</event>
<event>
 7    1  0.4592673E-010  0.4778727E+02  0.7816164E-02  0.1312668E+00
        -11   -1    0    0    0    0  0.00000000000E+00  0.00000000000E+00  0.45593999997E+02  0.45594000000E+02  0.51100000000E-03 0. -1.
         11   -1    0    0    0    0 -0.00000000000E+00 -0.00000000000E+00 -0.45593999997E+02  0.45594000000E+02  0.51100000000E-03 0.  1.
    9900012    2    1    2    0    0  0.26282796458E+02 -0.33293592959E+02  0.91855697994E+01  0.47787269426E+02  0.19999992623E+02 0.  0.
        -12    1    1    2    0    0 -0.26282796458E+02  0.33293592959E+02 -0.91855697994E+01  0.43400730574E+02  0.00000000000E+00 0.  1.
         11    1    3    3    0    0  0.15020660275E+02 -0.23161309206E+02  0.26682528501E+01  0.27734203662E+02  0.51100000000E-03 0. -1.
        -11    1    3    3    0    0  0.66475490967E+01 -0.10376275114E+02  0.32595716180E+00  0.12327337205E+02  0.51100000000E-03 0.  1.
        -12    1    3    3    0    0  0.46145870862E+01  0.24399136042E+00  0.61913597874E+01  0.77257285597E+01  0.00000000000E+00 0.  1.
</event>
<event>
 7    1  0.4592673E-010  0.4778727E+02  0.7816164E-02  0.1312668E+00
        -11   -1    0    0    0    0  0.00000000000E+00  0.00000000000E+00  0.45593999997E+02  0.45594000000E+02  0.51100000000E-03 0.  1.
         11   -1    0    0    0    0 -0.00000000000E+00 -0.00000000000E+00 -0.45593999997E+02  0.45594000000E+02  0.51100000000E-03 0. -1.
    9900012    2    1    2    0    0  0.68935581665E+01 -0.35313586257E+02 -0.24270409007E+02  0.47787271067E+02  0.20000000105E+02 0.  0.
        -12    1    1    2    0    0 -0.68935581665E+01  0.35313586257E+02  0.24270409007E+02  0.43400728933E+02  0.00000000000E+00 0.  1.
         11    1    3    3    0    0  0.63636001553E+01 -0.30964082218E+01 -0.88657537014E+01  0.11343929644E+02  0.51100000000E-03 0. -1.
        -11    1    3    3    0    0  0.12144488933E+01 -0.42169811865E+01  0.17773285912E+00  0.43919705910E+01  0.51100000000E-03 0.  1.
        -12    1    3    3    0    0 -0.68449088209E+00 -0.28000196848E+02 -0.15582388165E+02  0.32051370832E+02  0.00000000000E+00 0.  1.
</event>
<event>
 7    1  0.4592673E-010  0.4778728E+02  0.7816164E-02  0.1312668E+00
        -11   -1    0    0    0    0  0.00000000000E+00  0.00000000000E+00  0.45593999997E+02  0.45594000000E+02  0.51100000000E-03 0. -1.
         11   -1    0    0    0    0 -0.00000000000E+00 -0.00000000000E+00 -0.45593999997E+02  0.45594000000E+02  0.51100000000E-03 0.  1.
    9900012    2    1    2    0    0 -0.42452974343E+01  0.42357337812E+02 -0.84531797977E+01  0.47787275749E+02  0.20000021448E+02 0.  0.
        -12    1    1    2    0    0  0.42452974343E+01 -0.42357337812E+02  0.84531797977E+01  0.43400724251E+02  0.00000000000E+00 0.  1.
         11    1    3    3    0    0 -0.11020764593E+02  0.21950807998E+02 -0.32907684077E+01  0.24781533063E+02  0.51100000000E-03 0. -1.
        -11    1    3    3    0    0  0.44357422273E+01  0.15645633602E+02 -0.65351289461E+01  0.17526253750E+02  0.51100000000E-03 0.  1.
        -12    1    3    3    0    0  0.23397249318E+01  0.47608962129E+01  0.13727175562E+01  0.54794889356E+01  0.00000000000E+00 0.  1.
</event>
<event>
 7    1  0.4592673E-010  0.4778727E+02  0.7816164E-02  0.1312668E+00
        -11   -1    0    0    0    0  0.00000000000E+00  0.00000000000E+00  0.45593999997E+02  0.45594000000E+02  0.51100000000E-03 0.  1.
         11   -1    0    0    0    0 -0.00000000000E+00 -0.00000000000E+00 -0.45593999997E+02  0.45594000000E+02  0.51100000000E-03 0. -1.
    9900012    2    1    2    0    0  0.28976347641E+02 -0.12276163205E+02 -0.29887962849E+02  0.47787271563E+02  0.20000002363E+02 0.  0.
        -12    1    1    2    0    0 -0.28976347641E+02  0.12276163205E+02  0.29887962849E+02  0.43400728437E+02  0.00000000000E+00 0.  1.
         11    1    3    3    0    0  0.76399429829E+01 -0.42335619008E+01 -0.11833960258E+02  0.14708310263E+02  0.51100000000E-03 0. -1.
        -11    1    3    3    0    0  0.17650346213E+02 -0.12650440313E+02 -0.12998531438E+02  0.25308697741E+02  0.51100000000E-03 0.  1.
         12    1    3    3    0    0  0.36860584449E+01  0.46078390086E+01 -0.50554711535E+01  0.77702635588E+01  0.00000000000E+00 0. -1.
</event>
<event>
 7    1  0.4592673E-010  0.4778727E+02  0.7816164E-02  0.1312668E+00
        -11   -1    0    0    0    0  0.00000000000E+00  0.00000000000E+00  0.45593999997E+02  0.45594000000E+02  0.51100000000E-03 0. -1.
         11   -1    0    0    0    0 -0.00000000000E+00 -0.00000000000E+00 -0.45593999997E+02  0.45594000000E+02  0.51100000000E-03 0.  1.
    9900012    2    1    2    0    0  0.37810675689E+02  0.70168633603E+01 -0.20118141263E+02  0.47787272180E+02  0.20000005176E+02 0.  0.
        -12    1    1    2    0    0 -0.37810675689E+02 -0.70168633603E+01  0.20118141263E+02  0.43400727820E+02  0.00000000000E+00 0.  1.
         11    1    3    3    0    0  0.21467502591E+02  0.89911080084E-01 -0.62664714601E+01  0.22363595782E+02  0.51100000000E-03 0. -1.
        -11    1    3    3    0    0  0.16288225835E+02  0.84172444226E+01 -0.91495687500E+01  0.20490751892E+02  0.51100000000E-03 0.  1.
        -12    1    3    3    0    0  0.54947263542E-01 -0.14902921423E+01 -0.47021010527E+01  0.49329245059E+01  0.00000000000E+00 0.  1.
</event>
<event>
 7    1  0.4592673E-010  0.4778728E+02  0.7816164E-02  0.1312668E+00
        -11   -1    0    0    0    0  0.00000000000E+00  0.00000000000E+00  0.45593999997E+02  0.45594000000E+02  0.51100000000E-03 0. -1.
         11   -1    0    0    0    0 -0.00000000000E+00 -0.00000000000E+00 -0.45593999997E+02  0.45594000000E+02  0.51100000000E-03 0.  1.
    9900012    2    1    2    0    0 -0.25467634694E+02  0.30339125818E+02  0.17735836657E+02  0.47787275648E+02  0.20000020991E+02 0.  0.
        -12    1    1    2    0    0  0.25467634694E+02 -0.30339125818E+02 -0.17735836657E+02  0.43400724352E+02  0.00000000000E+00 0.  1.
         11    1    3    3    0    0 -0.43950402998E+01  0.93671255436E+01  0.16828451899E+01  0.10482909347E+02  0.51100000000E-03 0. -1.
        -11    1    3    3    0    0 -0.24413377204E+01  0.10910260612E+02  0.80111514430E+00  0.11208733301E+02  0.51100000000E-03 0.  1.
         12    1    3    3    0    0 -0.18631256674E+02  0.10061739663E+02  0.15251876322E+02  0.26095633000E+02  0.00000000000E+00 0. -1.
</event>
<event>
 7    1  0.4592673E-010  0.4778727E+02  0.7816164E-02  0.1312668E+00
        -11   -1    0    0    0    0  0.00000000000E+00  0.00000000000E+00  0.45593999997E+02  0.45594000000E+02  0.51100000000E-03 0.  1.
         11   -1    0    0    0    0 -0.00000000000E+00 -0.00000000000E+00 -0.45593999997E+02  0.45594000000E+02  0.51100000000E-03 0. -1.
    9900012    2    1    2    0    0  0.15755072054E+02  0.21830948444E+02 -0.34041308717E+02  0.47787270691E+02  0.19999998391E+02 0.  0.
        -12    1    1    2    0    0 -0.15755072054E+02 -0.21830948444E+02  0.34041308717E+02  0.43400729309E+02  0.00000000000E+00 0.  1.
         11    1    3    3    0    0  0.10827738398E+02  0.18424778828E+02 -0.12925638378E+02  0.24975678598E+02  0.51100000000E-03 0. -1.
        -11    1    3    3    0    0 -0.48007657538E+00  0.31831592889E+01 -0.78576202434E+01  0.84914764751E+01  0.51100000000E-03 0.  1.
         12    1    3    3    0    0  0.54074102312E+01  0.22301032711E+00 -0.13258050095E+02  0.14320115619E+02  0.00000000000E+00 0. -1.
</event>
<event>
 7    1  0.4592673E-010  0.4778727E+02  0.7816164E-02  0.1312668E+00
        -11   -1    0    0    0    0  0.00000000000E+00  0.00000000000E+00  0.45593999997E+02  0.45594000000E+02  0.51100000000E-03 0.  1.
         11   -1    0    0    0    0 -0.00000000000E+00 -0.00000000000E+00 -0.45593999997E+02  0.45594000000E+02  0.51100000000E-03 0. -1.
    9900012    2    1    2    0    0  0.39120879644E+02 -0.14369400041E+02 -0.12111984158E+02  0.47787273717E+02  0.20000012184E+02 0.  0.
        -12    1    1    2    0    0 -0.39120879644E+02  0.14369400041E+02  0.12111984158E+02  0.43400726283E+02  0.00000000000E+00 0.  1.
         11    1    3    3    0    0  0.25726097433E+02 -0.12851928997E+02 -0.47558538272E+01  0.29148281492E+02  0.51100000000E-03 0. -1.
        -11    1    3    3    0    0  0.66288832173E+01 -0.53232186116E+01 -0.67446472094E+01  0.10852143352E+02  0.51100000000E-03 0.  1.
        -12    1    3    3    0    0  0.67658989942E+01  0.38057475677E+01 -0.61148312096E+00  0.77868488721E+01  0.00000000000E+00 0.  1.
</event>
<event>
 7    1  0.4592673E-010  0.4778727E+02  0.7816164E-02  0.1312668E+00
        -11   -1    0    0    0    0  0.00000000000E+00  0.00000000000E+00  0.45593999997E+02  0.45594000000E+02  0.51100000000E-03 0.  1.
         11   -1    0    0    0    0 -0.00000000000E+00 -0.00000000000E+00 -0.45593999997E+02  0.45594000000E+02  0.51100000000E-03 0. -1.
    9900012    2    1    2    0    0  0.91413867132E+01 -0.17159269805E+02 -0.38802293252E+02  0.47787268983E+02  0.19999990599E+02 0.  0.
        -12    1    1    2    0    0 -0.91413867132E+01  0.17159269805E+02  0.38802293252E+02  0.43400731017E+02  0.00000000000E+00 0.  1.
         11    1    3    3    0    0 -0.14596150439E+01  0.91687734380E+00 -0.90712496973E+00  0.19478234293E+01  0.51100000000E-03 0. -1.
        -11    1    3    3    0    0 -0.27184920261E+00  0.94861822226E+00  0.86617278574E+00  0.13130247813E+01  0.51100000000E-03 0.  1.
         12    1    3    3    0    0  0.10872850960E+02 -0.19024765371E+02 -0.38761341068E+02  0.44526420772E+02  0.00000000000E+00 0. -1.
</event>
<event>
 7    1  0.4592673E-010  0.4778726E+02  0.7816164E-02  0.1312668E+00
        -11   -1    0    0    0    0  0.00000000000E+00  0.00000000000E+00  0.45593999997E+02  0.45594000000E+02  0.51100000000E-03 0.  1.
         11   -1    0    0    0    0 -0.00000000000E+00 -0.00000000000E+00 -0.45593999997E+02  0.45594000000E+02  0.51100000000E-03 0. -1.
    9900012    2    1    2    0    0  0.76994809717E+01  0.21799560625E+02 -0.36730383002E+02  0.47787263990E+02  0.19999967837E+02 0.  0.
        -12    1    1    2    0    0 -0.76994809717E+01 -0.21799560625E+02  0.36730383002E+02  0.43400736010E+02  0.00000000000E+00 0.  1.
         11    1    3    3    0    0 -0.12711165601E+01  0.10910414974E+02 -0.25470439739E+02  0.27737991870E+02  0.51100000000E-03 0.  1.
        -11    1    3    3    0    0  0.44072999952E+01  0.74042450839E+01 -0.11419006853E+02  0.14305273722E+02  0.51100000000E-03 0. -1.
        -12    1    3    3    0    0  0.45632975367E+01  0.34849005669E+01  0.15906358910E+00  0.57439983979E+01  0.00000000000E+00 0.  1.
</event>
<event>
 7    1  0.4592673E-010  0.4778728E+02  0.7816164E-02  0.1312668E+00
        -11   -1    0    0    0    0  0.00000000000E+00  0.00000000000E+00  0.45593999997E+02  0.45594000000E+02  0.51100000000E-03 0.  1.
         11   -1    0    0    0    0 -0.00000000000E+00 -0.00000000000E+00 -0.45593999997E+02  0.45594000000E+02  0.51100000000E-03 0. -1.
    9900012    2    1    2    0    0 -0.25396482489E+02 -0.26055892075E+02 -0.23658654808E+02  0.47787276712E+02  0.20000025838E+02 0.  0.
        -12    1    1    2    0    0  0.25396482489E+02  0.26055892075E+02  0.23658654808E+02  0.43400723288E+02  0.00000000000E+00 0.  1.
         11    1    3    3    0    0 -0.13363143969E+02 -0.19825686600E+01 -0.88706830115E+01  0.16161473094E+02  0.51100000000E-03 0.  1.
        -11    1    3    3    0    0 -0.57193415428E+00 -0.21257498735E+01  0.82881362174E+00  0.23522018371E+01  0.51100000000E-03 0. -1.
        -12    1    3    3    0    0 -0.11461404366E+02 -0.21947573541E+02 -0.15616785418E+02  0.29273601780E+02  0.00000000000E+00 0.  1.
</event>
<event>
 7    1  0.4592673E-010  0.4778727E+02  0.7816164E-02  0.1312668E+00
        -11   -1    0    0    0    0  0.00000000000E+00  0.00000000000E+00  0.45593999997E+02  0.45594000000E+02  0.51100000000E-03 0.  1.
         11   -1    0    0    0    0 -0.00000000000E+00 -0.00000000000E+00 -0.45593999997E+02  0.45594000000E+02  0.51100000000E-03 0. -1.
    9900012    2    1    2    0    0  0.21471172504E+02  0.32092086299E+02 -0.19816911022E+02  0.47787271732E+02  0.20000003137E+02 0.  0.
        -12    1    1    2    0    0 -0.21471172504E+02 -0.32092086299E+02  0.19816911022E+02  0.43400728268E+02  0.00000000000E+00 0.  1.
         11    1    3    3    0    0  0.44534796975E+01  0.16297801534E+02 -0.91209277043E+01  0.19200081737E+02  0.51100000000E-03 0. -1.
        -11    1    3    3    0    0  0.49190829579E+01  0.12461927769E+02 -0.84467422771E+01  0.15838070470E+02  0.51100000000E-03 0.  1.
         12    1    3    3    0    0  0.12098609848E+02  0.33323569961E+01 -0.22492410406E+01  0.12749119525E+02  0.00000000000E+00 0. -1.
</event>
<event>
 7    1  0.4592673E-010  0.4778727E+02  0.7816164E-02  0.1312668E+00
        -11   -1    0    0    0    0  0.00000000000E+00  0.00000000000E+00  0.45593999997E+02  0.45594000000E+02  0.51100000000E-03 0.  1.
         11   -1    0    0    0    0 -0.00000000000E+00 -0.00000000000E+00 -0.45593999997E+02  0.45594000000E+02  0.51100000000E-03 0. -1.
    9900012    2    1    2    0    0  0.17802191588E+02 -0.34408870727E+02 -0.19563616309E+02  0.47787268519E+02  0.19999988486E+02 0.  0.
        -12    1    1    2    0    0 -0.17802191588E+02  0.34408870727E+02  0.19563616309E+02  0.43400731481E+02  0.00000000000E+00 0.  1.
         11    1    3    3    0    0  0.63567991172E+01 -0.12972898546E+02 -0.84325391187E+01  0.16727603174E+02  0.51100000000E-03 0. -1.
        -11    1    3    3    0    0  0.53832768428E+01 -0.16098425347E+02 -0.14484097085E+02  0.22314301173E+02  0.51100000000E-03 0.  1.
         12    1    3    3    0    0  0.60621156275E+01 -0.53375468338E+01  0.33530198950E+01  0.87453641720E+01  0.00000000000E+00 0. -1.
</event>
<event>
 7    1  0.4592673E-010  0.4778727E+02  0.7816164E-02  0.1312668E+00
        -11   -1    0    0    0    0  0.00000000000E+00  0.00000000000E+00  0.45593999997E+02  0.45594000000E+02  0.51100000000E-03 0.  1.
         11   -1    0    0    0    0 -0.00000000000E+00 -0.00000000000E+00 -0.45593999997E+02  0.45594000000E+02  0.51100000000E-03 0. -1.
    9900012    2    1    2    0    0  0.41477722388E+01  0.34494269141E+02 -0.26010850144E+02  0.47787274852E+02  0.20000017362E+02 0.  0.
        -12    1    1    2    0    0 -0.41477722388E+01 -0.34494269141E+02  0.26010850144E+02  0.43400725148E+02  0.00000000000E+00 0.  1.
         11    1    3    3    0    0 -0.23474813809E+00  0.39685303212E+00  0.66076317640E+00  0.80573398454E+00  0.51100000000E-03 0. -1.
        -11    1    3    3    0    0  0.54646785555E+01  0.10586786828E+02 -0.70317404541E+00  0.11934706576E+02  0.51100000000E-03 0.  1.
         12    1    3    3    0    0 -0.10821581786E+01  0.23510629281E+02 -0.25968439275E+02  0.35046834292E+02  0.00000000000E+00 0. -1.
</event>
<event>
 7    1  0.4592673E-010  0.4778724E+02  0.7816164E-02  0.1312668E+00
        -11   -1    0    0    0    0  0.00000000000E+00  0.00000000000E+00  0.45593999997E+02  0.45594000000E+02  0.51100000000E-03 0. -1.
         11   -1    0    0    0    0 -0.00000000000E+00 -0.00000000000E+00 -0.45593999997E+02  0.45594000000E+02  0.51100000000E-03 0.  1.
    9900012    2    1    2    0    0 -0.81348005627E+01 -0.14106151249E+02  0.40230178280E+02  0.47787242775E+02  0.19999871109E+02 0.  0.
        -12    1    1    2    0    0  0.81348005627E+01  0.14106151249E+02 -0.40230178280E+02  0.43400757225E+02  0.00000000000E+00 0.  1.
         11    1    3    3    0    0 -0.19149310988E+01 -0.54459405291E+01  0.45008035272E+01  0.73200042357E+01  0.51100000000E-03 0. -1.
        -11    1    3    3    0    0  0.31612676129E+00 -0.83642071719E+01  0.31692951294E+02  0.32779613477E+02  0.51100000000E-03 0.  1.
        -12    1    3    3    0    0 -0.65359962252E+01 -0.29600354817E+00  0.40364234587E+01  0.76876250620E+01  0.00000000000E+00 0.  1.
</event>
<event>
 7    1  0.4592673E-010  0.4778727E+02  0.7816164E-02  0.1312668E+00
        -11   -1    0    0    0    0  0.00000000000E+00  0.00000000000E+00  0.45593999997E+02  0.45594000000E+02  0.51100000000E-03 0.  1.
         11   -1    0    0    0    0 -0.00000000000E+00 -0.00000000000E+00 -0.45593999997E+02  0.45594000000E+02  0.51100000000E-03 0. -1.
    9900012    2    1    2    0    0  0.84382554919E+01 -0.33098334446E+02 -0.26775348148E+02  0.47787272272E+02  0.20000005599E+02 0.  0.
        -12    1    1    2    0    0 -0.84382554919E+01  0.33098334446E+02  0.26775348148E+02  0.43400727728E+02  0.00000000000E+00 0.  1.
         11    1    3    3    0    0 -0.62693142804E+00 -0.25283986531E+02 -0.13281388858E+02  0.28566909321E+02  0.51100000000E-03 0. -1.
        -11    1    3    3    0    0 -0.44700795391E+00  0.42271809938E+00 -0.22933887627E+01  0.23744765698E+01  0.51100000000E-03 0.  1.
         12    1    3    3    0    0  0.95121948738E+01 -0.82370660147E+01 -0.11200570527E+02  0.16845886382E+02  0.00000000000E+00 0. -1.
</event>
<event>
 7    1  0.4592673E-010  0.4778727E+02  0.7816164E-02  0.1312668E+00
        -11   -1    0    0    0    0  0.00000000000E+00  0.00000000000E+00  0.45593999997E+02  0.45594000000E+02  0.51100000000E-03 0. -1.
         11   -1    0    0    0    0 -0.00000000000E+00 -0.00000000000E+00 -0.45593999997E+02  0.45594000000E+02  0.51100000000E-03 0.  1.
    9900012    2    1    2    0    0  0.28100226344E+02 -0.11503534600E+02  0.31010791100E+02  0.47787271971E+02  0.20000004223E+02 0.  0.
        -12    1    1    2    0    0 -0.28100226344E+02  0.11503534600E+02 -0.31010791100E+02  0.43400728029E+02  0.00000000000E+00 0.  1.
         11    1    3    3    0    0 -0.90838077777E+00 -0.10385050090E+00 -0.24482362324E+00  0.94650907633E+00  0.51100000000E-03 0. -1.
        -11    1    3    3    0    0  0.41934227995E+01  0.21405932095E+01  0.14288697999E-01  0.47081990709E+01  0.51100000000E-03 0.  1.
         12    1    3    3    0    0  0.24815184322E+02 -0.13540277308E+02  0.31241326025E+02  0.42132563823E+02  0.00000000000E+00 0. -1.
</event>
<event>
 7    1  0.4592673E-010  0.4778727E+02  0.7816164E-02  0.1312668E+00
        -11   -1    0    0    0    0  0.00000000000E+00  0.00000000000E+00  0.45593999997E+02  0.45594000000E+02  0.51100000000E-03 0. -1.
         11   -1    0    0    0    0 -0.00000000000E+00 -0.00000000000E+00 -0.45593999997E+02  0.45594000000E+02  0.51100000000E-03 0.  1.
    9900012    2    1    2    0    0 -0.42067833885E+02  0.10525131254E+02 -0.17726083806E+01  0.47787272170E+02  0.20000005131E+02 0.  0.
        -12    1    1    2    0    0  0.42067833885E+02 -0.10525131254E+02  0.17726083806E+01  0.43400727830E+02  0.00000000000E+00 0.  1.
         11    1    3    3    0    0 -0.96759349342E+01 -0.95597864868E+00  0.41752211096E+00  0.97320058057E+01  0.51100000000E-03 0. -1.
        -11    1    3    3    0    0  0.14083820420E+01  0.74879143132E+00 -0.20427346194E+01  0.25917163367E+01  0.51100000000E-03 0.  1.
         12    1    3    3    0    0 -0.33800280993E+02  0.10732318472E+02 -0.14739587214E+00  0.35463550027E+02  0.00000000000E+00 0. -1.
</event>
<event>
 7    1  0.4592673E-010  0.4778728E+02  0.7816164E-02  0.1312668E+00
        -11   -1    0    0    0    0  0.00000000000E+00  0.00000000000E+00  0.45593999997E+02  0.45594000000E+02  0.51100000000E-03 0.  1.
         11   -1    0    0    0    0 -0.00000000000E+00 -0.00000000000E+00 -0.45593999997E+02  0.45594000000E+02  0.51100000000E-03 0. -1.
    9900012    2    1    2    0    0 -0.16723602573E+01 -0.25709494394E+01 -0.43292219849E+02  0.47787275706E+02  0.20000021253E+02 0.  0.
        -12    1    1    2    0    0  0.16723602573E+01  0.25709494394E+01  0.43292219849E+02  0.43400724294E+02  0.00000000000E+00 0.  1.
         11    1    3    3    0    0  0.84668099720E+00  0.19446287645E+01 -0.23961697505E+01  0.32000124182E+01  0.51100000000E-03 0. -1.
        -11    1    3    3    0    0 -0.93097739558E+01 -0.30396352122E+00 -0.26948093099E+02  0.28512523685E+02  0.51100000000E-03 0.  1.
         12    1    3    3    0    0  0.67907327013E+01 -0.42116146827E+01 -0.13947956999E+02  0.16074739603E+02  0.00000000000E+00 0. -1.
</event>
<event>
 7    1  0.4592673E-010  0.4778727E+02  0.7816164E-02  0.1312668E+00
        -11   -1    0    0    0    0  0.00000000000E+00  0.00000000000E+00  0.45593999997E+02  0.45594000000E+02  0.51100000000E-03 0. -1.
         11   -1    0    0    0    0 -0.00000000000E+00 -0.00000000000E+00 -0.45593999997E+02  0.45594000000E+02  0.51100000000E-03 0.  1.
    9900012    2    1    2    0    0  0.52435931226E+01  0.54234667648E+01  0.42740075086E+02  0.47787270986E+02  0.19999999734E+02 0.  0.
        -12    1    1    2    0    0 -0.52435931226E+01 -0.54234667648E+01 -0.42740075086E+02  0.43400729014E+02  0.00000000000E+00 0.  1.
         11    1    3    3    0    0  0.10657452012E+02  0.14497527364E+01  0.36997745335E+02  0.38529420272E+02  0.51100000000E-03 0. -1.
        -11    1    3    3    0    0 -0.24471305757E+00  0.12506054489E+01  0.38577714697E+00  0.13314363438E+01  0.51100000000E-03 0.  1.
         12    1    3    3    0    0 -0.51691458321E+01  0.27231085795E+01  0.53565526044E+01  0.79264143704E+01  0.00000000000E+00 0. -1.
</event>
<event>
 7    1  0.4592673E-010  0.4778727E+02  0.7816164E-02  0.1312668E+00
        -11   -1    0    0    0    0  0.00000000000E+00  0.00000000000E+00  0.45593999997E+02  0.45594000000E+02  0.51100000000E-03 0.  1.
         11   -1    0    0    0    0 -0.00000000000E+00 -0.00000000000E+00 -0.45593999997E+02  0.45594000000E+02  0.51100000000E-03 0. -1.
    9900012    2    1    2    0    0 -0.17056016206E+02  0.11293357640E+02 -0.38277612172E+02  0.47787271789E+02  0.20000003397E+02 0.  0.
        -12    1    1    2    0    0  0.17056016206E+02 -0.11293357640E+02  0.38277612172E+02  0.43400728211E+02  0.00000000000E+00 0.  1.
         11    1    3    3    0    0  0.11445238872E+00  0.24499999315E+01 -0.99487756212E+01  0.10246645092E+02  0.51100000000E-03 0. -1.
        -11    1    3    3    0    0 -0.45086982264E+00  0.57185416706E+01 -0.17720084171E+01  0.60037502052E+01  0.51100000000E-03 0.  1.
         12    1    3    3    0    0 -0.16719598772E+02  0.31248160376E+01 -0.26556828134E+02  0.31536876493E+02  0.00000000000E+00 0. -1.
</event>
<event>
 7    1  0.4592673E-010  0.4778727E+02  0.7816164E-02  0.1312668E+00
        -11   -1    0    0    0    0  0.00000000000E+00  0.00000000000E+00  0.45593999997E+02  0.45594000000E+02  0.51100000000E-03 0.  1.
         11   -1    0    0    0    0 -0.00000000000E+00 -0.00000000000E+00 -0.45593999997E+02  0.45594000000E+02  0.51100000000E-03 0. -1.
    9900012    2    1    2    0    0 -0.30264591403E+02  0.30578382909E+02 -0.57131783317E+01  0.47787269582E+02  0.19999993334E+02 0.  0.
        -12    1    1    2    0    0  0.30264591403E+02 -0.30578382909E+02  0.57131783317E+01  0.43400730418E+02  0.00000000000E+00 0.  1.
         11    1    3    3    0    0 -0.72716151370E+01  0.84512211142E+01 -0.49442623115E+01  0.12196116394E+02  0.51100000000E-03 0. -1.
        -11    1    3    3    0    0 -0.23165620115E+02  0.13259389420E+02 -0.41597866848E-01  0.26691929375E+02  0.51100000000E-03 0.  1.
         12    1    3    3    0    0  0.17264384920E+00  0.88677723747E+01 -0.72731815337E+00  0.88992238136E+01  0.00000000000E+00 0. -1.
</event>
<event>
 7    1  0.4592673E-010  0.4778727E+02  0.7816164E-02  0.1312668E+00
        -11   -1    0    0    0    0  0.00000000000E+00  0.00000000000E+00  0.45593999997E+02  0.45594000000E+02  0.51100000000E-03 0. -1.
         11   -1    0    0    0    0 -0.00000000000E+00 -0.00000000000E+00 -0.45593999997E+02  0.45594000000E+02  0.51100000000E-03 0.  1.
    9900012    2    1    2    0    0 -0.10218742535E+02  0.21696776144E+02  0.36172510196E+02  0.47787270882E+02  0.19999999262E+02 0.  0.
        -12    1    1    2    0    0  0.10218742535E+02 -0.21696776144E+02 -0.36172510196E+02  0.43400729118E+02  0.00000000000E+00 0.  1.
         11    1    3    3    0    0 -0.12817974725E+01 -0.49632978975E-01  0.90724261781E+01  0.91626625612E+01  0.51100000000E-03 0.  1.
        -11    1    3    3    0    0 -0.10944255047E+02  0.16647712252E+02  0.26439344834E+02  0.33105316752E+02  0.51100000000E-03 0. -1.
        -12    1    3    3    0    0  0.20073099843E+01  0.50986968711E+01  0.66073918430E+00  0.55192915693E+01  0.00000000000E+00 0.  1.
</event>
<event>
 7    1  0.4592673E-010  0.4778728E+02  0.7816164E-02  0.1312668E+00
        -11   -1    0    0    0    0  0.00000000000E+00  0.00000000000E+00  0.45593999997E+02  0.45594000000E+02  0.51100000000E-03 0. -1.
         11   -1    0    0    0    0 -0.00000000000E+00 -0.00000000000E+00 -0.45593999997E+02  0.45594000000E+02  0.51100000000E-03 0.  1.
    9900012    2    1    2    0    0 -0.68048888653E+01 -0.35344547329E+01  0.42717958602E+02  0.47787275699E+02  0.20000021222E+02 0.  0.
        -12    1    1    2    0    0  0.68048888653E+01  0.35344547329E+01 -0.42717958602E+02  0.43400724301E+02  0.00000000000E+00 0.  1.
         11    1    3    3    0    0 -0.23281372999E+01 -0.40706351319E+01  0.55180311023E+01  0.72414750687E+01  0.51100000000E-03 0. -1.
        -11    1    3    3    0    0 -0.93407408510E+01 -0.46331837635E+00  0.32071663041E+02  0.33407419446E+02  0.51100000000E-03 0.  1.
         12    1    3    3    0    0  0.48639892856E+01  0.99949877536E+00  0.51282644590E+01  0.71383811844E+01  0.00000000000E+00 0. -1.
</event>
<event>
 7    1  0.4592673E-010  0.4778727E+02  0.7816164E-02  0.1312668E+00
        -11   -1    0    0    0    0  0.00000000000E+00  0.00000000000E+00  0.45593999997E+02  0.45594000000E+02  0.51100000000E-03 0. -1.
         11   -1    0    0    0    0 -0.00000000000E+00 -0.00000000000E+00 -0.45593999997E+02  0.45594000000E+02  0.51100000000E-03 0.  1.
    9900012    2    1    2    0    0  0.24754412817E+02 -0.96349101455E+01  0.34322162576E+02  0.47787270844E+02  0.19999999085E+02 0.  0.
        -12    1    1    2    0    0 -0.24754412817E+02  0.96349101455E+01 -0.34322162576E+02  0.43400729156E+02  0.00000000000E+00 0.  1.
         11    1    3    3    0    0  0.10946065753E+02 -0.47638206543E+00  0.48104713748E+01  0.11965948790E+02  0.51100000000E-03 0.  1.
        -11    1    3    3    0    0  0.99106208309E+01 -0.31302775515E+00  0.10198331605E+02  0.14224076751E+02  0.51100000000E-03 0. -1.
         12    1    3    3    0    0  0.38977262333E+01 -0.88455003249E+01  0.19313359596E+02  0.21597245303E+02  0.00000000000E+00 0. -1.
</event>
<event>
 7    1  0.4592673E-010  0.4778727E+02  0.7816164E-02  0.1312668E+00
        -11   -1    0    0    0    0  0.00000000000E+00  0.00000000000E+00  0.45593999997E+02  0.45594000000E+02  0.51100000000E-03 0. -1.
         11   -1    0    0    0    0 -0.00000000000E+00 -0.00000000000E+00 -0.45593999997E+02  0.45594000000E+02  0.51100000000E-03 0.  1.
    9900012    2    1    2    0    0  0.33824355867E+02 -0.21404075566E+02  0.16775031827E+02  0.47787271971E+02  0.20000004225E+02 0.  0.
        -12    1    1    2    0    0 -0.33824355867E+02  0.21404075566E+02 -0.16775031827E+02  0.43400728029E+02  0.00000000000E+00 0.  1.
         11    1    3    3    0    0  0.13381120705E+02 -0.48668111235E+01  0.34568103672E+01  0.14652296066E+02  0.51100000000E-03 0.  1.
        -11    1    3    3    0    0  0.21236246942E+02 -0.17989393325E+02  0.14216521103E+02  0.31252294779E+02  0.51100000000E-03 0. -1.
         12    1    3    3    0    0 -0.79301178099E+00  0.14521288817E+01 -0.89829964349E+00  0.18826811263E+01  0.00000000000E+00 0. -1.
</event>
<event>
 7    1  0.4592673E-010  0.4778727E+02  0.7816164E-02  0.1312668E+00
        -11   -1    0    0    0    0  0.00000000000E+00  0.00000000000E+00  0.45593999997E+02  0.45594000000E+02  0.51100000000E-03 0.  1.
         11   -1    0    0    0    0 -0.00000000000E+00 -0.00000000000E+00 -0.45593999997E+02  0.45594000000E+02  0.51100000000E-03 0. -1.
    9900012    2    1    2    0    0  0.28763931243E+02  0.30226864382E+02 -0.11941367969E+02  0.47787270284E+02  0.19999996534E+02 0.  0.
        -12    1    1    2    0    0 -0.28763931243E+02 -0.30226864382E+02  0.11941367969E+02  0.43400729716E+02  0.00000000000E+00 0.  1.
         11    1    3    3    0    0  0.11203136833E+02  0.13343352731E+02 -0.12517716893E+02  0.21453404706E+02  0.51100000000E-03 0. -1.
        -11    1    3    3    0    0  0.11721661850E+02  0.13910885999E+02 -0.36273569125E+01  0.18549065319E+02  0.51100000000E-03 0.  1.
        -12    1    3    3    0    0  0.58391325596E+01  0.29726256525E+01  0.42037058362E+01  0.77848002592E+01  0.00000000000E+00 0.  1.
</event>
<event>
 7    1  0.4592673E-010  0.4778727E+02  0.7816164E-02  0.1312668E+00
        -11   -1    0    0    0    0  0.00000000000E+00  0.00000000000E+00  0.45593999997E+02  0.45594000000E+02  0.51100000000E-03 0.  1.
         11   -1    0    0    0    0 -0.00000000000E+00 -0.00000000000E+00 -0.45593999997E+02  0.45594000000E+02  0.51100000000E-03 0. -1.
    9900012    2    1    2    0    0 -0.31059201802E+02 -0.41696791837E+01 -0.30026038405E+02  0.47787271626E+02  0.20000002654E+02 0.  0.
        -12    1    1    2    0    0  0.31059201802E+02  0.41696791837E+01  0.30026038405E+02  0.43400728374E+02  0.00000000000E+00 0.  1.
         11    1    3    3    0    0 -0.15737552802E+02 -0.66209971353E+00 -0.94929936941E+01  0.18390918241E+02  0.51100000000E-03 0. -1.
        -11    1    3    3    0    0 -0.65746578334E+01 -0.38331502006E+01 -0.60949073117E+00  0.76348310590E+01  0.51100000000E-03 0.  1.
         12    1    3    3    0    0 -0.87469911665E+01  0.32557073042E+00 -0.19923553980E+02  0.21761522326E+02  0.00000000000E+00 0. -1.
</event>
<event>
 7    1  0.4592673E-010  0.4778727E+02  0.7816164E-02  0.1312668E+00
        -11   -1    0    0    0    0  0.00000000000E+00  0.00000000000E+00  0.45593999997E+02  0.45594000000E+02  0.51100000000E-03 0.  1.
         11   -1    0    0    0    0 -0.00000000000E+00 -0.00000000000E+00 -0.45593999997E+02  0.45594000000E+02  0.51100000000E-03 0. -1.
    9900012    2    1    2    0    0  0.88188337340E+01  0.24377684074E+02 -0.34807760043E+02  0.47787268803E+02  0.19999989779E+02 0.  0.
        -12    1    1    2    0    0 -0.88188337340E+01 -0.24377684074E+02  0.34807760043E+02  0.43400731197E+02  0.00000000000E+00 0.  1.
         11    1    3    3    0    0  0.62680418316E+01  0.10450772736E+02 -0.13639016506E+02  0.18290155021E+02  0.51100000000E-03 0. -1.
        -11    1    3    3    0    0  0.11527726839E+01  0.21424300251E+01 -0.16605672938E+02  0.16782945667E+02  0.51100000000E-03 0.  1.
         12    1    3    3    0    0  0.13980192186E+01  0.11784481313E+02 -0.45630705985E+01  0.12714168114E+02  0.00000000000E+00 0. -1.
</event>
<event>
 7    1  0.4592673E-010  0.4778727E+02  0.7816164E-02  0.1312668E+00
        -11   -1    0    0    0    0  0.00000000000E+00  0.00000000000E+00  0.45593999997E+02  0.45594000000E+02  0.51100000000E-03 0. -1.
         11   -1    0    0    0    0 -0.00000000000E+00 -0.00000000000E+00 -0.45593999997E+02  0.45594000000E+02  0.51100000000E-03 0.  1.
    9900012    2    1    2    0    0  0.22497316867E+02  0.64546771552E+00  0.37108995458E+02  0.47787269145E+02  0.19999991341E+02 0.  0.
        -12    1    1    2    0    0 -0.22497316867E+02 -0.64546771552E+00 -0.37108995458E+02  0.43400730855E+02  0.00000000000E+00 0.  1.
         11    1    3    3    0    0  0.32439575581E+01 -0.35348876140E+01  0.50576651808E+01  0.69712745194E+01  0.51100000000E-03 0. -1.
        -11    1    3    3    0    0  0.10438036033E+02 -0.36584200562E+01  0.69017966919E+01  0.13037309207E+02  0.51100000000E-03 0.  1.
         12    1    3    3    0    0  0.88153232760E+01  0.78387753857E+01  0.25149533586E+02  0.27778685418E+02  0.00000000000E+00 0. -1.
</event>
<event>
 7    1  0.4592673E-010  0.4778727E+02  0.7816164E-02  0.1312668E+00
        -11   -1    0    0    0    0  0.00000000000E+00  0.00000000000E+00  0.45593999997E+02  0.45594000000E+02  0.51100000000E-03 0.  1.
         11   -1    0    0    0    0 -0.00000000000E+00 -0.00000000000E+00 -0.45593999997E+02  0.45594000000E+02  0.51100000000E-03 0. -1.
    9900012    2    1    2    0    0 -0.37976182579E+01 -0.22456533065E+02 -0.36944629433E+02  0.47787269296E+02  0.19999992028E+02 0.  0.
        -12    1    1    2    0    0  0.37976182579E+01  0.22456533065E+02  0.36944629433E+02  0.43400730704E+02  0.00000000000E+00 0.  1.
         11    1    3    3    0    0 -0.34174647802E+00 -0.28807751327E+01 -0.36054883001E+01  0.46276562279E+01  0.51100000000E-03 0. -1.
        -11    1    3    3    0    0  0.68406781484E+01 -0.43925055379E+01 -0.15851829360E+02  0.17814866734E+02  0.51100000000E-03 0.  1.
        -12    1    3    3    0    0 -0.10296549928E+02 -0.15183252394E+02 -0.17487311772E+02  0.25344746334E+02  0.00000000000E+00 0.  1.
</event>
<event>
 7    1  0.4592673E-010  0.4778727E+02  0.7816164E-02  0.1312668E+00
        -11   -1    0    0    0    0  0.00000000000E+00  0.00000000000E+00  0.45593999997E+02  0.45594000000E+02  0.51100000000E-03 0. -1.
         11   -1    0    0    0    0 -0.00000000000E+00 -0.00000000000E+00 -0.45593999997E+02  0.45594000000E+02  0.51100000000E-03 0.  1.
    9900012    2    1    2    0    0  0.18685662751E+02  0.33540712674E+02  0.20235849164E+02  0.47787274309E+02  0.20000014886E+02 0.  0.
        -12    1    1    2    0    0 -0.18685662751E+02 -0.33540712674E+02 -0.20235849164E+02  0.43400725691E+02  0.00000000000E+00 0.  1.
         11    1    3    3    0    0  0.19161234998E+02  0.33186066618E+02  0.22222781753E+02  0.44298080921E+02  0.51100000000E-03 0. -1.
        -11    1    3    3    0    0  0.34009556100E+00  0.13522868940E+01 -0.16439827598E+01  0.21556958064E+01  0.51100000000E-03 0.  1.
         12    1    3    3    0    0 -0.81566780802E+00 -0.99764083808E+00 -0.34294982922E+00  0.13334975816E+01  0.00000000000E+00 0. -1.
</event>
<event>
 7    1  0.4592673E-010  0.4778727E+02  0.7816164E-02  0.1312668E+00
        -11   -1    0    0    0    0  0.00000000000E+00  0.00000000000E+00  0.45593999997E+02  0.45594000000E+02  0.51100000000E-03 0. -1.
         11   -1    0    0    0    0 -0.00000000000E+00 -0.00000000000E+00 -0.45593999997E+02  0.45594000000E+02  0.51100000000E-03 0.  1.
    9900012    2    1    2    0    0 -0.19745388282E+02 -0.38061222128E+02  0.67146138258E+01  0.47787273887E+02  0.20000012960E+02 0.  0.
        -12    1    1    2    0    0  0.19745388282E+02  0.38061222128E+02 -0.67146138258E+01  0.43400726113E+02  0.00000000000E+00 0.  1.
         11    1    3    3    0    0 -0.81316547758E+00 -0.37590097721E+01  0.48600639025E+01  0.61977103803E+01  0.51100000000E-03 0. -1.
        -11    1    3    3    0    0 -0.88473241640E+01 -0.47686384520E+01 -0.16510061831E+01  0.10185326663E+02  0.51100000000E-03 0.  1.
        -12    1    3    3    0    0 -0.10084898640E+02 -0.29533573904E+02  0.35055561065E+01  0.31404236844E+02  0.00000000000E+00 0.  1.
</event>
<event>
 7    1  0.4592673E-010  0.4778728E+02  0.7816164E-02  0.1312668E+00
        -11   -1    0    0    0    0  0.00000000000E+00  0.00000000000E+00  0.45593999997E+02  0.45594000000E+02  0.51100000000E-03 0.  1.
         11   -1    0    0    0    0 -0.00000000000E+00 -0.00000000000E+00 -0.45593999997E+02  0.45594000000E+02  0.51100000000E-03 0. -1.
    9900012    2    1    2    0    0  0.42659697257E+01  0.85738904473E+01 -0.42330988291E+02  0.47787278061E+02  0.20000031993E+02 0.  0.
        -12    1    1    2    0    0 -0.42659697257E+01 -0.85738904473E+01  0.42330988291E+02  0.43400721939E+02  0.00000000000E+00 0.  1.
         11    1    3    3    0    0 -0.15307820866E+01 -0.14080586899E+01 -0.77033866283E+00  0.22179596451E+01  0.51100000000E-03 0. -1.
        -11    1    3    3    0    0  0.12982201734E+01  0.16978530632E+01  0.71630716318E+00  0.22541465915E+01  0.51100000000E-03 0.  1.
         12    1    3    3    0    0  0.44985316389E+01  0.82840960740E+01 -0.42276956791E+02  0.43315171825E+02  0.00000000000E+00 0. -1.
</event>
<event>
 7    1  0.4592673E-010  0.4778727E+02  0.7816164E-02  0.1312668E+00
        -11   -1    0    0    0    0  0.00000000000E+00  0.00000000000E+00  0.45593999997E+02  0.45594000000E+02  0.51100000000E-03 0. -1.
         11   -1    0    0    0    0 -0.00000000000E+00 -0.00000000000E+00 -0.45593999997E+02  0.45594000000E+02  0.51100000000E-03 0.  1.
    9900012    2    1    2    0    0 -0.20048570149E+02  0.34019053563E+02 -0.18010607192E+02  0.47787272567E+02  0.20000006940E+02 0.  0.
        -12    1    1    2    0    0  0.20048570149E+02 -0.34019053563E+02  0.18010607192E+02  0.43400727433E+02  0.00000000000E+00 0.  1.
         11    1    3    3    0    0 -0.13272754817E+02  0.19594787101E+02 -0.89727998138E+01  0.25310725764E+02  0.51100000000E-03 0. -1.
        -11    1    3    3    0    0 -0.56335626609E+01  0.98112959437E+01 -0.12300312087E+02  0.16712158271E+02  0.51100000000E-03 0.  1.
        -12    1    3    3    0    0 -0.11422526716E+01  0.46129705183E+01  0.32625047095E+01  0.57643885320E+01  0.00000000000E+00 0.  1.
</event>
<event>
 7    1  0.4592673E-010  0.4778727E+02  0.7816164E-02  0.1312668E+00
        -11   -1    0    0    0    0  0.00000000000E+00  0.00000000000E+00  0.45593999997E+02  0.45594000000E+02  0.51100000000E-03 0.  1.
         11   -1    0    0    0    0 -0.00000000000E+00 -0.00000000000E+00 -0.45593999997E+02  0.45594000000E+02  0.51100000000E-03 0. -1.
    9900012    2    1    2    0    0 -0.51459357627E+01  0.35058912147E+02 -0.25060228780E+02  0.47787273712E+02  0.20000012163E+02 0.  0.
        -12    1    1    2    0    0  0.51459357627E+01 -0.35058912147E+02  0.25060228780E+02  0.43400726288E+02  0.00000000000E+00 0.  1.
         11    1    3    3    0    0 -0.92029494633E+00  0.16144754713E+02 -0.16309048073E+02  0.22967043711E+02  0.51100000000E-03 0. -1.
        -11    1    3    3    0    0  0.30600460286E+00  0.18677995008E+02 -0.72972965901E+01  0.20055215633E+02  0.51100000000E-03 0.  1.
        -12    1    3    3    0    0 -0.45316454193E+01  0.23616242631E+00 -0.14538841176E+01  0.47650143678E+01  0.00000000000E+00 0.  1.
</event>
<event>
 7    1  0.4592673E-010  0.4778727E+02  0.7816164E-02  0.1312668E+00
        -11   -1    0    0    0    0  0.00000000000E+00  0.00000000000E+00  0.45593999997E+02  0.45594000000E+02  0.51100000000E-03 0.  1.
         11   -1    0    0    0    0 -0.00000000000E+00 -0.00000000000E+00 -0.45593999997E+02  0.45594000000E+02  0.51100000000E-03 0. -1.
    9900012    2    1    2    0    0 -0.34648976754E+02  0.20016464039E+02 -0.16805138998E+02  0.47787272824E+02  0.20000008112E+02 0.  0.
        -12    1    1    2    0    0  0.34648976754E+02 -0.20016464039E+02  0.16805138998E+02  0.43400727176E+02  0.00000000000E+00 0.  1.
         11    1    3    3    0    0 -0.89015019635E+01  0.55049073013E+01  0.55621578791E+00  0.10480940696E+02  0.51100000000E-03 0. -1.
        -11    1    3    3    0    0  0.61148024596E+00  0.40352339495E+01 -0.60338089771E-01  0.40817474278E+01  0.51100000000E-03 0.  1.
         12    1    3    3    0    0 -0.26358955036E+02  0.10476322788E+02 -0.17301016697E+02  0.33224584700E+02  0.00000000000E+00 0. -1.
</event>
<event>
 7    1  0.4592673E-010  0.4778727E+02  0.7816164E-02  0.1312668E+00
        -11   -1    0    0    0    0  0.00000000000E+00  0.00000000000E+00  0.45593999997E+02  0.45594000000E+02  0.51100000000E-03 0.  1.
         11   -1    0    0    0    0 -0.00000000000E+00 -0.00000000000E+00 -0.45593999997E+02  0.45594000000E+02  0.51100000000E-03 0. -1.
    9900012    2    1    2    0    0  0.27731129093E+02 -0.18813038971E+02 -0.27580377939E+02  0.47787271857E+02  0.20000003705E+02 0.  0.
        -12    1    1    2    0    0 -0.27731129093E+02  0.18813038971E+02  0.27580377939E+02  0.43400728143E+02  0.00000000000E+00 0.  1.
         11    1    3    3    0    0  0.52814260053E+01 -0.71602920603E+01 -0.29083441352E+01  0.93606468210E+01  0.51100000000E-03 0.  1.
        -11    1    3    3    0    0  0.89729630682E+00 -0.42375450410E+01  0.62481701170E+00  0.43763369610E+01  0.51100000000E-03 0. -1.
         12    1    3    3    0    0  0.21552406780E+02 -0.74152018700E+01 -0.25296850816E+02  0.34050288075E+02  0.00000000000E+00 0. -1.
</event>
<event>
 7    1  0.4592673E-010  0.4778727E+02  0.7816164E-02  0.1312668E+00
        -11   -1    0    0    0    0  0.00000000000E+00  0.00000000000E+00  0.45593999997E+02  0.45594000000E+02  0.51100000000E-03 0.  1.
         11   -1    0    0    0    0 -0.00000000000E+00 -0.00000000000E+00 -0.45593999997E+02  0.45594000000E+02  0.51100000000E-03 0. -1.
    9900012    2    1    2    0    0 -0.10496348101E+02 -0.10219711531E+02 -0.40853485568E+02  0.47787272929E+02  0.20000008592E+02 0.  0.
        -12    1    1    2    0    0  0.10496348101E+02  0.10219711531E+02  0.40853485568E+02  0.43400727071E+02  0.00000000000E+00 0.  1.
         11    1    3    3    0    0  0.14717971787E+01 -0.21860007675E+01 -0.32069943471E+01  0.41508552485E+01  0.51100000000E-03 0. -1.
        -11    1    3    3    0    0 -0.15666310208E+01  0.25199261781E+01  0.21852904709E+00  0.29752505616E+01  0.51100000000E-03 0.  1.
         12    1    3    3    0    0 -0.10401514259E+02 -0.10553636941E+02 -0.37865020268E+02  0.40661167119E+02  0.00000000000E+00 0. -1.
</event>
<event>
 7    1  0.4592673E-010  0.4778727E+02  0.7816164E-02  0.1312668E+00
        -11   -1    0    0    0    0  0.00000000000E+00  0.00000000000E+00  0.45593999997E+02  0.45594000000E+02  0.51100000000E-03 0.  1.
         11   -1    0    0    0    0 -0.00000000000E+00 -0.00000000000E+00 -0.45593999997E+02  0.45594000000E+02  0.51100000000E-03 0. -1.
    9900012    2    1    2    0    0  0.34314967875E+02 -0.67966749606E+01 -0.25688743470E+02  0.47787270146E+02  0.19999995905E+02 0.  0.
        -12    1    1    2    0    0 -0.34314967875E+02  0.67966749606E+01  0.25688743470E+02  0.43400729854E+02  0.00000000000E+00 0.  1.
         11    1    3    3    0    0  0.10170060357E+02 -0.77991658181E+01 -0.40892428143E+01  0.13452844390E+02  0.51100000000E-03 0. -1.
        -11    1    3    3    0    0 -0.42702402139E+00  0.35349899939E+00  0.86998340199E+00  0.10315921860E+01  0.51100000000E-03 0.  1.
         12    1    3    3    0    0  0.24571931539E+02  0.64899185808E+00 -0.22469484057E+02  0.33302833570E+02  0.00000000000E+00 0. -1.
</event>
<event>
 7    1  0.4592673E-010  0.4778727E+02  0.7816164E-02  0.1312668E+00
        -11   -1    0    0    0    0  0.00000000000E+00  0.00000000000E+00  0.45593999997E+02  0.45594000000E+02  0.51100000000E-03 0. -1.
         11   -1    0    0    0    0 -0.00000000000E+00 -0.00000000000E+00 -0.45593999997E+02  0.45594000000E+02  0.51100000000E-03 0.  1.
    9900012    2    1    2    0    0  0.66997121938E+01 -0.38682396744E+02  0.18504313222E+02  0.47787267642E+02  0.19999984489E+02 0.  0.
        -12    1    1    2    0    0 -0.66997121938E+01  0.38682396744E+02 -0.18504313222E+02  0.43400732358E+02  0.00000000000E+00 0.  1.
         11    1    3    3    0    0 -0.30846028860E+01 -0.19093592688E+01  0.11556785170E+01  0.38073640327E+01  0.51100000000E-03 0. -1.
        -11    1    3    3    0    0 -0.59898587767E+00 -0.21774839288E+02  0.63958412472E+01  0.22702625302E+02  0.51100000000E-03 0.  1.
         12    1    3    3    0    0  0.10383300957E+02 -0.14998198188E+02  0.10952793458E+02  0.21277278307E+02  0.00000000000E+00 0. -1.
</event>
<event>
 7    1  0.4592673E-010  0.4778728E+02  0.7816164E-02  0.1312668E+00
        -11   -1    0    0    0    0  0.00000000000E+00  0.00000000000E+00  0.45593999997E+02  0.45594000000E+02  0.51100000000E-03 0. -1.
         11   -1    0    0    0    0 -0.00000000000E+00 -0.00000000000E+00 -0.45593999997E+02  0.45594000000E+02  0.51100000000E-03 0.  1.
    9900012    2    1    2    0    0  0.36963229920E+01  0.27828616152E+02  0.33098762303E+02  0.47787277119E+02  0.20000027698E+02 0.  0.
        -12    1    1    2    0    0 -0.36963229920E+01 -0.27828616152E+02 -0.33098762303E+02  0.43400722881E+02  0.00000000000E+00 0.  1.
         11    1    3    3    0    0  0.31080838421E+01  0.51588388128E+00  0.37042697716E+01  0.48629143680E+01  0.51100000000E-03 0.  1.
        -11    1    3    3    0    0 -0.31883015881E+01  0.27240528829E+02  0.26764907863E+02  0.38321951556E+02  0.51100000000E-03 0. -1.
         12    1    3    3    0    0  0.37765407380E+01  0.72203441672E-01  0.26295846677E+01  0.46024111949E+01  0.00000000000E+00 0. -1.
</event>
<event>
 7    1  0.4592673E-010  0.4778727E+02  0.7816164E-02  0.1312668E+00
        -11   -1    0    0    0    0  0.00000000000E+00  0.00000000000E+00  0.45593999997E+02  0.45594000000E+02  0.51100000000E-03 0.  1.
         11   -1    0    0    0    0 -0.00000000000E+00 -0.00000000000E+00 -0.45593999997E+02  0.45594000000E+02  0.51100000000E-03 0. -1.
    9900012    2    1    2    0    0  0.17354270225E+02  0.33392777754E+02 -0.21618865751E+02  0.47787266624E+02  0.19999979846E+02 0.  0.
        -12    1    1    2    0    0 -0.17354270225E+02 -0.33392777754E+02  0.21618865751E+02  0.43400733376E+02  0.00000000000E+00 0.  1.
         11    1    3    3    0    0  0.96875121588E+01  0.79651385729E+01 -0.21730215883E+01  0.12728446386E+02  0.51100000000E-03 0. -1.
        -11    1    3    3    0    0  0.90241380546E+01  0.11246818581E+02 -0.65282874361E+01  0.15828598578E+02  0.51100000000E-03 0.  1.
         12    1    3    3    0    0 -0.13573799879E+01  0.14180820601E+02 -0.12917556727E+02  0.19230221661E+02  0.00000000000E+00 0. -1.
</event>
<event>
 7    1  0.4592673E-010  0.4778724E+02  0.7816164E-02  0.1312668E+00
        -11   -1    0    0    0    0  0.00000000000E+00  0.00000000000E+00  0.45593999997E+02  0.45594000000E+02  0.51100000000E-03 0.  1.
         11   -1    0    0    0    0 -0.00000000000E+00 -0.00000000000E+00 -0.45593999997E+02  0.45594000000E+02  0.51100000000E-03 0. -1.
    9900012    2    1    2    0    0  0.29703820017E+02  0.10967180970E+02 -0.29682145897E+02  0.47787242322E+02  0.19999869041E+02 0.  0.
        -12    1    1    2    0    0 -0.29703820017E+02 -0.10967180970E+02  0.29682145897E+02  0.43400757678E+02  0.00000000000E+00 0.  1.
         11    1    3    3    0    0  0.11224247253E+02  0.20113327612E+01 -0.77340358034E+01  0.13778406873E+02  0.51100000000E-03 0. -1.
        -11    1    3    3    0    0  0.10263696314E+02  0.37411179967E+01 -0.10727555831E+01  0.10976804211E+02  0.51100000000E-03 0.  1.
         12    1    3    3    0    0  0.82158764496E+01  0.52147302116E+01 -0.20875354510E+02  0.23032031238E+02  0.00000000000E+00 0. -1.
</event>
<event>
 7    1  0.4592673E-010  0.4778727E+02  0.7816164E-02  0.1312668E+00
        -11   -1    0    0    0    0  0.00000000000E+00  0.00000000000E+00  0.45593999997E+02  0.45594000000E+02  0.51100000000E-03 0.  1.
         11   -1    0    0    0    0 -0.00000000000E+00 -0.00000000000E+00 -0.45593999997E+02  0.45594000000E+02  0.51100000000E-03 0. -1.
    9900012    2    1    2    0    0 -0.23250469535E+02  0.19958703310E+02 -0.30735795700E+02  0.47787270643E+02  0.19999998170E+02 0.  0.
        -12    1    1    2    0    0  0.23250469535E+02 -0.19958703310E+02  0.30735795700E+02  0.43400729357E+02  0.00000000000E+00 0.  1.
         11    1    3    3    0    0 -0.63492260459E+01  0.62781662361E+01 -0.11582973569E+02  0.14625092124E+02  0.51100000000E-03 0. -1.
        -11    1    3    3    0    0 -0.13058427181E+02  0.16714306306E+02 -0.18643889921E+02  0.28239780229E+02  0.51100000000E-03 0.  1.
        -12    1    3    3    0    0 -0.38428163087E+01 -0.30337692324E+01 -0.50893221022E+00  0.49223982907E+01  0.00000000000E+00 0.  1.
</event>
<event>
 7    1  0.4592673E-010  0.4778727E+02  0.7816164E-02  0.1312668E+00
        -11   -1    0    0    0    0  0.00000000000E+00  0.00000000000E+00  0.45593999997E+02  0.45594000000E+02  0.51100000000E-03 0.  1.
         11   -1    0    0    0    0 -0.00000000000E+00 -0.00000000000E+00 -0.45593999997E+02  0.45594000000E+02  0.51100000000E-03 0. -1.
    9900012    2    1    2    0    0 -0.25885064808E+02 -0.78922576992E+00 -0.34827630791E+02  0.47787270467E+02  0.19999997367E+02 0.  0.
        -12    1    1    2    0    0  0.25885064808E+02  0.78922576992E+00  0.34827630791E+02  0.43400729533E+02  0.00000000000E+00 0.  1.
         11    1    3    3    0    0 -0.59045229993E+01 -0.40008253252E+01 -0.35253350553E+01  0.79560029315E+01  0.51100000000E-03 0. -1.
        -11    1    3    3    0    0 -0.48758876353E+01  0.70318635127E+01 -0.15081686122E+02  0.17340087694E+02  0.51100000000E-03 0.  1.
         12    1    3    3    0    0 -0.15104654174E+02 -0.38202639575E+01 -0.16220609614E+02  0.22491179842E+02  0.00000000000E+00 0. -1.
</event>
<event>
 7    1  0.4592673E-010  0.4778727E+02  0.7816164E-02  0.1312668E+00
        -11   -1    0    0    0    0  0.00000000000E+00  0.00000000000E+00  0.45593999997E+02  0.45594000000E+02  0.51100000000E-03 0.  1.
         11   -1    0    0    0    0 -0.00000000000E+00 -0.00000000000E+00 -0.45593999997E+02  0.45594000000E+02  0.51100000000E-03 0. -1.
    9900012    2    1    2    0    0 -0.14747503514E+02  0.12794779395E+02 -0.38761163582E+02  0.47787273717E+02  0.20000012187E+02 0.  0.
        -12    1    1    2    0    0  0.14747503514E+02 -0.12794779395E+02  0.38761163582E+02  0.43400726283E+02  0.00000000000E+00 0.  1.
         11    1    3    3    0    0 -0.58759736714E+01  0.10374781075E+01 -0.26657378645E+02  0.27317014183E+02  0.51100000000E-03 0. -1.
        -11    1    3    3    0    0 -0.19098192441E-01  0.25092722069E+00  0.92802285199E+00  0.96153829148E+00  0.51100000000E-03 0.  1.
         12    1    3    3    0    0 -0.88524316497E+01  0.11506374067E+02 -0.13031807789E+02  0.19508721243E+02  0.00000000000E+00 0. -1.
</event>
<event>
 7    1  0.4592673E-010  0.4778727E+02  0.7816164E-02  0.1312668E+00
        -11   -1    0    0    0    0  0.00000000000E+00  0.00000000000E+00  0.45593999997E+02  0.45594000000E+02  0.51100000000E-03 0.  1.
         11   -1    0    0    0    0 -0.00000000000E+00 -0.00000000000E+00 -0.45593999997E+02  0.45594000000E+02  0.51100000000E-03 0. -1.
    9900012    2    1    2    0    0 -0.20948341835E+02  0.11516013434E+02 -0.36223909718E+02  0.47787271593E+02  0.20000002501E+02 0.  0.
        -12    1    1    2    0    0  0.20948341835E+02 -0.11516013434E+02  0.36223909718E+02  0.43400728407E+02  0.00000000000E+00 0.  1.
         11    1    3    3    0    0 -0.66285622455E+01  0.16564019873E+00 -0.15675146193E+01  0.68133968372E+01  0.51100000000E-03 0. -1.
        -11    1    3    3    0    0  0.12254629445E+01 -0.65897897570E-02 -0.79942178799E+01  0.80876030211E+01  0.51100000000E-03 0.  1.
        -12    1    3    3    0    0 -0.15545242534E+02  0.11356963025E+02 -0.26662177218E+02  0.32886271735E+02  0.00000000000E+00 0.  1.
</event>
<event>
 7    1  0.4592673E-010  0.4778727E+02  0.7816164E-02  0.1312668E+00
        -11   -1    0    0    0    0  0.00000000000E+00  0.00000000000E+00  0.45593999997E+02  0.45594000000E+02  0.51100000000E-03 0.  1.
         11   -1    0    0    0    0 -0.00000000000E+00 -0.00000000000E+00 -0.45593999997E+02  0.45594000000E+02  0.51100000000E-03 0. -1.
    9900012    2    1    2    0    0 -0.18113752161E+02  0.95798527634E+01 -0.38258879960E+02  0.47787268530E+02  0.19999988537E+02 0.  0.
        -12    1    1    2    0    0  0.18113752161E+02 -0.95798527634E+01  0.38258879960E+02  0.43400731470E+02  0.00000000000E+00 0.  1.
         11    1    3    3    0    0  0.13945676631E+00 -0.68602940660E+00 -0.83721522204E+01  0.84013699835E+01  0.51100000000E-03 0. -1.
        -11    1    3    3    0    0 -0.76080044798E+01 -0.28894414899E+01 -0.59949412514E+01  0.10107913986E+02  0.51100000000E-03 0.  1.
         12    1    3    3    0    0 -0.10645204448E+02  0.13155323660E+02 -0.23891786488E+02  0.29277984560E+02  0.00000000000E+00 0. -1.
</event>
<event>
 7    1  0.4592673E-010  0.4778727E+02  0.7816164E-02  0.1312668E+00
        -11   -1    0    0    0    0  0.00000000000E+00  0.00000000000E+00  0.45593999997E+02  0.45594000000E+02  0.51100000000E-03 0. -1.
         11   -1    0    0    0    0 -0.00000000000E+00 -0.00000000000E+00 -0.45593999997E+02  0.45594000000E+02  0.51100000000E-03 0.  1.
    9900012    2    1    2    0    0  0.73313417605E+01 -0.24344373256E+02  0.35174226255E+02  0.47787271044E+02  0.19999999999E+02 0.  0.
        -12    1    1    2    0    0 -0.73313417605E+01  0.24344373256E+02 -0.35174226255E+02  0.43400728956E+02  0.00000000000E+00 0.  1.
         11    1    3    3    0    0 -0.18175671287E+01 -0.19751946138E+01  0.54401885481E+01  0.60663494566E+01  0.51100000000E-03 0. -1.
        -11    1    3    3    0    0  0.36824342895E+01 -0.13547080445E+01 -0.10384297748E+01  0.40588043610E+01  0.51100000000E-03 0.  1.
         12    1    3    3    0    0  0.54664745997E+01 -0.21014470598E+02  0.30772467482E+02  0.37662117226E+02  0.00000000000E+00 0. -1.
</event>
<event>
 7    1  0.4592673E-010  0.4778727E+02  0.7816164E-02  0.1312668E+00
        -11   -1    0    0    0    0  0.00000000000E+00  0.00000000000E+00  0.45593999997E+02  0.45594000000E+02  0.51100000000E-03 0.  1.
         11   -1    0    0    0    0 -0.00000000000E+00 -0.00000000000E+00 -0.45593999997E+02  0.45594000000E+02  0.51100000000E-03 0. -1.
    9900012    2    1    2    0    0 -0.14066289046E+02  0.15913875069E+02 -0.37848532703E+02  0.47787270340E+02  0.19999996790E+02 0.  0.
        -12    1    1    2    0    0  0.14066289046E+02 -0.15913875069E+02  0.37848532703E+02  0.43400729660E+02  0.00000000000E+00 0.  1.
         11    1    3    3    0    0 -0.14281110892E+02  0.19900139274E+02 -0.35036972244E+02  0.42749913400E+02  0.51100000000E-03 0. -1.
        -11    1    3    3    0    0 -0.20453696410E-01 -0.40722089464E+00 -0.86533847514E+00  0.95658671766E+00  0.51100000000E-03 0.  1.
         12    1    3    3    0    0  0.23527554257E+00 -0.35790433105E+01 -0.19462219837E+01  0.40807702225E+01  0.00000000000E+00 0. -1.
</event>
<event>
 7    1  0.4912874E-010  0.4778727E+02  0.7816164E-02  0.1312668E+00
        -11   -1    0    0    0    0  0.00000000000E+00  0.00000000000E+00  0.45593999997E+02  0.45594000000E+02  0.51100000000E-03 0.  1.
         11   -1    0    0    0    0 -0.00000000000E+00 -0.00000000000E+00 -0.45593999997E+02  0.45594000000E+02  0.51100000000E-03 0. -1.
    9900012    2    1    2    0    0 -0.16397766501E+01 -0.42433873495E+02 -0.89610800832E+01  0.47787269090E+02  0.19999991088E+02 0.  0.
        -12    1    1    2    0    0  0.16397766501E+01  0.42433873495E+02  0.89610800832E+01  0.43400730910E+02  0.00000000000E+00 0.  1.
         11    1    3    3    0    0 -0.19170461138E+00 -0.85594655856E+01 -0.80045049130E+01  0.11720635688E+02  0.51100000000E-03 0. -1.
        -11    1    3    3    0    0  0.41649593139E+01 -0.60503606756E+01  0.17573496229E+01  0.75526173179E+01  0.51100000000E-03 0.  1.
         12    1    3    3    0    0 -0.56130313526E+01 -0.27824047234E+02 -0.27139247931E+01  0.28514016084E+02  0.00000000000E+00 0. -1.
</event>
<event>
 7    1  0.4592673E-010  0.4778727E+02  0.7816164E-02  0.1312668E+00
        -11   -1    0    0    0    0  0.00000000000E+00  0.00000000000E+00  0.45593999997E+02  0.45594000000E+02  0.51100000000E-03 0.  1.
         11   -1    0    0    0    0 -0.00000000000E+00 -0.00000000000E+00 -0.45593999997E+02  0.45594000000E+02  0.51100000000E-03 0. -1.
    9900012    2    1    2    0    0 -0.33176732250E+02  0.23928109922E+02 -0.14504250555E+02  0.47787270842E+02  0.19999999079E+02 0.  0.
        -12    1    1    2    0    0  0.33176732250E+02 -0.23928109922E+02  0.14504250555E+02  0.43400729158E+02  0.00000000000E+00 0.  1.
         11    1    3    3    0    0 -0.33487243114E+02  0.23186622123E+02 -0.14455014994E+02  0.43219930074E+02  0.51100000000E-03 0.  1.
        -11    1    3    3    0    0 -0.86261257152E+00  0.77896986829E+00 -0.19869168125E+01  0.23018977356E+01  0.51100000000E-03 0. -1.
        -12    1    3    3    0    0  0.11731234356E+01 -0.37482069159E-01  0.19376812519E+01  0.22654430328E+01  0.00000000000E+00 0.  1.
</event>
<event>
 7    1  0.4592673E-010  0.4778725E+02  0.7816164E-02  0.1312668E+00
        -11   -1    0    0    0    0  0.00000000000E+00  0.00000000000E+00  0.45593999997E+02  0.45594000000E+02  0.51100000000E-03 0. -1.
         11   -1    0    0    0    0 -0.00000000000E+00 -0.00000000000E+00 -0.45593999997E+02  0.45594000000E+02  0.51100000000E-03 0.  1.
    9900012    2    1    2    0    0 -0.11846443584E+02  0.41730204134E+02  0.13701075210E+01  0.47787247042E+02  0.19999890564E+02 0.  0.
        -12    1    1    2    0    0  0.11846443584E+02 -0.41730204134E+02 -0.13701075210E+01  0.43400752958E+02  0.00000000000E+00 0.  1.
         11    1    3    3    0    0 -0.76140567383E+01  0.92183624853E+01  0.44814993001E+01  0.12768551334E+02  0.51100000000E-03 0. -1.
        -11    1    3    3    0    0  0.15357442454E+01  0.14032740026E+02  0.35326731852E+01  0.14551841228E+02  0.51100000000E-03 0.  1.
        -12    1    3    3    0    0 -0.57681310913E+01  0.18479101623E+02 -0.66440649642E+01  0.20466854480E+02  0.00000000000E+00 0.  1.
</event>
<event>
 7    1  0.4592673E-010  0.4778727E+02  0.7816164E-02  0.1312668E+00
        -11   -1    0    0    0    0  0.00000000000E+00  0.00000000000E+00  0.45593999997E+02  0.45594000000E+02  0.51100000000E-03 0.  1.
         11   -1    0    0    0    0 -0.00000000000E+00 -0.00000000000E+00 -0.45593999997E+02  0.45594000000E+02  0.51100000000E-03 0. -1.
    9900012    2    1    2    0    0  0.34775620258E+02  0.25765442894E+02 -0.32281938350E+01  0.47787273655E+02  0.20000011902E+02 0.  0.
        -12    1    1    2    0    0 -0.34775620258E+02 -0.25765442894E+02  0.32281938350E+01  0.43400726345E+02  0.00000000000E+00 0.  1.
         11    1    3    3    0    0  0.15268679727E+01  0.33551100138E+01  0.18395688192E+01  0.41197211936E+01  0.51100000000E-03 0. -1.
        -11    1    3    3    0    0  0.35346366166E+01  0.73585594376E+00  0.43976466710E+01  0.56898538193E+01  0.51100000000E-03 0.  1.
         12    1    3    3    0    0  0.29714115669E+02  0.21674476937E+02 -0.94654093252E+01  0.37977698642E+02  0.00000000000E+00 0. -1.
</event>
<event>
 7    1  0.4592673E-010  0.4778727E+02  0.7816164E-02  0.1312668E+00
        -11   -1    0    0    0    0  0.00000000000E+00  0.00000000000E+00  0.45593999997E+02  0.45594000000E+02  0.51100000000E-03 0.  1.
         11   -1    0    0    0    0 -0.00000000000E+00 -0.00000000000E+00 -0.45593999997E+02  0.45594000000E+02  0.51100000000E-03 0. -1.
    9900012    2    1    2    0    0  0.33044157810E+02  0.14577567865E+02 -0.24066610695E+02  0.47787267281E+02  0.19999982840E+02 0.  0.
        -12    1    1    2    0    0 -0.33044157810E+02 -0.14577567865E+02  0.24066610695E+02  0.43400732719E+02  0.00000000000E+00 0.  1.
         11    1    3    3    0    0  0.23404623850E+02  0.75145621153E+01 -0.89432140542E+01  0.26157716629E+02  0.51100000000E-03 0. -1.
        -11    1    3    3    0    0  0.75668565785E+01  0.21236504623E+01 -0.30664514087E+01  0.84362511976E+01  0.51100000000E-03 0.  1.
        -12    1    3    3    0    0  0.20726773817E+01  0.49393552870E+01 -0.12056945232E+02  0.13193299455E+02  0.00000000000E+00 0.  1.
</event>
<event>
 7    1  0.4592673E-010  0.4778728E+02  0.7816164E-02  0.1312668E+00
        -11   -1    0    0    0    0  0.00000000000E+00  0.00000000000E+00  0.45593999997E+02  0.45594000000E+02  0.51100000000E-03 0.  1.
         11   -1    0    0    0    0 -0.00000000000E+00 -0.00000000000E+00 -0.45593999997E+02  0.45594000000E+02  0.51100000000E-03 0. -1.
    9900012    2    1    2    0    0  0.18981667920E+02  0.36510520158E+02 -0.13794965688E+02  0.47787275610E+02  0.20000020817E+02 0.  0.
        -12    1    1    2    0    0 -0.18981667920E+02 -0.36510520158E+02  0.13794965688E+02  0.43400724390E+02  0.00000000000E+00 0.  1.
         11    1    3    3    0    0  0.48839888886E+01  0.16447114022E+02 -0.33873389795E+01  0.17488138058E+02  0.51100000000E-03 0. -1.
        -11    1    3    3    0    0 -0.26292460541E+01  0.32276912700E+01 -0.38667332211E+01  0.56817736502E+01  0.51100000000E-03 0.  1.
         12    1    3    3    0    0  0.16726925086E+02  0.16835714866E+02 -0.65408934871E+01  0.24617363902E+02  0.00000000000E+00 0. -1.
</event>
<event>
 7    1  0.4592673E-010  0.4778726E+02  0.7816164E-02  0.1312668E+00
        -11   -1    0    0    0    0  0.00000000000E+00  0.00000000000E+00  0.45593999997E+02  0.45594000000E+02  0.51100000000E-03 0.  1.
         11   -1    0    0    0    0 -0.00000000000E+00 -0.00000000000E+00 -0.45593999997E+02  0.45594000000E+02  0.51100000000E-03 0. -1.
    9900012    2    1    2    0    0 -0.25325414371E+02  0.10324600248E+02 -0.33699412403E+02  0.47787258305E+02  0.19999941916E+02 0.  0.
        -12    1    1    2    0    0  0.25325414371E+02 -0.10324600248E+02  0.33699412403E+02  0.43400741695E+02  0.00000000000E+00 0.  1.
         11    1    3    3    0    0 -0.93173699810E+01  0.11722270200E+02 -0.14640580172E+02  0.20942100899E+02  0.51100000000E-03 0. -1.
        -11    1    3    3    0    0  0.87174743662E+00 -0.73801207763E+00 -0.41832222382E+01  0.43363526120E+01  0.51100000000E-03 0.  1.
         12    1    3    3    0    0 -0.16879791827E+02 -0.65965787447E+00 -0.14875609993E+02  0.22508804794E+02  0.00000000000E+00 0. -1.
</event>
<event>
 7    1  0.4592673E-010  0.4778727E+02  0.7816164E-02  0.1312668E+00
        -11   -1    0    0    0    0  0.00000000000E+00  0.00000000000E+00  0.45593999997E+02  0.45594000000E+02  0.51100000000E-03 0.  1.
         11   -1    0    0    0    0 -0.00000000000E+00 -0.00000000000E+00 -0.45593999997E+02  0.45594000000E+02  0.51100000000E-03 0. -1.
    9900012    2    1    2    0    0  0.34651179533E+02 -0.91090783626E+01 -0.24493747659E+02  0.47787271595E+02  0.20000002512E+02 0.  0.
        -12    1    1    2    0    0 -0.34651179533E+02  0.91090783626E+01  0.24493747659E+02  0.43400728405E+02  0.00000000000E+00 0.  1.
         11    1    3    3    0    0  0.55499368565E+01 -0.78847556396E+00 -0.92229644711E+01  0.10792894270E+02  0.51100000000E-03 0. -1.
        -11    1    3    3    0    0 -0.93405361486E+00 -0.30619585884E+01 -0.15722123229E+01  0.35664966567E+01  0.51100000000E-03 0.  1.
         12    1    3    3    0    0  0.30035296292E+02 -0.52586442102E+01 -0.13698570865E+02  0.33427880669E+02  0.00000000000E+00 0. -1.
</event>
<event>
 7    1  0.4592673E-010  0.4778726E+02  0.7816164E-02  0.1312668E+00
        -11   -1    0    0    0    0  0.00000000000E+00  0.00000000000E+00  0.45593999997E+02  0.45594000000E+02  0.51100000000E-03 0.  1.
         11   -1    0    0    0    0 -0.00000000000E+00 -0.00000000000E+00 -0.45593999997E+02  0.45594000000E+02  0.51100000000E-03 0. -1.
    9900012    2    1    2    0    0 -0.25289080331E+02 -0.13243611353E+02 -0.32690875188E+02  0.47787260994E+02  0.19999954178E+02 0.  0.
        -12    1    1    2    0    0  0.25289080331E+02  0.13243611353E+02  0.32690875188E+02  0.43400739006E+02  0.00000000000E+00 0.  1.
         11    1    3    3    0    0 -0.12086513443E+02 -0.16863641608E+01 -0.13838405741E+02  0.18450720989E+02  0.51100000000E-03 0. -1.
        -11    1    3    3    0    0 -0.22422114539E+00  0.17752253454E+01 -0.71170425486E+01  0.73385281255E+01  0.51100000000E-03 0.  1.
         12    1    3    3    0    0 -0.12978345742E+02 -0.13332472537E+02 -0.11735426898E+02  0.21998011880E+02  0.00000000000E+00 0. -1.
</event>
<event>
 7    1  0.4592673E-010  0.4778727E+02  0.7816164E-02  0.1312668E+00
        -11   -1    0    0    0    0  0.00000000000E+00  0.00000000000E+00  0.45593999997E+02  0.45594000000E+02  0.51100000000E-03 0. -1.
         11   -1    0    0    0    0 -0.00000000000E+00 -0.00000000000E+00 -0.45593999997E+02  0.45594000000E+02  0.51100000000E-03 0.  1.
    9900012    2    1    2    0    0  0.19787922723E+02 -0.18644062466E+02  0.33829874209E+02  0.47787270283E+02  0.19999996530E+02 0.  0.
        -12    1    1    2    0    0 -0.19787922723E+02  0.18644062466E+02 -0.33829874209E+02  0.43400729717E+02  0.00000000000E+00 0.  1.
         11    1    3    3    0    0  0.76559642205E+01 -0.34484966201E+01  0.77988965803E+01  0.11459873700E+02  0.51100000000E-03 0. -1.
        -11    1    3    3    0    0 -0.80159755475E+00  0.15785319252E+01  0.89317392821E+01  0.91055086922E+01  0.51100000000E-03 0.  1.
        -12    1    3    3    0    0  0.12933556058E+02 -0.16774097772E+02  0.17099238346E+02  0.27221887891E+02  0.00000000000E+00 0.  1.
</event>
<event>
 7    1  0.4592673E-010  0.4778727E+02  0.7816164E-02  0.1312668E+00
        -11   -1    0    0    0    0  0.00000000000E+00  0.00000000000E+00  0.45593999997E+02  0.45594000000E+02  0.51100000000E-03 0.  1.
         11   -1    0    0    0    0 -0.00000000000E+00 -0.00000000000E+00 -0.45593999997E+02  0.45594000000E+02  0.51100000000E-03 0. -1.
    9900012    2    1    2    0    0  0.15706064796E+02 -0.49453668757E+01 -0.40155771796E+02  0.47787272662E+02  0.20000007377E+02 0.  0.
        -12    1    1    2    0    0 -0.15706064796E+02  0.49453668757E+01  0.40155771796E+02  0.43400727338E+02  0.00000000000E+00 0.  1.
         11    1    3    3    0    0  0.94868996900E+01  0.10766447712E+01 -0.22572319252E+02  0.24508570467E+02  0.51100000000E-03 0. -1.
        -11    1    3    3    0    0  0.64926349771E+01  0.12055194761E+01 -0.35651577691E+01  0.75045277222E+01  0.51100000000E-03 0.  1.
         12    1    3    3    0    0 -0.27346987114E+00 -0.72275311230E+01 -0.14018294775E+02  0.15774174473E+02  0.00000000000E+00 0. -1.
</event>
<event>
 7    1  0.4592673E-010  0.4778727E+02  0.7816164E-02  0.1312668E+00
        -11   -1    0    0    0    0  0.00000000000E+00  0.00000000000E+00  0.45593999997E+02  0.45594000000E+02  0.51100000000E-03 0.  1.
         11   -1    0    0    0    0 -0.00000000000E+00 -0.00000000000E+00 -0.45593999997E+02  0.45594000000E+02  0.51100000000E-03 0. -1.
    9900012    2    1    2    0    0  0.27230396365E+02 -0.33748110700E+02 -0.17871299283E+01  0.47787270797E+02  0.19999998870E+02 0.  0.
        -12    1    1    2    0    0 -0.27230396365E+02  0.33748110700E+02  0.17871299283E+01  0.43400729203E+02  0.00000000000E+00 0.  1.
         11    1    3    3    0    0 -0.11073960493E+01  0.73430936607E+00 -0.15428749015E+00  0.13376625680E+01  0.51100000000E-03 0. -1.
        -11    1    3    3    0    0  0.23169777006E+01 -0.42846177669E+01 -0.43012772206E+01  0.64982552322E+01  0.51100000000E-03 0.  1.
         12    1    3    3    0    0  0.26020814714E+02 -0.30197802299E+02  0.26684347824E+01  0.39951352996E+02  0.00000000000E+00 0. -1.
</event>
<event>
 7    1  0.4592673E-010  0.4778727E+02  0.7816164E-02  0.1312668E+00
        -11   -1    0    0    0    0  0.00000000000E+00  0.00000000000E+00  0.45593999997E+02  0.45594000000E+02  0.51100000000E-03 0.  1.
         11   -1    0    0    0    0 -0.00000000000E+00 -0.00000000000E+00 -0.45593999997E+02  0.45594000000E+02  0.51100000000E-03 0. -1.
    9900012    2    1    2    0    0 -0.12945254332E+02  0.16315921910E+02 -0.38076689038E+02  0.47787272292E+02  0.20000005688E+02 0.  0.
        -12    1    1    2    0    0  0.12945254332E+02 -0.16315921910E+02  0.38076689038E+02  0.43400727708E+02  0.00000000000E+00 0.  1.
         11    1    3    3    0    0 -0.52599345261E+00  0.57496446512E+01 -0.64223341225E+01  0.86360557298E+01  0.51100000000E-03 0. -1.
        -11    1    3    3    0    0 -0.56902747640E+01  0.14161255118E+02 -0.18941568133E+02  0.24324953792E+02  0.51100000000E-03 0.  1.
        -12    1    3    3    0    0 -0.67289861154E+01 -0.35949778590E+01 -0.12712786782E+02  0.14826262770E+02  0.00000000000E+00 0.  1.
</event>
<event>
 7    1  0.4592673E-010  0.4778727E+02  0.7816164E-02  0.1312668E+00
        -11   -1    0    0    0    0  0.00000000000E+00  0.00000000000E+00  0.45593999997E+02  0.45594000000E+02  0.51100000000E-03 0. -1.
         11   -1    0    0    0    0 -0.00000000000E+00 -0.00000000000E+00 -0.45593999997E+02  0.45594000000E+02  0.51100000000E-03 0.  1.
    9900012    2    1    2    0    0  0.13511831511E+02  0.14385589336E+02  0.38653697564E+02  0.47787272971E+02  0.20000008782E+02 0.  0.
        -12    1    1    2    0    0 -0.13511831511E+02 -0.14385589336E+02 -0.38653697564E+02  0.43400727029E+02  0.00000000000E+00 0.  1.
         11    1    3    3    0    0  0.22862603539E+01  0.66525772247E+01  0.46691846080E+01  0.84430477496E+01  0.51100000000E-03 0. -1.
        -11    1    3    3    0    0  0.60210948286E+01  0.23992991608E+01  0.24306573336E+01  0.69223055937E+01  0.51100000000E-03 0.  1.
         12    1    3    3    0    0  0.52044763286E+01  0.53337129507E+01  0.31553855622E+02  0.32421919627E+02  0.00000000000E+00 0. -1.
</event>
<event>
 7    1  0.4592673E-010  0.4778727E+02  0.7816164E-02  0.1312668E+00
        -11   -1    0    0    0    0  0.00000000000E+00  0.00000000000E+00  0.45593999997E+02  0.45594000000E+02  0.51100000000E-03 0.  1.
         11   -1    0    0    0    0 -0.00000000000E+00 -0.00000000000E+00 -0.45593999997E+02  0.45594000000E+02  0.51100000000E-03 0. -1.
    9900012    2    1    2    0    0  0.42942226954E+02 -0.13577664684E+01 -0.61436862070E+01  0.47787271138E+02  0.20000000425E+02 0.  0.
        -12    1    1    2    0    0 -0.42942226954E+02  0.13577664684E+01  0.61436862070E+01  0.43400728862E+02  0.00000000000E+00 0.  1.
         11    1    3    3    0    0  0.43095926648E+01 -0.52584248429E+01 -0.14721736379E+01  0.69563579729E+01  0.51100000000E-03 0. -1.
        -11    1    3    3    0    0 -0.50015937827E+00  0.54171377982E+00 -0.11904328405E+01  0.14002656290E+01  0.51100000000E-03 0.  1.
         12    1    3    3    0    0  0.39132793668E+02  0.33589445947E+01 -0.34810797286E+01  0.39430647536E+02  0.00000000000E+00 0. -1.
</event>
<event>
 7    1  0.4592673E-010  0.4778727E+02  0.7816164E-02  0.1312668E+00
        -11   -1    0    0    0    0  0.00000000000E+00  0.00000000000E+00  0.45593999997E+02  0.45594000000E+02  0.51100000000E-03 0.  1.
         11   -1    0    0    0    0 -0.00000000000E+00 -0.00000000000E+00 -0.45593999997E+02  0.45594000000E+02  0.51100000000E-03 0. -1.
    9900012    2    1    2    0    0 -0.25303546744E+02 -0.21655805048E+02 -0.27827687779E+02  0.47787267550E+02  0.19999984067E+02 0.  0.
        -12    1    1    2    0    0  0.25303546744E+02  0.21655805048E+02  0.27827687779E+02  0.43400732450E+02  0.00000000000E+00 0.  1.
         11    1    3    3    0    0 -0.58564027876E+01 -0.28723574496E+01 -0.11143735315E+02  0.12912425333E+02  0.51100000000E-03 0. -1.
        -11    1    3    3    0    0 -0.28290918722E+01 -0.57770481811E+01 -0.11449246474E+02  0.13132527997E+02  0.51100000000E-03 0.  1.
        -12    1    3    3    0    0 -0.16618052084E+02 -0.13006399417E+02 -0.52347059900E+01  0.21742314221E+02  0.00000000000E+00 0.  1.
</event>
<event>
 7    1  0.4592673E-010  0.4778727E+02  0.7816164E-02  0.1312668E+00
        -11   -1    0    0    0    0  0.00000000000E+00  0.00000000000E+00  0.45593999997E+02  0.45594000000E+02  0.51100000000E-03 0.  1.
         11   -1    0    0    0    0 -0.00000000000E+00 -0.00000000000E+00 -0.45593999997E+02  0.45594000000E+02  0.51100000000E-03 0. -1.
    9900012    2    1    2    0    0  0.21633022893E+02 -0.32852625003E+02 -0.18339583428E+02  0.47787274552E+02  0.20000015993E+02 0.  0.
        -12    1    1    2    0    0 -0.21633022893E+02  0.32852625003E+02  0.18339583428E+02  0.43400725448E+02  0.00000000000E+00 0.  1.
         11    1    3    3    0    0  0.23839460505E+00 -0.35056431882E+00  0.15959967947E+01  0.16513428957E+01  0.51100000000E-03 0. -1.
        -11    1    3    3    0    0  0.79646937664E+01 -0.17855250262E+02 -0.25205602048E+01  0.19712928060E+02  0.51100000000E-03 0.  1.
         12    1    3    3    0    0  0.13429934521E+02 -0.14646810423E+02 -0.17415020018E+02  0.26423003596E+02  0.00000000000E+00 0. -1.
</event>
<event>
 7    1  0.4592673E-010  0.4778727E+02  0.7816164E-02  0.1312668E+00
        -11   -1    0    0    0    0  0.00000000000E+00  0.00000000000E+00  0.45593999997E+02  0.45594000000E+02  0.51100000000E-03 0. -1.
         11   -1    0    0    0    0 -0.00000000000E+00 -0.00000000000E+00 -0.45593999997E+02  0.45594000000E+02  0.51100000000E-03 0.  1.
    9900012    2    1    2    0    0 -0.33766460116E+02  0.26943569514E+02 -0.41825341514E+01  0.47787270065E+02  0.19999995535E+02 0.  0.
        -12    1    1    2    0    0  0.33766460116E+02 -0.26943569514E+02  0.41825341514E+01  0.43400729935E+02  0.00000000000E+00 0.  1.
         11    1    3    3    0    0 -0.28193206944E+01  0.11699054120E+02  0.41202548026E+00  0.12041021623E+02  0.51100000000E-03 0. -1.
        -11    1    3    3    0    0 -0.56810021124E+01  0.31025271122E+01 -0.41906848882E+01  0.77111153263E+01  0.51100000000E-03 0.  1.
         12    1    3    3    0    0 -0.25266137310E+02  0.12141988282E+02 -0.40387474344E+00  0.28035133115E+02  0.00000000000E+00 0. -1.
</event>
<event>
 7    1  0.4592673E-010  0.4778727E+02  0.7816164E-02  0.1312668E+00
        -11   -1    0    0    0    0  0.00000000000E+00  0.00000000000E+00  0.45593999997E+02  0.45594000000E+02  0.51100000000E-03 0.  1.
         11   -1    0    0    0    0 -0.00000000000E+00 -0.00000000000E+00 -0.45593999997E+02  0.45594000000E+02  0.51100000000E-03 0. -1.
    9900012    2    1    2    0    0 -0.37410906240E+02  0.66622397879E+01 -0.20968113567E+02  0.47787272688E+02  0.20000007494E+02 0.  0.
        -12    1    1    2    0    0  0.37410906240E+02 -0.66622397879E+01  0.20968113567E+02  0.43400727312E+02  0.00000000000E+00 0.  1.
         11    1    3    3    0    0 -0.12721065581E+02  0.66133005792E+01 -0.46987978400E+01  0.15087741894E+02  0.51100000000E-03 0.  1.
        -11    1    3    3    0    0 -0.15512834418E+02 -0.22075944036E+01 -0.17123451229E+02  0.23210645984E+02  0.51100000000E-03 0. -1.
         12    1    3    3    0    0 -0.91770062406E+01  0.22565336123E+01  0.85413550215E+00  0.94888848102E+01  0.00000000000E+00 0. -1.
</event>
<event>
 7    1  0.4592673E-010  0.4778727E+02  0.7816164E-02  0.1312668E+00
        -11   -1    0    0    0    0  0.00000000000E+00  0.00000000000E+00  0.45593999997E+02  0.45594000000E+02  0.51100000000E-03 0.  1.
         11   -1    0    0    0    0 -0.00000000000E+00 -0.00000000000E+00 -0.45593999997E+02  0.45594000000E+02  0.51100000000E-03 0. -1.
    9900012    2    1    2    0    0  0.30102752553E+02  0.31255004920E+00 -0.31262597240E+02  0.47787269764E+02  0.19999994164E+02 0.  0.
        -12    1    1    2    0    0 -0.30102752553E+02 -0.31255004920E+00  0.31262597240E+02  0.43400730236E+02  0.00000000000E+00 0.  1.
         11    1    3    3    0    0  0.10703748119E+02 -0.93658569301E+00 -0.73526280577E+01  0.13019545160E+02  0.51100000000E-03 0. -1.
        -11    1    3    3    0    0 -0.58748963160E+00 -0.24057409861E+01  0.95766127809E+00  0.26551552015E+01  0.51100000000E-03 0.  1.
        -12    1    3    3    0    0  0.19986494065E+02  0.36548767283E+01 -0.24867630461E+02  0.32112569403E+02  0.00000000000E+00 0.  1.
</event>
<event>
 7    1  0.4592673E-010  0.4778727E+02  0.7816164E-02  0.1312668E+00
        -11   -1    0    0    0    0  0.00000000000E+00  0.00000000000E+00  0.45593999997E+02  0.45594000000E+02  0.51100000000E-03 0.  1.
         11   -1    0    0    0    0 -0.00000000000E+00 -0.00000000000E+00 -0.45593999997E+02  0.45594000000E+02  0.51100000000E-03 0. -1.
    9900012    2    1    2    0    0 -0.26413694651E+02  0.37233613893E+01 -0.34235602026E+02  0.47787272688E+02  0.20000007492E+02 0.  0.
        -12    1    1    2    0    0  0.26413694651E+02 -0.37233613893E+01  0.34235602026E+02  0.43400727312E+02  0.00000000000E+00 0.  1.
         11    1    3    3    0    0 -0.13706333247E+02 -0.24613662207E+01 -0.24744910086E+02  0.28394233044E+02  0.51100000000E-03 0. -1.
        -11    1    3    3    0    0 -0.92533165131E+01  0.64829371498E+00 -0.88761774443E+01  0.12838640018E+02  0.51100000000E-03 0.  1.
        -12    1    3    3    0    0 -0.34540448908E+01  0.55364338950E+01 -0.61451449609E+00  0.65543996252E+01  0.00000000000E+00 0.  1.
</event>
<event>
 7    1  0.4592673E-010  0.4778727E+02  0.7816164E-02  0.1312668E+00
        -11   -1    0    0    0    0  0.00000000000E+00  0.00000000000E+00  0.45593999997E+02  0.45594000000E+02  0.51100000000E-03 0.  1.
         11   -1    0    0    0    0 -0.00000000000E+00 -0.00000000000E+00 -0.45593999997E+02  0.45594000000E+02  0.51100000000E-03 0. -1.
    9900012    2    1    2    0    0 -0.64249860567E+01  0.24096408739E+02 -0.35520495933E+02  0.47787274300E+02  0.20000014845E+02 0.  0.
        -12    1    1    2    0    0  0.64249860567E+01 -0.24096408739E+02  0.35520495933E+02  0.43400725700E+02  0.00000000000E+00 0.  1.
         11    1    3    3    0    0 -0.27054350971E+01  0.11990204353E+02 -0.12746799241E+02  0.17707774299E+02  0.51100000000E-03 0. -1.
        -11    1    3    3    0    0 -0.43182296230E+01  0.14374433324E+02 -0.12473766114E+02  0.19515795700E+02  0.51100000000E-03 0.  1.
        -12    1    3    3    0    0  0.59867866344E+00 -0.22682289378E+01 -0.10299930578E+02  0.10563704301E+02  0.00000000000E+00 0.  1.
</event>
<event>
 7    1  0.4592673E-010  0.4778727E+02  0.7816164E-02  0.1312668E+00
        -11   -1    0    0    0    0  0.00000000000E+00  0.00000000000E+00  0.45593999997E+02  0.45594000000E+02  0.51100000000E-03 0.  1.
         11   -1    0    0    0    0 -0.00000000000E+00 -0.00000000000E+00 -0.45593999997E+02  0.45594000000E+02  0.51100000000E-03 0. -1.
    9900012    2    1    2    0    0 -0.31862779124E+01 -0.14968512732E+02 -0.40612982678E+02  0.47787273020E+02  0.20000009009E+02 0.  0.
        -12    1    1    2    0    0  0.31862779124E+01  0.14968512732E+02  0.40612982678E+02  0.43400726980E+02  0.00000000000E+00 0.  1.
         11    1    3    3    0    0 -0.22493842128E+01 -0.23345676132E+01 -0.14688685833E+02  0.15042188240E+02  0.51100000000E-03 0. -1.
        -11    1    3    3    0    0 -0.14432904467E+01  0.35243152943E+01 -0.42653221368E+01  0.57181167178E+01  0.51100000000E-03 0.  1.
         12    1    3    3    0    0  0.50639674708E+00 -0.16158260413E+02 -0.21658974708E+02  0.27026968062E+02  0.00000000000E+00 0. -1.
</event>
<event>
 7    1  0.4815266E-010  0.4778727E+02  0.7816164E-02  0.1312668E+00
        -11   -1    0    0    0    0  0.00000000000E+00  0.00000000000E+00  0.45593999997E+02  0.45594000000E+02  0.51100000000E-03 0. -1.
         11   -1    0    0    0    0 -0.00000000000E+00 -0.00000000000E+00 -0.45593999997E+02  0.45594000000E+02  0.51100000000E-03 0.  1.
    9900012    2    1    2    0    0 -0.23267466546E+02 -0.39865478671E+01  0.36419169726E+02  0.47787268590E+02  0.19999988811E+02 0.  0.
        -12    1    1    2    0    0  0.23267466546E+02  0.39865478671E+01 -0.36419169726E+02  0.43400731410E+02  0.00000000000E+00 0.  1.
         11    1    3    3    0    0 -0.11157253099E+02 -0.68109323615E+01  0.22743585554E+02  0.26232494744E+02  0.51100000000E-03 0. -1.
        -11    1    3    3    0    0  0.16974777976E+00 -0.29776995935E+01  0.34078199592E+01  0.45286583348E+01  0.51100000000E-03 0.  1.
        -12    1    3    3    0    0 -0.12279961227E+02  0.58020840880E+01  0.10267764212E+02  0.17026115512E+02  0.00000000000E+00 0.  1.
</event>
<event>
 7    1  0.4592673E-010  0.4778727E+02  0.7816164E-02  0.1312668E+00
        -11   -1    0    0    0    0  0.00000000000E+00  0.00000000000E+00  0.45593999997E+02  0.45594000000E+02  0.51100000000E-03 0.  1.
         11   -1    0    0    0    0 -0.00000000000E+00 -0.00000000000E+00 -0.45593999997E+02  0.45594000000E+02  0.51100000000E-03 0. -1.
    9900012    2    1    2    0    0 -0.11284207825E+02 -0.28268777465E+02 -0.30938103413E+02  0.47787269955E+02  0.19999995034E+02 0.  0.
        -12    1    1    2    0    0  0.11284207825E+02  0.28268777465E+02  0.30938103413E+02  0.43400730045E+02  0.00000000000E+00 0.  1.
         11    1    3    3    0    0  0.61980198220E+00 -0.31383407259E+01 -0.15006695792E+01  0.35334609742E+01  0.51100000000E-03 0. -1.
        -11    1    3    3    0    0  0.22331680610E+01 -0.15000100830E+02 -0.99710030451E+01  0.18149682270E+02  0.51100000000E-03 0.  1.
         12    1    3    3    0    0 -0.14137177868E+02 -0.10130335909E+02 -0.19466430789E+02  0.26104126711E+02  0.00000000000E+00 0. -1.
</event>
<event>
 7    1  0.4592673E-010  0.4778728E+02  0.7816164E-02  0.1312668E+00
        -11   -1    0    0    0    0  0.00000000000E+00  0.00000000000E+00  0.45593999997E+02  0.45594000000E+02  0.51100000000E-03 0.  1.
         11   -1    0    0    0    0 -0.00000000000E+00 -0.00000000000E+00 -0.45593999997E+02  0.45594000000E+02  0.51100000000E-03 0. -1.
    9900012    2    1    2    0    0  0.22082418699E+02 -0.93720120327E+01 -0.36168424428E+02  0.47787277071E+02  0.20000027478E+02 0.  0.
        -12    1    1    2    0    0 -0.22082418699E+02  0.93720120327E+01  0.36168424428E+02  0.43400722929E+02  0.00000000000E+00 0.  1.
         11    1    3    3    0    0  0.16409934406E+02 -0.65680907251E+01 -0.33254314525E+02  0.37659994659E+02  0.51100000000E-03 0. -1.
        -11    1    3    3    0    0 -0.17002419595E+01  0.20954094185E+00 -0.26497199070E+00  0.17334764331E+01  0.51100000000E-03 0.  1.
        -12    1    3    3    0    0  0.73727262528E+01 -0.30134622494E+01 -0.26491379129E+01  0.83938059787E+01  0.00000000000E+00 0.  1.
</event>
<event>
 7    1  0.4592673E-010  0.4778727E+02  0.7816164E-02  0.1312668E+00
        -11   -1    0    0    0    0  0.00000000000E+00  0.00000000000E+00  0.45593999997E+02  0.45594000000E+02  0.51100000000E-03 0. -1.
         11   -1    0    0    0    0 -0.00000000000E+00 -0.00000000000E+00 -0.45593999997E+02  0.45594000000E+02  0.51100000000E-03 0.  1.
    9900012    2    1    2    0    0 -0.19935642889E+02  0.24013286565E+02 -0.30158839860E+02  0.47787269468E+02  0.19999992811E+02 0.  0.
        -12    1    1    2    0    0  0.19935642889E+02 -0.24013286565E+02  0.30158839860E+02  0.43400730532E+02  0.00000000000E+00 0.  1.
         11    1    3    3    0    0 -0.60948749775E+01  0.43035915721E+01 -0.15976942250E+01  0.76302705397E+01  0.51100000000E-03 0. -1.
        -11    1    3    3    0    0 -0.11407502695E+02  0.57521388715E+01 -0.19589259440E+02  0.23387118356E+02  0.51100000000E-03 0.  1.
        -12    1    3    3    0    0 -0.24332652159E+01  0.13957556121E+02 -0.89718861949E+01  0.16769880572E+02  0.00000000000E+00 0.  1.
</event>
<event>
 7    1  0.4592673E-010  0.4778728E+02  0.7816164E-02  0.1312668E+00
        -11   -1    0    0    0    0  0.00000000000E+00  0.00000000000E+00  0.45593999997E+02  0.45594000000E+02  0.51100000000E-03 0. -1.
         11   -1    0    0    0    0 -0.00000000000E+00 -0.00000000000E+00 -0.45593999997E+02  0.45594000000E+02  0.51100000000E-03 0.  1.
    9900012    2    1    2    0    0 -0.39267488873E+02 -0.18378597204E+02 -0.19782873062E+01  0.47787284127E+02  0.20000059651E+02 0.  0.
        -12    1    1    2    0    0  0.39267488873E+02  0.18378597204E+02  0.19782873062E+01  0.43400715873E+02  0.00000000000E+00 0.  1.
         11    1    3    3    0    0 -0.45786841331E+01  0.75275445906E-01  0.10563477397E+01  0.46995622766E+01  0.51100000000E-03 0. -1.
        -11    1    3    3    0    0 -0.26928817846E+02 -0.20984556768E+02  0.61867770862E+00  0.34145213657E+02  0.51100000000E-03 0.  1.
        -12    1    3    3    0    0 -0.77599868942E+01  0.25306841188E+01 -0.36533127546E+01  0.89425081935E+01  0.00000000000E+00 0.  1.
</event>
<event>
 7    1  0.4592673E-010  0.4778727E+02  0.7816164E-02  0.1312668E+00
        -11   -1    0    0    0    0  0.00000000000E+00  0.00000000000E+00  0.45593999997E+02  0.45594000000E+02  0.51100000000E-03 0.  1.
         11   -1    0    0    0    0 -0.00000000000E+00 -0.00000000000E+00 -0.45593999997E+02  0.45594000000E+02  0.51100000000E-03 0. -1.
    9900012    2    1    2    0    0 -0.40962964586E+02  0.45695966582E+00 -0.14333523072E+02  0.47787272317E+02  0.20000005801E+02 0.  0.
        -12    1    1    2    0    0  0.40962964586E+02 -0.45695966582E+00  0.14333523072E+02  0.43400727683E+02  0.00000000000E+00 0.  1.
         11    1    3    3    0    0 -0.21783455067E+02 -0.30263719979E+01 -0.27009063414E+01  0.22157904626E+02  0.51100000000E-03 0. -1.
        -11    1    3    3    0    0 -0.48512471489E+01 -0.11987245551E+01  0.19253824607E+01  0.53552439103E+01  0.51100000000E-03 0.  1.
        -12    1    3    3    0    0 -0.14328262370E+02  0.46820562188E+01 -0.13557999191E+02  0.20274123780E+02  0.00000000000E+00 0.  1.
</event>
<event>
 7    1  0.4592673E-010  0.4778727E+02  0.7816164E-02  0.1312668E+00
        -11   -1    0    0    0    0  0.00000000000E+00  0.00000000000E+00  0.45593999997E+02  0.45594000000E+02  0.51100000000E-03 0. -1.
         11   -1    0    0    0    0 -0.00000000000E+00 -0.00000000000E+00 -0.45593999997E+02  0.45594000000E+02  0.51100000000E-03 0.  1.
    9900012    2    1    2    0    0 -0.17130338925E+01 -0.16647325700E+01  0.43334944378E+02  0.47787271620E+02  0.20000002624E+02 0.  0.
        -12    1    1    2    0    0  0.17130338925E+01  0.16647325700E+01 -0.43334944378E+02  0.43400728380E+02  0.00000000000E+00 0.  1.
         11    1    3    3    0    0  0.55379308047E+01  0.28661508892E+00  0.38289894957E+02  0.38689363938E+02  0.51100000000E-03 0. -1.
        -11    1    3    3    0    0 -0.49052088086E+00 -0.27068248707E+00  0.13824911133E+00  0.57705530174E+00  0.51100000000E-03 0.  1.
         12    1    3    3    0    0 -0.67604438164E+01 -0.16806651718E+01  0.49068003097E+01  0.85208523807E+01  0.00000000000E+00 0. -1.
</event>
<event>
 7    1  0.4592673E-010  0.4778727E+02  0.7816164E-02  0.1312668E+00
        -11   -1    0    0    0    0  0.00000000000E+00  0.00000000000E+00  0.45593999997E+02  0.45594000000E+02  0.51100000000E-03 0.  1.
         11   -1    0    0    0    0 -0.00000000000E+00 -0.00000000000E+00 -0.45593999997E+02  0.45594000000E+02  0.51100000000E-03 0. -1.
    9900012    2    1    2    0    0  0.71428970727E+01 -0.34374011962E+02 -0.25515279798E+02  0.47787272124E+02  0.20000004923E+02 0.  0.
        -12    1    1    2    0    0 -0.71428970727E+01  0.34374011962E+02  0.25515279798E+02  0.43400727876E+02  0.00000000000E+00 0.  1.
         11    1    3    3    0    0  0.14231476788E+01 -0.30813375174E+02 -0.20648219842E+02  0.37119245976E+02  0.51100000000E-03 0. -1.
        -11    1    3    3    0    0 -0.98726970130E+00 -0.13082832449E+00  0.77036651225E+00  0.12590799569E+01  0.51100000000E-03 0.  1.
         12    1    3    3    0    0  0.67070190952E+01 -0.34298084643E+01 -0.56374264684E+01  0.94089461913E+01  0.00000000000E+00 0. -1.
</event>
<event>
 7    1  0.4592673E-010  0.4778727E+02  0.7816164E-02  0.1312668E+00
        -11   -1    0    0    0    0  0.00000000000E+00  0.00000000000E+00  0.45593999997E+02  0.45594000000E+02  0.51100000000E-03 0.  1.
         11   -1    0    0    0    0 -0.00000000000E+00 -0.00000000000E+00 -0.45593999997E+02  0.45594000000E+02  0.51100000000E-03 0. -1.
    9900012    2    1    2    0    0 -0.10922587312E+02  0.29415103776E+02 -0.29984532167E+02  0.47787269442E+02  0.19999992692E+02 0.  0.
        -12    1    1    2    0    0  0.10922587312E+02 -0.29415103776E+02  0.29984532167E+02  0.43400730558E+02  0.00000000000E+00 0.  1.
         11    1    3    3    0    0 -0.61235069804E+01  0.11693186489E+02 -0.19414979669E+02  0.23476996908E+02  0.51100000000E-03 0. -1.
        -11    1    3    3    0    0 -0.25677809622E+01  0.41998542914E+01 -0.93305278755E+01  0.10549456187E+02  0.51100000000E-03 0.  1.
        -12    1    3    3    0    0 -0.22312993698E+01  0.13522062995E+02 -0.12390246228E+01  0.13760816347E+02  0.00000000000E+00 0.  1.
</event>
<event>
 7    1  0.4592673E-010  0.4778727E+02  0.7816164E-02  0.1312668E+00
        -11   -1    0    0    0    0  0.00000000000E+00  0.00000000000E+00  0.45593999997E+02  0.45594000000E+02  0.51100000000E-03 0.  1.
         11   -1    0    0    0    0 -0.00000000000E+00 -0.00000000000E+00 -0.45593999997E+02  0.45594000000E+02  0.51100000000E-03 0. -1.
    9900012    2    1    2    0    0  0.87231394945E+01  0.36968416027E+01 -0.42354023884E+02  0.47787272591E+02  0.20000007049E+02 0.  0.
        -12    1    1    2    0    0 -0.87231394945E+01 -0.36968416027E+01  0.42354023884E+02  0.43400727409E+02  0.00000000000E+00 0.  1.
         11    1    3    3    0    0 -0.18049399724E+01  0.47349715396E+01 -0.83777891166E+01  0.97910732061E+01  0.51100000000E-03 0. -1.
        -11    1    3    3    0    0  0.96106173243E+01 -0.19789873890E+01 -0.10091945089E+02  0.14075784610E+02  0.51100000000E-03 0.  1.
         12    1    3    3    0    0  0.91746214270E+00  0.94085745203E+00 -0.23884289679E+02  0.23920414775E+02  0.00000000000E+00 0. -1.
</event>
<event>
 7    1  0.4592673E-010  0.4778727E+02  0.7816164E-02  0.1312668E+00
        -11   -1    0    0    0    0  0.00000000000E+00  0.00000000000E+00  0.45593999997E+02  0.45594000000E+02  0.51100000000E-03 0.  1.
         11   -1    0    0    0    0 -0.00000000000E+00 -0.00000000000E+00 -0.45593999997E+02  0.45594000000E+02  0.51100000000E-03 0. -1.
    9900012    2    1    2    0    0  0.27949340696E+02 -0.23462429009E+02 -0.23494092664E+02  0.47787267167E+02  0.19999982321E+02 0.  0.
        -12    1    1    2    0    0 -0.27949340696E+02  0.23462429009E+02  0.23494092664E+02  0.43400732833E+02  0.00000000000E+00 0.  1.
         11    1    3    3    0    0  0.88828349362E+01 -0.56899915496E+01 -0.12318373180E+02  0.16217986263E+02  0.51100000000E-03 0. -1.
        -11    1    3    3    0    0  0.10362690021E+02 -0.52699065911E+01 -0.11471519947E+02  0.16332575734E+02  0.51100000000E-03 0.  1.
        -12    1    3    3    0    0  0.87038157386E+01 -0.12502530869E+02  0.29580046337E+00  0.15236705170E+02  0.00000000000E+00 0.  1.
</event>
<event>
 7    1  0.4592673E-010  0.4778727E+02  0.7816164E-02  0.1312668E+00
        -11   -1    0    0    0    0  0.00000000000E+00  0.00000000000E+00  0.45593999997E+02  0.45594000000E+02  0.51100000000E-03 0. -1.
         11   -1    0    0    0    0 -0.00000000000E+00 -0.00000000000E+00 -0.45593999997E+02  0.45594000000E+02  0.51100000000E-03 0.  1.
    9900012    2    1    2    0    0 -0.39187558080E+02  0.17445359251E+02  0.66043930722E+01  0.47787271025E+02  0.19999999914E+02 0.  0.
        -12    1    1    2    0    0  0.39187558080E+02 -0.17445359251E+02 -0.66043930722E+01  0.43400728975E+02  0.00000000000E+00 0.  1.
         11    1    3    3    0    0 -0.13492725035E+01  0.58616962756E+01  0.11989952339E+01  0.61333196026E+01  0.51100000000E-03 0. -1.
        -11    1    3    3    0    0 -0.10774571567E+02  0.69647164899E+01 -0.25266789261E+01  0.13076038196E+02  0.51100000000E-03 0.  1.
        -12    1    3    3    0    0 -0.27063714009E+02  0.46189464852E+01  0.79320767645E+01  0.28577913227E+02  0.00000000000E+00 0.  1.
</event>
<event>
 7    1  0.4592673E-010  0.4778727E+02  0.7816164E-02  0.1312668E+00
        -11   -1    0    0    0    0  0.00000000000E+00  0.00000000000E+00  0.45593999997E+02  0.45594000000E+02  0.51100000000E-03 0.  1.
         11   -1    0    0    0    0 -0.00000000000E+00 -0.00000000000E+00 -0.45593999997E+02  0.45594000000E+02  0.51100000000E-03 0. -1.
    9900012    2    1    2    0    0 -0.17702631160E+02 -0.19367665626E+02 -0.34570702871E+02  0.47787272831E+02  0.20000008146E+02 0.  0.
        -12    1    1    2    0    0  0.17702631160E+02  0.19367665626E+02  0.34570702871E+02  0.43400727169E+02  0.00000000000E+00 0.  1.
         11    1    3    3    0    0 -0.55633506535E+01 -0.93091790198E+01 -0.11314598115E+02  0.15672645446E+02  0.51100000000E-03 0. -1.
        -11    1    3    3    0    0 -0.13307570949E+02 -0.63942582664E+01 -0.88708140120E+01  0.17224091408E+02  0.51100000000E-03 0.  1.
         12    1    3    3    0    0  0.11682904423E+01 -0.36642283399E+01 -0.14385290745E+02  0.14890535977E+02  0.00000000000E+00 0. -1.
</event>
<event>
 7    1  0.4592673E-010  0.4778727E+02  0.7816164E-02  0.1312668E+00
        -11   -1    0    0    0    0  0.00000000000E+00  0.00000000000E+00  0.45593999997E+02  0.45594000000E+02  0.51100000000E-03 0. -1.
         11   -1    0    0    0    0 -0.00000000000E+00 -0.00000000000E+00 -0.45593999997E+02  0.45594000000E+02  0.51100000000E-03 0.  1.
    9900012    2    1    2    0    0  0.14801283728E+02 -0.17677508696E+02  0.36770241365E+02  0.47787274617E+02  0.20000016290E+02 0.  0.
        -12    1    1    2    0    0 -0.14801283728E+02  0.17677508696E+02 -0.36770241365E+02  0.43400725383E+02  0.00000000000E+00 0.  1.
         11    1    3    3    0    0  0.37842600212E+01  0.89996905948E+00  0.15654396414E+01  0.41929905495E+01  0.51100000000E-03 0. -1.
        -11    1    3    3    0    0 -0.30949372947E+01 -0.61628684871E+01  0.10219038631E+02  0.12328354945E+02  0.51100000000E-03 0.  1.
        -12    1    3    3    0    0  0.14111961002E+02 -0.12414609268E+02  0.24985763092E+02  0.31265929123E+02  0.00000000000E+00 0.  1.
</event>
<event>
 7    1  0.4592673E-010  0.4778727E+02  0.7816164E-02  0.1312668E+00
        -11   -1    0    0    0    0  0.00000000000E+00  0.00000000000E+00  0.45593999997E+02  0.45594000000E+02  0.51100000000E-03 0. -1.
         11   -1    0    0    0    0 -0.00000000000E+00 -0.00000000000E+00 -0.45593999997E+02  0.45594000000E+02  0.51100000000E-03 0.  1.
    9900012    2    1    2    0    0  0.37518247061E+02 -0.55277069461E+01  0.21105657734E+02  0.47787271953E+02  0.20000004143E+02 0.  0.
        -12    1    1    2    0    0 -0.37518247061E+02  0.55277069461E+01 -0.21105657734E+02  0.43400728047E+02  0.00000000000E+00 0.  1.
         11    1    3    3    0    0  0.64256205928E+01  0.21045882900E+01  0.80486069191E+01  0.10511801248E+02  0.51100000000E-03 0.  1.
        -11    1    3    3    0    0  0.10142832093E+02  0.35728663080E+01  0.15077952965E+01  0.10858907102E+02  0.51100000000E-03 0. -1.
         12    1    3    3    0    0  0.20949794375E+02 -0.11205161544E+02  0.11549255518E+02  0.26416563603E+02  0.00000000000E+00 0. -1.
</event>
<event>
 7    1  0.4592673E-010  0.4778727E+02  0.7816164E-02  0.1312668E+00
        -11   -1    0    0    0    0  0.00000000000E+00  0.00000000000E+00  0.45593999997E+02  0.45594000000E+02  0.51100000000E-03 0.  1.
         11   -1    0    0    0    0 -0.00000000000E+00 -0.00000000000E+00 -0.45593999997E+02  0.45594000000E+02  0.51100000000E-03 0. -1.
    9900012    2    1    2    0    0  0.11237180961E+02 -0.19338336993E+02 -0.37193788621E+02  0.47787269296E+02  0.19999992028E+02 0.  0.
        -12    1    1    2    0    0 -0.11237180961E+02  0.19338336993E+02  0.37193788621E+02  0.43400730704E+02  0.00000000000E+00 0.  1.
         11    1    3    3    0    0  0.74208284416E+01 -0.41797250631E+01 -0.15005919236E+02  0.17254460546E+02  0.51100000000E-03 0. -1.
        -11    1    3    3    0    0  0.13469225718E+01  0.61708666716E+00 -0.10846375759E+02  0.10947093849E+02  0.51100000000E-03 0.  1.
         12    1    3    3    0    0  0.24694299478E+01 -0.15775698597E+02 -0.11341493627E+02  0.19585714901E+02  0.00000000000E+00 0. -1.
</event>
<event>
 7    1  0.4592673E-010  0.4778727E+02  0.7816164E-02  0.1312668E+00
        -11   -1    0    0    0    0  0.00000000000E+00  0.00000000000E+00  0.45593999997E+02  0.45594000000E+02  0.51100000000E-03 0.  1.
         11   -1    0    0    0    0 -0.00000000000E+00 -0.00000000000E+00 -0.45593999997E+02  0.45594000000E+02  0.51100000000E-03 0. -1.
    9900012    2    1    2    0    0 -0.13184043917E+02 -0.98707180866E+01 -0.40154370828E+02  0.47787267447E+02  0.19999983597E+02 0.  0.
        -12    1    1    2    0    0  0.13184043917E+02  0.98707180866E+01  0.40154370828E+02  0.43400732553E+02  0.00000000000E+00 0.  1.
         11    1    3    3    0    0 -0.16733572894E+02 -0.65702171674E+01 -0.22473217855E+02  0.28778911315E+02  0.51100000000E-03 0. -1.
        -11    1    3    3    0    0 -0.37981381119E+00 -0.27830792448E+01 -0.96819351662E+01  0.10081153577E+02  0.51100000000E-03 0.  1.
         12    1    3    3    0    0  0.39293427887E+01 -0.51742167439E+00 -0.79992178069E+01  0.89272025553E+01  0.00000000000E+00 0. -1.
</event>
<event>
 7    1  0.4592673E-010  0.4778727E+02  0.7816164E-02  0.1312668E+00
        -11   -1    0    0    0    0  0.00000000000E+00  0.00000000000E+00  0.45593999997E+02  0.45594000000E+02  0.51100000000E-03 0. -1.
         11   -1    0    0    0    0 -0.00000000000E+00 -0.00000000000E+00 -0.45593999997E+02  0.45594000000E+02  0.51100000000E-03 0.  1.
    9900012    2    1    2    0    0 -0.29333301679E+02 -0.24344084694E+02  0.20749609416E+02  0.47787270306E+02  0.19999996635E+02 0.  0.
        -12    1    1    2    0    0  0.29333301679E+02  0.24344084694E+02 -0.20749609416E+02  0.43400729694E+02  0.00000000000E+00 0.  1.
         11    1    3    3    0    0 -0.53226852077E+01 -0.70698434730E+01 -0.16904403080E+01  0.90095090459E+01  0.51100000000E-03 0. -1.
        -11    1    3    3    0    0 -0.11420444631E+01  0.15474662405E+01  0.21023886738E+01  0.28493781283E+01  0.51100000000E-03 0.  1.
         12    1    3    3    0    0 -0.22868572008E+02 -0.18821707462E+02  0.20337661051E+02  0.35928383132E+02  0.00000000000E+00 0. -1.
</event>
<event>
 7    1  0.4592673E-010  0.4778727E+02  0.7816164E-02  0.1312668E+00
        -11   -1    0    0    0    0  0.00000000000E+00  0.00000000000E+00  0.45593999997E+02  0.45594000000E+02  0.51100000000E-03 0.  1.
         11   -1    0    0    0    0 -0.00000000000E+00 -0.00000000000E+00 -0.45593999997E+02  0.45594000000E+02  0.51100000000E-03 0. -1.
    9900012    2    1    2    0    0 -0.24442493091E+02 -0.32616576031E+02 -0.14911294721E+02  0.47787271772E+02  0.20000003316E+02 0.  0.
        -12    1    1    2    0    0  0.24442493091E+02  0.32616576031E+02  0.14911294721E+02  0.43400728228E+02  0.00000000000E+00 0.  1.
         11    1    3    3    0    0 -0.95003586231E+00 -0.94391899147E+01  0.13897198467E+01  0.95881278620E+01  0.51100000000E-03 0. -1.
        -11    1    3    3    0    0 -0.78970692378E+01 -0.84376173171E+01 -0.11304728176E+02  0.16166445742E+02  0.51100000000E-03 0.  1.
         12    1    3    3    0    0 -0.15595387991E+02 -0.14739768799E+02 -0.49962863914E+01  0.22032698168E+02  0.00000000000E+00 0. -1.
</event>
<event>
 7    1  0.4592673E-010  0.4778727E+02  0.7816164E-02  0.1312668E+00
        -11   -1    0    0    0    0  0.00000000000E+00  0.00000000000E+00  0.45593999997E+02  0.45594000000E+02  0.51100000000E-03 0.  1.
         11   -1    0    0    0    0 -0.00000000000E+00 -0.00000000000E+00 -0.45593999997E+02  0.45594000000E+02  0.51100000000E-03 0. -1.
    9900012    2    1    2    0    0 -0.63127160285E+00  0.19085560328E+02 -0.38973922459E+02  0.47787265574E+02  0.19999975058E+02 0.  0.
        -12    1    1    2    0    0  0.63127160285E+00 -0.19085560328E+02  0.38973922459E+02  0.43400734426E+02  0.00000000000E+00 0.  1.
         11    1    3    3    0    0 -0.39398840540E+01  0.46359479220E+01 -0.16575971037E+02  0.17657222759E+02  0.51100000000E-03 0. -1.
        -11    1    3    3    0    0 -0.39892204839E+01  0.29441062982E+01 -0.14945615556E+01  0.51783546102E+01  0.51100000000E-03 0.  1.
        -12    1    3    3    0    0  0.72978329350E+01  0.11505506108E+02 -0.20903389867E+02  0.24951688205E+02  0.00000000000E+00 0.  1.
</event>
<event>
 7    1  0.4592673E-010  0.4778727E+02  0.7816164E-02  0.1312668E+00
        -11   -1    0    0    0    0  0.00000000000E+00  0.00000000000E+00  0.45593999997E+02  0.45594000000E+02  0.51100000000E-03 0. -1.
         11   -1    0    0    0    0 -0.00000000000E+00 -0.00000000000E+00 -0.45593999997E+02  0.45594000000E+02  0.51100000000E-03 0.  1.
    9900012    2    1    2    0    0  0.29729997483E+02  0.27419911817E+02  0.15744798224E+02  0.47787274366E+02  0.20000015146E+02 0.  0.
        -12    1    1    2    0    0 -0.29729997483E+02 -0.27419911817E+02 -0.15744798224E+02  0.43400725634E+02  0.00000000000E+00 0.  1.
         11    1    3    3    0    0  0.12635509411E+02  0.17891649879E+02  0.10993988609E+02  0.24507856277E+02  0.51100000000E-03 0. -1.
        -11    1    3    3    0    0  0.30602713791E+01  0.73055167295E+01  0.44114045255E+01  0.90662189334E+01  0.51100000000E-03 0.  1.
        -12    1    3    3    0    0  0.14034216693E+02  0.22227452087E+01  0.33940508941E+00  0.14213199156E+02  0.00000000000E+00 0.  1.
</event>
<event>
 7    1  0.4592673E-010  0.4778727E+02  0.7816164E-02  0.1312668E+00
        -11   -1    0    0    0    0  0.00000000000E+00  0.00000000000E+00  0.45593999997E+02  0.45594000000E+02  0.51100000000E-03 0.  1.
         11   -1    0    0    0    0 -0.00000000000E+00 -0.00000000000E+00 -0.45593999997E+02  0.45594000000E+02  0.51100000000E-03 0. -1.
    9900012    2    1    2    0    0  0.80424211888E+01  0.40283976316E+01 -0.42458388719E+02  0.47787270759E+02  0.19999998699E+02 0.  0.
        -12    1    1    2    0    0 -0.80424211888E+01 -0.40283976316E+01  0.42458388719E+02  0.43400729241E+02  0.00000000000E+00 0.  1.
         11    1    3    3    0    0  0.20932271965E+01 -0.14592494901E+01 -0.10957047181E+00  0.25540194048E+01  0.51100000000E-03 0. -1.
        -11    1    3    3    0    0  0.41911152019E+01 -0.36210180381E+01 -0.85723475581E+01  0.10205996335E+02  0.51100000000E-03 0.  1.
         12    1    3    3    0    0  0.17580787904E+01  0.91086651598E+01 -0.33776470689E+02  0.35027255020E+02  0.00000000000E+00 0. -1.
</event>
<event>
 7    1  0.4592673E-010  0.4778724E+02  0.7816164E-02  0.1312668E+00
        -11   -1    0    0    0    0  0.00000000000E+00  0.00000000000E+00  0.45593999997E+02  0.45594000000E+02  0.51100000000E-03 0. -1.
         11   -1    0    0    0    0 -0.00000000000E+00 -0.00000000000E+00 -0.45593999997E+02  0.45594000000E+02  0.51100000000E-03 0.  1.
    9900012    2    1    2    0    0 -0.22147667552E+02 -0.75152277879E+01  0.36559923903E+02  0.47787241222E+02  0.19999864026E+02 0.  0.
        -12    1    1    2    0    0  0.22147667552E+02  0.75152277879E+01 -0.36559923903E+02  0.43400758778E+02  0.00000000000E+00 0.  1.
         11    1    3    3    0    0 -0.36492240357E+01  0.50723439203E+00  0.89189838518E+01  0.96499946114E+01  0.51100000000E-03 0. -1.
        -11    1    3    3    0    0 -0.60679263761E+01  0.34004273900E+01  0.16511582957E+02  0.17916891721E+02  0.51100000000E-03 0.  1.
         12    1    3    3    0    0 -0.12430517141E+02 -0.11422889570E+02  0.11129357095E+02  0.20220354889E+02  0.00000000000E+00 0. -1.
</event>
<event>
 7    1  0.4592673E-010  0.4778727E+02  0.7816164E-02  0.1312668E+00
        -11   -1    0    0    0    0  0.00000000000E+00  0.00000000000E+00  0.45593999997E+02  0.45594000000E+02  0.51100000000E-03 0.  1.
         11   -1    0    0    0    0 -0.00000000000E+00 -0.00000000000E+00 -0.45593999997E+02  0.45594000000E+02  0.51100000000E-03 0. -1.
    9900012    2    1    2    0    0  0.10726211186E+02  0.42036418215E+02  0.12292624340E+01  0.47787272484E+02  0.20000006565E+02 0.  0.
        -12    1    1    2    0    0 -0.10726211186E+02 -0.42036418215E+02 -0.12292624340E+01  0.43400727516E+02  0.00000000000E+00 0.  1.
         11    1    3    3    0    0  0.39437678662E+01  0.36735151242E+02  0.89149592601E+00  0.36956994020E+02  0.51100000000E-03 0. -1.
        -11    1    3    3    0    0  0.28512507154E+01  0.43083683618E+01  0.30052306964E+01  0.59768788162E+01  0.51100000000E-03 0.  1.
         12    1    3    3    0    0  0.39311926047E+01  0.99289861124E+00 -0.26674641884E+01  0.48533996480E+01  0.00000000000E+00 0. -1.
</event>
<event>
 7    1  0.4592673E-010  0.4778727E+02  0.7816164E-02  0.1312668E+00
        -11   -1    0    0    0    0  0.00000000000E+00  0.00000000000E+00  0.45593999997E+02  0.45594000000E+02  0.51100000000E-03 0.  1.
         11   -1    0    0    0    0 -0.00000000000E+00 -0.00000000000E+00 -0.45593999997E+02  0.45594000000E+02  0.51100000000E-03 0. -1.
    9900012    2    1    2    0    0 -0.14892049430E+00  0.23476681094E+02 -0.36502691654E+02  0.47787271544E+02  0.20000002279E+02 0.  0.
        -12    1    1    2    0    0  0.14892049430E+00 -0.23476681094E+02  0.36502691654E+02  0.43400728456E+02  0.00000000000E+00 0.  1.
         11    1    3    3    0    0 -0.43820601312E+01  0.47952178956E+01 -0.95634908605E+01  0.11561008752E+02  0.51100000000E-03 0. -1.
        -11    1    3    3    0    0 -0.39718263505E+01  0.76614976092E+00 -0.76399858439E+01  0.86447541302E+01  0.51100000000E-03 0.  1.
        -12    1    3    3    0    0  0.82049659874E+01  0.17915313438E+02 -0.19299214949E+02  0.27581508662E+02  0.00000000000E+00 0.  1.
</event>
<event>
 7    1  0.4592673E-010  0.4778727E+02  0.7816164E-02  0.1312668E+00
        -11   -1    0    0    0    0  0.00000000000E+00  0.00000000000E+00  0.45593999997E+02  0.45594000000E+02  0.51100000000E-03 0.  1.
         11   -1    0    0    0    0 -0.00000000000E+00 -0.00000000000E+00 -0.45593999997E+02  0.45594000000E+02  0.51100000000E-03 0. -1.
    9900012    2    1    2    0    0  0.19079089616E+02  0.10830339360E+02 -0.37447503135E+02  0.47787269565E+02  0.19999993254E+02 0.  0.
        -12    1    1    2    0    0 -0.19079089616E+02 -0.10830339360E+02  0.37447503135E+02  0.43400730435E+02  0.00000000000E+00 0.  1.
         11    1    3    3    0    0  0.38242787057E+01 -0.23908430571E+01 -0.12263921227E+01  0.46738930286E+01  0.51100000000E-03 0. -1.
        -11    1    3    3    0    0  0.16854064943E+01  0.78971762423E+01 -0.80919546667E+01  0.11431785435E+02  0.51100000000E-03 0.  1.
        -12    1    3    3    0    0  0.13569404416E+02  0.53240061749E+01 -0.28129156346E+02  0.31681591101E+02  0.00000000000E+00 0.  1.
</event>
<event>
 7    1  0.4592673E-010  0.4778727E+02  0.7816164E-02  0.1312668E+00
        -11   -1    0    0    0    0  0.00000000000E+00  0.00000000000E+00  0.45593999997E+02  0.45594000000E+02  0.51100000000E-03 0.  1.
         11   -1    0    0    0    0 -0.00000000000E+00 -0.00000000000E+00 -0.45593999997E+02  0.45594000000E+02  0.51100000000E-03 0. -1.
    9900012    2    1    2    0    0  0.99668042844E+01 -0.34076787107E+02 -0.24961142589E+02  0.47787271359E+02  0.20000001435E+02 0.  0.
        -12    1    1    2    0    0 -0.99668042844E+01  0.34076787107E+02  0.24961142589E+02  0.43400728641E+02  0.00000000000E+00 0.  1.
         11    1    3    3    0    0  0.96739482731E+01 -0.18574287344E+02 -0.18267267101E+02  0.27789970730E+02  0.51100000000E-03 0. -1.
        -11    1    3    3    0    0  0.28888668415E+01 -0.11502908922E+02 -0.88163285081E+01  0.14778028080E+02  0.51100000000E-03 0.  1.
        -12    1    3    3    0    0 -0.25960108302E+01 -0.39995908409E+01  0.21224530203E+01  0.52192725498E+01  0.00000000000E+00 0.  1.
</event>
<event>
 7    1  0.4592673E-010  0.4778727E+02  0.7816164E-02  0.1312668E+00
        -11   -1    0    0    0    0  0.00000000000E+00  0.00000000000E+00  0.45593999997E+02  0.45594000000E+02  0.51100000000E-03 0. -1.
         11   -1    0    0    0    0 -0.00000000000E+00 -0.00000000000E+00 -0.45593999997E+02  0.45594000000E+02  0.51100000000E-03 0.  1.
    9900012    2    1    2    0    0  0.26696744552E+02 -0.32867773775E+02 -0.95192699200E+01  0.47787271637E+02  0.20000002702E+02 0.  0.
        -12    1    1    2    0    0 -0.26696744552E+02  0.32867773775E+02  0.95192699200E+01  0.43400728363E+02  0.00000000000E+00 0.  1.
         11    1    3    3    0    0  0.10384543505E+02 -0.99201214707E+01 -0.39982783353E+01  0.14907507629E+02  0.51100000000E-03 0. -1.
        -11    1    3    3    0    0  0.13851975263E+02 -0.17914102083E+02  0.28325496434E+01  0.22821384924E+02  0.51100000000E-03 0.  1.
         12    1    3    3    0    0  0.24602257838E+01 -0.50335502221E+01 -0.83535412281E+01  0.10058379084E+02  0.00000000000E+00 0. -1.
</event>
<event>
 7    1  0.4592673E-010  0.4778727E+02  0.7816164E-02  0.1312668E+00
        -11   -1    0    0    0    0  0.00000000000E+00  0.00000000000E+00  0.45593999997E+02  0.45594000000E+02  0.51100000000E-03 0.  1.
         11   -1    0    0    0    0 -0.00000000000E+00 -0.00000000000E+00 -0.45593999997E+02  0.45594000000E+02  0.51100000000E-03 0. -1.
    9900012    2    1    2    0    0  0.22202475187E+02 -0.30691061639E+02 -0.21183294806E+02  0.47787272497E+02  0.20000006623E+02 0.  0.
        -12    1    1    2    0    0 -0.22202475187E+02  0.30691061639E+02  0.21183294806E+02  0.43400727503E+02  0.00000000000E+00 0.  1.
         11    1    3    3    0    0  0.12224362001E+01 -0.90584232857E+01 -0.72217513353E+01  0.11649166292E+02  0.51100000000E-03 0. -1.
        -11    1    3    3    0    0  0.11180011826E+02 -0.18531546308E+02 -0.43709400646E+01  0.22079764271E+02  0.51100000000E-03 0.  1.
         12    1    3    3    0    0  0.98000271615E+01 -0.31010920455E+01 -0.95906034058E+01  0.14058341934E+02  0.00000000000E+00 0. -1.
</event>
<event>
 7    1  0.4592673E-010  0.4778727E+02  0.7816164E-02  0.1312668E+00
        -11   -1    0    0    0    0  0.00000000000E+00  0.00000000000E+00  0.45593999997E+02  0.45594000000E+02  0.51100000000E-03 0.  1.
         11   -1    0    0    0    0 -0.00000000000E+00 -0.00000000000E+00 -0.45593999997E+02  0.45594000000E+02  0.51100000000E-03 0. -1.
    9900012    2    1    2    0    0 -0.36194232725E+02  0.74317668558E+01 -0.22767731111E+02  0.47787271653E+02  0.20000002773E+02 0.  0.
        -12    1    1    2    0    0  0.36194232725E+02 -0.74317668558E+01  0.22767731111E+02  0.43400728347E+02  0.00000000000E+00 0.  1.
         11    1    3    3    0    0 -0.18101566295E+02 -0.13220139850E+01 -0.97700191690E+01  0.20612319086E+02  0.51100000000E-03 0. -1.
        -11    1    3    3    0    0 -0.10529358281E+02  0.10516096515E+01 -0.40608261289E+00  0.10589531247E+02  0.51100000000E-03 0.  1.
         12    1    3    3    0    0 -0.75633081493E+01  0.77021711894E+01 -0.12591629329E+02  0.16585421320E+02  0.00000000000E+00 0. -1.
</event>
<event>
 7    1  0.4592673E-010  0.4778727E+02  0.7816164E-02  0.1312668E+00
        -11   -1    0    0    0    0  0.00000000000E+00  0.00000000000E+00  0.45593999997E+02  0.45594000000E+02  0.51100000000E-03 0. -1.
         11   -1    0    0    0    0 -0.00000000000E+00 -0.00000000000E+00 -0.45593999997E+02  0.45594000000E+02  0.51100000000E-03 0.  1.
    9900012    2    1    2    0    0  0.99769662377E+01  0.32792885889E+02  0.26621606099E+02  0.47787272685E+02  0.20000007479E+02 0.  0.
        -12    1    1    2    0    0 -0.99769662377E+01 -0.32792885889E+02 -0.26621606099E+02  0.43400727315E+02  0.00000000000E+00 0.  1.
         11    1    3    3    0    0  0.34910652394E+01  0.79782628244E+01  0.24777174607E+01  0.90542420046E+01  0.51100000000E-03 0. -1.
        -11    1    3    3    0    0  0.47330536308E+01  0.15521475106E+02  0.43562340217E+01  0.16801629720E+02  0.51100000000E-03 0.  1.
         12    1    3    3    0    0  0.17528473674E+01  0.92931479587E+01  0.19787654616E+02  0.21931400960E+02  0.00000000000E+00 0. -1.
</event>
<event>
 7    1  0.4592673E-010  0.4778727E+02  0.7816164E-02  0.1312668E+00
        -11   -1    0    0    0    0  0.00000000000E+00  0.00000000000E+00  0.45593999997E+02  0.45594000000E+02  0.51100000000E-03 0.  1.
         11   -1    0    0    0    0 -0.00000000000E+00 -0.00000000000E+00 -0.45593999997E+02  0.45594000000E+02  0.51100000000E-03 0. -1.
    9900012    2    1    2    0    0  0.67875416571E+01 -0.99271321706E+01 -0.41701372045E+02  0.47787272987E+02  0.20000008855E+02 0.  0.
        -12    1    1    2    0    0 -0.67875416571E+01  0.99271321706E+01  0.41701372045E+02  0.43400727013E+02  0.00000000000E+00 0.  1.
         11    1    3    3    0    0 -0.33338211147E+00 -0.40716102187E+01 -0.13160174977E+02  0.13779671951E+02  0.51100000000E-03 0. -1.
        -11    1    3    3    0    0 -0.30904734630E+01  0.21162447448E+01 -0.15214450451E+01  0.40428100786E+01  0.51100000000E-03 0.  1.
         12    1    3    3    0    0  0.10211397232E+02 -0.79717666967E+01 -0.27019752023E+02  0.29964790956E+02  0.00000000000E+00 0. -1.
</event>
<event>
 7    1  0.4592673E-010  0.4778727E+02  0.7816164E-02  0.1312668E+00
        -11   -1    0    0    0    0  0.00000000000E+00  0.00000000000E+00  0.45593999997E+02  0.45594000000E+02  0.51100000000E-03 0.  1.
         11   -1    0    0    0    0 -0.00000000000E+00 -0.00000000000E+00 -0.45593999997E+02  0.45594000000E+02  0.51100000000E-03 0. -1.
    9900012    2    1    2    0    0 -0.36206465849E+01 -0.43248411491E+02 -0.29911780305E+00  0.47787266715E+02  0.19999980262E+02 0.  0.
        -12    1    1    2    0    0  0.36206465849E+01  0.43248411491E+02  0.29911780305E+00  0.43400733285E+02  0.00000000000E+00 0.  1.
         11    1    3    3    0    0 -0.25482681186E+01 -0.22267719622E+02 -0.51827947070E+01  0.23004485841E+02  0.51100000000E-03 0. -1.
        -11    1    3    3    0    0 -0.75314443839E+00  0.26556389252E+00 -0.22349996991E+01  0.23733888519E+01  0.51100000000E-03 0.  1.
         12    1    3    3    0    0 -0.31923402798E+00 -0.21246255761E+02  0.71186766031E+01  0.22409392022E+02  0.00000000000E+00 0. -1.
</event>
<event>
 7    1  0.4592673E-010  0.4778727E+02  0.7816164E-02  0.1312668E+00
        -11   -1    0    0    0    0  0.00000000000E+00  0.00000000000E+00  0.45593999997E+02  0.45594000000E+02  0.51100000000E-03 0.  1.
         11   -1    0    0    0    0 -0.00000000000E+00 -0.00000000000E+00 -0.45593999997E+02  0.45594000000E+02  0.51100000000E-03 0. -1.
    9900012    2    1    2    0    0 -0.11087331828E+02  0.41823627274E+02 -0.33879538354E+01  0.47787274699E+02  0.20000016665E+02 0.  0.
        -12    1    1    2    0    0  0.11087331828E+02 -0.41823627274E+02  0.33879538354E+01  0.43400725301E+02  0.00000000000E+00 0.  1.
         11    1    3    3    0    0  0.12751300665E+00  0.56038569660E+01 -0.42777983039E+01  0.70511723175E+01  0.51100000000E-03 0. -1.
        -11    1    3    3    0    0  0.30811110447E+01  0.31679822673E+01 -0.14449984690E+01  0.46494491880E+01  0.51100000000E-03 0.  1.
         12    1    3    3    0    0 -0.14295955879E+02  0.33051788041E+02  0.23348429374E+01  0.36086653194E+02  0.00000000000E+00 0. -1.
</event>
<event>
 7    1  0.5979362E-010  0.4778727E+02  0.7816164E-02  0.1312668E+00
        -11   -1    0    0    0    0  0.00000000000E+00  0.00000000000E+00  0.45593999997E+02  0.45594000000E+02  0.51100000000E-03 0. -1.
         11   -1    0    0    0    0 -0.00000000000E+00 -0.00000000000E+00 -0.45593999997E+02  0.45594000000E+02  0.51100000000E-03 0.  1.
    9900012    2    1    2    0    0 -0.19635673096E+02 -0.30023066784E+02  0.24427021754E+02  0.47787267416E+02  0.19999983455E+02 0.  0.
        -12    1    1    2    0    0  0.19635673096E+02  0.30023066784E+02 -0.24427021754E+02  0.43400732584E+02  0.00000000000E+00 0.  1.
         11    1    3    3    0    0 -0.94572040188E+01 -0.16918953516E+02  0.14905174966E+02  0.24451051858E+02  0.51100000000E-03 0. -1.
        -11    1    3    3    0    0 -0.84401745380E+00 -0.11514768380E+02  0.33066225264E+01  0.12009829686E+02  0.51100000000E-03 0.  1.
        -12    1    3    3    0    0 -0.93344516237E+01 -0.15893448888E+01  0.62152242617E+01  0.11326385872E+02  0.00000000000E+00 0.  1.
</event>
<event>
 7    1  0.4592673E-010  0.4778727E+02  0.7816164E-02  0.1312668E+00
        -11   -1    0    0    0    0  0.00000000000E+00  0.00000000000E+00  0.45593999997E+02  0.45594000000E+02  0.51100000000E-03 0.  1.
         11   -1    0    0    0    0 -0.00000000000E+00 -0.00000000000E+00 -0.45593999997E+02  0.45594000000E+02  0.51100000000E-03 0. -1.
    9900012    2    1    2    0    0 -0.39935538928E+02  0.16672786071E+02 -0.32854193920E+01  0.47787273676E+02  0.20000012000E+02 0.  0.
        -12    1    1    2    0    0  0.39935538928E+02 -0.16672786071E+02  0.32854193920E+01  0.43400726324E+02  0.00000000000E+00 0.  1.
         11    1    3    3    0    0 -0.73853880612E+01  0.14286268956E+01  0.16158410433E+01  0.76938855047E+01  0.51100000000E-03 0. -1.
        -11    1    3    3    0    0 -0.32550681248E+02  0.15770872148E+02 -0.10281082978E+01  0.36184586013E+02  0.51100000000E-03 0.  1.
         12    1    3    3    0    0  0.53038096511E-03 -0.52671297203E+00 -0.38731521375E+01  0.39088021588E+01  0.00000000000E+00 0. -1.
</event>
<event>
 7    1  0.4592673E-010  0.4778727E+02  0.7816164E-02  0.1312668E+00
        -11   -1    0    0    0    0  0.00000000000E+00  0.00000000000E+00  0.45593999997E+02  0.45594000000E+02  0.51100000000E-03 0.  1.
         11   -1    0    0    0    0 -0.00000000000E+00 -0.00000000000E+00 -0.45593999997E+02  0.45594000000E+02  0.51100000000E-03 0. -1.
    9900012    2    1    2    0    0 -0.30779101100E+01 -0.40418041846E+02 -0.15509077227E+02  0.47787272889E+02  0.20000008409E+02 0.  0.
        -12    1    1    2    0    0  0.30779101100E+01  0.40418041846E+02  0.15509077227E+02  0.43400727111E+02  0.00000000000E+00 0.  1.
         11    1    3    3    0    0 -0.17308018417E+00 -0.23724581090E+01 -0.46411639750E+01  0.52152581463E+01  0.51100000000E-03 0. -1.
        -11    1    3    3    0    0  0.54178682858E+01 -0.23083755498E+02 -0.89505249875E+01  0.25344130730E+02  0.51100000000E-03 0.  1.
         12    1    3    3    0    0 -0.83226982117E+01 -0.14961828240E+02 -0.19173882647E+01  0.17227884013E+02  0.00000000000E+00 0. -1.
</event>
<event>
 7    1  0.4592673E-010  0.4778727E+02  0.7816164E-02  0.1312668E+00
        -11   -1    0    0    0    0  0.00000000000E+00  0.00000000000E+00  0.45593999997E+02  0.45594000000E+02  0.51100000000E-03 0. -1.
         11   -1    0    0    0    0 -0.00000000000E+00 -0.00000000000E+00 -0.45593999997E+02  0.45594000000E+02  0.51100000000E-03 0.  1.
    9900012    2    1    2    0    0 -0.85874280120E+01  0.41535398215E+02 -0.92027234605E+01  0.47787270238E+02  0.19999996325E+02 0.  0.
        -12    1    1    2    0    0  0.85874280120E+01 -0.41535398215E+02  0.92027234605E+01  0.43400729762E+02  0.00000000000E+00 0.  1.
         11    1    3    3    0    0  0.74174814728E+00  0.14471880968E+02  0.35004937029E+01  0.14907682097E+02  0.51100000000E-03 0. -1.
        -11    1    3    3    0    0 -0.35677433158E+01  0.44187055976E+01  0.10365828679E+01  0.57730629504E+01  0.51100000000E-03 0.  1.
         12    1    3    3    0    0 -0.57614328434E+01  0.22644811649E+02 -0.13739800031E+02  0.27106525191E+02  0.00000000000E+00 0. -1.
</event>
<event>
 7    1  0.4592673E-010  0.4778727E+02  0.7816164E-02  0.1312668E+00
        -11   -1    0    0    0    0  0.00000000000E+00  0.00000000000E+00  0.45593999997E+02  0.45594000000E+02  0.51100000000E-03 0.  1.
         11   -1    0    0    0    0 -0.00000000000E+00 -0.00000000000E+00 -0.45593999997E+02  0.45594000000E+02  0.51100000000E-03 0. -1.
    9900012    2    1    2    0    0 -0.43316278860E+02 -0.16688954784E+01  0.21302436395E+01  0.47787272306E+02  0.20000005751E+02 0.  0.
        -12    1    1    2    0    0  0.43316278860E+02  0.16688954784E+01 -0.21302436395E+01  0.43400727694E+02  0.00000000000E+00 0.  1.
         11    1    3    3    0    0 -0.25257743250E+02  0.36066957548E+01 -0.33299055481E+01  0.25730334618E+02  0.51100000000E-03 0. -1.
        -11    1    3    3    0    0 -0.98329556753E+01 -0.38152820822E+01 -0.21409248654E+01  0.10762293167E+02  0.51100000000E-03 0.  1.
         12    1    3    3    0    0 -0.82255799353E+01 -0.14603091509E+01  0.76010740529E+01  0.11294644521E+02  0.00000000000E+00 0. -1.
</event>
<event>
 7    1  0.4592673E-010  0.4778727E+02  0.7816164E-02  0.1312668E+00
        -11   -1    0    0    0    0  0.00000000000E+00  0.00000000000E+00  0.45593999997E+02  0.45594000000E+02  0.51100000000E-03 0. -1.
         11   -1    0    0    0    0 -0.00000000000E+00 -0.00000000000E+00 -0.45593999997E+02  0.45594000000E+02  0.51100000000E-03 0.  1.
    9900012    2    1    2    0    0  0.72873460810E+01 -0.23650723775E+02  0.35653346454E+02  0.47787271189E+02  0.20000000657E+02 0.  0.
        -12    1    1    2    0    0 -0.72873460810E+01  0.23650723775E+02 -0.35653346454E+02  0.43400728811E+02  0.00000000000E+00 0.  1.
         11    1    3    3    0    0 -0.46268029800E+00 -0.12522944061E+02  0.21111698209E+02  0.24550804519E+02  0.51100000000E-03 0. -1.
        -11    1    3    3    0    0 -0.31646909196E+01 -0.12970522126E+01  0.31163786799E+01  0.46270324612E+01  0.51100000000E-03 0.  1.
         12    1    3    3    0    0  0.10914717299E+02 -0.98307275015E+01  0.11425269565E+02  0.18609434208E+02  0.00000000000E+00 0. -1.
</event>
<event>
 7    1  0.4592673E-010  0.4778727E+02  0.7816164E-02  0.1312668E+00
        -11   -1    0    0    0    0  0.00000000000E+00  0.00000000000E+00  0.45593999997E+02  0.45594000000E+02  0.51100000000E-03 0.  1.
         11   -1    0    0    0    0 -0.00000000000E+00 -0.00000000000E+00 -0.45593999997E+02  0.45594000000E+02  0.51100000000E-03 0. -1.
    9900012    2    1    2    0    0 -0.36787492862E+02  0.16004500531E+02 -0.16557766476E+02  0.47787270755E+02  0.19999998682E+02 0.  0.
        -12    1    1    2    0    0  0.36787492862E+02 -0.16004500531E+02  0.16557766476E+02  0.43400729245E+02  0.00000000000E+00 0.  1.
         11    1    3    3    0    0 -0.26599436714E+01 -0.12309728494E+01  0.79938159584E+00  0.30380266108E+01  0.51100000000E-03 0. -1.
        -11    1    3    3    0    0 -0.32379307885E+01  0.26047026685E+01 -0.84683037194E+01  0.94329655955E+01  0.51100000000E-03 0.  1.
         12    1    3    3    0    0 -0.30889618402E+02  0.14630770712E+02 -0.88888443521E+01  0.35316278549E+02  0.00000000000E+00 0. -1.
</event>
<event>
 7    1  0.4592673E-010  0.4778727E+02  0.7816164E-02  0.1312668E+00
        -11   -1    0    0    0    0  0.00000000000E+00  0.00000000000E+00  0.45593999997E+02  0.45594000000E+02  0.51100000000E-03 0. -1.
         11   -1    0    0    0    0 -0.00000000000E+00 -0.00000000000E+00 -0.45593999997E+02  0.45594000000E+02  0.51100000000E-03 0.  1.
    9900012    2    1    2    0    0 -0.33742156083E+02  0.27112022244E+02 -0.31667841991E+01  0.47787269944E+02  0.19999994981E+02 0.  0.
        -12    1    1    2    0    0  0.33742156083E+02 -0.27112022244E+02  0.31667841991E+01  0.43400730056E+02  0.00000000000E+00 0.  1.
         11    1    3    3    0    0 -0.29767960949E+02  0.26219044716E+02  0.24303678955E+01  0.39742628163E+02  0.51100000000E-03 0. -1.
        -11    1    3    3    0    0 -0.36718183483E+01  0.53445199751E+00 -0.16348937338E+01  0.40547215320E+01  0.51100000000E-03 0.  1.
         12    1    3    3    0    0 -0.30237678512E+00  0.35852553010E+00 -0.39622583609E+01  0.39899202491E+01  0.00000000000E+00 0. -1.
</event>
<event>
 7    1  0.4592673E-010  0.4778727E+02  0.7816164E-02  0.1312668E+00
        -11   -1    0    0    0    0  0.00000000000E+00  0.00000000000E+00  0.45593999997E+02  0.45594000000E+02  0.51100000000E-03 0. -1.
         11   -1    0    0    0    0 -0.00000000000E+00 -0.00000000000E+00 -0.45593999997E+02  0.45594000000E+02  0.51100000000E-03 0.  1.
    9900012    2    1    2    0    0  0.25263671285E+02  0.30904482842E+02  0.17037701083E+02  0.47787269537E+02  0.19999993128E+02 0.  0.
        -12    1    1    2    0    0 -0.25263671285E+02 -0.30904482842E+02 -0.17037701083E+02  0.43400730463E+02  0.00000000000E+00 0.  1.
         11    1    3    3    0    0  0.19100904962E+00  0.10637416449E+02  0.43979476490E+01  0.11512300246E+02  0.51100000000E-03 0. -1.
        -11    1    3    3    0    0  0.60525314578E+01  0.39671547530E+01  0.80219992065E+01  0.10803884737E+02  0.51100000000E-03 0.  1.
         12    1    3    3    0    0  0.19020130778E+02  0.16299911640E+02  0.46177542273E+01  0.25471084554E+02  0.00000000000E+00 0. -1.
</event>
<event>
 7    1  0.4592673E-010  0.4778727E+02  0.7816164E-02  0.1312668E+00
        -11   -1    0    0    0    0  0.00000000000E+00  0.00000000000E+00  0.45593999997E+02  0.45594000000E+02  0.51100000000E-03 0.  1.
         11   -1    0    0    0    0 -0.00000000000E+00 -0.00000000000E+00 -0.45593999997E+02  0.45594000000E+02  0.51100000000E-03 0. -1.
    9900012    2    1    2    0    0 -0.20516477646E+02  0.35577997024E+02  0.14032230253E+02  0.47787271744E+02  0.20000003191E+02 0.  0.
        -12    1    1    2    0    0  0.20516477646E+02 -0.35577997024E+02 -0.14032230253E+02  0.43400728256E+02  0.00000000000E+00 0.  1.
         11    1    3    3    0    0 -0.45740531072E+00  0.33452237941E+01 -0.94474403369E+00  0.35060352824E+01  0.51100000000E-03 0. -1.
        -11    1    3    3    0    0 -0.49780008637E+01  0.10544854000E+01 -0.22916895682E+01  0.55807054568E+01  0.51100000000E-03 0.  1.
         12    1    3    3    0    0 -0.15081071472E+02  0.31178287830E+02  0.17268663854E+02  0.38700531005E+02  0.00000000000E+00 0. -1.
</event>
<event>
 7    1  0.4592673E-010  0.4778727E+02  0.7816164E-02  0.1312668E+00
        -11   -1    0    0    0    0  0.00000000000E+00  0.00000000000E+00  0.45593999997E+02  0.45594000000E+02  0.51100000000E-03 0. -1.
         11   -1    0    0    0    0 -0.00000000000E+00 -0.00000000000E+00 -0.45593999997E+02  0.45594000000E+02  0.51100000000E-03 0.  1.
    9900012    2    1    2    0    0  0.15141449628E+02  0.31691096694E+02  0.25495766499E+02  0.47787271713E+02  0.20000003047E+02 0.  0.
        -12    1    1    2    0    0 -0.15141449628E+02 -0.31691096694E+02 -0.25495766499E+02  0.43400728287E+02  0.00000000000E+00 0.  1.
         11    1    3    3    0    0  0.45069082050E+01  0.12124417621E+01  0.39813055439E+01  0.61345766512E+01  0.51100000000E-03 0. -1.
        -11    1    3    3    0    0  0.26904059279E+01  0.60882250729E+01 -0.18996722573E+01  0.69219595160E+01  0.51100000000E-03 0.  1.
         12    1    3    3    0    0  0.79441354956E+01  0.24390429859E+02  0.23414133212E+02  0.34730735546E+02  0.00000000000E+00 0. -1.
</event>
<event>
 7    1  0.4592673E-010  0.4778727E+02  0.7816164E-02  0.1312668E+00
        -11   -1    0    0    0    0  0.00000000000E+00  0.00000000000E+00  0.45593999997E+02  0.45594000000E+02  0.51100000000E-03 0. -1.
         11   -1    0    0    0    0 -0.00000000000E+00 -0.00000000000E+00 -0.45593999997E+02  0.45594000000E+02  0.51100000000E-03 0.  1.
    9900012    2    1    2    0    0  0.37561541166E+01  0.34153103101E+02  0.26515663554E+02  0.47787267761E+02  0.19999985029E+02 0.  0.
        -12    1    1    2    0    0 -0.37561541166E+01 -0.34153103101E+02 -0.26515663554E+02  0.43400732239E+02  0.00000000000E+00 0.  1.
         11    1    3    3    0    0  0.35666630790E+00  0.77093356228E+01  0.18803268826E+01  0.79433428761E+01  0.51100000000E-03 0. -1.
        -11    1    3    3    0    0 -0.31186535712E+01  0.13938448743E+02  0.20795962068E+02  0.25228523382E+02  0.51100000000E-03 0.  1.
        -12    1    3    3    0    0  0.65181413799E+01  0.12505318736E+02  0.38393746026E+01  0.14615401502E+02  0.00000000000E+00 0.  1.
</event>
<event>
 7    1  0.4592673E-010  0.4778727E+02  0.7816164E-02  0.1312668E+00
        -11   -1    0    0    0    0  0.00000000000E+00  0.00000000000E+00  0.45593999997E+02  0.45594000000E+02  0.51100000000E-03 0. -1.
         11   -1    0    0    0    0 -0.00000000000E+00 -0.00000000000E+00 -0.45593999997E+02  0.45594000000E+02  0.51100000000E-03 0.  1.
    9900012    2    1    2    0    0  0.17173317878E+02  0.39821621482E+02  0.17143365410E+01  0.47787270350E+02  0.19999996834E+02 0.  0.
        -12    1    1    2    0    0 -0.17173317878E+02 -0.39821621482E+02 -0.17143365410E+01  0.43400729650E+02  0.00000000000E+00 0.  1.
         11    1    3    3    0    0  0.67857073674E+01  0.96946909826E+01  0.35080110037E+01  0.12342568581E+02  0.51100000000E-03 0. -1.
        -11    1    3    3    0    0  0.61568271176E+01  0.12028385474E+02  0.66147769356E+01  0.15044728360E+02  0.51100000000E-03 0.  1.
         12    1    3    3    0    0  0.42307833926E+01  0.18098545025E+02 -0.84084513983E+01  0.20399973409E+02  0.00000000000E+00 0. -1.
</event>
<event>
 7    1  0.4592673E-010  0.4778727E+02  0.7816164E-02  0.1312668E+00
        -11   -1    0    0    0    0  0.00000000000E+00  0.00000000000E+00  0.45593999997E+02  0.45594000000E+02  0.51100000000E-03 0.  1.
         11   -1    0    0    0    0 -0.00000000000E+00 -0.00000000000E+00 -0.45593999997E+02  0.45594000000E+02  0.51100000000E-03 0. -1.
    9900012    2    1    2    0    0 -0.14196899946E+02  0.28125527393E+02 -0.29850058098E+02  0.47787271576E+02  0.20000002425E+02 0.  0.
        -12    1    1    2    0    0  0.14196899946E+02 -0.28125527393E+02  0.29850058098E+02  0.43400728424E+02  0.00000000000E+00 0.  1.
         11    1    3    3    0    0  0.16770365243E+00  0.15753399745E+02 -0.13247448111E+02  0.20583794833E+02  0.51100000000E-03 0. -1.
        -11    1    3    3    0    0  0.74721609796E+00  0.22525672576E+01 -0.52563494192E+01  0.57672871114E+01  0.51100000000E-03 0.  1.
         12    1    3    3    0    0 -0.15111819696E+02  0.10119560391E+02 -0.11346260569E+02  0.21436189632E+02  0.00000000000E+00 0. -1.
</event>
<event>
 7    1  0.4592673E-010  0.4778728E+02  0.7816164E-02  0.1312668E+00
        -11   -1    0    0    0    0  0.00000000000E+00  0.00000000000E+00  0.45593999997E+02  0.45594000000E+02  0.51100000000E-03 0.  1.
         11   -1    0    0    0    0 -0.00000000000E+00 -0.00000000000E+00 -0.45593999997E+02  0.45594000000E+02  0.51100000000E-03 0. -1.
    9900012    2    1    2    0    0 -0.52975779710E+01  0.32518445749E+02 -0.28250824688E+02  0.47787277174E+02  0.20000027946E+02 0.  0.
        -12    1    1    2    0    0  0.52975779710E+01 -0.32518445749E+02  0.28250824688E+02  0.43400722826E+02  0.00000000000E+00 0.  1.
         11    1    3    3    0    0  0.45402503588E+00  0.12732482202E+02 -0.11468387061E+02  0.17141941074E+02  0.51100000000E-03 0. -1.
        -11    1    3    3    0    0  0.15823899613E+01  0.88986418539E+01 -0.14839394065E+02  0.17375195000E+02  0.51100000000E-03 0.  1.
        -12    1    3    3    0    0 -0.73339929681E+01  0.10887321693E+02 -0.19430435628E+01  0.13270141099E+02  0.00000000000E+00 0.  1.
</event>
<event>
 7    1  0.4592673E-010  0.4778727E+02  0.7816164E-02  0.1312668E+00
        -11   -1    0    0    0    0  0.00000000000E+00  0.00000000000E+00  0.45593999997E+02  0.45594000000E+02  0.51100000000E-03 0. -1.
         11   -1    0    0    0    0 -0.00000000000E+00 -0.00000000000E+00 -0.45593999997E+02  0.45594000000E+02  0.51100000000E-03 0.  1.
    9900012    2    1    2    0    0  0.36977295661E+02  0.16879649350E+02  0.15211194498E+02  0.47787269654E+02  0.19999993658E+02 0.  0.
        -12    1    1    2    0    0 -0.36977295661E+02 -0.16879649350E+02 -0.15211194498E+02  0.43400730346E+02  0.00000000000E+00 0.  1.
         11    1    3    3    0    0  0.13985311755E+02  0.16229316457E+01  0.97597802134E+01  0.17131145965E+02  0.51100000000E-03 0. -1.
        -11    1    3    3    0    0  0.10771646038E+02  0.11178561044E+01 -0.10244212970E+01  0.10877839855E+02  0.51100000000E-03 0.  1.
         12    1    3    3    0    0  0.12220337868E+02  0.14138861600E+02  0.64758355813E+01  0.19778283834E+02  0.00000000000E+00 0. -1.
</event>
<event>
 7    1  0.4592673E-010  0.4778727E+02  0.7816164E-02  0.1312668E+00
        -11   -1    0    0    0    0  0.00000000000E+00  0.00000000000E+00  0.45593999997E+02  0.45594000000E+02  0.51100000000E-03 0.  1.
         11   -1    0    0    0    0 -0.00000000000E+00 -0.00000000000E+00 -0.45593999997E+02  0.45594000000E+02  0.51100000000E-03 0. -1.
    9900012    2    1    2    0    0  0.34432217224E+02 -0.26371946123E+02 -0.16019708195E+01  0.47787269179E+02  0.19999991496E+02 0.  0.
        -12    1    1    2    0    0 -0.34432217224E+02  0.26371946123E+02  0.16019708195E+01  0.43400730821E+02  0.00000000000E+00 0.  1.
         11    1    3    3    0    0  0.10050556296E+02 -0.35801916161E+01 -0.30117809360E+01  0.11086130007E+02  0.51100000000E-03 0. -1.
        -11    1    3    3    0    0  0.13363974074E+02 -0.10347450780E+02 -0.67323971385E+01  0.18193150145E+02  0.51100000000E-03 0.  1.
        -12    1    3    3    0    0  0.11017686854E+02 -0.12444303726E+02  0.81422072550E+01  0.18507989027E+02  0.00000000000E+00 0.  1.
</event>
<event>
 7    1  0.4592673E-010  0.4778727E+02  0.7816164E-02  0.1312668E+00
        -11   -1    0    0    0    0  0.00000000000E+00  0.00000000000E+00  0.45593999997E+02  0.45594000000E+02  0.51100000000E-03 0.  1.
         11   -1    0    0    0    0 -0.00000000000E+00 -0.00000000000E+00 -0.45593999997E+02  0.45594000000E+02  0.51100000000E-03 0. -1.
    9900012    2    1    2    0    0  0.21635653570E+02  0.53219153988E+00 -0.37619656860E+02  0.47787270565E+02  0.19999997813E+02 0.  0.
        -12    1    1    2    0    0 -0.21635653570E+02 -0.53219153988E+00  0.37619656860E+02  0.43400729435E+02  0.00000000000E+00 0.  1.
         11    1    3    3    0    0  0.72072976323E+01  0.15369756446E+01 -0.58172306832E+01  0.93886956696E+01  0.51100000000E-03 0. -1.
        -11    1    3    3    0    0  0.42967218146E+01  0.62047745129E+01 -0.56088297485E+01  0.94031918261E+01  0.51100000000E-03 0.  1.
         12    1    3    3    0    0  0.10131634123E+02 -0.72095586177E+01 -0.26193596428E+02  0.28995383069E+02  0.00000000000E+00 0. -1.
</event>
<event>
 7    1  0.4592673E-010  0.4778727E+02  0.7816164E-02  0.1312668E+00
        -11   -1    0    0    0    0  0.00000000000E+00  0.00000000000E+00  0.45593999997E+02  0.45594000000E+02  0.51100000000E-03 0.  1.
         11   -1    0    0    0    0 -0.00000000000E+00 -0.00000000000E+00 -0.45593999997E+02  0.45594000000E+02  0.51100000000E-03 0. -1.
    9900012    2    1    2    0    0 -0.11863184937E+02  0.41289710222E+02 -0.61682968923E+01  0.47787271738E+02  0.20000003163E+02 0.  0.
        -12    1    1    2    0    0  0.11863184937E+02 -0.41289710222E+02  0.61682968923E+01  0.43400728262E+02  0.00000000000E+00 0.  1.
         11    1    3    3    0    0 -0.10950089377E+02  0.20435452683E+02 -0.43703051535E+01  0.23592620692E+02  0.51100000000E-03 0. -1.
        -11    1    3    3    0    0 -0.55834811090E+01  0.76434969682E+01 -0.34734541704E+01  0.10082816637E+02  0.51100000000E-03 0.  1.
         12    1    3    3    0    0  0.46703855487E+01  0.13210760571E+02  0.16754624316E+01  0.14111834409E+02  0.00000000000E+00 0. -1.
</event>
<event>
 7    1  0.4592673E-010  0.4778727E+02  0.7816164E-02  0.1312668E+00
        -11   -1    0    0    0    0  0.00000000000E+00  0.00000000000E+00  0.45593999997E+02  0.45594000000E+02  0.51100000000E-03 0.  1.
         11   -1    0    0    0    0 -0.00000000000E+00 -0.00000000000E+00 -0.45593999997E+02  0.45594000000E+02  0.51100000000E-03 0. -1.
    9900012    2    1    2    0    0 -0.13178116925E+02  0.24288366319E+01 -0.41280277809E+02  0.47787270178E+02  0.19999996049E+02 0.  0.
        -12    1    1    2    0    0  0.13178116925E+02 -0.24288366319E+01  0.41280277809E+02  0.43400729822E+02  0.00000000000E+00 0.  1.
         11    1    3    3    0    0  0.15978839881E+01 -0.24851769998E+01 -0.11513662509E+02  0.11886705287E+02  0.51100000000E-03 0. -1.
        -11    1    3    3    0    0 -0.67636236986E+01 -0.89432828137E+00 -0.22798071813E+02  0.23797027278E+02  0.51100000000E-03 0.  1.
        -12    1    3    3    0    0 -0.80123772144E+01  0.58083419131E+01 -0.69685434874E+01  0.12103537613E+02  0.00000000000E+00 0.  1.
</event>
<event>
 7    1  0.4592673E-010  0.4778727E+02  0.7816164E-02  0.1312668E+00
        -11   -1    0    0    0    0  0.00000000000E+00  0.00000000000E+00  0.45593999997E+02  0.45594000000E+02  0.51100000000E-03 0.  1.
         11   -1    0    0    0    0 -0.00000000000E+00 -0.00000000000E+00 -0.45593999997E+02  0.45594000000E+02  0.51100000000E-03 0. -1.
    9900012    2    1    2    0    0  0.13427691342E+02  0.33517886930E+02 -0.24080523644E+02  0.47787271228E+02  0.20000000835E+02 0.  0.
        -12    1    1    2    0    0 -0.13427691342E+02 -0.33517886930E+02  0.24080523644E+02  0.43400728772E+02  0.00000000000E+00 0.  1.
         11    1    3    3    0    0 -0.17385001942E+01  0.43359512863E+01 -0.25363777877E+01  0.53156438016E+01  0.51100000000E-03 0. -1.
        -11    1    3    3    0    0  0.97150181232E+01  0.24700823071E+02 -0.89061266866E+01  0.27996987880E+02  0.51100000000E-03 0.  1.
         12    1    3    3    0    0  0.54511734126E+01  0.44811125724E+01 -0.12638019170E+02  0.14474639546E+02  0.00000000000E+00 0. -1.
</event>
<event>
 7    1  0.4592673E-010  0.4778727E+02  0.7816164E-02  0.1312668E+00
        -11   -1    0    0    0    0  0.00000000000E+00  0.00000000000E+00  0.45593999997E+02  0.45594000000E+02  0.51100000000E-03 0.  1.
         11   -1    0    0    0    0 -0.00000000000E+00 -0.00000000000E+00 -0.45593999997E+02  0.45594000000E+02  0.51100000000E-03 0. -1.
    9900012    2    1    2    0    0  0.94888197181E+01  0.12516376827E+02 -0.40458943780E+02  0.47787268205E+02  0.19999987054E+02 0.  0.
        -12    1    1    2    0    0 -0.94888197181E+01 -0.12516376827E+02  0.40458943780E+02  0.43400731795E+02  0.00000000000E+00 0.  1.
         11    1    3    3    0    0  0.48630316040E+01  0.82652930036E+01 -0.21902750894E+02  0.23910136800E+02  0.51100000000E-03 0. -1.
        -11    1    3    3    0    0  0.87692739346E+01  0.56990119197E+01 -0.11302612037E+02  0.15398959099E+02  0.51100000000E-03 0.  1.
        -12    1    3    3    0    0 -0.41434858204E+01 -0.14479280964E+01 -0.72535808497E+01  0.84781723065E+01  0.00000000000E+00 0.  1.
</event>
<event>
 7    1  0.4592673E-010  0.4778727E+02  0.7816164E-02  0.1312668E+00
        -11   -1    0    0    0    0  0.00000000000E+00  0.00000000000E+00  0.45593999997E+02  0.45594000000E+02  0.51100000000E-03 0.  1.
         11   -1    0    0    0    0 -0.00000000000E+00 -0.00000000000E+00 -0.45593999997E+02  0.45594000000E+02  0.51100000000E-03 0. -1.
    9900012    2    1    2    0    0 -0.24038895295E+02  0.47945363023E+01 -0.35815746470E+02  0.47787265438E+02  0.19999974436E+02 0.  0.
        -12    1    1    2    0    0  0.24038895295E+02 -0.47945363023E+01  0.35815746470E+02  0.43400734562E+02  0.00000000000E+00 0.  1.
         11    1    3    3    0    0 -0.14869988177E+02 -0.22968514784E+01 -0.84888426918E+01  0.17275778582E+02  0.51100000000E-03 0. -1.
        -11    1    3    3    0    0 -0.51506923830E+00  0.30999199224E+01 -0.28405480470E+01  0.42359784364E+01  0.51100000000E-03 0.  1.
         12    1    3    3    0    0 -0.86538378798E+01  0.39914678583E+01 -0.24486355731E+02  0.26275508419E+02  0.00000000000E+00 0. -1.
</event>
<event>
 7    1  0.5078206E-010  0.4778727E+02  0.7816164E-02  0.1312668E+00
        -11   -1    0    0    0    0  0.00000000000E+00  0.00000000000E+00  0.45593999997E+02  0.45594000000E+02  0.51100000000E-03 0.  1.
         11   -1    0    0    0    0 -0.00000000000E+00 -0.00000000000E+00 -0.45593999997E+02  0.45594000000E+02  0.51100000000E-03 0. -1.
    9900012    2    1    2    0    0  0.55609700234E+01  0.39421888213E+02 -0.17280440490E+02  0.47787270957E+02  0.19999999603E+02 0.  0.
        -12    1    1    2    0    0 -0.55609700234E+01 -0.39421888213E+02  0.17280440490E+02  0.43400729043E+02  0.00000000000E+00 0.  1.
         11    1    3    3    0    0  0.49169527163E+01  0.15956083909E+02 -0.10064118494E+02  0.19495115261E+02  0.51100000000E-03 0. -1.
        -11    1    3    3    0    0 -0.32329539977E+01  0.15874720497E+02 -0.10334205298E+02  0.19215997029E+02  0.51100000000E-03 0.  1.
        -12    1    3    3    0    0  0.38769713049E+01  0.75910838065E+01  0.31178833023E+01  0.90761586667E+01  0.00000000000E+00 0.  1.
</event>
<event>
 7    1  0.4592673E-010  0.4778728E+02  0.7816164E-02  0.1312668E+00
        -11   -1    0    0    0    0  0.00000000000E+00  0.00000000000E+00  0.45593999997E+02  0.45594000000E+02  0.51100000000E-03 0.  1.
         11   -1    0    0    0    0 -0.00000000000E+00 -0.00000000000E+00 -0.45593999997E+02  0.45594000000E+02  0.51100000000E-03 0. -1.
    9900012    2    1    2    0    0 -0.62701809009E+01  0.37465698834E+02 -0.20991168800E+02  0.47787275061E+02  0.20000018313E+02 0.  0.
        -12    1    1    2    0    0  0.62701809009E+01 -0.37465698834E+02  0.20991168800E+02  0.43400724939E+02  0.00000000000E+00 0.  1.
         11    1    3    3    0    0 -0.11685713069E+01  0.11043966612E+02 -0.13362088620E+02  0.17374699133E+02  0.51100000000E-03 0. -1.
        -11    1    3    3    0    0 -0.38054152914E+01  0.95184813575E+00 -0.13459966664E+01  0.41471565802E+01  0.51100000000E-03 0.  1.
         12    1    3    3    0    0 -0.12961943026E+01  0.25469884087E+02 -0.62830835133E+01  0.26265419347E+02  0.00000000000E+00 0. -1.
</event>
<event>
 7    1  0.4592673E-010  0.4778726E+02  0.7816164E-02  0.1312668E+00
        -11   -1    0    0    0    0  0.00000000000E+00  0.00000000000E+00  0.45593999997E+02  0.45594000000E+02  0.51100000000E-03 0.  1.
         11   -1    0    0    0    0 -0.00000000000E+00 -0.00000000000E+00 -0.45593999997E+02  0.45594000000E+02  0.51100000000E-03 0. -1.
    9900012    2    1    2    0    0 -0.25203137013E+01  0.42812067654E+01 -0.43115467352E+02  0.47787259943E+02  0.19999949384E+02 0.  0.
        -12    1    1    2    0    0  0.25203137013E+01 -0.42812067654E+01  0.43115467352E+02  0.43400740057E+02  0.00000000000E+00 0.  1.
         11    1    3    3    0    0  0.42667582301E+01  0.34340108579E+01 -0.38791631875E+02  0.39176375025E+02  0.51100000000E-03 0. -1.
        -11    1    3    3    0    0 -0.34586859547E+01  0.11642891352E+01 -0.37240068031E+01  0.52140487775E+01  0.51100000000E-03 0.  1.
         12    1    3    3    0    0 -0.33283859766E+01 -0.31709322767E+00 -0.59982867442E+00  0.33968361401E+01  0.00000000000E+00 0. -1.
</event>
<event>
 7    1  0.4592673E-010  0.4778727E+02  0.7816164E-02  0.1312668E+00
        -11   -1    0    0    0    0  0.00000000000E+00  0.00000000000E+00  0.45593999997E+02  0.45594000000E+02  0.51100000000E-03 0.  1.
         11   -1    0    0    0    0 -0.00000000000E+00 -0.00000000000E+00 -0.45593999997E+02  0.45594000000E+02  0.51100000000E-03 0. -1.
    9900012    2    1    2    0    0  0.26100755787E+02 -0.31200695346E+00 -0.34673858987E+02  0.47787270766E+02  0.19999998731E+02 0.  0.
        -12    1    1    2    0    0 -0.26100755787E+02  0.31200695346E+00  0.34673858987E+02  0.43400729234E+02  0.00000000000E+00 0.  1.
         11    1    3    3    0    0  0.80480610899E+01  0.61371297710E+01 -0.71110505112E+01  0.12369425563E+02  0.51100000000E-03 0. -1.
        -11    1    3    3    0    0  0.28263042646E+01  0.13137161383E+01 -0.15845058781E+00  0.31207295201E+01  0.51100000000E-03 0.  1.
         12    1    3    3    0    0  0.15226390432E+02 -0.77628528628E+01 -0.27404357888E+02  0.32297115683E+02  0.00000000000E+00 0. -1.
</event>
<event>
 7    1  0.4592673E-010  0.4778727E+02  0.7816164E-02  0.1312668E+00
        -11   -1    0    0    0    0  0.00000000000E+00  0.00000000000E+00  0.45593999997E+02  0.45594000000E+02  0.51100000000E-03 0. -1.
         11   -1    0    0    0    0 -0.00000000000E+00 -0.00000000000E+00 -0.45593999997E+02  0.45594000000E+02  0.51100000000E-03 0.  1.
    9900012    2    1    2    0    0 -0.39682097795E+02 -0.11503132133E+02 -0.13290312394E+02  0.47787270308E+02  0.19999996643E+02 0.  0.
        -12    1    1    2    0    0  0.39682097795E+02  0.11503132133E+02  0.13290312394E+02  0.43400729692E+02  0.00000000000E+00 0.  1.
         11    1    3    3    0    0 -0.18682242503E+02 -0.81182441467E+01 -0.84466588273E+01  0.22051714640E+02  0.51100000000E-03 0. -1.
        -11    1    3    3    0    0 -0.12413175843E+02 -0.22471550715E+00 -0.93443406675E+01  0.15538794494E+02  0.51100000000E-03 0.  1.
         12    1    3    3    0    0 -0.85866794489E+01 -0.31601724792E+01  0.45006871008E+01  0.10196761174E+02  0.00000000000E+00 0. -1.
</event>
<event>
 7    1  0.4814821E-010  0.4778727E+02  0.7816164E-02  0.1312668E+00
        -11   -1    0    0    0    0  0.00000000000E+00  0.00000000000E+00  0.45593999997E+02  0.45594000000E+02  0.51100000000E-03 0.  1.
         11   -1    0    0    0    0 -0.00000000000E+00 -0.00000000000E+00 -0.45593999997E+02  0.45594000000E+02  0.51100000000E-03 0. -1.
    9900012    2    1    2    0    0 -0.28894985751E+02  0.20848363873E+01 -0.32316502664E+02  0.47787273177E+02  0.20000009723E+02 0.  0.
        -12    1    1    2    0    0  0.28894985751E+02 -0.20848363873E+01  0.32316502664E+02  0.43400726823E+02  0.00000000000E+00 0.  1.
         11    1    3    3    0    0 -0.77250606419E+01  0.54964462858E+01 -0.11903725538E+02  0.15217955370E+02  0.51100000000E-03 0. -1.
        -11    1    3    3    0    0 -0.63838212557E+00 -0.21814039657E+01 -0.85033130911E+01  0.88018400795E+01  0.51100000000E-03 0.  1.
        -12    1    3    3    0    0 -0.20531542984E+02 -0.12302059328E+01 -0.11909464035E+02  0.23767477728E+02  0.00000000000E+00 0.  1.
</event>
<event>
 7    1  0.4592673E-010  0.4778730E+02  0.7816164E-02  0.1312668E+00
        -11   -1    0    0    0    0  0.00000000000E+00  0.00000000000E+00  0.45593999997E+02  0.45594000000E+02  0.51100000000E-03 0.  1.
         11   -1    0    0    0    0 -0.00000000000E+00 -0.00000000000E+00 -0.45593999997E+02  0.45594000000E+02  0.51100000000E-03 0. -1.
    9900012    2    1    2    0    0  0.37654729949E+02  0.14959043073E+02 -0.15555348850E+02  0.47787302597E+02  0.20000143862E+02 0.  0.
        -12    1    1    2    0    0 -0.37654729949E+02 -0.14959043073E+02  0.15555348850E+02  0.43400697403E+02  0.00000000000E+00 0.  1.
         11    1    3    3    0    0  0.24914118345E+02  0.15598810628E+02 -0.73087147153E+01  0.30289494829E+02  0.51100000000E-03 0. -1.
        -11    1    3    3    0    0  0.11030291943E+02  0.29829143958E+01 -0.60994092349E+01  0.12952525310E+02  0.51100000000E-03 0.  1.
        -12    1    3    3    0    0  0.17103196611E+01 -0.36226819507E+01 -0.21472248994E+01  0.45452824585E+01  0.00000000000E+00 0.  1.
</event>
<event>
 7    1  0.4592673E-010  0.4778727E+02  0.7816164E-02  0.1312668E+00
        -11   -1    0    0    0    0  0.00000000000E+00  0.00000000000E+00  0.45593999997E+02  0.45594000000E+02  0.51100000000E-03 0.  1.
         11   -1    0    0    0    0 -0.00000000000E+00 -0.00000000000E+00 -0.45593999997E+02  0.45594000000E+02  0.51100000000E-03 0. -1.
    9900012    2    1    2    0    0 -0.13020410368E+02  0.14155422063E+02 -0.38906511232E+02  0.47787266410E+02  0.19999978869E+02 0.  0.
        -12    1    1    2    0    0  0.13020410368E+02 -0.14155422063E+02  0.38906511232E+02  0.43400733590E+02  0.00000000000E+00 0.  1.
         11    1    3    3    0    0 -0.21547571119E+01  0.81254155594E+01 -0.20674544257E+02  0.22318201915E+02  0.51100000000E-03 0. -1.
        -11    1    3    3    0    0 -0.44759694527E+01  0.85216250069E+01 -0.15152013851E+02  0.17950930876E+02  0.51100000000E-03 0.  1.
        -12    1    3    3    0    0 -0.63896838034E+01 -0.24916185030E+01 -0.30799531233E+01  0.75181336190E+01  0.00000000000E+00 0.  1.
</event>
<event>
 7    1  0.4592673E-010  0.4778726E+02  0.7816164E-02  0.1312668E+00
        -11   -1    0    0    0    0  0.00000000000E+00  0.00000000000E+00  0.45593999997E+02  0.45594000000E+02  0.51100000000E-03 0.  1.
         11   -1    0    0    0    0 -0.00000000000E+00 -0.00000000000E+00 -0.45593999997E+02  0.45594000000E+02  0.51100000000E-03 0. -1.
    9900012    2    1    2    0    0 -0.32792993748E+02 -0.66274943059E+01 -0.27646335251E+02  0.47787262996E+02  0.19999963304E+02 0.  0.
        -12    1    1    2    0    0  0.32792993748E+02  0.66274943059E+01  0.27646335251E+02  0.43400737004E+02  0.00000000000E+00 0.  1.
         11    1    3    3    0    0  0.75205540067E+00  0.15184237748E+01 -0.14030449047E+01  0.21999393972E+01  0.51100000000E-03 0.  1.
        -11    1    3    3    0    0  0.10226383216E+01  0.12658815088E+00 -0.28641956559E+01  0.30439170017E+01  0.51100000000E-03 0. -1.
        -12    1    3    3    0    0 -0.34567687470E+02 -0.82725062316E+01 -0.23379094690E+02  0.42543406597E+02  0.00000000000E+00 0.  1.
</event>
<event>
 7    1  0.4592673E-010  0.4778726E+02  0.7816164E-02  0.1312668E+00
        -11   -1    0    0    0    0  0.00000000000E+00  0.00000000000E+00  0.45593999997E+02  0.45594000000E+02  0.51100000000E-03 0. -1.
         11   -1    0    0    0    0 -0.00000000000E+00 -0.00000000000E+00 -0.45593999997E+02  0.45594000000E+02  0.51100000000E-03 0.  1.
    9900012    2    1    2    0    0 -0.96152593652E+00 -0.38255930965E+02  0.20473961619E+02  0.47787263941E+02  0.19999967611E+02 0.  0.
        -12    1    1    2    0    0  0.96152593652E+00  0.38255930965E+02 -0.20473961619E+02  0.43400736059E+02  0.00000000000E+00 0.  1.
         11    1    3    3    0    0  0.26019567610E+01 -0.74178650667E+01  0.11334507650E+02  0.13793692945E+02  0.51100000000E-03 0. -1.
        -11    1    3    3    0    0  0.97805848771E+00 -0.20496090998E+00 -0.99434959242E+00  0.14097300284E+01  0.51100000000E-03 0.  1.
        -12    1    3    3    0    0 -0.45415411853E+01 -0.30633104988E+02  0.10133803561E+02  0.32583840967E+02  0.00000000000E+00 0.  1.
</event>
<event>
 7    1  0.4592673E-010  0.4778727E+02  0.7816164E-02  0.1312668E+00
        -11   -1    0    0    0    0  0.00000000000E+00  0.00000000000E+00  0.45593999997E+02  0.45594000000E+02  0.51100000000E-03 0.  1.
         11   -1    0    0    0    0 -0.00000000000E+00 -0.00000000000E+00 -0.45593999997E+02  0.45594000000E+02  0.51100000000E-03 0. -1.
    9900012    2    1    2    0    0  0.34018784835E+02  0.10267746970E+02  0.24918245012E+02  0.47787270928E+02  0.19999999470E+02 0.  0.
        -12    1    1    2    0    0 -0.34018784835E+02 -0.10267746970E+02 -0.24918245012E+02  0.43400729072E+02  0.00000000000E+00 0.  1.
         11    1    3    3    0    0  0.23113859873E+02  0.17537087205E+01  0.16835414595E+02  0.28648860315E+02  0.51100000000E-03 0. -1.
        -11    1    3    3    0    0  0.73494814422E+01  0.31532295550E+01  0.96344914813E+01  0.12521228393E+02  0.51100000000E-03 0.  1.
        -12    1    3    3    0    0  0.35554435197E+01  0.53608086945E+01 -0.15516610644E+01  0.66171822205E+01  0.00000000000E+00 0.  1.
</event>
<event>
 7    1  0.4592673E-010  0.4778727E+02  0.7816164E-02  0.1312668E+00
        -11   -1    0    0    0    0  0.00000000000E+00  0.00000000000E+00  0.45593999997E+02  0.45594000000E+02  0.51100000000E-03 0. -1.
         11   -1    0    0    0    0 -0.00000000000E+00 -0.00000000000E+00 -0.45593999997E+02  0.45594000000E+02  0.51100000000E-03 0.  1.
    9900012    2    1    2    0    0 -0.30786773088E+02 -0.27766811025E+02 -0.12837521576E+02  0.47787272450E+02  0.20000006407E+02 0.  0.
        -12    1    1    2    0    0  0.30786773088E+02  0.27766811025E+02  0.12837521576E+02  0.43400727550E+02  0.00000000000E+00 0.  1.
         11    1    3    3    0    0 -0.10630593336E+02 -0.95596341544E+01 -0.97208364069E+01  0.17288458016E+02  0.51100000000E-03 0. -1.
        -11    1    3    3    0    0  0.11270749852E+01 -0.16635336550E+01 -0.29159786972E+01  0.35412673251E+01  0.51100000000E-03 0.  1.
         12    1    3    3    0    0 -0.21283254737E+02 -0.16543643216E+02 -0.20070647161E+00  0.26957547109E+02  0.00000000000E+00 0. -1.
</event>
<event>
 7    1  0.4592673E-010  0.4778727E+02  0.7816164E-02  0.1312668E+00
        -11   -1    0    0    0    0  0.00000000000E+00  0.00000000000E+00  0.45593999997E+02  0.45594000000E+02  0.51100000000E-03 0. -1.
         11   -1    0    0    0    0 -0.00000000000E+00 -0.00000000000E+00 -0.45593999997E+02  0.45594000000E+02  0.51100000000E-03 0.  1.
    9900012    2    1    2    0    0 -0.16392449087E+02  0.36039535901E+02 -0.17778150857E+02  0.47787272092E+02  0.20000004778E+02 0.  0.
        -12    1    1    2    0    0  0.16392449087E+02 -0.36039535901E+02  0.17778150857E+02  0.43400727908E+02  0.00000000000E+00 0.  1.
         11    1    3    3    0    0 -0.35343506223E+01  0.10584742185E+02 -0.73444356926E+01  0.13359234160E+02  0.51100000000E-03 0. -1.
        -11    1    3    3    0    0 -0.10774638054E+02  0.24038123014E+02 -0.29207442158E+01  0.26503866327E+02  0.51100000000E-03 0.  1.
        -12    1    3    3    0    0 -0.20834604108E+01  0.14166707020E+01 -0.75129709484E+01  0.79241716055E+01  0.00000000000E+00 0.  1.
</event>
<event>
 7    1  0.4592673E-010  0.4778727E+02  0.7816164E-02  0.1312668E+00
        -11   -1    0    0    0    0  0.00000000000E+00  0.00000000000E+00  0.45593999997E+02  0.45594000000E+02  0.51100000000E-03 0.  1.
         11   -1    0    0    0    0 -0.00000000000E+00 -0.00000000000E+00 -0.45593999997E+02  0.45594000000E+02  0.51100000000E-03 0. -1.
    9900012    2    1    2    0    0  0.25795675763E+02  0.10253053394E+02 -0.33362875751E+02  0.47787268781E+02  0.19999989679E+02 0.  0.
        -12    1    1    2    0    0 -0.25795675763E+02 -0.10253053394E+02  0.33362875751E+02  0.43400731219E+02  0.00000000000E+00 0.  1.
         11    1    3    3    0    0  0.12257982016E+02  0.32702562508E+00 -0.17516552648E+02  0.21382111350E+02  0.51100000000E-03 0. -1.
        -11    1    3    3    0    0  0.27963199711E+01 -0.28426545973E+01 -0.10985494140E+01  0.41360490345E+01  0.51100000000E-03 0.  1.
         12    1    3    3    0    0  0.10741373777E+02  0.12768682366E+02 -0.14747773689E+02  0.22269108396E+02  0.00000000000E+00 0. -1.
</event>
<event>
 7    1  0.4592673E-010  0.4778728E+02  0.7816164E-02  0.1312668E+00
        -11   -1    0    0    0    0  0.00000000000E+00  0.00000000000E+00  0.45593999997E+02  0.45594000000E+02  0.51100000000E-03 0. -1.
         11   -1    0    0    0    0 -0.00000000000E+00 -0.00000000000E+00 -0.45593999997E+02  0.45594000000E+02  0.51100000000E-03 0.  1.
    9900012    2    1    2    0    0 -0.39858237308E+02 -0.15373959913E+02  0.76540918370E+01  0.47787275967E+02  0.20000022445E+02 0.  0.
        -12    1    1    2    0    0  0.39858237308E+02  0.15373959913E+02 -0.76540918370E+01  0.43400724033E+02  0.00000000000E+00 0.  1.
         11    1    3    3    0    0 -0.60601069128E+00  0.16318939792E+01  0.25454505868E+01  0.30837713710E+01  0.51100000000E-03 0. -1.
        -11    1    3    3    0    0 -0.31227305046E+01 -0.56682196130E+01  0.16545915301E+01  0.66796581333E+01  0.51100000000E-03 0.  1.
         12    1    3    3    0    0 -0.36129496112E+02 -0.11337634279E+02  0.34540497201E+01  0.38023846463E+02  0.00000000000E+00 0. -1.
</event>
<event>
 7    1  0.4592673E-010  0.4778728E+02  0.7816164E-02  0.1312668E+00
        -11   -1    0    0    0    0  0.00000000000E+00  0.00000000000E+00  0.45593999997E+02  0.45594000000E+02  0.51100000000E-03 0.  1.
         11   -1    0    0    0    0 -0.00000000000E+00 -0.00000000000E+00 -0.45593999997E+02  0.45594000000E+02  0.51100000000E-03 0. -1.
    9900012    2    1    2    0    0  0.33634064916E+02  0.73915908326E+01 -0.26414711177E+02  0.47787275301E+02  0.20000019408E+02 0.  0.
        -12    1    1    2    0    0 -0.33634064916E+02 -0.73915908326E+01  0.26414711177E+02  0.43400724699E+02  0.00000000000E+00 0.  1.
         11    1    3    3    0    0  0.13007452104E+02  0.64026979041E+01 -0.37639759502E+01  0.14978513474E+02  0.51100000000E-03 0. -1.
        -11    1    3    3    0    0  0.53969387645E+01 -0.49905548712E+01 -0.63612231111E+01  0.97209950973E+01  0.51100000000E-03 0.  1.
         12    1    3    3    0    0  0.15229674048E+02  0.59794477997E+01 -0.16289512116E+02  0.23087766730E+02  0.00000000000E+00 0. -1.
</event>
<event>
 7    1  0.4592673E-010  0.4778727E+02  0.7816164E-02  0.1312668E+00
        -11   -1    0    0    0    0  0.00000000000E+00  0.00000000000E+00  0.45593999997E+02  0.45594000000E+02  0.51100000000E-03 0.  1.
         11   -1    0    0    0    0 -0.00000000000E+00 -0.00000000000E+00 -0.45593999997E+02  0.45594000000E+02  0.51100000000E-03 0. -1.
    9900012    2    1    2    0    0  0.27656801278E+02 -0.14171000163E+02 -0.30296992792E+02  0.47787266426E+02  0.19999978941E+02 0.  0.
        -12    1    1    2    0    0 -0.27656801278E+02  0.14171000163E+02  0.30296992792E+02  0.43400733574E+02  0.00000000000E+00 0.  1.
         11    1    3    3    0    0  0.12058397864E+02 -0.11825966047E+02 -0.12126630692E+02  0.20792152466E+02  0.51100000000E-03 0. -1.
        -11    1    3    3    0    0 -0.14444183421E+01 -0.95119490909E+00 -0.53514742721E+01  0.56240015334E+01  0.51100000000E-03 0.  1.
         12    1    3    3    0    0  0.17042821757E+02 -0.13938392065E+01 -0.12818887828E+02  0.21371112426E+02  0.00000000000E+00 0. -1.
</event>
<event>
 7    1  0.4592673E-010  0.4778728E+02  0.7816164E-02  0.1312668E+00
        -11   -1    0    0    0    0  0.00000000000E+00  0.00000000000E+00  0.45593999997E+02  0.45594000000E+02  0.51100000000E-03 0. -1.
         11   -1    0    0    0    0 -0.00000000000E+00 -0.00000000000E+00 -0.45593999997E+02  0.45594000000E+02  0.51100000000E-03 0.  1.
    9900012    2    1    2    0    0 -0.34149815186E+02 -0.26289053993E+02  0.51282031911E+01  0.47787277597E+02  0.20000029877E+02 0.  0.
        -12    1    1    2    0    0  0.34149815186E+02  0.26289053993E+02 -0.51282031911E+01  0.43400722403E+02  0.00000000000E+00 0.  1.
         11    1    3    3    0    0  0.87223067340E+00 -0.19827257127E+01  0.88033958854E+00  0.23381586027E+01  0.51100000000E-03 0. -1.
        -11    1    3    3    0    0 -0.19032476867E+02 -0.16561573479E+02  0.94430122480E+01  0.26938659439E+02  0.51100000000E-03 0.  1.
        -12    1    3    3    0    0 -0.15989568993E+02 -0.77447548017E+01 -0.51951486454E+01  0.18510459556E+02  0.00000000000E+00 0.  1.
</event>
<event>
 7    1  0.4592673E-010  0.4778724E+02  0.7816164E-02  0.1312668E+00
        -11   -1    0    0    0    0  0.00000000000E+00  0.00000000000E+00  0.45593999997E+02  0.45594000000E+02  0.51100000000E-03 0.  1.
         11   -1    0    0    0    0 -0.00000000000E+00 -0.00000000000E+00 -0.45593999997E+02  0.45594000000E+02  0.51100000000E-03 0. -1.
    9900012    2    1    2    0    0  0.93677191745E+01 -0.38941646922E+02 -0.16715866867E+02  0.47787236958E+02  0.19999844586E+02 0.  0.
        -12    1    1    2    0    0 -0.93677191745E+01  0.38941646922E+02  0.16715866867E+02  0.43400763042E+02  0.00000000000E+00 0.  1.
         11    1    3    3    0    0  0.34424865280E+01 -0.17077665836E+02 -0.90354831015E+01  0.19624916281E+02  0.51100000000E-03 0. -1.
        -11    1    3    3    0    0  0.80391755508E+01 -0.17848366490E+02 -0.11078697571E+02  0.22492889322E+02  0.51100000000E-03 0.  1.
         12    1    3    3    0    0 -0.21139429042E+01 -0.40156145956E+01  0.33983138046E+01  0.56694313558E+01  0.00000000000E+00 0. -1.
</event>
<event>
 7    1  0.4592673E-010  0.4778727E+02  0.7816164E-02  0.1312668E+00
        -11   -1    0    0    0    0  0.00000000000E+00  0.00000000000E+00  0.45593999997E+02  0.45594000000E+02  0.51100000000E-03 0.  1.
         11   -1    0    0    0    0 -0.00000000000E+00 -0.00000000000E+00 -0.45593999997E+02  0.45594000000E+02  0.51100000000E-03 0. -1.
    9900012    2    1    2    0    0 -0.36534069158E+02  0.17183641501E+02 -0.15925060728E+02  0.47787270702E+02  0.19999998436E+02 0.  0.
        -12    1    1    2    0    0  0.36534069158E+02 -0.17183641501E+02  0.15925060728E+02  0.43400729298E+02  0.00000000000E+00 0.  1.
         11    1    3    3    0    0 -0.17314138413E+02  0.88517031979E+01 -0.19312323119E+01  0.19541281867E+02  0.51100000000E-03 0. -1.
        -11    1    3    3    0    0 -0.14640420127E+02  0.68186540790E+01 -0.32569034936E+01  0.16475538400E+02  0.51100000000E-03 0.  1.
        -12    1    3    3    0    0 -0.45795106175E+01  0.15132842240E+01 -0.10736924923E+02  0.11770450435E+02  0.00000000000E+00 0.  1.
</event>
<event>
 7    1  0.4592673E-010  0.4778727E+02  0.7816164E-02  0.1312668E+00
        -11   -1    0    0    0    0  0.00000000000E+00  0.00000000000E+00  0.45593999997E+02  0.45594000000E+02  0.51100000000E-03 0. -1.
         11   -1    0    0    0    0 -0.00000000000E+00 -0.00000000000E+00 -0.45593999997E+02  0.45594000000E+02  0.51100000000E-03 0.  1.
    9900012    2    1    2    0    0 -0.22937648502E+02 -0.35818501224E+02  0.86326574147E+01  0.47787268177E+02  0.19999986925E+02 0.  0.
        -12    1    1    2    0    0  0.22937648502E+02  0.35818501224E+02 -0.86326574147E+01  0.43400731823E+02  0.00000000000E+00 0.  1.
         11    1    3    3    0    0 -0.58892564111E+01 -0.45146206211E+01  0.17356022612E+01  0.76208566381E+01  0.51100000000E-03 0. -1.
        -11    1    3    3    0    0 -0.11178151141E+02 -0.26552880636E+02  0.11832170458E+02  0.31144932027E+02  0.51100000000E-03 0.  1.
        -12    1    3    3    0    0 -0.58702409498E+01 -0.47509999678E+01 -0.49351153045E+01  0.90214795112E+01  0.00000000000E+00 0.  1.
</event>
<event>
 7    1  0.4592673E-010  0.4778728E+02  0.7816164E-02  0.1312668E+00
        -11   -1    0    0    0    0  0.00000000000E+00  0.00000000000E+00  0.45593999997E+02  0.45594000000E+02  0.51100000000E-03 0.  1.
         11   -1    0    0    0    0 -0.00000000000E+00 -0.00000000000E+00 -0.45593999997E+02  0.45594000000E+02  0.51100000000E-03 0. -1.
    9900012    2    1    2    0    0  0.42715962922E+02 -0.44158611996E+01  0.62824656639E+01  0.47787277733E+02  0.20000030494E+02 0.  0.
        -12    1    1    2    0    0 -0.42715962922E+02  0.44158611996E+01 -0.62824656639E+01  0.43400722267E+02  0.00000000000E+00 0.  1.
         11    1    3    3    0    0  0.67717322727E+01 -0.11773988125E+01  0.12524340248E+01  0.69865025001E+01  0.51100000000E-03 0. -1.
        -11    1    3    3    0    0  0.35706149458E+00  0.24606070659E+00  0.50247422169E+01  0.50434188196E+01  0.51100000000E-03 0.  1.
         12    1    3    3    0    0  0.35587169155E+02 -0.34845230937E+01  0.52894221537E-02  0.35757356413E+02  0.00000000000E+00 0. -1.
</event>
<event>
 7    1  0.4592673E-010  0.4778727E+02  0.7816164E-02  0.1312668E+00
        -11   -1    0    0    0    0  0.00000000000E+00  0.00000000000E+00  0.45593999997E+02  0.45594000000E+02  0.51100000000E-03 0.  1.
         11   -1    0    0    0    0 -0.00000000000E+00 -0.00000000000E+00 -0.45593999997E+02  0.45594000000E+02  0.51100000000E-03 0. -1.
    9900012    2    1    2    0    0 -0.34237361352E+01 -0.19649954460E+02 -0.38545821898E+02  0.47787273448E+02  0.20000010961E+02 0.  0.
        -12    1    1    2    0    0  0.34237361352E+01  0.19649954460E+02  0.38545821898E+02  0.43400726552E+02  0.00000000000E+00 0.  1.
         11    1    3    3    0    0 -0.55349542380E+01 -0.55581595800E+01 -0.82058096737E+01  0.11351835490E+02  0.51100000000E-03 0. -1.
        -11    1    3    3    0    0  0.54134203246E+00 -0.85666113844E+01 -0.39883310173E+01  0.94650233160E+01  0.51100000000E-03 0.  1.
        -12    1    3    3    0    0  0.15698760703E+01 -0.55251834955E+01 -0.26351681207E+02  0.26970414642E+02  0.00000000000E+00 0.  1.
</event>
<event>
 7    1  0.4592673E-010  0.4778727E+02  0.7816164E-02  0.1312668E+00
        -11   -1    0    0    0    0  0.00000000000E+00  0.00000000000E+00  0.45593999997E+02  0.45594000000E+02  0.51100000000E-03 0.  1.
         11   -1    0    0    0    0 -0.00000000000E+00 -0.00000000000E+00 -0.45593999997E+02  0.45594000000E+02  0.51100000000E-03 0. -1.
    9900012    2    1    2    0    0  0.33087617750E+02  0.18729043436E+02  0.20929781442E+02  0.47787271116E+02  0.20000000328E+02 0.  0.
        -12    1    1    2    0    0 -0.33087617750E+02 -0.18729043436E+02 -0.20929781442E+02  0.43400728884E+02  0.00000000000E+00 0.  1.
         11    1    3    3    0    0  0.93336848806E+01  0.66244084866E+01  0.10999546235E+02  0.15874207976E+02  0.51100000000E-03 0. -1.
        -11    1    3    3    0    0 -0.98522401127E+00 -0.15767130882E+01  0.15676507236E+01  0.24319168504E+01  0.51100000000E-03 0.  1.
         12    1    3    3    0    0  0.24739156881E+02  0.13681348037E+02  0.83625844841E+01  0.29481146290E+02  0.00000000000E+00 0. -1.
</event>
<event>
 7    1  0.4592673E-010  0.4778726E+02  0.7816164E-02  0.1312668E+00
        -11   -1    0    0    0    0  0.00000000000E+00  0.00000000000E+00  0.45593999997E+02  0.45594000000E+02  0.51100000000E-03 0. -1.
         11   -1    0    0    0    0 -0.00000000000E+00 -0.00000000000E+00 -0.45593999997E+02  0.45594000000E+02  0.51100000000E-03 0.  1.
    9900012    2    1    2    0    0  0.28515268990E+02  0.27667384483E+02  0.17464798968E+02  0.47787263455E+02  0.19999965396E+02 0.  0.
        -12    1    1    2    0    0 -0.28515268990E+02 -0.27667384483E+02 -0.17464798968E+02  0.43400736545E+02  0.00000000000E+00 0.  1.
         11    1    3    3    0    0  0.13669104460E+01  0.68541153224E+01  0.26734425844E+01  0.74829564033E+01  0.51100000000E-03 0. -1.
        -11    1    3    3    0    0  0.55426689134E+01  0.23865765846E+01 -0.30568119349E+01  0.67646896414E+01  0.51100000000E-03 0.  1.
         12    1    3    3    0    0  0.21605689630E+02  0.18426692576E+02  0.17848168319E+02  0.33539617410E+02  0.00000000000E+00 0. -1.
</event>
<event>
 7    1  0.4592673E-010  0.4778727E+02  0.7816164E-02  0.1312668E+00
        -11   -1    0    0    0    0  0.00000000000E+00  0.00000000000E+00  0.45593999997E+02  0.45594000000E+02  0.51100000000E-03 0.  1.
         11   -1    0    0    0    0 -0.00000000000E+00 -0.00000000000E+00 -0.45593999997E+02  0.45594000000E+02  0.51100000000E-03 0. -1.
    9900012    2    1    2    0    0 -0.25251144879E+01  0.23264453508E+02 -0.36551501372E+02  0.47787271288E+02  0.20000001111E+02 0.  0.
        -12    1    1    2    0    0  0.25251144879E+01 -0.23264453508E+02  0.36551501372E+02  0.43400728712E+02  0.00000000000E+00 0.  1.
         11    1    3    3    0    0 -0.19814182687E+00  0.58315266414E+01 -0.23687691954E+02  0.24395751957E+02  0.51100000000E-03 0. -1.
        -11    1    3    3    0    0 -0.23288646091E+01  0.23821954057E+00 -0.14632251610E+01  0.27606859745E+01  0.51100000000E-03 0.  1.
        -12    1    3    3    0    0  0.18919480938E-02  0.17194707326E+02 -0.11400584256E+02  0.20630833357E+02  0.00000000000E+00 0.  1.
</event>
<event>
 7    1  0.4592673E-010  0.4778727E+02  0.7816164E-02  0.1312668E+00
        -11   -1    0    0    0    0  0.00000000000E+00  0.00000000000E+00  0.45593999997E+02  0.45594000000E+02  0.51100000000E-03 0.  1.
         11   -1    0    0    0    0 -0.00000000000E+00 -0.00000000000E+00 -0.45593999997E+02  0.45594000000E+02  0.51100000000E-03 0. -1.
    9900012    2    1    2    0    0  0.35253492975E+02 -0.25035788700E+02  0.37448987423E+01  0.47787265567E+02  0.19999975024E+02 0.  0.
        -12    1    1    2    0    0 -0.35253492975E+02  0.25035788700E+02 -0.37448987423E+01  0.43400734433E+02  0.00000000000E+00 0.  1.
         11    1    3    3    0    0  0.27481528398E+02 -0.19466889245E+02  0.15169196331E+01  0.33711944847E+02  0.51100000000E-03 0. -1.
        -11    1    3    3    0    0  0.67928140997E+01 -0.75896674210E+01  0.42660345644E+01  0.11042845019E+02  0.51100000000E-03 0.  1.
        -12    1    3    3    0    0  0.97915047792E+00  0.20207679665E+01 -0.20380554551E+01  0.30324757000E+01  0.00000000000E+00 0.  1.
</event>
<event>
 7    1  0.4592673E-010  0.4778727E+02  0.7816164E-02  0.1312668E+00
        -11   -1    0    0    0    0  0.00000000000E+00  0.00000000000E+00  0.45593999997E+02  0.45594000000E+02  0.51100000000E-03 0. -1.
         11   -1    0    0    0    0 -0.00000000000E+00 -0.00000000000E+00 -0.45593999997E+02  0.45594000000E+02  0.51100000000E-03 0.  1.
    9900012    2    1    2    0    0  0.38459842653E+02  0.19770128813E+02  0.36885709021E+01  0.47787273676E+02  0.20000011998E+02 0.  0.
        -12    1    1    2    0    0 -0.38459842653E+02 -0.19770128813E+02 -0.36885709021E+01  0.43400726324E+02  0.00000000000E+00 0.  1.
         11    1    3    3    0    0  0.13651653899E+02  0.54013548125E+01  0.47297258065E+01  0.15424415530E+02  0.51100000000E-03 0. -1.
        -11    1    3    3    0    0  0.18303133005E+01  0.43560087982E+00  0.45424582112E+01  0.49166779197E+01  0.51100000000E-03 0.  1.
        -12    1    3    3    0    0  0.22977875454E+02  0.13933173120E+02 -0.55836131156E+01  0.27446180226E+02  0.00000000000E+00 0.  1.
</event>
<event>
 7    1  0.5434404E-010  0.4778727E+02  0.7816164E-02  0.1312668E+00
        -11   -1    0    0    0    0  0.00000000000E+00  0.00000000000E+00  0.45593999997E+02  0.45594000000E+02  0.51100000000E-03 0.  1.
         11   -1    0    0    0    0 -0.00000000000E+00 -0.00000000000E+00 -0.45593999997E+02  0.45594000000E+02  0.51100000000E-03 0. -1.
    9900012    2    1    2    0    0 -0.35018844560E+02 -0.12744923246E+02 -0.22245691564E+02  0.47787270328E+02  0.19999996734E+02 0.  0.
        -12    1    1    2    0    0  0.35018844560E+02  0.12744923246E+02  0.22245691564E+02  0.43400729672E+02  0.00000000000E+00 0.  1.
         11    1    3    3    0    0 -0.12613395983E+02 -0.24657388535E+01 -0.12955707939E+02  0.18249054627E+02  0.51100000000E-03 0. -1.
        -11    1    3    3    0    0 -0.18211032046E+02 -0.12598711926E+02 -0.10626948639E+02  0.24562191841E+02  0.51100000000E-03 0.  1.
        -12    1    3    3    0    0 -0.41944165313E+01  0.23195275336E+01  0.13369650134E+01  0.49760238609E+01  0.00000000000E+00 0.  1.
</event>
<event>
 7    1  0.4592673E-010  0.4778728E+02  0.7816164E-02  0.1312668E+00
        -11   -1    0    0    0    0  0.00000000000E+00  0.00000000000E+00  0.45593999997E+02  0.45594000000E+02  0.51100000000E-03 0. -1.
         11   -1    0    0    0    0 -0.00000000000E+00 -0.00000000000E+00 -0.45593999997E+02  0.45594000000E+02  0.51100000000E-03 0.  1.
    9900012    2    1    2    0    0  0.79499465332E+01  0.42571862271E+02 -0.28386143907E+01  0.47787276057E+02  0.20000022855E+02 0.  0.
        -12    1    1    2    0    0 -0.79499465332E+01 -0.42571862271E+02  0.28386143907E+01  0.43400723943E+02  0.00000000000E+00 0.  1.
         11    1    3    3    0    0  0.27853301409E+01  0.14925648397E+02  0.13754547888E+01  0.15245488520E+02  0.51100000000E-03 0. -1.
        -11    1    3    3    0    0  0.78372971281E+01  0.22569078212E+02  0.21324953907E+01  0.23986122123E+02  0.51100000000E-03 0.  1.
        -12    1    3    3    0    0 -0.26726807358E+01  0.50771356612E+01 -0.63465645703E+01  0.85556654144E+01  0.00000000000E+00 0.  1.
</event>
<event>
 7    1  0.4592673E-010  0.4778727E+02  0.7816164E-02  0.1312668E+00
        -11   -1    0    0    0    0  0.00000000000E+00  0.00000000000E+00  0.45593999997E+02  0.45594000000E+02  0.51100000000E-03 0. -1.
         11   -1    0    0    0    0 -0.00000000000E+00 -0.00000000000E+00 -0.45593999997E+02  0.45594000000E+02  0.51100000000E-03 0.  1.
    9900012    2    1    2    0    0  0.17030236644E+02 -0.35622374740E+02  0.18017799551E+02  0.47787266793E+02  0.19999980617E+02 0.  0.
        -12    1    1    2    0    0 -0.17030236644E+02  0.35622374740E+02 -0.18017799551E+02  0.43400733207E+02  0.00000000000E+00 0.  1.
         11    1    3    3    0    0  0.51018410296E+01 -0.92799937061E+01  0.54297757027E+01  0.11900820540E+02  0.51100000000E-03 0. -1.
        -11    1    3    3    0    0  0.21186732345E+01  0.14777283006E+01  0.46805479500E+01  0.53460253066E+01  0.51100000000E-03 0.  1.
        -12    1    3    3    0    0  0.98097223794E+01 -0.27820109334E+02  0.79074758985E+01  0.30540420947E+02  0.00000000000E+00 0.  1.
</event>
<event>
 7    1  0.4592673E-010  0.4778727E+02  0.7816164E-02  0.1312668E+00
        -11   -1    0    0    0    0  0.00000000000E+00  0.00000000000E+00  0.45593999997E+02  0.45594000000E+02  0.51100000000E-03 0. -1.
         11   -1    0    0    0    0 -0.00000000000E+00 -0.00000000000E+00 -0.45593999997E+02  0.45594000000E+02  0.51100000000E-03 0.  1.
    9900012    2    1    2    0    0  0.41257759921E+02  0.12712076727E+02  0.44524200005E+01  0.47787266225E+02  0.19999978024E+02 0.  0.
        -12    1    1    2    0    0 -0.41257759921E+02 -0.12712076727E+02 -0.44524200005E+01  0.43400733775E+02  0.00000000000E+00 0.  1.
         11    1    3    3    0    0  0.24506814077E+02  0.24312498982E+01  0.73622881758E+00  0.24638119762E+02  0.51100000000E-03 0. -1.
        -11    1    3    3    0    0  0.22208637632E+01 -0.25530581878E+01 -0.12386682694E+00  0.33861017730E+01  0.51100000000E-03 0.  1.
        -12    1    3    3    0    0  0.14530082081E+02  0.12833885017E+02  0.38400580099E+01  0.19763044690E+02  0.00000000000E+00 0.  1.
</event>
<event>
 7    1  0.4592673E-010  0.4778727E+02  0.7816164E-02  0.1312668E+00
        -11   -1    0    0    0    0  0.00000000000E+00  0.00000000000E+00  0.45593999997E+02  0.45594000000E+02  0.51100000000E-03 0.  1.
         11   -1    0    0    0    0 -0.00000000000E+00 -0.00000000000E+00 -0.45593999997E+02  0.45594000000E+02  0.51100000000E-03 0. -1.
    9900012    2    1    2    0    0  0.97851350909E+01  0.40058484406E+02 -0.13534871290E+02  0.47787265185E+02  0.19999973283E+02 0.  0.
        -12    1    1    2    0    0 -0.97851350909E+01 -0.40058484406E+02  0.13534871290E+02  0.43400734815E+02  0.00000000000E+00 0.  1.
         11    1    3    3    0    0  0.70281496587E+00  0.95531495416E+01 -0.55882393102E+01  0.11089861762E+02  0.51100000000E-03 0. -1.
        -11    1    3    3    0    0  0.13159308345E+02  0.16996199397E+02 -0.67768835297E+01  0.22538064262E+02  0.51100000000E-03 0.  1.
        -12    1    3    3    0    0 -0.40769882203E+01  0.13509135468E+02 -0.11697484504E+01  0.14159339161E+02  0.00000000000E+00 0.  1.
</event>
<event>
 7    1  0.4592673E-010  0.4778729E+02  0.7816164E-02  0.1312668E+00
        -11   -1    0    0    0    0  0.00000000000E+00  0.00000000000E+00  0.45593999997E+02  0.45594000000E+02  0.51100000000E-03 0.  1.
         11   -1    0    0    0    0 -0.00000000000E+00 -0.00000000000E+00 -0.45593999997E+02  0.45594000000E+02  0.51100000000E-03 0. -1.
    9900012    2    1    2    0    0  0.13034755229E+02  0.39853776912E+02 -0.11197895567E+02  0.47787294440E+02  0.20000106669E+02 0.  0.
        -12    1    1    2    0    0 -0.13034755229E+02 -0.39853776912E+02  0.11197895567E+02  0.43400705560E+02  0.00000000000E+00 0.  1.
         11    1    3    3    0    0  0.59624447761E+01  0.11405909129E+02 -0.51168559772E-01  0.12870436249E+02  0.51100000000E-03 0. -1.
        -11    1    3    3    0    0  0.10851685824E+02  0.13580144505E+02 -0.33292126036E+01  0.17699239160E+02  0.51100000000E-03 0.  1.
         12    1    3    3    0    0 -0.37793753711E+01  0.14867723278E+02 -0.78175144032E+01  0.17217619031E+02  0.00000000000E+00 0. -1.
</event>
<event>
 7    1  0.4592673E-010  0.4778727E+02  0.7816164E-02  0.1312668E+00
        -11   -1    0    0    0    0  0.00000000000E+00  0.00000000000E+00  0.45593999997E+02  0.45594000000E+02  0.51100000000E-03 0.  1.
         11   -1    0    0    0    0 -0.00000000000E+00 -0.00000000000E+00 -0.45593999997E+02  0.45594000000E+02  0.51100000000E-03 0. -1.
    9900012    2    1    2    0    0 -0.31686286141E+02 -0.13289428849E+02 -0.26514029753E+02  0.47787269334E+02  0.19999992203E+02 0.  0.
        -12    1    1    2    0    0  0.31686286141E+02  0.13289428849E+02  0.26514029753E+02  0.43400730666E+02  0.00000000000E+00 0.  1.
         11    1    3    3    0    0 -0.27468617049E+02 -0.61458337824E+01 -0.14968298018E+02  0.31880184148E+02  0.51100000000E-03 0. -1.
        -11    1    3    3    0    0 -0.26726951257E+01 -0.85848480586E+00 -0.16171316796E+00  0.28118404661E+01  0.51100000000E-03 0.  1.
        -12    1    3    3    0    0 -0.15449739662E+01 -0.62851102612E+01 -0.11384018567E+02  0.13095244720E+02  0.00000000000E+00 0.  1.
</event>
<event>
 7    1  0.4592673E-010  0.4778728E+02  0.7816164E-02  0.1312668E+00
        -11   -1    0    0    0    0  0.00000000000E+00  0.00000000000E+00  0.45593999997E+02  0.45594000000E+02  0.51100000000E-03 0.  1.
         11   -1    0    0    0    0 -0.00000000000E+00 -0.00000000000E+00 -0.45593999997E+02  0.45594000000E+02  0.51100000000E-03 0. -1.
    9900012    2    1    2    0    0  0.65575824748E+01  0.63200296792E+01 -0.42434397946E+02  0.47787276595E+02  0.20000025305E+02 0.  0.
        -12    1    1    2    0    0 -0.65575824748E+01 -0.63200296792E+01  0.42434397946E+02  0.43400723405E+02  0.00000000000E+00 0.  1.
         11    1    3    3    0    0  0.16192284402E+01 -0.21293485122E+01 -0.21853122710E+02  0.22016243964E+02  0.51100000000E-03 0. -1.
        -11    1    3    3    0    0  0.40917467067E+00 -0.22881295859E+01 -0.25149930920E+00  0.23379933868E+01  0.51100000000E-03 0.  1.
         12    1    3    3    0    0  0.45291793638E+01  0.10737507777E+02 -0.20329775927E+02  0.23433039244E+02  0.00000000000E+00 0. -1.
</event>
<event>
 7    1  0.4592673E-010  0.4778727E+02  0.7816164E-02  0.1312668E+00
        -11   -1    0    0    0    0  0.00000000000E+00  0.00000000000E+00  0.45593999997E+02  0.45594000000E+02  0.51100000000E-03 0.  1.
         11   -1    0    0    0    0 -0.00000000000E+00 -0.00000000000E+00 -0.45593999997E+02  0.45594000000E+02  0.51100000000E-03 0. -1.
    9900012    2    1    2    0    0 -0.27819925326E+02  0.31885715031E+02 -0.96424245414E+01  0.47787269370E+02  0.19999992366E+02 0.  0.
        -12    1    1    2    0    0  0.27819925326E+02 -0.31885715031E+02  0.96424245414E+01  0.43400730630E+02  0.00000000000E+00 0.  1.
         11    1    3    3    0    0 -0.58372646904E+01  0.39015191227E+01 -0.44288552719E+01  0.83012209831E+01  0.51100000000E-03 0. -1.
        -11    1    3    3    0    0 -0.19187727790E+02  0.12536754931E+02  0.76557901577E-01  0.22920405392E+02  0.51100000000E-03 0.  1.
         12    1    3    3    0    0 -0.27949328451E+01  0.15447440977E+02 -0.52901271711E+01  0.16565642995E+02  0.00000000000E+00 0. -1.
</event>
<event>
 7    1  0.4592673E-010  0.4778732E+02  0.7816164E-02  0.1312668E+00
        -11   -1    0    0    0    0  0.00000000000E+00  0.00000000000E+00  0.45593999997E+02  0.45594000000E+02  0.51100000000E-03 0.  1.
         11   -1    0    0    0    0 -0.00000000000E+00 -0.00000000000E+00 -0.45593999997E+02  0.45594000000E+02  0.51100000000E-03 0. -1.
    9900012    2    1    2    0    0 -0.13494903609E+02 -0.31207959919E+02 -0.26973507804E+02  0.47787316723E+02  0.20000208264E+02 0.  0.
        -12    1    1    2    0    0  0.13494903609E+02  0.31207959919E+02  0.26973507804E+02  0.43400683277E+02  0.00000000000E+00 0.  1.
         11    1    3    3    0    0 -0.17755626214E+02 -0.21820625355E+02 -0.17777340934E+02  0.33278158063E+02  0.51100000000E-03 0. -1.
        -11    1    3    3    0    0  0.20556094677E+01 -0.27245101822E+01 -0.57591642215E+01  0.66945096018E+01  0.51100000000E-03 0.  1.
         12    1    3    3    0    0  0.22051131376E+01 -0.66628243820E+01 -0.34370026488E+01  0.78146490582E+01  0.00000000000E+00 0. -1.
</event>
<event>
 7    1  0.4592673E-010  0.4778727E+02  0.7816164E-02  0.1312668E+00
        -11   -1    0    0    0    0  0.00000000000E+00  0.00000000000E+00  0.45593999997E+02  0.45594000000E+02  0.51100000000E-03 0.  1.
         11   -1    0    0    0    0 -0.00000000000E+00 -0.00000000000E+00 -0.45593999997E+02  0.45594000000E+02  0.51100000000E-03 0. -1.
    9900012    2    1    2    0    0 -0.19318802640E+02 -0.28682164657E+02 -0.26224807654E+02  0.47787271420E+02  0.20000001711E+02 0.  0.
        -12    1    1    2    0    0  0.19318802640E+02  0.28682164657E+02  0.26224807654E+02  0.43400728580E+02  0.00000000000E+00 0.  1.
         11    1    3    3    0    0 -0.65217073599E+00 -0.53159856712E+01 -0.23946687951E+01  0.58668108223E+01  0.51100000000E-03 0.  1.
        -11    1    3    3    0    0 -0.19888924792E+02 -0.24027679125E+02 -0.18181894206E+02  0.36103739013E+02  0.51100000000E-03 0. -1.
         12    1    3    3    0    0  0.12222928881E+01  0.66150013946E+00 -0.56482446526E+01  0.58167215848E+01  0.00000000000E+00 0. -1.
</event>
<event>
 7    1  0.4592673E-010  0.4778728E+02  0.7816164E-02  0.1312668E+00
        -11   -1    0    0    0    0  0.00000000000E+00  0.00000000000E+00  0.45593999997E+02  0.45594000000E+02  0.51100000000E-03 0.  1.
         11   -1    0    0    0    0 -0.00000000000E+00 -0.00000000000E+00 -0.45593999997E+02  0.45594000000E+02  0.51100000000E-03 0. -1.
    9900012    2    1    2    0    0  0.25109942004E+02 -0.19406178848E+02 -0.29605975680E+02  0.47787276955E+02  0.20000026947E+02 0.  0.
        -12    1    1    2    0    0 -0.25109942004E+02  0.19406178848E+02  0.29605975680E+02  0.43400723045E+02  0.00000000000E+00 0.  1.
         11    1    3    3    0    0 -0.41086449026E+00  0.65383596627E+00 -0.82977326939E+00  0.11335056417E+01  0.51100000000E-03 0. -1.
        -11    1    3    3    0    0  0.83138801197E+01 -0.10697299163E+02 -0.22167440984E+02  0.25979766205E+02  0.51100000000E-03 0.  1.
         12    1    3    3    0    0  0.17206926374E+02 -0.93627156514E+01 -0.66087614262E+01  0.20674005108E+02  0.00000000000E+00 0. -1.
</event>
<event>
 7    1  0.4592673E-010  0.4778728E+02  0.7816164E-02  0.1312668E+00
        -11   -1    0    0    0    0  0.00000000000E+00  0.00000000000E+00  0.45593999997E+02  0.45594000000E+02  0.51100000000E-03 0.  1.
         11   -1    0    0    0    0 -0.00000000000E+00 -0.00000000000E+00 -0.45593999997E+02  0.45594000000E+02  0.51100000000E-03 0. -1.
    9900012    2    1    2    0    0  0.65920135908E+01  0.36864460549E+02 -0.21935795157E+02  0.47787283371E+02  0.20000056202E+02 0.  0.
        -12    1    1    2    0    0 -0.65920135908E+01 -0.36864460549E+02  0.21935795157E+02  0.43400716629E+02  0.00000000000E+00 0.  1.
         11    1    3    3    0    0  0.62815864438E+01  0.12592099764E+02 -0.30482932948E+01  0.14398312297E+02  0.51100000000E-03 0.  1.
        -11    1    3    3    0    0  0.96588942200E+00  0.89153254936E+01  0.89289378134E-01  0.89679397794E+01  0.51100000000E-03 0. -1.
        -12    1    3    3    0    0 -0.65546227495E+00  0.15357035291E+02 -0.18976791240E+02  0.24421031295E+02  0.00000000000E+00 0.  1.
</event>
<event>
 7    1  0.4592673E-010  0.4778726E+02  0.7816164E-02  0.1312668E+00
        -11   -1    0    0    0    0  0.00000000000E+00  0.00000000000E+00  0.45593999997E+02  0.45594000000E+02  0.51100000000E-03 0.  1.
         11   -1    0    0    0    0 -0.00000000000E+00 -0.00000000000E+00 -0.45593999997E+02  0.45594000000E+02  0.51100000000E-03 0. -1.
    9900012    2    1    2    0    0  0.23209566999E+02 -0.77037560564E+01 -0.35855152334E+02  0.47787264908E+02  0.19999972020E+02 0.  0.
        -12    1    1    2    0    0 -0.23209566999E+02  0.77037560564E+01  0.35855152334E+02  0.43400735092E+02  0.00000000000E+00 0.  1.
         11    1    3    3    0    0  0.47269508173E+01  0.26090350066E+01 -0.40632386471E+01  0.67572950401E+01  0.51100000000E-03 0. -1.
        -11    1    3    3    0    0  0.10228085022E+02 -0.42749110999E+01 -0.46428589065E+01  0.12018516016E+02  0.51100000000E-03 0.  1.
        -12    1    3    3    0    0  0.82545311594E+01 -0.60378799632E+01 -0.27149054781E+02  0.29011453852E+02  0.00000000000E+00 0.  1.
</event>
<event>
 7    1  0.4592673E-010  0.4778726E+02  0.7816164E-02  0.1312668E+00
        -11   -1    0    0    0    0  0.00000000000E+00  0.00000000000E+00  0.45593999997E+02  0.45594000000E+02  0.51100000000E-03 0.  1.
         11   -1    0    0    0    0 -0.00000000000E+00 -0.00000000000E+00 -0.45593999997E+02  0.45594000000E+02  0.51100000000E-03 0. -1.
    9900012    2    1    2    0    0 -0.22940730665E+02  0.36702581985E+02 -0.32043686052E+01  0.47787255467E+02  0.19999928978E+02 0.  0.
        -12    1    1    2    0    0  0.22940730665E+02 -0.36702581985E+02  0.32043686052E+01  0.43400744533E+02  0.00000000000E+00 0.  1.
         11    1    3    3    0    0 -0.86220943101E+01  0.97401172051E+01 -0.80071456584E+01  0.15274972187E+02  0.51100000000E-03 0. -1.
        -11    1    3    3    0    0 -0.14810827039E+01 -0.68505755147E+00  0.61263520083E+00  0.17430524878E+01  0.51100000000E-03 0.  1.
        -12    1    3    3    0    0 -0.12837553651E+02  0.27647522331E+02  0.41901418524E+01  0.30769230792E+02  0.00000000000E+00 0.  1.
</event>
<event>
 7    1  0.4592673E-010  0.4778727E+02  0.7816164E-02  0.1312668E+00
        -11   -1    0    0    0    0  0.00000000000E+00  0.00000000000E+00  0.45593999997E+02  0.45594000000E+02  0.51100000000E-03 0. -1.
         11   -1    0    0    0    0 -0.00000000000E+00 -0.00000000000E+00 -0.45593999997E+02  0.45594000000E+02  0.51100000000E-03 0.  1.
    9900012    2    1    2    0    0  0.39506426181E+02  0.40392098342E+01 -0.17508579702E+02  0.47787270872E+02  0.19999999213E+02 0.  0.
        -12    1    1    2    0    0 -0.39506426181E+02 -0.40392098342E+01  0.17508579702E+02  0.43400729128E+02  0.00000000000E+00 0.  1.
         11    1    3    3    0    0  0.14959285929E+02  0.54369445587E+01 -0.12497132708E+01  0.15965662691E+02  0.51100000000E-03 0. -1.
        -11    1    3    3    0    0  0.10030583407E+02  0.42882606507E+01 -0.28924744213E+01  0.11285751700E+02  0.51100000000E-03 0.  1.
        -12    1    3    3    0    0  0.14516556844E+02 -0.56859953751E+01 -0.13366392010E+02  0.20535856481E+02  0.00000000000E+00 0.  1.
</event>
<event>
 7    1  0.4592673E-010  0.4778726E+02  0.7816164E-02  0.1312668E+00
        -11   -1    0    0    0    0  0.00000000000E+00  0.00000000000E+00  0.45593999997E+02  0.45594000000E+02  0.51100000000E-03 0.  1.
         11   -1    0    0    0    0 -0.00000000000E+00 -0.00000000000E+00 -0.45593999997E+02  0.45594000000E+02  0.51100000000E-03 0. -1.
    9900012    2    1    2    0    0  0.28791304274E+01 -0.38351698057E+02 -0.20111742731E+02  0.47787258859E+02  0.19999944443E+02 0.  0.
        -12    1    1    2    0    0 -0.28791304274E+01  0.38351698057E+02  0.20111742731E+02  0.43400741141E+02  0.00000000000E+00 0.  1.
         11    1    3    3    0    0 -0.23369468133E+01 -0.41384861265E+01 -0.65843454172E+01  0.81204675150E+01  0.51100000000E-03 0. -1.
        -11    1    3    3    0    0 -0.31246311727E+01 -0.15081947016E+02 -0.12496524789E+01  0.15452833958E+02  0.51100000000E-03 0.  1.
         12    1    3    3    0    0  0.83407084135E+01 -0.19131264915E+02 -0.12277744835E+02  0.24213957386E+02  0.00000000000E+00 0. -1.
</event>
<event>
 7    1  0.4592673E-010  0.4778727E+02  0.7816164E-02  0.1312668E+00
        -11   -1    0    0    0    0  0.00000000000E+00  0.00000000000E+00  0.45593999997E+02  0.45594000000E+02  0.51100000000E-03 0. -1.
         11   -1    0    0    0    0 -0.00000000000E+00 -0.00000000000E+00 -0.45593999997E+02  0.45594000000E+02  0.51100000000E-03 0.  1.
    9900012    2    1    2    0    0 -0.32440012023E+02 -0.28732639808E+02  0.23883702078E+01  0.47787270943E+02  0.19999999538E+02 0.  0.
        -12    1    1    2    0    0  0.32440012023E+02  0.28732639808E+02 -0.23883702078E+01  0.43400729057E+02  0.00000000000E+00 0.  1.
         11    1    3    3    0    0 -0.15937645681E+02 -0.11709995395E+02  0.82546183079E+01  0.21430615150E+02  0.51100000000E-03 0. -1.
        -11    1    3    3    0    0 -0.14114324832E+02 -0.97308462453E+01 -0.80034660520E+00  0.17162286825E+02  0.51100000000E-03 0.  1.
        -12    1    3    3    0    0 -0.23880415100E+01 -0.72917981677E+01 -0.50659014949E+01  0.91943689685E+01  0.00000000000E+00 0.  1.
</event>
<event>
 7    1  0.4592673E-010  0.4778727E+02  0.7816164E-02  0.1312668E+00
        -11   -1    0    0    0    0  0.00000000000E+00  0.00000000000E+00  0.45593999997E+02  0.45594000000E+02  0.51100000000E-03 0.  1.
         11   -1    0    0    0    0 -0.00000000000E+00 -0.00000000000E+00 -0.45593999997E+02  0.45594000000E+02  0.51100000000E-03 0. -1.
    9900012    2    1    2    0    0 -0.22622276228E+02  0.18704515750E+02 -0.31968684808E+02  0.47787273053E+02  0.20000009159E+02 0.  0.
        -12    1    1    2    0    0  0.22622276228E+02 -0.18704515750E+02  0.31968684808E+02  0.43400726947E+02  0.00000000000E+00 0.  1.
         11    1    3    3    0    0 -0.78965208614E+01  0.14988299399E+02 -0.14622232691E+02  0.22378870609E+02  0.51100000000E-03 0. -1.
        -11    1    3    3    0    0 -0.70578417437E+01 -0.41018293518E+00 -0.13529129227E+01  0.71980381881E+01  0.51100000000E-03 0.  1.
        -12    1    3    3    0    0 -0.76679136228E+01  0.41263992856E+01 -0.15993539194E+02  0.18210364256E+02  0.00000000000E+00 0.  1.
</event>
<event>
 7    1  0.4592673E-010  0.4778727E+02  0.7816164E-02  0.1312668E+00
        -11   -1    0    0    0    0  0.00000000000E+00  0.00000000000E+00  0.45593999997E+02  0.45594000000E+02  0.51100000000E-03 0.  1.
         11   -1    0    0    0    0 -0.00000000000E+00 -0.00000000000E+00 -0.45593999997E+02  0.45594000000E+02  0.51100000000E-03 0. -1.
    9900012    2    1    2    0    0  0.41352625403E+02  0.59220919437E-01 -0.13174982067E+02  0.47787270889E+02  0.19999999293E+02 0.  0.
        -12    1    1    2    0    0 -0.41352625403E+02 -0.59220919437E-01  0.13174982067E+02  0.43400729111E+02  0.00000000000E+00 0.  1.
         11    1    3    3    0    0  0.15468265670E+01  0.11861486898E+00  0.20814961284E+01  0.25960293352E+01  0.51100000000E-03 0. -1.
        -11    1    3    3    0    0  0.30548926983E+02  0.26781647795E+00 -0.43114728252E+01  0.30852835585E+02  0.51100000000E-03 0.  1.
         12    1    3    3    0    0  0.92568718537E+01 -0.32721042750E+00 -0.10945005370E+02  0.14338405969E+02  0.00000000000E+00 0. -1.
</event>
<event>
 7    1  0.4592673E-010  0.4778730E+02  0.7816164E-02  0.1312668E+00
        -11   -1    0    0    0    0  0.00000000000E+00  0.00000000000E+00  0.45593999997E+02  0.45594000000E+02  0.51100000000E-03 0. -1.
         11   -1    0    0    0    0 -0.00000000000E+00 -0.00000000000E+00 -0.45593999997E+02  0.45594000000E+02  0.51100000000E-03 0.  1.
    9900012    2    1    2    0    0 -0.38108200868E+02 -0.13280910499E+02  0.15968826209E+02  0.47787297614E+02  0.20000121142E+02 0.  0.
        -12    1    1    2    0    0  0.38108200868E+02  0.13280910499E+02 -0.15968826209E+02  0.43400702386E+02  0.00000000000E+00 0.  1.
         11    1    3    3    0    0 -0.10297409633E+02  0.38789151122E+01  0.67943878649E+01  0.12932375432E+02  0.51100000000E-03 0. -1.
        -11    1    3    3    0    0 -0.13180192976E+02 -0.42682914770E+01  0.16431895362E+01  0.13951196046E+02  0.51100000000E-03 0.  1.
        -12    1    3    3    0    0 -0.14630598260E+02 -0.12891534134E+02  0.75312488080E+01  0.20903726136E+02  0.00000000000E+00 0.  1.
</event>
<event>
 7    1  0.4592673E-010  0.4778727E+02  0.7816164E-02  0.1312668E+00
        -11   -1    0    0    0    0  0.00000000000E+00  0.00000000000E+00  0.45593999997E+02  0.45594000000E+02  0.51100000000E-03 0.  1.
         11   -1    0    0    0    0 -0.00000000000E+00 -0.00000000000E+00 -0.45593999997E+02  0.45594000000E+02  0.51100000000E-03 0. -1.
    9900012    2    1    2    0    0  0.18316778817E+02 -0.20920742239E+02 -0.33323283518E+02  0.47787273434E+02  0.20000010895E+02 0.  0.
        -12    1    1    2    0    0 -0.18316778817E+02  0.20920742239E+02  0.33323283518E+02  0.43400726566E+02  0.00000000000E+00 0.  1.
         11    1    3    3    0    0 -0.12719193752E+01  0.76229166845E+00 -0.40672263934E+01  0.43291105647E+01  0.51100000000E-03 0. -1.
        -11    1    3    3    0    0  0.49587248382E+01 -0.67696677704E+01 -0.11977546239E+01  0.84765541432E+01  0.51100000000E-03 0.  1.
         12    1    3    3    0    0  0.14629973354E+02 -0.14913366137E+02 -0.28058302500E+02  0.34981608726E+02  0.00000000000E+00 0. -1.
</event>
<event>
 7    1  0.4592673E-010  0.4778728E+02  0.7816164E-02  0.1312668E+00
        -11   -1    0    0    0    0  0.00000000000E+00  0.00000000000E+00  0.45593999997E+02  0.45594000000E+02  0.51100000000E-03 0.  1.
         11   -1    0    0    0    0 -0.00000000000E+00 -0.00000000000E+00 -0.45593999997E+02  0.45594000000E+02  0.51100000000E-03 0. -1.
    9900012    2    1    2    0    0  0.18428840102E+02  0.37118452413E+02 -0.12892664493E+02  0.47787280481E+02  0.20000043025E+02 0.  0.
        -12    1    1    2    0    0 -0.18428840102E+02 -0.37118452413E+02  0.12892664493E+02  0.43400719519E+02  0.00000000000E+00 0.  1.
         11    1    3    3    0    0  0.30122685932E+01  0.27274268327E+02 -0.99318885139E+01  0.29182218636E+02  0.51100000000E-03 0.  1.
        -11    1    3    3    0    0  0.28712322879E+01  0.16451800578E+01  0.91512693505E-01  0.33104330695E+01  0.51100000000E-03 0. -1.
        -12    1    3    3    0    0  0.12545339221E+02  0.81990040286E+01 -0.30522886723E+01  0.15294628775E+02  0.00000000000E+00 0.  1.
</event>
<event>
 7    1  0.4592673E-010  0.4778727E+02  0.7816164E-02  0.1312668E+00
        -11   -1    0    0    0    0  0.00000000000E+00  0.00000000000E+00  0.45593999997E+02  0.45594000000E+02  0.51100000000E-03 0.  1.
         11   -1    0    0    0    0 -0.00000000000E+00 -0.00000000000E+00 -0.45593999997E+02  0.45594000000E+02  0.51100000000E-03 0. -1.
    9900012    2    1    2    0    0  0.73069300459E+01 -0.24860643911E+02  0.34816378972E+02  0.47787273197E+02  0.20000009814E+02 0.  0.
        -12    1    1    2    0    0 -0.73069300459E+01  0.24860643911E+02 -0.34816378972E+02  0.43400726803E+02  0.00000000000E+00 0.  1.
         11    1    3    3    0    0  0.28179569584E+01  0.92817787071E-01  0.16277078007E+01  0.32555997153E+01  0.51100000000E-03 0. -1.
        -11    1    3    3    0    0  0.18455527364E+01 -0.41947415848E+01  0.18259447125E+02  0.18825762440E+02  0.51100000000E-03 0.  1.
         12    1    3    3    0    0  0.26434203511E+01 -0.20758720113E+02  0.14929224046E+02  0.25705911042E+02  0.00000000000E+00 0. -1.
</event>
<event>
 7    1  0.4592673E-010  0.4778727E+02  0.7816164E-02  0.1312668E+00
        -11   -1    0    0    0    0  0.00000000000E+00  0.00000000000E+00  0.45593999997E+02  0.45594000000E+02  0.51100000000E-03 0. -1.
         11   -1    0    0    0    0 -0.00000000000E+00 -0.00000000000E+00 -0.45593999997E+02  0.45594000000E+02  0.51100000000E-03 0.  1.
    9900012    2    1    2    0    0  0.37048334793E+02 -0.84825339604E+01  0.20954490625E+02  0.47787272233E+02  0.20000005421E+02 0.  0.
        -12    1    1    2    0    0 -0.37048334793E+02  0.84825339604E+01 -0.20954490625E+02  0.43400727767E+02  0.00000000000E+00 0.  1.
         11    1    3    3    0    0  0.17152554481E+02 -0.36776083280E+01  0.90637559332E+00  0.17565774825E+02  0.51100000000E-03 0. -1.
        -11    1    3    3    0    0  0.93279223100E+01 -0.53246269017E+01  0.50545433942E+01  0.11870560031E+02  0.51100000000E-03 0.  1.
        -12    1    3    3    0    0  0.10567858002E+02  0.51970126928E+00  0.14993571638E+02  0.18350937377E+02  0.00000000000E+00 0.  1.
</event>
<event>
 7    1  0.4592673E-010  0.4778727E+02  0.7816164E-02  0.1312668E+00
        -11   -1    0    0    0    0  0.00000000000E+00  0.00000000000E+00  0.45593999997E+02  0.45594000000E+02  0.51100000000E-03 0. -1.
         11   -1    0    0    0    0 -0.00000000000E+00 -0.00000000000E+00 -0.45593999997E+02  0.45594000000E+02  0.51100000000E-03 0.  1.
    9900012    2    1    2    0    0 -0.13343277678E+02 -0.12638201831E+02  0.39317373596E+02  0.47787273380E+02  0.20000010648E+02 0.  0.
        -12    1    1    2    0    0  0.13343277678E+02  0.12638201831E+02 -0.39317373596E+02  0.43400726620E+02  0.00000000000E+00 0.  1.
         11    1    3    3    0    0 -0.10516595502E+02 -0.26158666522E+01  0.15448374728E+02  0.18870448360E+02  0.51100000000E-03 0. -1.
        -11    1    3    3    0    0 -0.47547228590E-01  0.16255013223E+01  0.11812944749E+02  0.11924352360E+02  0.51100000000E-03 0.  1.
        -12    1    3    3    0    0 -0.27791349474E+01 -0.11647836501E+02  0.12056054118E+02  0.16992472660E+02  0.00000000000E+00 0.  1.
</event>
<event>
 7    1  0.4592673E-010  0.4778727E+02  0.7816164E-02  0.1312668E+00
        -11   -1    0    0    0    0  0.00000000000E+00  0.00000000000E+00  0.45593999997E+02  0.45594000000E+02  0.51100000000E-03 0. -1.
         11   -1    0    0    0    0 -0.00000000000E+00 -0.00000000000E+00 -0.45593999997E+02  0.45594000000E+02  0.51100000000E-03 0.  1.
    9900012    2    1    2    0    0  0.30464866965E+02  0.29538286888E+02  0.91106949088E+01  0.47787271052E+02  0.20000000035E+02 0.  0.
        -12    1    1    2    0    0 -0.30464866965E+02 -0.29538286888E+02 -0.91106949088E+01  0.43400728948E+02  0.00000000000E+00 0.  1.
         11    1    3    3    0    0  0.13902147041E+01  0.76563479683E+01 -0.15788231940E+01  0.79400909362E+01  0.51100000000E-03 0. -1.
        -11    1    3    3    0    0  0.54517251867E+01  0.92492861962E+01 -0.65310050816E+00  0.10756260651E+02  0.51100000000E-03 0.  1.
         12    1    3    3    0    0  0.23622927074E+02  0.12632652724E+02  0.11342618611E+02  0.29090919465E+02  0.00000000000E+00 0. -1.
</event>
<event>
 7    1  0.4592673E-010  0.4778728E+02  0.7816164E-02  0.1312668E+00
        -11   -1    0    0    0    0  0.00000000000E+00  0.00000000000E+00  0.45593999997E+02  0.45594000000E+02  0.51100000000E-03 0.  1.
         11   -1    0    0    0    0 -0.00000000000E+00 -0.00000000000E+00 -0.45593999997E+02  0.45594000000E+02  0.51100000000E-03 0. -1.
    9900012    2    1    2    0    0 -0.30360083822E+02  0.30909371713E+02 -0.25492016825E+01  0.47787281359E+02  0.20000047027E+02 0.  0.
        -12    1    1    2    0    0  0.30360083822E+02 -0.30909371713E+02  0.25492016825E+01  0.43400718641E+02  0.00000000000E+00 0.  1.
         11    1    3    3    0    0 -0.74318201690E+01  0.36680676632E+01 -0.38130570493E+01  0.91228326592E+01  0.51100000000E-03 0. -1.
        -11    1    3    3    0    0  0.18164452356E+01 -0.24432582406E-01  0.21620491177E+00  0.18294302584E+01  0.51100000000E-03 0.  1.
         12    1    3    3    0    0 -0.24744708889E+02  0.27265736632E+02  0.10476504550E+01  0.36835018441E+02  0.00000000000E+00 0. -1.
</event>
<event>
 7    1  0.4592673E-010  0.4778728E+02  0.7816164E-02  0.1312668E+00
        -11   -1    0    0    0    0  0.00000000000E+00  0.00000000000E+00  0.45593999997E+02  0.45594000000E+02  0.51100000000E-03 0.  1.
         11   -1    0    0    0    0 -0.00000000000E+00 -0.00000000000E+00 -0.45593999997E+02  0.45594000000E+02  0.51100000000E-03 0. -1.
    9900012    2    1    2    0    0 -0.10005093164E+02  0.42222586360E+02 -0.87988976198E+00  0.47787275419E+02  0.20000019944E+02 0.  0.
        -12    1    1    2    0    0  0.10005093164E+02 -0.42222586360E+02  0.87988976198E+00  0.43400724581E+02  0.00000000000E+00 0.  1.
         11    1    3    3    0    0 -0.90709824571E+00  0.11619852097E+02  0.21123631392E+01  0.11845077808E+02  0.51100000000E-03 0. -1.
        -11    1    3    3    0    0 -0.13522641767E+02  0.26649031159E+02 -0.25147435194E+01  0.29989275372E+02  0.51100000000E-03 0.  1.
        -12    1    3    3    0    0  0.44246468491E+01  0.39537031043E+01 -0.47750938175E+00  0.59529222392E+01  0.00000000000E+00 0.  1.
</event>
<event>
 7    1  0.4592673E-010  0.4778727E+02  0.7816164E-02  0.1312668E+00
        -11   -1    0    0    0    0  0.00000000000E+00  0.00000000000E+00  0.45593999997E+02  0.45594000000E+02  0.51100000000E-03 0.  1.
         11   -1    0    0    0    0 -0.00000000000E+00 -0.00000000000E+00 -0.45593999997E+02  0.45594000000E+02  0.51100000000E-03 0. -1.
    9900012    2    1    2    0    0  0.12430092304E+02 -0.80087012902E+01 -0.40804126241E+02  0.47787271788E+02  0.20000003390E+02 0.  0.
        -12    1    1    2    0    0 -0.12430092304E+02  0.80087012902E+01  0.40804126241E+02  0.43400728212E+02  0.00000000000E+00 0.  1.
         11    1    3    3    0    0 -0.36058978075E+01  0.15049136753E+00 -0.23882505651E+01  0.43276884907E+01  0.51100000000E-03 0. -1.
        -11    1    3    3    0    0 -0.14332691631E+00  0.10089639638E+00 -0.82106889787E+01  0.82125596773E+01  0.51100000000E-03 0.  1.
        -12    1    3    3    0    0  0.16179317027E+02 -0.82600890542E+01 -0.30205186697E+02  0.35247023620E+02  0.00000000000E+00 0.  1.
</event>
<event>
 7    1  0.4592673E-010  0.4778727E+02  0.7816164E-02  0.1312668E+00
        -11   -1    0    0    0    0  0.00000000000E+00  0.00000000000E+00  0.45593999997E+02  0.45594000000E+02  0.51100000000E-03 0. -1.
         11   -1    0    0    0    0 -0.00000000000E+00 -0.00000000000E+00 -0.45593999997E+02  0.45594000000E+02  0.51100000000E-03 0.  1.
    9900012    2    1    2    0    0  0.28555814085E+01  0.32485905309E+01  0.43184666776E+02  0.47787272700E+02  0.20000007550E+02 0.  0.
        -12    1    1    2    0    0 -0.28555814085E+01 -0.32485905309E+01 -0.43184666776E+02  0.43400727300E+02  0.00000000000E+00 0.  1.
         11    1    3    3    0    0  0.70528397263E+01  0.79482231953E+01  0.29701267530E+02  0.31544921831E+02  0.51100000000E-03 0. -1.
        -11    1    3    3    0    0  0.15911461208E+01 -0.57415327252E+00  0.43611924202E+01  0.46777556098E+01  0.51100000000E-03 0.  1.
        -12    1    3    3    0    0 -0.57884044386E+01 -0.41254793919E+01  0.91222068256E+01  0.11564595260E+02  0.00000000000E+00 0.  1.
</event>
<event>
 7    1  0.4592673E-010  0.4778726E+02  0.7816164E-02  0.1312668E+00
        -11   -1    0    0    0    0  0.00000000000E+00  0.00000000000E+00  0.45593999997E+02  0.45594000000E+02  0.51100000000E-03 0.  1.
         11   -1    0    0    0    0 -0.00000000000E+00 -0.00000000000E+00 -0.45593999997E+02  0.45594000000E+02  0.51100000000E-03 0. -1.
    9900012    2    1    2    0    0 -0.88231740978E+01  0.30309622777E+02 -0.29784260758E+02  0.47787264719E+02  0.19999971158E+02 0.  0.
        -12    1    1    2    0    0  0.88231740978E+01 -0.30309622777E+02  0.29784260758E+02  0.43400735281E+02  0.00000000000E+00 0.  1.
         11    1    3    3    0    0  0.80207347283E+00  0.87330293661E+01 -0.17017465176E+02  0.19144274472E+02  0.51100000000E-03 0. -1.
        -11    1    3    3    0    0 -0.29381846074E+01  0.38679814581E+00 -0.34521047353E+01  0.45496778960E+01  0.51100000000E-03 0.  1.
         12    1    3    3    0    0 -0.66870629633E+01  0.21189795266E+02 -0.93146908467E+01  0.24093312351E+02  0.00000000000E+00 0. -1.
</event>
<event>
 7    1  0.4592673E-010  0.4778727E+02  0.7816164E-02  0.1312668E+00
        -11   -1    0    0    0    0  0.00000000000E+00  0.00000000000E+00  0.45593999997E+02  0.45594000000E+02  0.51100000000E-03 0.  1.
         11   -1    0    0    0    0 -0.00000000000E+00 -0.00000000000E+00 -0.45593999997E+02  0.45594000000E+02  0.51100000000E-03 0. -1.
    9900012    2    1    2    0    0 -0.27304567142E+02 -0.24709103406E+02 -0.22968335038E+02  0.47787267376E+02  0.19999983274E+02 0.  0.
        -12    1    1    2    0    0  0.27304567142E+02  0.24709103406E+02  0.22968335038E+02  0.43400732624E+02  0.00000000000E+00 0.  1.
         11    1    3    3    0    0 -0.87890166452E+01 -0.11563786441E+01 -0.15299697485E+01  0.89958230780E+01  0.51100000000E-03 0. -1.
        -11    1    3    3    0    0  0.12098489334E+01 -0.39341620078E+01 -0.90576729114E+00  0.42144726588E+01  0.51100000000E-03 0.  1.
         12    1    3    3    0    0 -0.19725399430E+02 -0.19618562754E+02 -0.20532597998E+02  0.34576971639E+02  0.00000000000E+00 0. -1.
</event>
<event>
 7    1  0.4592673E-010  0.4778727E+02  0.7816164E-02  0.1312668E+00
        -11   -1    0    0    0    0  0.00000000000E+00  0.00000000000E+00  0.45593999997E+02  0.45594000000E+02  0.51100000000E-03 0. -1.
         11   -1    0    0    0    0 -0.00000000000E+00 -0.00000000000E+00 -0.45593999997E+02  0.45594000000E+02  0.51100000000E-03 0.  1.
    9900012    2    1    2    0    0 -0.39362267981E+02 -0.15448628993E+02  0.97762486120E+01  0.47787270567E+02  0.19999997825E+02 0.  0.
        -12    1    1    2    0    0  0.39362267981E+02  0.15448628993E+02 -0.97762486120E+01  0.43400729433E+02  0.00000000000E+00 0.  1.
         11    1    3    3    0    0 -0.30436815688E+02 -0.11299893787E+02  0.12779417507E+02  0.34891271988E+02  0.51100000000E-03 0. -1.
        -11    1    3    3    0    0 -0.67984630710E+01 -0.53980111112E+01  0.40324440502E+00  0.86902376489E+01  0.51100000000E-03 0.  1.
        -12    1    3    3    0    0 -0.21269892219E+01  0.12492759057E+01 -0.34064132998E+01  0.42057609309E+01  0.00000000000E+00 0.  1.
</event>
<event>
 7    1  0.4592673E-010  0.4778727E+02  0.7816164E-02  0.1312668E+00
        -11   -1    0    0    0    0  0.00000000000E+00  0.00000000000E+00  0.45593999997E+02  0.45594000000E+02  0.51100000000E-03 0.  1.
         11   -1    0    0    0    0 -0.00000000000E+00 -0.00000000000E+00 -0.45593999997E+02  0.45594000000E+02  0.51100000000E-03 0. -1.
    9900012    2    1    2    0    0  0.43379426221E+02 -0.10020127544E+01  0.91891471484E+00  0.47787273588E+02  0.20000011598E+02 0.  0.
        -12    1    1    2    0    0 -0.43379426221E+02  0.10020127544E+01 -0.91891471484E+00  0.43400726412E+02  0.00000000000E+00 0.  1.
         11    1    3    3    0    0  0.58659792242E+01 -0.41551993022E+01  0.43393907722E+00  0.72016454289E+01  0.51100000000E-03 0. -1.
        -11    1    3    3    0    0  0.55506966043E+01 -0.38157797191E+01  0.37502691257E+01  0.77094050636E+01  0.51100000000E-03 0.  1.
         12    1    3    3    0    0  0.31962750392E+02  0.69689662670E+01 -0.32652934881E+01  0.32876223096E+02  0.00000000000E+00 0. -1.
</event>
<event>
 7    1  0.4592673E-010  0.4778728E+02  0.7816164E-02  0.1312668E+00
        -11   -1    0    0    0    0  0.00000000000E+00  0.00000000000E+00  0.45593999997E+02  0.45594000000E+02  0.51100000000E-03 0. -1.
         11   -1    0    0    0    0 -0.00000000000E+00 -0.00000000000E+00 -0.45593999997E+02  0.45594000000E+02  0.51100000000E-03 0.  1.
    9900012    2    1    2    0    0 -0.25998913064E+01  0.31389035330E+02  0.29859524144E+02  0.47787283925E+02  0.20000058726E+02 0.  0.
        -12    1    1    2    0    0  0.25998913064E+01 -0.31389035330E+02 -0.29859524144E+02  0.43400716075E+02  0.00000000000E+00 0.  1.
         11    1    3    3    0    0  0.21754579659E+01  0.77029955724E+01  0.68222283218E+01  0.10517202940E+02  0.51100000000E-03 0. -1.
        -11    1    3    3    0    0 -0.40252022150E+01 -0.90550355744E+00  0.62372458756E+01  0.74783304245E+01  0.51100000000E-03 0.  1.
        -12    1    3    3    0    0 -0.75014705730E+00  0.24591543315E+02  0.16800049947E+02  0.29791750560E+02  0.00000000000E+00 0.  1.
</event>
<event>
 7    1  0.4592673E-010  0.4778727E+02  0.7816164E-02  0.1312668E+00
        -11   -1    0    0    0    0  0.00000000000E+00  0.00000000000E+00  0.45593999997E+02  0.45594000000E+02  0.51100000000E-03 0. -1.
         11   -1    0    0    0    0 -0.00000000000E+00 -0.00000000000E+00 -0.45593999997E+02  0.45594000000E+02  0.51100000000E-03 0.  1.
    9900012    2    1    2    0    0  0.21808825909E+02 -0.26840071055E+02  0.26222298803E+02  0.47787271248E+02  0.20000000928E+02 0.  0.
        -12    1    1    2    0    0 -0.21808825909E+02  0.26840071055E+02 -0.26222298803E+02  0.43400728752E+02  0.00000000000E+00 0.  1.
         11    1    3    3    0    0  0.33669356949E+00 -0.10561585907E+02  0.43415587932E+01  0.11424079501E+02  0.51100000000E-03 0. -1.
        -11    1    3    3    0    0  0.66984957680E+01 -0.92255487511E+01  0.14392692995E+02  0.18361105828E+02  0.51100000000E-03 0.  1.
         12    1    3    3    0    0  0.14773636571E+02 -0.70529363965E+01  0.74880470145E+01  0.18002085919E+02  0.00000000000E+00 0. -1.
</event>
<event>
 7    1  0.4592673E-010  0.4778725E+02  0.7816164E-02  0.1312668E+00
        -11   -1    0    0    0    0  0.00000000000E+00  0.00000000000E+00  0.45593999997E+02  0.45594000000E+02  0.51100000000E-03 0. -1.
         11   -1    0    0    0    0 -0.00000000000E+00 -0.00000000000E+00 -0.45593999997E+02  0.45594000000E+02  0.51100000000E-03 0.  1.
    9900012    2    1    2    0    0  0.86101351900E+01  0.36467555199E+02 -0.21899959427E+02  0.47787248474E+02  0.19999897091E+02 0.  0.
        -12    1    1    2    0    0 -0.86101351900E+01 -0.36467555199E+02  0.21899959427E+02  0.43400751526E+02  0.00000000000E+00 0.  1.
         11    1    3    3    0    0 -0.16693089656E+01  0.23809270111E+01 -0.55926942520E+01  0.63034621529E+01  0.51100000000E-03 0. -1.
        -11    1    3    3    0    0  0.49780603757E+01  0.38860474567E+01 -0.70270168034E+01  0.94478259592E+01  0.51100000000E-03 0.  1.
         12    1    3    3    0    0  0.53013837799E+01  0.30200580731E+02 -0.92802483713E+01  0.32035960362E+02  0.00000000000E+00 0. -1.
</event>
<event>
 7    1  0.4592673E-010  0.4778728E+02  0.7816164E-02  0.1312668E+00
        -11   -1    0    0    0    0  0.00000000000E+00  0.00000000000E+00  0.45593999997E+02  0.45594000000E+02  0.51100000000E-03 0.  1.
         11   -1    0    0    0    0 -0.00000000000E+00 -0.00000000000E+00 -0.45593999997E+02  0.45594000000E+02  0.51100000000E-03 0. -1.
    9900012    2    1    2    0    0 -0.39707536365E+02  0.17518919828E+02 -0.14791521747E+00  0.47787275640E+02  0.20000020951E+02 0.  0.
        -12    1    1    2    0    0  0.39707536365E+02 -0.17518919828E+02  0.14791521747E+00  0.43400724360E+02  0.00000000000E+00 0.  1.
         11    1    3    3    0    0 -0.26638605243E+02  0.57101504341E+01  0.19159911879E+01  0.27311025791E+02  0.51100000000E-03 0. -1.
        -11    1    3    3    0    0 -0.99732347926E+01  0.22099875874E+01 -0.18340954877E+00  0.10216804622E+02  0.51100000000E-03 0.  1.
        -12    1    3    3    0    0 -0.30956963294E+01  0.95987818061E+01 -0.18804968566E+01  0.10259445226E+02  0.00000000000E+00 0.  1.
</event>
<event>
 7    1  0.4592673E-010  0.4778727E+02  0.7816164E-02  0.1312668E+00
        -11   -1    0    0    0    0  0.00000000000E+00  0.00000000000E+00  0.45593999997E+02  0.45594000000E+02  0.51100000000E-03 0.  1.
         11   -1    0    0    0    0 -0.00000000000E+00 -0.00000000000E+00 -0.45593999997E+02  0.45594000000E+02  0.51100000000E-03 0. -1.
    9900012    2    1    2    0    0 -0.40622985305E+02  0.14733152590E+02 -0.40410852558E+01  0.47787273159E+02  0.20000009639E+02 0.  0.
        -12    1    1    2    0    0  0.40622985305E+02 -0.14733152590E+02  0.40410852558E+01  0.43400726841E+02  0.00000000000E+00 0.  1.
         11    1    3    3    0    0 -0.14286637460E+02  0.23868625012E+01 -0.10922194608E+01  0.14525772479E+02  0.51100000000E-03 0. -1.
        -11    1    3    3    0    0 -0.10876334265E+02  0.71999217354E+01  0.63431841405E+01  0.14504120288E+02  0.51100000000E-03 0.  1.
         12    1    3    3    0    0 -0.15460013580E+02  0.51463683537E+01 -0.92920499356E+01  0.18757380391E+02  0.00000000000E+00 0. -1.
</event>
<event>
 7    1  0.4592673E-010  0.4778727E+02  0.7816164E-02  0.1312668E+00
        -11   -1    0    0    0    0  0.00000000000E+00  0.00000000000E+00  0.45593999997E+02  0.45594000000E+02  0.51100000000E-03 0.  1.
         11   -1    0    0    0    0 -0.00000000000E+00 -0.00000000000E+00 -0.45593999997E+02  0.45594000000E+02  0.51100000000E-03 0. -1.
    9900012    2    1    2    0    0 -0.31202462894E+02 -0.80236206090E+01 -0.29080083301E+02  0.47787269325E+02  0.19999992162E+02 0.  0.
        -12    1    1    2    0    0  0.31202462894E+02  0.80236206090E+01  0.29080083301E+02  0.43400730675E+02  0.00000000000E+00 0.  1.
         11    1    3    3    0    0 -0.57238632169E+00 -0.28044544761E+01 -0.47924958041E+01  0.55821686918E+01  0.51100000000E-03 0. -1.
        -11    1    3    3    0    0 -0.18340834809E+02 -0.10302948759E+02 -0.12750694220E+02  0.24599129618E+02  0.51100000000E-03 0.  1.
         12    1    3    3    0    0 -0.12289241763E+02  0.50837826264E+01 -0.11536893278E+02  0.17605971015E+02  0.00000000000E+00 0. -1.
</event>
<event>
 7    1  0.4592673E-010  0.4778732E+02  0.7816164E-02  0.1312668E+00
        -11   -1    0    0    0    0  0.00000000000E+00  0.00000000000E+00  0.45593999997E+02  0.45594000000E+02  0.51100000000E-03 0.  1.
         11   -1    0    0    0    0 -0.00000000000E+00 -0.00000000000E+00 -0.45593999997E+02  0.45594000000E+02  0.51100000000E-03 0. -1.
    9900012    2    1    2    0    0 -0.23168785031E+02 -0.26022621442E+02 -0.25877580406E+02  0.47787324957E+02  0.20000245807E+02 0.  0.
        -12    1    1    2    0    0  0.23168785031E+02  0.26022621442E+02  0.25877580406E+02  0.43400675043E+02  0.00000000000E+00 0.  1.
         11    1    3    3    0    0  0.67422945832E+00 -0.11494537993E+01 -0.63155354592E+01  0.64545966409E+01  0.51100000000E-03 0. -1.
        -11    1    3    3    0    0 -0.75193231820E-01 -0.14975149716E+01 -0.45151573751E+01  0.47576098511E+01  0.51100000000E-03 0.  1.
         12    1    3    3    0    0 -0.23767821258E+02 -0.23375652671E+02 -0.15046887572E+02  0.36575118465E+02  0.00000000000E+00 0. -1.
</event>
<event>
 7    1  0.4592673E-010  0.4778727E+02  0.7816164E-02  0.1312668E+00
        -11   -1    0    0    0    0  0.00000000000E+00  0.00000000000E+00  0.45593999997E+02  0.45594000000E+02  0.51100000000E-03 0. -1.
         11   -1    0    0    0    0 -0.00000000000E+00 -0.00000000000E+00 -0.45593999997E+02  0.45594000000E+02  0.51100000000E-03 0.  1.
    9900012    2    1    2    0    0 -0.76816036334E+01  0.32458440553E+02  0.27768068970E+02  0.47787273602E+02  0.20000011663E+02 0.  0.
        -12    1    1    2    0    0  0.76816036334E+01 -0.32458440553E+02 -0.27768068970E+02  0.43400726398E+02  0.00000000000E+00 0.  1.
         11    1    3    3    0    0  0.21309248020E+01  0.31459086891E+01  0.95462465753E+01  0.10274648701E+02  0.51100000000E-03 0. -1.
        -11    1    3    3    0    0  0.77739915812E+00  0.14328524210E+02  0.66124990420E+01  0.15799876560E+02  0.51100000000E-03 0.  1.
         12    1    3    3    0    0 -0.10589927594E+02  0.14984007655E+02  0.11609323352E+02  0.21712748341E+02  0.00000000000E+00 0. -1.
</event>
<event>
 7    1  0.4592673E-010  0.4778727E+02  0.7816164E-02  0.1312668E+00
        -11   -1    0    0    0    0  0.00000000000E+00  0.00000000000E+00  0.45593999997E+02  0.45594000000E+02  0.51100000000E-03 0.  1.
         11   -1    0    0    0    0 -0.00000000000E+00 -0.00000000000E+00 -0.45593999997E+02  0.45594000000E+02  0.51100000000E-03 0. -1.
    9900012    2    1    2    0    0 -0.34695138894E+02 -0.12479036852E+02 -0.22894206337E+02  0.47787266049E+02  0.19999977226E+02 0.  0.
        -12    1    1    2    0    0  0.34695138894E+02  0.12479036852E+02  0.22894206337E+02  0.43400733951E+02  0.00000000000E+00 0.  1.
         11    1    3    3    0    0 -0.17659408782E+01  0.25286250839E+01 -0.58299996251E+01  0.65955581940E+01  0.51100000000E-03 0.  1.
        -11    1    3    3    0    0 -0.10454617325E+02 -0.76750040028E+01 -0.10415781341E+02  0.16634097843E+02  0.51100000000E-03 0. -1.
        -12    1    3    3    0    0 -0.22474580691E+02 -0.73326579334E+01 -0.66484253712E+01  0.24557610012E+02  0.00000000000E+00 0.  1.
</event>
<event>
 7    1  0.4592673E-010  0.4778727E+02  0.7816164E-02  0.1312668E+00
        -11   -1    0    0    0    0  0.00000000000E+00  0.00000000000E+00  0.45593999997E+02  0.45594000000E+02  0.51100000000E-03 0.  1.
         11   -1    0    0    0    0 -0.00000000000E+00 -0.00000000000E+00 -0.45593999997E+02  0.45594000000E+02  0.51100000000E-03 0. -1.
    9900012    2    1    2    0    0 -0.15685101905E+02 -0.14415304090E+01 -0.40441597698E+02  0.47787271250E+02  0.20000000936E+02 0.  0.
        -12    1    1    2    0    0  0.15685101905E+02  0.14415304090E+01  0.40441597698E+02  0.43400728750E+02  0.00000000000E+00 0.  1.
         11    1    3    3    0    0 -0.95120705050E+01 -0.19107020644E+01 -0.38349752664E+02  0.39557980197E+02  0.51100000000E-03 0. -1.
        -11    1    3    3    0    0 -0.75883782046E+00 -0.19016914540E+01 -0.48300721492E+00  0.21037018455E+01  0.51100000000E-03 0.  1.
         12    1    3    3    0    0 -0.54141935799E+01  0.23708631094E+01 -0.16088378192E+01  0.61255892069E+01  0.00000000000E+00 0. -1.
</event>
<event>
 7    1  0.4592673E-010  0.4778729E+02  0.7816164E-02  0.1312668E+00
        -11   -1    0    0    0    0  0.00000000000E+00  0.00000000000E+00  0.45593999997E+02  0.45594000000E+02  0.51100000000E-03 0.  1.
         11   -1    0    0    0    0 -0.00000000000E+00 -0.00000000000E+00 -0.45593999997E+02  0.45594000000E+02  0.51100000000E-03 0. -1.
    9900012    2    1    2    0    0  0.80004437365E+01 -0.20492255993E+02 -0.37412327229E+02  0.47787287052E+02  0.20000072987E+02 0.  0.
        -12    1    1    2    0    0 -0.80004437365E+01  0.20492255993E+02  0.37412327229E+02  0.43400712948E+02  0.00000000000E+00 0.  1.
         11    1    3    3    0    0  0.35714834133E+01 -0.92276998059E+01 -0.21831733127E+02  0.23969366055E+02  0.51100000000E-03 0. -1.
        -11    1    3    3    0    0  0.59806190520E+00 -0.46876131814E+01 -0.15501930033E+02  0.16206209625E+02  0.51100000000E-03 0.  1.
         12    1    3    3    0    0  0.38308984180E+01 -0.65769430059E+01 -0.78664068756E-01  0.76117113731E+01  0.00000000000E+00 0. -1.
</event>
<event>
 7    1  0.4592673E-010  0.4778727E+02  0.7816164E-02  0.1312668E+00
        -11   -1    0    0    0    0  0.00000000000E+00  0.00000000000E+00  0.45593999997E+02  0.45594000000E+02  0.51100000000E-03 0.  1.
         11   -1    0    0    0    0 -0.00000000000E+00 -0.00000000000E+00 -0.45593999997E+02  0.45594000000E+02  0.51100000000E-03 0. -1.
    9900012    2    1    2    0    0 -0.24011439856E+02 -0.28834035134E+02 -0.21809923168E+02  0.47787267579E+02  0.19999984199E+02 0.  0.
        -12    1    1    2    0    0  0.24011439856E+02  0.28834035134E+02  0.21809923168E+02  0.43400732421E+02  0.00000000000E+00 0.  1.
         11    1    3    3    0    0 -0.92721681958E+01 -0.76913123219E+01 -0.32762455978E+01  0.12484517362E+02  0.51100000000E-03 0. -1.
        -11    1    3    3    0    0 -0.27698811678E+01 -0.14775484059E+02 -0.42782621355E+01  0.15629801599E+02  0.51100000000E-03 0.  1.
         12    1    3    3    0    0 -0.11969390492E+02 -0.63672387533E+01 -0.14255415435E+02  0.19672948618E+02  0.00000000000E+00 0. -1.
</event>
<event>
 7    1  0.4592673E-010  0.4778727E+02  0.7816164E-02  0.1312668E+00
        -11   -1    0    0    0    0  0.00000000000E+00  0.00000000000E+00  0.45593999997E+02  0.45594000000E+02  0.51100000000E-03 0. -1.
         11   -1    0    0    0    0 -0.00000000000E+00 -0.00000000000E+00 -0.45593999997E+02  0.45594000000E+02  0.51100000000E-03 0.  1.
    9900012    2    1    2    0    0 -0.31821576362E+02 -0.10401625064E+02  0.27619136752E+02  0.47787271423E+02  0.20000001724E+02 0.  0.
        -12    1    1    2    0    0  0.31821576362E+02  0.10401625064E+02 -0.27619136752E+02  0.43400728577E+02  0.00000000000E+00 0.  1.
         11    1    3    3    0    0 -0.90469103974E+01 -0.34838821894E+01  0.19852477468E+01  0.98957178479E+01  0.51100000000E-03 0. -1.
        -11    1    3    3    0    0 -0.66511067912E+01 -0.58400535830E+01  0.16996876194E+01  0.90129010682E+01  0.51100000000E-03 0.  1.
         12    1    3    3    0    0 -0.16123559173E+02 -0.10776892918E+01  0.23934201386E+02  0.28878652507E+02  0.00000000000E+00 0. -1.
</event>
<event>
 7    1  0.4592673E-010  0.4778727E+02  0.7816164E-02  0.1312668E+00
        -11   -1    0    0    0    0  0.00000000000E+00  0.00000000000E+00  0.45593999997E+02  0.45594000000E+02  0.51100000000E-03 0.  1.
         11   -1    0    0    0    0 -0.00000000000E+00 -0.00000000000E+00 -0.45593999997E+02  0.45594000000E+02  0.51100000000E-03 0. -1.
    9900012    2    1    2    0    0  0.12273045265E+02 -0.17156090994E+02 -0.37929732394E+02  0.47787266161E+02  0.19999977734E+02 0.  0.
        -12    1    1    2    0    0 -0.12273045265E+02  0.17156090994E+02  0.37929732394E+02  0.43400733839E+02  0.00000000000E+00 0.  1.
         11    1    3    3    0    0  0.13416100871E+00 -0.68214532724E+01 -0.48067936060E+01  0.83459863980E+01  0.51100000000E-03 0. -1.
        -11    1    3    3    0    0  0.10191848884E+02 -0.35374540038E+01 -0.82452920397E+01  0.13578372715E+02  0.51100000000E-03 0.  1.
        -12    1    3    3    0    0  0.19470353726E+01 -0.67971837176E+01 -0.24877646749E+02  0.25862907048E+02  0.00000000000E+00 0.  1.
</event>
<event>
 7    1  0.4592673E-010  0.4778727E+02  0.7816164E-02  0.1312668E+00
        -11   -1    0    0    0    0  0.00000000000E+00  0.00000000000E+00  0.45593999997E+02  0.45594000000E+02  0.51100000000E-03 0.  1.
         11   -1    0    0    0    0 -0.00000000000E+00 -0.00000000000E+00 -0.45593999997E+02  0.45594000000E+02  0.51100000000E-03 0. -1.
    9900012    2    1    2    0    0  0.21121654361E+02 -0.12149692127E+02 -0.35914958642E+02  0.47787267795E+02  0.19999985183E+02 0.  0.
        -12    1    1    2    0    0 -0.21121654361E+02  0.12149692127E+02  0.35914958642E+02  0.43400732205E+02  0.00000000000E+00 0.  1.
         11    1    3    3    0    0  0.76971351662E+01 -0.11497228604E+02 -0.18003434646E+02  0.22705854193E+02  0.51100000000E-03 0. -1.
        -11    1    3    3    0    0  0.10626940748E+02 -0.51808793341E+01 -0.96853461276E+01  0.15283301679E+02  0.51100000000E-03 0.  1.
         12    1    3    3    0    0  0.27975784473E+01  0.45284158112E+01 -0.82261778682E+01  0.97981119226E+01  0.00000000000E+00 0. -1.
</event>
<event>
 7    1  0.4592673E-010  0.4778728E+02  0.7816164E-02  0.1312668E+00
        -11   -1    0    0    0    0  0.00000000000E+00  0.00000000000E+00  0.45593999997E+02  0.45594000000E+02  0.51100000000E-03 0. -1.
         11   -1    0    0    0    0 -0.00000000000E+00 -0.00000000000E+00 -0.45593999997E+02  0.45594000000E+02  0.51100000000E-03 0.  1.
    9900012    2    1    2    0    0  0.19881748581E+00  0.42222027282E+02  0.10044070911E+02  0.47787280229E+02  0.20000041875E+02 0.  0.
        -12    1    1    2    0    0 -0.19881748581E+00 -0.42222027282E+02 -0.10044070911E+02  0.43400719771E+02  0.00000000000E+00 0.  1.
         11    1    3    3    0    0  0.54205963444E+01  0.59473061387E+01 -0.25236654814E+01  0.84333980553E+01  0.51100000000E-03 0.  1.
        -11    1    3    3    0    0  0.14022415528E+00  0.20961827996E+02  0.85526568643E+01  0.22639916861E+02  0.51100000000E-03 0. -1.
        -12    1    3    3    0    0 -0.53620030139E+01  0.15312893147E+02  0.40150795278E+01  0.16713965313E+02  0.00000000000E+00 0.  1.
</event>
<event>
 7    1  0.4592673E-010  0.4778727E+02  0.7816164E-02  0.1312668E+00
        -11   -1    0    0    0    0  0.00000000000E+00  0.00000000000E+00  0.45593999997E+02  0.45594000000E+02  0.51100000000E-03 0.  1.
         11   -1    0    0    0    0 -0.00000000000E+00 -0.00000000000E+00 -0.45593999997E+02  0.45594000000E+02  0.51100000000E-03 0. -1.
    9900012    2    1    2    0    0  0.14027445688E+02  0.19464762565E+02 -0.36165966709E+02  0.47787270026E+02  0.19999995359E+02 0.  0.
        -12    1    1    2    0    0 -0.14027445688E+02 -0.19464762565E+02  0.36165966709E+02  0.43400729974E+02  0.00000000000E+00 0.  1.
         11    1    3    3    0    0 -0.11171311831E+01 -0.19186823788E+01 -0.19086141652E+01  0.29278204254E+01  0.51100000000E-03 0. -1.
        -11    1    3    3    0    0 -0.12163897736E+00  0.93857813438E+01 -0.13431354689E+02  0.16386243514E+02  0.51100000000E-03 0.  1.
         12    1    3    3    0    0  0.15266215849E+02  0.11997663600E+02 -0.20825997855E+02  0.28473206087E+02  0.00000000000E+00 0. -1.
</event>
<event>
 7    1  0.4592673E-010  0.4778726E+02  0.7816164E-02  0.1312668E+00
        -11   -1    0    0    0    0  0.00000000000E+00  0.00000000000E+00  0.45593999997E+02  0.45594000000E+02  0.51100000000E-03 0.  1.
         11   -1    0    0    0    0 -0.00000000000E+00 -0.00000000000E+00 -0.45593999997E+02  0.45594000000E+02  0.51100000000E-03 0. -1.
    9900012    2    1    2    0    0  0.19320798506E+02 -0.20949927332E+02 -0.32732724099E+02  0.47787263404E+02  0.19999965166E+02 0.  0.
        -12    1    1    2    0    0 -0.19320798506E+02  0.20949927332E+02  0.32732724099E+02  0.43400736596E+02  0.00000000000E+00 0.  1.
         11    1    3    3    0    0  0.13073435470E+02 -0.11341488028E+02 -0.19280917215E+02  0.25909415944E+02  0.51100000000E-03 0. -1.
        -11    1    3    3    0    0  0.25541265777E+00 -0.85430816985E+01 -0.13276118958E+02  0.15789389329E+02  0.51100000000E-03 0.  1.
        -12    1    3    3    0    0  0.59919503787E+01 -0.10653576051E+01 -0.17568792619E+00  0.60884581311E+01  0.00000000000E+00 0.  1.
</event>
<event>
 7    1  0.4592673E-010  0.4778727E+02  0.7816164E-02  0.1312668E+00
        -11   -1    0    0    0    0  0.00000000000E+00  0.00000000000E+00  0.45593999997E+02  0.45594000000E+02  0.51100000000E-03 0. -1.
         11   -1    0    0    0    0 -0.00000000000E+00 -0.00000000000E+00 -0.45593999997E+02  0.45594000000E+02  0.51100000000E-03 0.  1.
    9900012    2    1    2    0    0  0.85599977628E+01  0.38839905278E+02 -0.17372723030E+02  0.47787270637E+02  0.19999998144E+02 0.  0.
        -12    1    1    2    0    0 -0.85599977628E+01 -0.38839905278E+02  0.17372723030E+02  0.43400729363E+02  0.00000000000E+00 0.  1.
         11    1    3    3    0    0  0.25787939721E+01  0.35598372329E+02 -0.88095736068E+01  0.36762792035E+02  0.51100000000E-03 0. -1.
        -11    1    3    3    0    0  0.16457217859E+01  0.34479846022E+00 -0.15620814043E+01  0.22950783755E+01  0.51100000000E-03 0.  1.
         12    1    3    3    0    0  0.43354820048E+01  0.28967344895E+01 -0.70010680190E+01  0.87294002270E+01  0.00000000000E+00 0. -1.
</event>
<event>
 7    1  0.4592673E-010  0.4778727E+02  0.7816164E-02  0.1312668E+00
        -11   -1    0    0    0    0  0.00000000000E+00  0.00000000000E+00  0.45593999997E+02  0.45594000000E+02  0.51100000000E-03 0.  1.
         11   -1    0    0    0    0 -0.00000000000E+00 -0.00000000000E+00 -0.45593999997E+02  0.45594000000E+02  0.51100000000E-03 0. -1.
    9900012    2    1    2    0    0 -0.11810023128E+02 -0.35103032937E+02  0.22625741257E+02  0.47787265731E+02  0.19999975773E+02 0.  0.
        -12    1    1    2    0    0  0.11810023128E+02  0.35103032937E+02 -0.22625741257E+02  0.43400734269E+02  0.00000000000E+00 0.  1.
         11    1    3    3    0    0 -0.44288029201E+01 -0.10502094681E+02  0.10841649477E+02  0.15730532465E+02  0.51100000000E-03 0. -1.
        -11    1    3    3    0    0 -0.92422861957E+01 -0.24813383283E+02  0.77191263480E+01  0.27580949148E+02  0.51100000000E-03 0.  1.
        -12    1    3    3    0    0  0.18610659879E+01  0.21244502687E+00  0.40649654324E+01  0.44757841176E+01  0.00000000000E+00 0.  1.
</event>
<event>
 7    1  0.4592673E-010  0.4778727E+02  0.7816164E-02  0.1312668E+00
        -11   -1    0    0    0    0  0.00000000000E+00  0.00000000000E+00  0.45593999997E+02  0.45594000000E+02  0.51100000000E-03 0.  1.
         11   -1    0    0    0    0 -0.00000000000E+00 -0.00000000000E+00 -0.45593999997E+02  0.45594000000E+02  0.51100000000E-03 0. -1.
    9900012    2    1    2    0    0  0.29617077557E+02  0.22171038363E+01 -0.31647059515E+02  0.47787271799E+02  0.20000003440E+02 0.  0.
        -12    1    1    2    0    0 -0.29617077557E+02 -0.22171038363E+01  0.31647059515E+02  0.43400728201E+02  0.00000000000E+00 0.  1.
         11    1    3    3    0    0  0.10772929319E+02 -0.35085171844E+01 -0.10237642955E+02  0.15270069826E+02  0.51100000000E-03 0. -1.
        -11    1    3    3    0    0  0.13018370360E+02 -0.31790875437E+01 -0.14914231036E+02  0.20050407778E+02  0.51100000000E-03 0.  1.
         12    1    3    3    0    0  0.58257778772E+01  0.89047085645E+01 -0.64951855252E+01  0.12466794195E+02  0.00000000000E+00 0. -1.
</event>
<event>
 7    1  0.4592673E-010  0.4778727E+02  0.7816164E-02  0.1312668E+00
        -11   -1    0    0    0    0  0.00000000000E+00  0.00000000000E+00  0.45593999997E+02  0.45594000000E+02  0.51100000000E-03 0.  1.
         11   -1    0    0    0    0 -0.00000000000E+00 -0.00000000000E+00 -0.45593999997E+02  0.45594000000E+02  0.51100000000E-03 0. -1.
    9900012    2    1    2    0    0 -0.30884541002E-02 -0.34039377667E+02  0.26924787877E+02  0.47787269088E+02  0.19999991078E+02 0.  0.
        -12    1    1    2    0    0  0.30884541002E-02  0.34039377667E+02 -0.26924787877E+02  0.43400730912E+02  0.00000000000E+00 0.  1.
         11    1    3    3    0    0 -0.38407862425E+01 -0.13415863354E+02  0.11856723682E+02  0.18311715518E+02  0.51100000000E-03 0. -1.
        -11    1    3    3    0    0 -0.52691655794E+01 -0.98042556323E+01  0.76530718581E+01  0.13507666102E+02  0.51100000000E-03 0.  1.
        -12    1    3    3    0    0  0.91068633679E+01 -0.10819258680E+02  0.74149923374E+01  0.15967887467E+02  0.00000000000E+00 0.  1.
</event>
<event>
 7    1  0.4592673E-010  0.4778727E+02  0.7816164E-02  0.1312668E+00
        -11   -1    0    0    0    0  0.00000000000E+00  0.00000000000E+00  0.45593999997E+02  0.45594000000E+02  0.51100000000E-03 0.  1.
         11   -1    0    0    0    0 -0.00000000000E+00 -0.00000000000E+00 -0.45593999997E+02  0.45594000000E+02  0.51100000000E-03 0. -1.
    9900012    2    1    2    0    0  0.12204622092E+02 -0.39508648348E+02 -0.13180938346E+02  0.47787271545E+02  0.20000002284E+02 0.  0.
        -12    1    1    2    0    0 -0.12204622092E+02  0.39508648348E+02  0.13180938346E+02  0.43400728455E+02  0.00000000000E+00 0.  1.
         11    1    3    3    0    0 -0.89675559317E+00 -0.15422032308E+02 -0.38193926051E+01  0.15913233839E+02  0.51100000000E-03 0. -1.
        -11    1    3    3    0    0 -0.73736119833E+00  0.12390976347E+01  0.23367075250E+00  0.14607076254E+01  0.51100000000E-03 0.  1.
         12    1    3    3    0    0  0.13838738884E+02 -0.25325713675E+02 -0.95952164929E+01  0.30413330081E+02  0.00000000000E+00 0. -1.
</event>
<event>
 7    1  0.4592673E-010  0.4778728E+02  0.7816164E-02  0.1312668E+00
        -11   -1    0    0    0    0  0.00000000000E+00  0.00000000000E+00  0.45593999997E+02  0.45594000000E+02  0.51100000000E-03 0. -1.
         11   -1    0    0    0    0 -0.00000000000E+00 -0.00000000000E+00 -0.45593999997E+02  0.45594000000E+02  0.51100000000E-03 0.  1.
    9900012    2    1    2    0    0  0.43384611658E+02 -0.51181002088E+00 -0.10660017598E+01  0.47787276066E+02  0.20000022895E+02 0.  0.
        -12    1    1    2    0    0 -0.43384611658E+02  0.51181002088E+00  0.10660017598E+01  0.43400723934E+02  0.00000000000E+00 0.  1.
         11    1    3    3    0    0  0.14564788831E+02  0.19624906924E+01 -0.46471762121E+01  0.15413652728E+02  0.51100000000E-03 0. -1.
        -11    1    3    3    0    0  0.30040828789E+02 -0.74246876072E+00  0.34992383974E+01  0.30253054785E+02  0.51100000000E-03 0.  1.
        -12    1    3    3    0    0 -0.12210059617E+01 -0.17318319526E+01  0.81936054867E-01  0.21205685529E+01  0.00000000000E+00 0.  1.
</event>
<event>
 7    1  0.4592673E-010  0.4778726E+02  0.7816164E-02  0.1312668E+00
        -11   -1    0    0    0    0  0.00000000000E+00  0.00000000000E+00  0.45593999997E+02  0.45594000000E+02  0.51100000000E-03 0.  1.
         11   -1    0    0    0    0 -0.00000000000E+00 -0.00000000000E+00 -0.45593999997E+02  0.45594000000E+02  0.51100000000E-03 0. -1.
    9900012    2    1    2    0    0 -0.21408934607E+02  0.44508832525E+00 -0.37750278955E+02  0.47787261000E+02  0.19999954201E+02 0.  0.
        -12    1    1    2    0    0  0.21408934607E+02 -0.44508832525E+00  0.37750278955E+02  0.43400739000E+02  0.00000000000E+00 0.  1.
         11    1    3    3    0    0 -0.67654368465E+01  0.62047022194E+00 -0.31865348776E+01  0.75040071833E+01  0.51100000000E-03 0. -1.
        -11    1    3    3    0    0 -0.76134761951E+01 -0.71702849697E+01 -0.14228430927E+02  0.17658602810E+02  0.51100000000E-03 0.  1.
        -12    1    3    3    0    0 -0.70300215655E+01  0.69949030730E+01 -0.20335313150E+02  0.22624651006E+02  0.00000000000E+00 0.  1.
</event>
<event>
 7    1  0.4592673E-010  0.4778727E+02  0.7816164E-02  0.1312668E+00
        -11   -1    0    0    0    0  0.00000000000E+00  0.00000000000E+00  0.45593999997E+02  0.45594000000E+02  0.51100000000E-03 0.  1.
         11   -1    0    0    0    0 -0.00000000000E+00 -0.00000000000E+00 -0.45593999997E+02  0.45594000000E+02  0.51100000000E-03 0. -1.
    9900012    2    1    2    0    0 -0.74233520091E+01 -0.19492761074E+02 -0.38059811919E+02  0.47787272210E+02  0.20000005316E+02 0.  0.
        -12    1    1    2    0    0  0.74233520091E+01  0.19492761074E+02  0.38059811919E+02  0.43400727790E+02  0.00000000000E+00 0.  1.
         11    1    3    3    0    0 -0.38163516656E+01 -0.47615863627E+01 -0.12939852140E+02  0.14306537610E+02  0.51100000000E-03 0. -1.
        -11    1    3    3    0    0 -0.75513687884E+00 -0.14321537238E+02 -0.86232242547E+01  0.16734295843E+02  0.51100000000E-03 0.  1.
         12    1    3    3    0    0 -0.28518634647E+01 -0.40963747385E+00 -0.16496735525E+02  0.16746438757E+02  0.00000000000E+00 0. -1.
</event>
<event>
 7    1  0.4592673E-010  0.4778727E+02  0.7816164E-02  0.1312668E+00
        -11   -1    0    0    0    0  0.00000000000E+00  0.00000000000E+00  0.45593999997E+02  0.45594000000E+02  0.51100000000E-03 0.  1.
         11   -1    0    0    0    0 -0.00000000000E+00 -0.00000000000E+00 -0.45593999997E+02  0.45594000000E+02  0.51100000000E-03 0. -1.
    9900012    2    1    2    0    0 -0.63293026282E+01  0.25146005704E+02 -0.34802898294E+02  0.47787269542E+02  0.19999993151E+02 0.  0.
        -12    1    1    2    0    0  0.63293026282E+01 -0.25146005704E+02  0.34802898294E+02  0.43400730458E+02  0.00000000000E+00 0.  1.
         11    1    3    3    0    0 -0.71715627284E+01  0.15692138572E+02 -0.13986080959E+02  0.22210019941E+02  0.51100000000E-03 0. -1.
        -11    1    3    3    0    0 -0.48155946521E+01  0.14918287640E+01 -0.60939171103E+01  0.79089399367E+01  0.51100000000E-03 0.  1.
        -12    1    3    3    0    0  0.56578547523E+01  0.79620383679E+01 -0.14722900225E+02  0.17668309664E+02  0.00000000000E+00 0.  1.
</event>
<event>
 7    1  0.4592673E-010  0.4778730E+02  0.7816164E-02  0.1312668E+00
        -11   -1    0    0    0    0  0.00000000000E+00  0.00000000000E+00  0.45593999997E+02  0.45594000000E+02  0.51100000000E-03 0.  1.
         11   -1    0    0    0    0 -0.00000000000E+00 -0.00000000000E+00 -0.45593999997E+02  0.45594000000E+02  0.51100000000E-03 0. -1.
    9900012    2    1    2    0    0 -0.40280918344E+02  0.48529704497E+01 -0.15411581798E+02  0.47787302329E+02  0.20000142638E+02 0.  0.
        -12    1    1    2    0    0  0.40280918344E+02 -0.48529704497E+01  0.15411581798E+02  0.43400697671E+02  0.00000000000E+00 0.  1.
         11    1    3    3    0    0 -0.17550395091E+02  0.42613111282E+01 -0.65748317479E+01  0.19219873911E+02  0.51100000000E-03 0. -1.
        -11    1    3    3    0    0 -0.19574830572E+01  0.33566533146E+01 -0.63766196648E+01  0.74672712556E+01  0.51100000000E-03 0.  1.
        -12    1    3    3    0    0 -0.20773040196E+02 -0.27649939931E+01 -0.24601303849E+01  0.21100157162E+02  0.00000000000E+00 0.  1.
</event>
<event>
 7    1  0.4592673E-010  0.4778727E+02  0.7816164E-02  0.1312668E+00
        -11   -1    0    0    0    0  0.00000000000E+00  0.00000000000E+00  0.45593999997E+02  0.45594000000E+02  0.51100000000E-03 0. -1.
         11   -1    0    0    0    0 -0.00000000000E+00 -0.00000000000E+00 -0.45593999997E+02  0.45594000000E+02  0.51100000000E-03 0.  1.
    9900012    2    1    2    0    0  0.24093704858E+02 -0.32394859595E+02 -0.15927634701E+02  0.47787273173E+02  0.20000009704E+02 0.  0.
        -12    1    1    2    0    0 -0.24093704858E+02  0.32394859595E+02  0.15927634701E+02  0.43400726827E+02  0.00000000000E+00 0.  1.
         11    1    3    3    0    0  0.42344791697E+00 -0.71655195336E+01 -0.49457259991E+01  0.87168907441E+01  0.51100000000E-03 0. -1.
        -11    1    3    3    0    0  0.13843459292E+01  0.18890934766E+01 -0.12022672911E+01  0.26325908751E+01  0.51100000000E-03 0.  1.
         12    1    3    3    0    0  0.22285911012E+02 -0.27118433538E+02 -0.97796414110E+01  0.36437791554E+02  0.00000000000E+00 0. -1.
</event>
<event>
 7    1  0.4592673E-010  0.4778727E+02  0.7816164E-02  0.1312668E+00
        -11   -1    0    0    0    0  0.00000000000E+00  0.00000000000E+00  0.45593999997E+02  0.45594000000E+02  0.51100000000E-03 0. -1.
         11   -1    0    0    0    0 -0.00000000000E+00 -0.00000000000E+00 -0.45593999997E+02  0.45594000000E+02  0.51100000000E-03 0.  1.
    9900012    2    1    2    0    0  0.32646079665E+02 -0.28522365661E+02 -0.20812270757E+01  0.47787269977E+02  0.19999995132E+02 0.  0.
        -12    1    1    2    0    0 -0.32646079665E+02  0.28522365661E+02  0.20812270757E+01  0.43400730023E+02  0.00000000000E+00 0.  1.
         11    1    3    3    0    0  0.14679348662E+01 -0.17233147814E+01  0.26085092810E+01  0.34538337449E+01  0.51100000000E-03 0. -1.
        -11    1    3    3    0    0  0.63010440221E+01 -0.18458435359E+00 -0.47659071832E+01  0.79026007550E+01  0.51100000000E-03 0.  1.
         12    1    3    3    0    0  0.24877100777E+02 -0.26614466526E+02  0.76170826472E-01  0.36430835477E+02  0.00000000000E+00 0. -1.
</event>
<event>
 7    1  0.4592673E-010  0.4778727E+02  0.7816164E-02  0.1312668E+00
        -11   -1    0    0    0    0  0.00000000000E+00  0.00000000000E+00  0.45593999997E+02  0.45594000000E+02  0.51100000000E-03 0. -1.
         11   -1    0    0    0    0 -0.00000000000E+00 -0.00000000000E+00 -0.45593999997E+02  0.45594000000E+02  0.51100000000E-03 0.  1.
    9900012    2    1    2    0    0  0.20025569430E+02  0.32574246994E+02  0.20530905544E+02  0.47787273270E+02  0.20000010149E+02 0.  0.
        -12    1    1    2    0    0 -0.20025569430E+02 -0.32574246994E+02 -0.20530905544E+02  0.43400726730E+02  0.00000000000E+00 0.  1.
         11    1    3    3    0    0  0.13397642335E+02  0.29870386622E+02  0.17524790348E+02  0.37132938128E+02  0.51100000000E-03 0. -1.
        -11    1    3    3    0    0  0.66809148422E+01  0.39108877800E+01  0.43234126292E+01  0.88668801379E+01  0.51100000000E-03 0.  1.
         12    1    3    3    0    0 -0.52987747353E-01 -0.12070274076E+01 -0.13172974331E+01  0.17874550040E+01  0.00000000000E+00 0. -1.
</event>
<event>
 7    1  0.4592673E-010  0.4778727E+02  0.7816164E-02  0.1312668E+00
        -11   -1    0    0    0    0  0.00000000000E+00  0.00000000000E+00  0.45593999997E+02  0.45594000000E+02  0.51100000000E-03 0.  1.
         11   -1    0    0    0    0 -0.00000000000E+00 -0.00000000000E+00 -0.45593999997E+02  0.45594000000E+02  0.51100000000E-03 0. -1.
    9900012    2    1    2    0    0  0.10514209482E+02  0.37966058772E+02 -0.18211342532E+02  0.47787271705E+02  0.20000003010E+02 0.  0.
        -12    1    1    2    0    0 -0.10514209482E+02 -0.37966058772E+02  0.18211342532E+02  0.43400728295E+02  0.00000000000E+00 0.  1.
         11    1    3    3    0    0 -0.46531167339E+00  0.16818399789E+02 -0.49420774334E+01  0.17535655563E+02  0.51100000000E-03 0.  1.
        -11    1    3    3    0    0  0.31672639383E+01  0.18714179738E+02 -0.86922772032E+01  0.20876009373E+02  0.51100000000E-03 0. -1.
         12    1    3    3    0    0  0.78122572174E+01  0.24334792456E+01 -0.45769878958E+01  0.93756067680E+01  0.00000000000E+00 0. -1.
</event>
<event>
 7    1  0.4592673E-010  0.4778727E+02  0.7816164E-02  0.1312668E+00
        -11   -1    0    0    0    0  0.00000000000E+00  0.00000000000E+00  0.45593999997E+02  0.45594000000E+02  0.51100000000E-03 0. -1.
         11   -1    0    0    0    0 -0.00000000000E+00 -0.00000000000E+00 -0.45593999997E+02  0.45594000000E+02  0.51100000000E-03 0.  1.
    9900012    2    1    2    0    0 -0.36301928835E+02 -0.91840969730E+01 -0.21941870163E+02  0.47787270276E+02  0.19999996496E+02 0.  0.
        -12    1    1    2    0    0  0.36301928835E+02  0.91840969730E+01  0.21941870163E+02  0.43400729724E+02  0.00000000000E+00 0.  1.
         11    1    3    3    0    0 -0.71985507333E+01  0.39696025741E+00 -0.62765461300E+00  0.72367576083E+01  0.51100000000E-03 0. -1.
        -11    1    3    3    0    0  0.25161065092E+00  0.26666049910E+01 -0.19363752568E+01  0.33050929630E+01  0.51100000000E-03 0.  1.
        -12    1    3    3    0    0 -0.29354988752E+02 -0.12247662221E+02 -0.19377840293E+02  0.37245419705E+02  0.00000000000E+00 0.  1.
</event>
<event>
 7    1  0.4592673E-010  0.4778727E+02  0.7816164E-02  0.1312668E+00
        -11   -1    0    0    0    0  0.00000000000E+00  0.00000000000E+00  0.45593999997E+02  0.45594000000E+02  0.51100000000E-03 0. -1.
         11   -1    0    0    0    0 -0.00000000000E+00 -0.00000000000E+00 -0.45593999997E+02  0.45594000000E+02  0.51100000000E-03 0.  1.
    9900012    2    1    2    0    0  0.92342670446E+01  0.40778420607E+02 -0.11639241538E+02  0.47787271681E+02  0.20000002901E+02 0.  0.
        -12    1    1    2    0    0 -0.92342670446E+01 -0.40778420607E+02  0.11639241538E+02  0.43400728319E+02  0.00000000000E+00 0.  1.
         11    1    3    3    0    0  0.32854627086E+00  0.85506771809E+01 -0.19755777944E+01  0.87820800946E+01  0.51100000000E-03 0. -1.
        -11    1    3    3    0    0 -0.51575199139E+01  0.65176515301E+01 -0.37083504683E+01  0.91011898446E+01  0.51100000000E-03 0.  1.
         12    1    3    3    0    0  0.14063240688E+02  0.25710091896E+02 -0.59553132756E+01  0.29904001741E+02  0.00000000000E+00 0. -1.
</event>
<event>
 7    1  0.4592673E-010  0.4778727E+02  0.7816164E-02  0.1312668E+00
        -11   -1    0    0    0    0  0.00000000000E+00  0.00000000000E+00  0.45593999997E+02  0.45594000000E+02  0.51100000000E-03 0.  1.
         11   -1    0    0    0    0 -0.00000000000E+00 -0.00000000000E+00 -0.45593999997E+02  0.45594000000E+02  0.51100000000E-03 0. -1.
    9900012    2    1    2    0    0  0.21413092689E+02  0.16852894718E+02 -0.33779913797E+02  0.47787272183E+02  0.20000005193E+02 0.  0.
        -12    1    1    2    0    0 -0.21413092689E+02 -0.16852894718E+02  0.33779913797E+02  0.43400727817E+02  0.00000000000E+00 0.  1.
         11    1    3    3    0    0  0.40955201152E+01  0.54716293003E+01 -0.53065983635E+01  0.86528607215E+01  0.51100000000E-03 0. -1.
        -11    1    3    3    0    0 -0.19516861305E+01  0.37408703928E+01 -0.11801522740E+02  0.12533121291E+02  0.51100000000E-03 0.  1.
         12    1    3    3    0    0  0.19269258704E+02  0.76403950248E+01 -0.16671792693E+02  0.26601290171E+02  0.00000000000E+00 0. -1.
</event>
<event>
 7    1  0.4592673E-010  0.4778727E+02  0.7816164E-02  0.1312668E+00
        -11   -1    0    0    0    0  0.00000000000E+00  0.00000000000E+00  0.45593999997E+02  0.45594000000E+02  0.51100000000E-03 0.  1.
         11   -1    0    0    0    0 -0.00000000000E+00 -0.00000000000E+00 -0.45593999997E+02  0.45594000000E+02  0.51100000000E-03 0. -1.
    9900012    2    1    2    0    0 -0.40573077013E+02 -0.15287421477E+02  0.19347305647E+01  0.47787274015E+02  0.20000013543E+02 0.  0.
        -12    1    1    2    0    0  0.40573077013E+02  0.15287421477E+02 -0.19347305647E+01  0.43400725985E+02  0.00000000000E+00 0.  1.
         11    1    3    3    0    0 -0.94667400108E+01 -0.27718378920E+01  0.58201211470E+01  0.11453211871E+02  0.51100000000E-03 0. -1.
        -11    1    3    3    0    0 -0.16027039392E+02 -0.13213323666E+02 -0.10234810693E+00  0.20771817190E+02  0.51100000000E-03 0.  1.
         12    1    3    3    0    0 -0.15079297610E+02  0.69774008149E+00 -0.37830424753E+01  0.15562244954E+02  0.00000000000E+00 0. -1.
</event>
<event>
 7    1  0.4592673E-010  0.4778727E+02  0.7816164E-02  0.1312668E+00
        -11   -1    0    0    0    0  0.00000000000E+00  0.00000000000E+00  0.45593999997E+02  0.45594000000E+02  0.51100000000E-03 0. -1.
         11   -1    0    0    0    0 -0.00000000000E+00 -0.00000000000E+00 -0.45593999997E+02  0.45594000000E+02  0.51100000000E-03 0.  1.
    9900012    2    1    2    0    0  0.42595788188E+02  0.11777826869E+01  0.82361762168E+01  0.47787274866E+02  0.20000017425E+02 0.  0.
        -12    1    1    2    0    0 -0.42595788188E+02 -0.11777826869E+01 -0.82361762168E+01  0.43400725134E+02  0.00000000000E+00 0.  1.
         11    1    3    3    0    0  0.17780883785E+02 -0.25705269924E+01  0.10001938262E+02  0.20562251979E+02  0.51100000000E-03 0.  1.
        -11    1    3    3    0    0  0.16205604112E+02 -0.11994828162E+01  0.24570050555E+01  0.16434635309E+02  0.51100000000E-03 0. -1.
        -12    1    3    3    0    0  0.86093002915E+01  0.49477924955E+01 -0.42227671006E+01  0.10790387578E+02  0.00000000000E+00 0.  1.
</event>
<event>
 7    1  0.4592673E-010  0.4778728E+02  0.7816164E-02  0.1312668E+00
        -11   -1    0    0    0    0  0.00000000000E+00  0.00000000000E+00  0.45593999997E+02  0.45594000000E+02  0.51100000000E-03 0.  1.
         11   -1    0    0    0    0 -0.00000000000E+00 -0.00000000000E+00 -0.45593999997E+02  0.45594000000E+02  0.51100000000E-03 0. -1.
    9900012    2    1    2    0    0  0.10301277574E+01 -0.31716251842E+02 -0.29608125536E+02  0.47787275445E+02  0.20000020066E+02 0.  0.
        -12    1    1    2    0    0 -0.10301277574E+01  0.31716251842E+02  0.29608125536E+02  0.43400724555E+02  0.00000000000E+00 0.  1.
         11    1    3    3    0    0 -0.53947743306E+01 -0.13145326681E+02 -0.13174535679E+02  0.19377089417E+02  0.51100000000E-03 0. -1.
        -11    1    3    3    0    0  0.11437965497E+01 -0.94050079969E+01 -0.14990809506E+02  0.17733776131E+02  0.51100000000E-03 0.  1.
        -12    1    3    3    0    0  0.52811055383E+01 -0.91659171637E+01 -0.14427803509E+01  0.10676409898E+02  0.00000000000E+00 0.  1.
</event>
<event>
 7    1  0.4592673E-010  0.4778727E+02  0.7816164E-02  0.1312668E+00
        -11   -1    0    0    0    0  0.00000000000E+00  0.00000000000E+00  0.45593999997E+02  0.45594000000E+02  0.51100000000E-03 0.  1.
         11   -1    0    0    0    0 -0.00000000000E+00 -0.00000000000E+00 -0.45593999997E+02  0.45594000000E+02  0.51100000000E-03 0. -1.
    9900012    2    1    2    0    0  0.35039047619E+02  0.25083988509E+02 -0.51654595540E+01  0.47787270628E+02  0.19999998104E+02 0.  0.
        -12    1    1    2    0    0 -0.35039047619E+02 -0.25083988509E+02  0.51654595540E+01  0.43400729372E+02  0.00000000000E+00 0.  1.
         11    1    3    3    0    0  0.95674726454E+01  0.68580658551E+01  0.33311267332E+01  0.12233805854E+02  0.51100000000E-03 0.  1.
        -11    1    3    3    0    0  0.71338686580E+01  0.12894682060E+02 -0.21488793090E+00  0.14738082798E+02  0.51100000000E-03 0. -1.
         12    1    3    3    0    0  0.18337706316E+02  0.53312405936E+01 -0.82816983562E+01  0.20815381977E+02  0.00000000000E+00 0. -1.
</event>
<event>
 7    1  0.4592673E-010  0.4778727E+02  0.7816164E-02  0.1312668E+00
        -11   -1    0    0    0    0  0.00000000000E+00  0.00000000000E+00  0.45593999997E+02  0.45594000000E+02  0.51100000000E-03 0.  1.
         11   -1    0    0    0    0 -0.00000000000E+00 -0.00000000000E+00 -0.45593999997E+02  0.45594000000E+02  0.51100000000E-03 0. -1.
    9900012    2    1    2    0    0 -0.60893711931E+01 -0.15433865116E+02 -0.40104096024E+02  0.47787272450E+02  0.20000006410E+02 0.  0.
        -12    1    1    2    0    0  0.60893711931E+01  0.15433865116E+02  0.40104096024E+02  0.43400727550E+02  0.00000000000E+00 0.  1.
         11    1    3    3    0    0 -0.34206374748E+01 -0.54920462690E+01 -0.22114858365E+02  0.23041924696E+02  0.51100000000E-03 0. -1.
        -11    1    3    3    0    0 -0.32359785500E+00 -0.55061930582E+01 -0.18862595648E+02  0.19652490743E+02  0.51100000000E-03 0.  1.
        -12    1    3    3    0    0 -0.23451358633E+01 -0.44356257890E+01  0.87335798892E+00  0.50928570109E+01  0.00000000000E+00 0.  1.
</event>
<event>
 7    1  0.4592673E-010  0.4778727E+02  0.7816164E-02  0.1312668E+00
        -11   -1    0    0    0    0  0.00000000000E+00  0.00000000000E+00  0.45593999997E+02  0.45594000000E+02  0.51100000000E-03 0. -1.
         11   -1    0    0    0    0 -0.00000000000E+00 -0.00000000000E+00 -0.45593999997E+02  0.45594000000E+02  0.51100000000E-03 0.  1.
    9900012    2    1    2    0    0 -0.25765563985E+02 -0.19909744116E+02  0.28694269609E+02  0.47787270667E+02  0.19999998279E+02 0.  0.
        -12    1    1    2    0    0  0.25765563985E+02  0.19909744116E+02 -0.28694269609E+02  0.43400729333E+02  0.00000000000E+00 0.  1.
         11    1    3    3    0    0 -0.17055393299E+02 -0.82238401171E+01  0.18483306022E+02  0.26460358815E+02  0.51100000000E-03 0. -1.
        -11    1    3    3    0    0 -0.29038859165E+01 -0.29927268020E+00  0.77887538399E+01  0.83178605538E+01  0.51100000000E-03 0.  1.
        -12    1    3    3    0    0 -0.58062847693E+01 -0.11386631319E+02  0.24222097469E+01  0.13009051298E+02  0.00000000000E+00 0.  1.
</event>
<event>
 7    1  0.4592673E-010  0.4778727E+02  0.7816164E-02  0.1312668E+00
        -11   -1    0    0    0    0  0.00000000000E+00  0.00000000000E+00  0.45593999997E+02  0.45594000000E+02  0.51100000000E-03 0.  1.
         11   -1    0    0    0    0 -0.00000000000E+00 -0.00000000000E+00 -0.45593999997E+02  0.45594000000E+02  0.51100000000E-03 0. -1.
    9900012    2    1    2    0    0 -0.12956984899E+02 -0.10039864546E+02 -0.40186323612E+02  0.47787274854E+02  0.20000017370E+02 0.  0.
        -12    1    1    2    0    0  0.12956984899E+02  0.10039864546E+02  0.40186323612E+02  0.43400725146E+02  0.00000000000E+00 0.  1.
         11    1    3    3    0    0 -0.12443715456E+02 -0.31737420395E+01 -0.20128859283E+02  0.23876550614E+02  0.51100000000E-03 0. -1.
        -11    1    3    3    0    0 -0.38762083807E+01 -0.75936436531E+01 -0.17960491162E+02  0.19881339451E+02  0.51100000000E-03 0.  1.
        -12    1    3    3    0    0  0.33629389380E+01  0.72752114700E+00 -0.20969731667E+01  0.40293847895E+01  0.00000000000E+00 0.  1.
</event>
<event>
 7    1  0.4592673E-010  0.4778727E+02  0.7816164E-02  0.1312668E+00
        -11   -1    0    0    0    0  0.00000000000E+00  0.00000000000E+00  0.45593999997E+02  0.45594000000E+02  0.51100000000E-03 0. -1.
         11   -1    0    0    0    0 -0.00000000000E+00 -0.00000000000E+00 -0.45593999997E+02  0.45594000000E+02  0.51100000000E-03 0.  1.
    9900012    2    1    2    0    0 -0.12221369111E+02 -0.40188285344E+02  0.10916194567E+02  0.47787269065E+02  0.19999990976E+02 0.  0.
        -12    1    1    2    0    0  0.12221369111E+02  0.40188285344E+02 -0.10916194567E+02  0.43400730935E+02  0.00000000000E+00 0.  1.
         11    1    3    3    0    0 -0.31985249543E+01  0.55734989585E+00  0.16994494532E+01  0.36646049575E+01  0.51100000000E-03 0. -1.
        -11    1    3    3    0    0 -0.66132498357E+00 -0.34821299265E+01 -0.23103071447E+01  0.42308508509E+01  0.51100000000E-03 0.  1.
         12    1    3    3    0    0 -0.83615191732E+01 -0.37263505314E+02  0.11527052259E+02  0.39891813257E+02  0.00000000000E+00 0. -1.
</event>
<event>
 7    1  0.4592673E-010  0.4778727E+02  0.7816164E-02  0.1312668E+00
        -11   -1    0    0    0    0  0.00000000000E+00  0.00000000000E+00  0.45593999997E+02  0.45594000000E+02  0.51100000000E-03 0. -1.
         11   -1    0    0    0    0 -0.00000000000E+00 -0.00000000000E+00 -0.45593999997E+02  0.45594000000E+02  0.51100000000E-03 0.  1.
    9900012    2    1    2    0    0  0.24776783655E+02  0.30171389417E+02  0.18958422187E+02  0.47787268216E+02  0.19999987102E+02 0.  0.
        -12    1    1    2    0    0 -0.24776783655E+02 -0.30171389417E+02 -0.18958422187E+02  0.43400731784E+02  0.00000000000E+00 0.  1.
         11    1    3    3    0    0  0.16398905419E+02  0.12774638496E+02  0.73895027902E+01  0.22061736998E+02  0.51100000000E-03 0. -1.
        -11    1    3    3    0    0  0.92372456933E+01  0.79180062100E+01  0.21874157858E+01  0.12361485284E+02  0.51100000000E-03 0.  1.
        -12    1    3    3    0    0 -0.85936745713E+00  0.94787447107E+01  0.93815036105E+01  0.13364045933E+02  0.00000000000E+00 0.  1.
</event>
<event>
 7    1  0.4592673E-010  0.4778728E+02  0.7816164E-02  0.1312668E+00
        -11   -1    0    0    0    0  0.00000000000E+00  0.00000000000E+00  0.45593999997E+02  0.45594000000E+02  0.51100000000E-03 0.  1.
         11   -1    0    0    0    0 -0.00000000000E+00 -0.00000000000E+00 -0.45593999997E+02  0.45594000000E+02  0.51100000000E-03 0. -1.
    9900012    2    1    2    0    0  0.35266615030E+02  0.15214857085E+02 -0.20208832112E+02  0.47787275270E+02  0.20000019265E+02 0.  0.
        -12    1    1    2    0    0 -0.35266615030E+02 -0.15214857085E+02  0.20208832112E+02  0.43400724730E+02  0.00000000000E+00 0.  1.
         11    1    3    3    0    0  0.93627083753E+00 -0.25891190470E+01 -0.24659571630E+01  0.36960905714E+01  0.51100000000E-03 0. -1.
        -11    1    3    3    0    0  0.13993601480E+02  0.68044831044E+01 -0.13466232430E+02  0.20578175060E+02  0.51100000000E-03 0.  1.
        -12    1    3    3    0    0  0.20336742712E+02  0.10999493028E+02 -0.42766425193E+01  0.23513009638E+02  0.00000000000E+00 0.  1.
</event>
<event>
 7    1  0.4592673E-010  0.4778727E+02  0.7816164E-02  0.1312668E+00
        -11   -1    0    0    0    0  0.00000000000E+00  0.00000000000E+00  0.45593999997E+02  0.45594000000E+02  0.51100000000E-03 0.  1.
         11   -1    0    0    0    0 -0.00000000000E+00 -0.00000000000E+00 -0.45593999997E+02  0.45594000000E+02  0.51100000000E-03 0. -1.
    9900012    2    1    2    0    0 -0.34758909016E+02  0.54213581949E+01 -0.25417522172E+02  0.47787270582E+02  0.19999997892E+02 0.  0.
        -12    1    1    2    0    0  0.34758909016E+02 -0.54213581949E+01  0.25417522172E+02  0.43400729418E+02  0.00000000000E+00 0.  1.
         11    1    3    3    0    0  0.68040800849E+00 -0.29186981044E+00  0.14626894042E+01  0.16393912280E+01  0.51100000000E-03 0. -1.
        -11    1    3    3    0    0  0.25908523403E+00  0.15339995868E+01 -0.87973616481E+00  0.17872369377E+01  0.51100000000E-03 0.  1.
         12    1    3    3    0    0 -0.35698402258E+02  0.41792284186E+01 -0.26000475412E+02  0.44360642416E+02  0.00000000000E+00 0. -1.
</event>
<event>
 7    1  0.4592673E-010  0.4778727E+02  0.7816164E-02  0.1312668E+00
        -11   -1    0    0    0    0  0.00000000000E+00  0.00000000000E+00  0.45593999997E+02  0.45594000000E+02  0.51100000000E-03 0.  1.
         11   -1    0    0    0    0 -0.00000000000E+00 -0.00000000000E+00 -0.45593999997E+02  0.45594000000E+02  0.51100000000E-03 0. -1.
    9900012    2    1    2    0    0  0.18589544899E+02 -0.18302160806E+02 -0.34685489103E+02  0.47787269314E+02  0.19999992112E+02 0.  0.
        -12    1    1    2    0    0 -0.18589544899E+02  0.18302160806E+02  0.34685489103E+02  0.43400730686E+02  0.00000000000E+00 0.  1.
         11    1    3    3    0    0  0.13219295781E+02 -0.95176194776E+01 -0.10993519091E+02  0.19651776605E+02  0.51100000000E-03 0. -1.
        -11    1    3    3    0    0 -0.98301754358E+00 -0.32517461090E+01 -0.46614134408E+00  0.34289159019E+01  0.51100000000E-03 0.  1.
        -12    1    3    3    0    0  0.63532666618E+01 -0.55327952192E+01 -0.23225828669E+02  0.24706576808E+02  0.00000000000E+00 0.  1.
</event>
<event>
 7    1  0.4592673E-010  0.4778727E+02  0.7816164E-02  0.1312668E+00
        -11   -1    0    0    0    0  0.00000000000E+00  0.00000000000E+00  0.45593999997E+02  0.45594000000E+02  0.51100000000E-03 0.  1.
         11   -1    0    0    0    0 -0.00000000000E+00 -0.00000000000E+00 -0.45593999997E+02  0.45594000000E+02  0.51100000000E-03 0. -1.
    9900012    2    1    2    0    0  0.33230950296E+02  0.18876727751E+02  0.20566881405E+02  0.47787268222E+02  0.19999987131E+02 0.  0.
        -12    1    1    2    0    0 -0.33230950296E+02 -0.18876727751E+02 -0.20566881405E+02  0.43400731778E+02  0.00000000000E+00 0.  1.
         11    1    3    3    0    0  0.22527793594E+02  0.12044237988E+02  0.17407224247E+02  0.30912402191E+02  0.51100000000E-03 0. -1.
        -11    1    3    3    0    0  0.15550089742E+01 -0.54179273039E+00  0.47408533475E+01  0.50186933555E+01  0.51100000000E-03 0.  1.
         12    1    3    3    0    0  0.91481477271E+01  0.73742824932E+01 -0.15811961896E+01  0.11856172676E+02  0.00000000000E+00 0. -1.
</event>
<event>
 7    1  0.4592673E-010  0.4778727E+02  0.7816164E-02  0.1312668E+00
        -11   -1    0    0    0    0  0.00000000000E+00  0.00000000000E+00  0.45593999997E+02  0.45594000000E+02  0.51100000000E-03 0. -1.
         11   -1    0    0    0    0 -0.00000000000E+00 -0.00000000000E+00 -0.45593999997E+02  0.45594000000E+02  0.51100000000E-03 0.  1.
    9900012    2    1    2    0    0 -0.36172247925E+02 -0.21345750045E+02  0.10933935395E+02  0.47787268345E+02  0.19999987694E+02 0.  0.
        -12    1    1    2    0    0  0.36172247925E+02  0.21345750045E+02 -0.10933935395E+02  0.43400731655E+02  0.00000000000E+00 0.  1.
         11    1    3    3    0    0 -0.15307366928E+02 -0.74744851450E+01 -0.21367639042E+01  0.17168260561E+02  0.51100000000E-03 0.  1.
        -11    1    3    3    0    0 -0.18713092516E+02 -0.94030936088E+01  0.56461606503E+01  0.21690484810E+02  0.51100000000E-03 0. -1.
        -12    1    3    3    0    0 -0.21517884802E+01 -0.44681712915E+01  0.74245386487E+01  0.89285229741E+01  0.00000000000E+00 0.  1.
</event>
<event>
 7    1  0.4592673E-010  0.4778727E+02  0.7816164E-02  0.1312668E+00
        -11   -1    0    0    0    0  0.00000000000E+00  0.00000000000E+00  0.45593999997E+02  0.45594000000E+02  0.51100000000E-03 0. -1.
         11   -1    0    0    0    0 -0.00000000000E+00 -0.00000000000E+00 -0.45593999997E+02  0.45594000000E+02  0.51100000000E-03 0.  1.
    9900012    2    1    2    0    0  0.39868631356E+02  0.40603338039E+01  0.16662213035E+02  0.47787269361E+02  0.19999992324E+02 0.  0.
        -12    1    1    2    0    0 -0.39868631356E+02 -0.40603338039E+01 -0.16662213035E+02  0.43400730639E+02  0.00000000000E+00 0.  1.
         11    1    3    3    0    0  0.69730424475E+01 -0.20644509181E+00 -0.13807010971E+01  0.71114187284E+01  0.51100000000E-03 0. -1.
        -11    1    3    3    0    0  0.25832376902E+02 -0.31302156207E+01  0.14854534292E+02  0.29962762481E+02  0.51100000000E-03 0.  1.
        -12    1    3    3    0    0  0.70632120066E+01  0.73969945164E+01  0.31883798403E+01  0.10713088151E+02  0.00000000000E+00 0.  1.
</event>
<event>
 7    1  0.4592673E-010  0.4778727E+02  0.7816164E-02  0.1312668E+00
        -11   -1    0    0    0    0  0.00000000000E+00  0.00000000000E+00  0.45593999997E+02  0.45594000000E+02  0.51100000000E-03 0. -1.
         11   -1    0    0    0    0 -0.00000000000E+00 -0.00000000000E+00 -0.45593999997E+02  0.45594000000E+02  0.51100000000E-03 0.  1.
    9900012    2    1    2    0    0  0.62813390305E+00 -0.38697470483E+02  0.19640117460E+02  0.47787274340E+02  0.20000015025E+02 0.  0.
        -12    1    1    2    0    0 -0.62813390305E+00  0.38697470483E+02 -0.19640117460E+02  0.43400725660E+02  0.00000000000E+00 0.  1.
         11    1    3    3    0    0  0.62767281721E+01 -0.74357904345E+01  0.39474488918E+01  0.10500983237E+02  0.51100000000E-03 0. -1.
        -11    1    3    3    0    0 -0.17247486248E+01 -0.30215404502E+01  0.64248695350E+01  0.73063953707E+01  0.51100000000E-03 0.  1.
         12    1    3    3    0    0 -0.39238456443E+01 -0.28240139598E+02  0.92677990332E+01  0.29979895732E+02  0.00000000000E+00 0. -1.
</event>
<event>
 7    1  0.4592673E-010  0.4778727E+02  0.7816164E-02  0.1312668E+00
        -11   -1    0    0    0    0  0.00000000000E+00  0.00000000000E+00  0.45593999997E+02  0.45594000000E+02  0.51100000000E-03 0.  1.
         11   -1    0    0    0    0 -0.00000000000E+00 -0.00000000000E+00 -0.45593999997E+02  0.45594000000E+02  0.51100000000E-03 0. -1.
    9900012    2    1    2    0    0  0.32959563657E+02  0.21726416949E+02 -0.18034782448E+02  0.47787269501E+02  0.19999992961E+02 0.  0.
        -12    1    1    2    0    0 -0.32959563657E+02 -0.21726416949E+02  0.18034782448E+02  0.43400730499E+02  0.00000000000E+00 0.  1.
         11    1    3    3    0    0  0.63925538625E+01  0.20869865181E+01 -0.51436588765E+01  0.84662556370E+01  0.51100000000E-03 0. -1.
        -11    1    3    3    0    0  0.38468649381E+01  0.12595561349E+02 -0.27051508187E+01  0.13444864326E+02  0.51100000000E-03 0.  1.
        -12    1    3    3    0    0  0.22720144856E+02  0.70438690828E+01 -0.10185972753E+02  0.25876149537E+02  0.00000000000E+00 0.  1.
</event>
<event>
 7    1  0.4592673E-010  0.4778727E+02  0.7816164E-02  0.1312668E+00
        -11   -1    0    0    0    0  0.00000000000E+00  0.00000000000E+00  0.45593999997E+02  0.45594000000E+02  0.51100000000E-03 0. -1.
         11   -1    0    0    0    0 -0.00000000000E+00 -0.00000000000E+00 -0.45593999997E+02  0.45594000000E+02  0.51100000000E-03 0.  1.
    9900012    2    1    2    0    0 -0.82805068869E+00  0.17088879241E+02  0.39886182465E+02  0.47787274047E+02  0.20000013688E+02 0.  0.
        -12    1    1    2    0    0  0.82805068869E+00 -0.17088879241E+02 -0.39886182465E+02  0.43400725953E+02  0.00000000000E+00 0.  1.
         11    1    3    3    0    0 -0.38613233344E+01 -0.21450896200E+00  0.50771434240E+01  0.63822580327E+01  0.51100000000E-03 0. -1.
        -11    1    3    3    0    0 -0.14303150778E+01  0.17252769122E+01 -0.72081012680E+00  0.23541344791E+01  0.51100000000E-03 0.  1.
         12    1    3    3    0    0  0.44635877235E+01  0.15578111291E+02  0.35529849168E+02  0.39050881535E+02  0.00000000000E+00 0. -1.
</event>
<event>
 7    1  0.4592673E-010  0.4778732E+02  0.7816164E-02  0.1312668E+00
        -11   -1    0    0    0    0  0.00000000000E+00  0.00000000000E+00  0.45593999997E+02  0.45594000000E+02  0.51100000000E-03 0.  1.
         11   -1    0    0    0    0 -0.00000000000E+00 -0.00000000000E+00 -0.45593999997E+02  0.45594000000E+02  0.51100000000E-03 0. -1.
    9900012    2    1    2    0    0 -0.22840142341E+02 -0.25145501667E+02 -0.27012049327E+02  0.47787318380E+02  0.20000215820E+02 0.  0.
        -12    1    1    2    0    0  0.22840142341E+02  0.25145501667E+02  0.27012049327E+02  0.43400681620E+02  0.00000000000E+00 0.  1.
         11    1    3    3    0    0 -0.13696214727E+02 -0.63909601746E+01 -0.15607897451E+02  0.21726415556E+02  0.51100000000E-03 0.  1.
        -11    1    3    3    0    0 -0.88504075516E+01 -0.70395834520E+01 -0.80185897653E+01  0.13863016666E+02  0.51100000000E-03 0. -1.
        -12    1    3    3    0    0 -0.29352006274E+00 -0.11714958040E+02 -0.33855621107E+01  0.12197886158E+02  0.00000000000E+00 0.  1.
</event>
<event>
 7    1  0.4592673E-010  0.4778723E+02  0.7816164E-02  0.1312668E+00
        -11   -1    0    0    0    0  0.00000000000E+00  0.00000000000E+00  0.45593999997E+02  0.45594000000E+02  0.51100000000E-03 0.  1.
         11   -1    0    0    0    0 -0.00000000000E+00 -0.00000000000E+00 -0.45593999997E+02  0.45594000000E+02  0.51100000000E-03 0. -1.
    9900012    2    1    2    0    0 -0.19323948379E+02  0.38225169543E+02  0.70034519254E+01  0.47787229196E+02  0.19999809196E+02 0.  0.
        -12    1    1    2    0    0  0.19323948379E+02 -0.38225169543E+02 -0.70034519254E+01  0.43400770804E+02  0.00000000000E+00 0.  1.
         11    1    3    3    0    0 -0.12900157027E+02  0.14020481969E+02  0.38906406829E+01  0.19445437797E+02  0.51100000000E-03 0. -1.
        -11    1    3    3    0    0 -0.69286111459E+01  0.42183420863E+01  0.17797944105E+01  0.83046812566E+01  0.51100000000E-03 0.  1.
        -12    1    3    3    0    0  0.50481979395E+00  0.19986345488E+02  0.13330168320E+01  0.20037110142E+02  0.00000000000E+00 0.  1.
</event>
<event>
 7    1  0.4592673E-010  0.4778727E+02  0.7816164E-02  0.1312668E+00
        -11   -1    0    0    0    0  0.00000000000E+00  0.00000000000E+00  0.45593999997E+02  0.45594000000E+02  0.51100000000E-03 0.  1.
         11   -1    0    0    0    0 -0.00000000000E+00 -0.00000000000E+00 -0.45593999997E+02  0.45594000000E+02  0.51100000000E-03 0. -1.
    9900012    2    1    2    0    0  0.19523144275E+02 -0.17460691399E+02 -0.34606279546E+02  0.47787268549E+02  0.19999988620E+02 0.  0.
        -12    1    1    2    0    0 -0.19523144275E+02  0.17460691399E+02  0.34606279546E+02  0.43400731451E+02  0.00000000000E+00 0.  1.
         11    1    3    3    0    0  0.10435535998E+02 -0.14020370041E+01 -0.91604974903E+01  0.13956390431E+02  0.51100000000E-03 0. -1.
        -11    1    3    3    0    0  0.54124070182E-01 -0.41793618163E+01  0.17180769294E+00  0.41832418949E+01  0.51100000000E-03 0.  1.
         12    1    3    3    0    0  0.90334842067E+01 -0.11879292579E+02 -0.25617589748E+02  0.29647636223E+02  0.00000000000E+00 0. -1.
</event>
<event>
 7    1  0.4592673E-010  0.4778727E+02  0.7816164E-02  0.1312668E+00
        -11   -1    0    0    0    0  0.00000000000E+00  0.00000000000E+00  0.45593999997E+02  0.45594000000E+02  0.51100000000E-03 0.  1.
         11   -1    0    0    0    0 -0.00000000000E+00 -0.00000000000E+00 -0.45593999997E+02  0.45594000000E+02  0.51100000000E-03 0. -1.
    9900012    2    1    2    0    0  0.37712726030E+02 -0.20246664606E+02 -0.71725947490E+01  0.47787271346E+02  0.20000001375E+02 0.  0.
        -12    1    1    2    0    0 -0.37712726030E+02  0.20246664606E+02  0.71725947490E+01  0.43400728654E+02  0.00000000000E+00 0.  1.
         11    1    3    3    0    0  0.26660085624E+01  0.12303046804E+01 -0.19903036709E+01  0.35471904692E+01  0.51100000000E-03 0.  1.
        -11    1    3    3    0    0  0.32957992667E+02 -0.13753496783E+02 -0.59406170118E+01  0.36203299368E+02  0.51100000000E-03 0. -1.
         12    1    3    3    0    0  0.20887248009E+01 -0.77234725030E+01  0.75832593370E+00  0.80367815088E+01  0.00000000000E+00 0. -1.
</event>
<event>
 7    1  0.4592673E-010  0.4778727E+02  0.7816164E-02  0.1312668E+00
        -11   -1    0    0    0    0  0.00000000000E+00  0.00000000000E+00  0.45593999997E+02  0.45594000000E+02  0.51100000000E-03 0. -1.
         11   -1    0    0    0    0 -0.00000000000E+00 -0.00000000000E+00 -0.45593999997E+02  0.45594000000E+02  0.51100000000E-03 0.  1.
    9900012    2    1    2    0    0 -0.14689201174E+02 -0.23731920682E+02  0.33236226943E+02  0.47787268765E+02  0.19999989606E+02 0.  0.
        -12    1    1    2    0    0  0.14689201174E+02  0.23731920682E+02 -0.33236226943E+02  0.43400731235E+02  0.00000000000E+00 0.  1.
         11    1    3    3    0    0  0.13717901381E+01 -0.44820290658E+01  0.75577547336E+01  0.88932586606E+01  0.51100000000E-03 0. -1.
        -11    1    3    3    0    0  0.18492215905E+01 -0.17179238493E+01 -0.58493285880E+00  0.25909514764E+01  0.51100000000E-03 0.  1.
         12    1    3    3    0    0 -0.17910212902E+02 -0.17531967767E+02  0.26263405068E+02  0.36303058628E+02  0.00000000000E+00 0. -1.
</event>
<event>
 7    1  0.4592673E-010  0.4778727E+02  0.7816164E-02  0.1312668E+00
        -11   -1    0    0    0    0  0.00000000000E+00  0.00000000000E+00  0.45593999997E+02  0.45594000000E+02  0.51100000000E-03 0. -1.
         11   -1    0    0    0    0 -0.00000000000E+00 -0.00000000000E+00 -0.45593999997E+02  0.45594000000E+02  0.51100000000E-03 0.  1.
    9900012    2    1    2    0    0  0.41728330278E+02  0.94529721462E+01  0.72808891808E+01  0.47787267547E+02  0.19999984052E+02 0.  0.
        -12    1    1    2    0    0 -0.41728330278E+02 -0.94529721462E+01 -0.72808891808E+01  0.43400732453E+02  0.00000000000E+00 0.  1.
         11    1    3    3    0    0  0.32276562739E+02  0.12871638247E+02  0.86717703489E+01  0.35814175610E+02  0.51100000000E-03 0. -1.
        -11    1    3    3    0    0  0.85859115558E+01 -0.15536265825E+01  0.10423569150E+01  0.87873853336E+01  0.51100000000E-03 0.  1.
        -12    1    3    3    0    0  0.86585598389E+00 -0.18650395184E+01 -0.24332380831E+01  0.31857066028E+01  0.00000000000E+00 0.  1.
</event>
<event>
 7    1  0.4592673E-010  0.4778727E+02  0.7816164E-02  0.1312668E+00
        -11   -1    0    0    0    0  0.00000000000E+00  0.00000000000E+00  0.45593999997E+02  0.45594000000E+02  0.51100000000E-03 0.  1.
         11   -1    0    0    0    0 -0.00000000000E+00 -0.00000000000E+00 -0.45593999997E+02  0.45594000000E+02  0.51100000000E-03 0. -1.
    9900012    2    1    2    0    0  0.54564781034E+01 -0.14095546865E+02 -0.40683724172E+02  0.47787274116E+02  0.20000014007E+02 0.  0.
        -12    1    1    2    0    0 -0.54564781034E+01  0.14095546865E+02  0.40683724172E+02  0.43400725884E+02  0.00000000000E+00 0.  1.
         11    1    3    3    0    0 -0.48310529817E+01 -0.39904013424E+01 -0.79011358291E+01  0.10084162010E+02  0.51100000000E-03 0. -1.
        -11    1    3    3    0    0  0.96667222791E+00  0.34476109650E+00  0.81092204899E+00  0.13080176759E+01  0.51100000000E-03 0.  1.
         12    1    3    3    0    0  0.93208588571E+01 -0.10449906619E+02 -0.33593510392E+02  0.36395094431E+02  0.00000000000E+00 0. -1.
</event>
<event>
 7    1  0.4592673E-010  0.4778727E+02  0.7816164E-02  0.1312668E+00
        -11   -1    0    0    0    0  0.00000000000E+00  0.00000000000E+00  0.45593999997E+02  0.45594000000E+02  0.51100000000E-03 0.  1.
         11   -1    0    0    0    0 -0.00000000000E+00 -0.00000000000E+00 -0.45593999997E+02  0.45594000000E+02  0.51100000000E-03 0. -1.
    9900012    2    1    2    0    0  0.13809554962E+02  0.18445666079E+01 -0.41103734677E+02  0.47787271450E+02  0.20000001851E+02 0.  0.
        -12    1    1    2    0    0 -0.13809554962E+02 -0.18445666079E+01  0.41103734677E+02  0.43400728550E+02  0.00000000000E+00 0.  1.
         11    1    3    3    0    0  0.53310762458E+01 -0.29668785975E+00 -0.27669878898E+02  0.28180322853E+02  0.51100000000E-03 0. -1.
        -11    1    3    3    0    0 -0.73473377803E+00  0.14222734062E+01 -0.93800739760E+01  0.95156966861E+01  0.51100000000E-03 0.  1.
         12    1    3    3    0    0  0.92132124939E+01  0.71898106141E+00 -0.40537818035E+01  0.10091251911E+02  0.00000000000E+00 0. -1.
</event>
<event>
 7    1  0.4592673E-010  0.4778727E+02  0.7816164E-02  0.1312668E+00
        -11   -1    0    0    0    0  0.00000000000E+00  0.00000000000E+00  0.45593999997E+02  0.45594000000E+02  0.51100000000E-03 0. -1.
         11   -1    0    0    0    0 -0.00000000000E+00 -0.00000000000E+00 -0.45593999997E+02  0.45594000000E+02  0.51100000000E-03 0.  1.
    9900012    2    1    2    0    0  0.17177389139E+02  0.44433882529E+01  0.39608289560E+02  0.47787274215E+02  0.20000014457E+02 0.  0.
        -12    1    1    2    0    0 -0.17177389139E+02 -0.44433882529E+01 -0.39608289560E+02  0.43400725785E+02  0.00000000000E+00 0.  1.
         11    1    3    3    0    0  0.13867610571E+02  0.70573140998E+01  0.32263839065E+02  0.35819989067E+02  0.51100000000E-03 0. -1.
        -11    1    3    3    0    0  0.13593669045E+01 -0.21229669362E+01  0.90099454723E+01  0.93559598475E+01  0.51100000000E-03 0.  1.
        -12    1    3    3    0    0  0.19504116633E+01 -0.49095891068E+00 -0.16654949776E+01  0.26113253012E+01  0.00000000000E+00 0.  1.
</event>
<event>
 7    1  0.4592673E-010  0.4778727E+02  0.7816164E-02  0.1312668E+00
        -11   -1    0    0    0    0  0.00000000000E+00  0.00000000000E+00  0.45593999997E+02  0.45594000000E+02  0.51100000000E-03 0.  1.
         11   -1    0    0    0    0 -0.00000000000E+00 -0.00000000000E+00 -0.45593999997E+02  0.45594000000E+02  0.51100000000E-03 0. -1.
    9900012    2    1    2    0    0 -0.35956064628E+02  0.20034635151E+02 -0.13762215700E+02  0.47787265327E+02  0.19999973932E+02 0.  0.
        -12    1    1    2    0    0  0.35956064628E+02 -0.20034635151E+02  0.13762215700E+02  0.43400734673E+02  0.00000000000E+00 0.  1.
         11    1    3    3    0    0 -0.11261064842E+02  0.42072337498E+01 -0.45630433916E+01  0.12858217701E+02  0.51100000000E-03 0. -1.
        -11    1    3    3    0    0 -0.11308676769E+02 -0.62306764381E+00  0.10485712387E+01  0.11374264173E+02  0.51100000000E-03 0.  1.
         12    1    3    3    0    0 -0.13386323017E+02  0.16450469045E+02 -0.10247743547E+02  0.23554783453E+02  0.00000000000E+00 0. -1.
</event>
<event>
 7    1  0.4592673E-010  0.4778729E+02  0.7816164E-02  0.1312668E+00
        -11   -1    0    0    0    0  0.00000000000E+00  0.00000000000E+00  0.45593999997E+02  0.45594000000E+02  0.51100000000E-03 0.  1.
         11   -1    0    0    0    0 -0.00000000000E+00 -0.00000000000E+00 -0.45593999997E+02  0.45594000000E+02  0.51100000000E-03 0. -1.
    9900012    2    1    2    0    0  0.19783021809E+01 -0.20386529666E+02 -0.38263524639E+02  0.47787290454E+02  0.20000088495E+02 0.  0.
        -12    1    1    2    0    0 -0.19783021809E+01  0.20386529666E+02  0.38263524639E+02  0.43400709546E+02  0.00000000000E+00 0.  1.
         11    1    3    3    0    0  0.54295598569E+00 -0.13472211002E+00 -0.12400391995E+02  0.12413004195E+02  0.51100000000E-03 0.  1.
        -11    1    3    3    0    0  0.42731504655E+01 -0.10542302675E+02 -0.21569013816E+02  0.24384878877E+02  0.51100000000E-03 0. -1.
         12    1    3    3    0    0 -0.28378042703E+01 -0.97095048803E+01 -0.42941188275E+01  0.10989407382E+02  0.00000000000E+00 0. -1.
</event>
<event>
 7    1  0.4592673E-010  0.4778727E+02  0.7816164E-02  0.1312668E+00
        -11   -1    0    0    0    0  0.00000000000E+00  0.00000000000E+00  0.45593999997E+02  0.45594000000E+02  0.51100000000E-03 0.  1.
         11   -1    0    0    0    0 -0.00000000000E+00 -0.00000000000E+00 -0.45593999997E+02  0.45594000000E+02  0.51100000000E-03 0. -1.
    9900012    2    1    2    0    0  0.39742086269E+02 -0.52202462148E+01 -0.16641495051E+02  0.47787265570E+02  0.19999975041E+02 0.  0.
        -12    1    1    2    0    0 -0.39742086269E+02  0.52202462148E+01  0.16641495051E+02  0.43400734430E+02  0.00000000000E+00 0.  1.
         11    1    3    3    0    0  0.24796377383E+01  0.68554991767E+00  0.24440604937E+01  0.35485227857E+01  0.51100000000E-03 0. -1.
        -11    1    3    3    0    0  0.51699479852E+00  0.83238423433E+00 -0.37151500866E+01  0.38421982721E+01  0.51100000000E-03 0.  1.
         12    1    3    3    0    0  0.36745453732E+02 -0.67381803668E+01 -0.15370405458E+02  0.40396544512E+02  0.00000000000E+00 0. -1.
</event>
<event>
 7    1  0.4592673E-010  0.4778727E+02  0.7816164E-02  0.1312668E+00
        -11   -1    0    0    0    0  0.00000000000E+00  0.00000000000E+00  0.45593999997E+02  0.45594000000E+02  0.51100000000E-03 0. -1.
         11   -1    0    0    0    0 -0.00000000000E+00 -0.00000000000E+00 -0.45593999997E+02  0.45594000000E+02  0.51100000000E-03 0.  1.
    9900012    2    1    2    0    0  0.31887231209E+02  0.29213154378E+02  0.36632898095E+01  0.47787267343E+02  0.19999983125E+02 0.  0.
        -12    1    1    2    0    0 -0.31887231209E+02 -0.29213154378E+02 -0.36632898095E+01  0.43400732657E+02  0.00000000000E+00 0.  1.
         11    1    3    3    0    0  0.18284793458E+01  0.74740563579E+01  0.52502882273E+01  0.93150620980E+01  0.51100000000E-03 0. -1.
        -11    1    3    3    0    0  0.97874121324E+01  0.29836417676E+01  0.25553651827E+01  0.10546347516E+02  0.51100000000E-03 0.  1.
         12    1    3    3    0    0  0.20271339731E+02  0.18755456252E+02 -0.41423636005E+01  0.27925857730E+02  0.00000000000E+00 0. -1.
</event>
<event>
 7    1  0.4592673E-010  0.4778727E+02  0.7816164E-02  0.1312668E+00
        -11   -1    0    0    0    0  0.00000000000E+00  0.00000000000E+00  0.45593999997E+02  0.45594000000E+02  0.51100000000E-03 0.  1.
         11   -1    0    0    0    0 -0.00000000000E+00 -0.00000000000E+00 -0.45593999997E+02  0.45594000000E+02  0.51100000000E-03 0. -1.
    9900012    2    1    2    0    0 -0.13776121198E+01  0.36743627269E+02  0.23057130749E+02  0.47787271453E+02  0.20000001865E+02 0.  0.
        -12    1    1    2    0    0  0.13776121198E+01 -0.36743627269E+02 -0.23057130749E+02  0.43400728547E+02  0.00000000000E+00 0.  1.
         11    1    3    3    0    0 -0.30259969398E+01  0.39527831313E+01  0.18061416116E+01  0.52955924829E+01  0.51100000000E-03 0. -1.
        -11    1    3    3    0    0  0.25877578996E+01  0.29475476989E+02  0.10818134416E+02  0.31504480113E+02  0.51100000000E-03 0.  1.
        -12    1    3    3    0    0 -0.93937307959E+00  0.33153671486E+01  0.10432854721E+02  0.10987198858E+02  0.00000000000E+00 0.  1.
</event>
<event>
 7    1  0.4592673E-010  0.4778727E+02  0.7816164E-02  0.1312668E+00
        -11   -1    0    0    0    0  0.00000000000E+00  0.00000000000E+00  0.45593999997E+02  0.45594000000E+02  0.51100000000E-03 0.  1.
         11   -1    0    0    0    0 -0.00000000000E+00 -0.00000000000E+00 -0.45593999997E+02  0.45594000000E+02  0.51100000000E-03 0. -1.
    9900012    2    1    2    0    0  0.85591704012E+01 -0.37701104818E+02 -0.19722836722E+02  0.47787274305E+02  0.20000014866E+02 0.  0.
        -12    1    1    2    0    0 -0.85591704012E+01  0.37701104818E+02  0.19722836722E+02  0.43400725695E+02  0.00000000000E+00 0.  1.
         11    1    3    3    0    0  0.35029189628E+01 -0.11397280241E+02 -0.77489065071E+01  0.14220196569E+02  0.51100000000E-03 0. -1.
        -11    1    3    3    0    0 -0.56066641294E+01 -0.13675729882E+02 -0.66058323178E+01  0.16189419117E+02  0.51100000000E-03 0.  1.
         12    1    3    3    0    0  0.10662915568E+02 -0.12628094695E+02 -0.53680978971E+01  0.17377658618E+02  0.00000000000E+00 0. -1.
</event>
<event>
 7    1  0.4592673E-010  0.4778727E+02  0.7816164E-02  0.1312668E+00
        -11   -1    0    0    0    0  0.00000000000E+00  0.00000000000E+00  0.45593999997E+02  0.45594000000E+02  0.51100000000E-03 0.  1.
         11   -1    0    0    0    0 -0.00000000000E+00 -0.00000000000E+00 -0.45593999997E+02  0.45594000000E+02  0.51100000000E-03 0. -1.
    9900012    2    1    2    0    0  0.15703662887E+02 -0.30254240151E+02 -0.26864455267E+02  0.47787273831E+02  0.20000012704E+02 0.  0.
        -12    1    1    2    0    0 -0.15703662887E+02  0.30254240151E+02  0.26864455267E+02  0.43400726169E+02  0.00000000000E+00 0.  1.
         11    1    3    3    0    0  0.13076264109E+01 -0.11555585530E+02 -0.17855066089E+01  0.11765605717E+02  0.51100000000E-03 0. -1.
        -11    1    3    3    0    0 -0.16573838126E+01 -0.25741489291E+01 -0.36754383148E+01  0.47835144902E+01  0.51100000000E-03 0.  1.
         12    1    3    3    0    0  0.16053420289E+02 -0.16124505692E+02 -0.21403510344E+02  0.31238153624E+02  0.00000000000E+00 0. -1.
</event>
<event>
 7    1  0.4592673E-010  0.4778727E+02  0.7816164E-02  0.1312668E+00
        -11   -1    0    0    0    0  0.00000000000E+00  0.00000000000E+00  0.45593999997E+02  0.45594000000E+02  0.51100000000E-03 0. -1.
         11   -1    0    0    0    0 -0.00000000000E+00 -0.00000000000E+00 -0.45593999997E+02  0.45594000000E+02  0.51100000000E-03 0.  1.
    9900012    2    1    2    0    0 -0.31774259373E+02  0.27788211568E+01  0.29432934345E+02  0.47787273855E+02  0.20000012814E+02 0.  0.
        -12    1    1    2    0    0  0.31774259373E+02 -0.27788211568E+01 -0.29432934345E+02  0.43400726145E+02  0.00000000000E+00 0.  1.
         11    1    3    3    0    0 -0.28882694526E+01 -0.72430971865E+00  0.25018492702E+01  0.38892126493E+01  0.51100000000E-03 0. -1.
        -11    1    3    3    0    0  0.27585190371E+01 -0.37437860317E+00  0.20577503880E+01  0.34617803999E+01  0.51100000000E-03 0.  1.
         12    1    3    3    0    0 -0.31644508958E+02  0.38775094786E+01  0.24873334687E+02  0.40436280806E+02  0.00000000000E+00 0. -1.
</event>
<event>
 7    1  0.4592673E-010  0.4778727E+02  0.7816164E-02  0.1312668E+00
        -11   -1    0    0    0    0  0.00000000000E+00  0.00000000000E+00  0.45593999997E+02  0.45594000000E+02  0.51100000000E-03 0.  1.
         11   -1    0    0    0    0 -0.00000000000E+00 -0.00000000000E+00 -0.45593999997E+02  0.45594000000E+02  0.51100000000E-03 0. -1.
    9900012    2    1    2    0    0 -0.10999434154E+02  0.33274586906E+02 -0.25601518017E+02  0.47787269473E+02  0.19999992837E+02 0.  0.
        -12    1    1    2    0    0  0.10999434154E+02 -0.33274586906E+02  0.25601518017E+02  0.43400730527E+02  0.00000000000E+00 0.  1.
         11    1    3    3    0    0 -0.78116248294E+01  0.14921566715E+02 -0.21593199374E+02  0.27385048753E+02  0.51100000000E-03 0. -1.
        -11    1    3    3    0    0  0.19727025133E+01  0.47710050297E+01 -0.26674243411E+01  0.58111270056E+01  0.51100000000E-03 0.  1.
         12    1    3    3    0    0 -0.51605118374E+01  0.13582015161E+02 -0.13408943010E+01  0.14591093715E+02  0.00000000000E+00 0. -1.
</event>
<event>
 7    1  0.4592673E-010  0.4778729E+02  0.7816164E-02  0.1312668E+00
        -11   -1    0    0    0    0  0.00000000000E+00  0.00000000000E+00  0.45593999997E+02  0.45594000000E+02  0.51100000000E-03 0. -1.
         11   -1    0    0    0    0 -0.00000000000E+00 -0.00000000000E+00 -0.45593999997E+02  0.45594000000E+02  0.51100000000E-03 0.  1.
    9900012    2    1    2    0    0  0.42433404551E+02 -0.69554432899E+01 -0.58863946343E+01  0.47787289695E+02  0.20000085035E+02 0.  0.
        -12    1    1    2    0    0 -0.42433404551E+02  0.69554432899E+01  0.58863946343E+01  0.43400710305E+02  0.00000000000E+00 0.  1.
         11    1    3    3    0    0  0.14646113432E+02  0.17596431629E+01 -0.21422446906E+01  0.14906179769E+02  0.51100000000E-03 0.  1.
        -11    1    3    3    0    0  0.23730767724E+02 -0.38829745734E+01  0.22846664957E+01  0.24154637848E+02  0.51100000000E-03 0. -1.
         12    1    3    3    0    0  0.40565233954E+01 -0.48321118794E+01 -0.60288164393E+01  0.87264720782E+01  0.00000000000E+00 0. -1.
</event>
<event>
 7    1  0.4592673E-010  0.4778727E+02  0.7816164E-02  0.1312668E+00
        -11   -1    0    0    0    0  0.00000000000E+00  0.00000000000E+00  0.45593999997E+02  0.45594000000E+02  0.51100000000E-03 0.  1.
         11   -1    0    0    0    0 -0.00000000000E+00 -0.00000000000E+00 -0.45593999997E+02  0.45594000000E+02  0.51100000000E-03 0. -1.
    9900012    2    1    2    0    0  0.38915971105E+02 -0.18497906897E+02 -0.51959704369E+01  0.47787268723E+02  0.19999989415E+02 0.  0.
        -12    1    1    2    0    0 -0.38915971105E+02  0.18497906897E+02  0.51959704369E+01  0.43400731277E+02  0.00000000000E+00 0.  1.
         11    1    3    3    0    0  0.41751110333E+01 -0.51330943381E+01  0.31850687702E+01  0.73433557014E+01  0.51100000000E-03 0.  1.
        -11    1    3    3    0    0  0.13398147565E+01  0.22675381888E+01 -0.39387604990E-01  0.26340813700E+01  0.51100000000E-03 0. -1.
         12    1    3    3    0    0  0.33401045315E+02 -0.15632350748E+02 -0.83416516022E+01  0.37809831651E+02  0.00000000000E+00 0. -1.
</event>
<event>
 7    1  0.4592673E-010  0.4778727E+02  0.7816164E-02  0.1312668E+00
        -11   -1    0    0    0    0  0.00000000000E+00  0.00000000000E+00  0.45593999997E+02  0.45594000000E+02  0.51100000000E-03 0.  1.
         11   -1    0    0    0    0 -0.00000000000E+00 -0.00000000000E+00 -0.45593999997E+02  0.45594000000E+02  0.51100000000E-03 0. -1.
    9900012    2    1    2    0    0 -0.30920924843E+02 -0.15501349076E+02 -0.26215030352E+02  0.47787271519E+02  0.20000002166E+02 0.  0.
        -12    1    1    2    0    0  0.30920924843E+02  0.15501349076E+02  0.26215030352E+02  0.43400728481E+02  0.00000000000E+00 0.  1.
         11    1    3    3    0    0 -0.16190112855E+02 -0.12955772376E+02 -0.72482297224E+01  0.21966078996E+02  0.51100000000E-03 0. -1.
        -11    1    3    3    0    0 -0.60636252816E+01  0.49194366248E+00 -0.17869085879E+01  0.63405522382E+01  0.51100000000E-03 0.  1.
        -12    1    3    3    0    0 -0.86671867063E+01 -0.30375203625E+01 -0.17179892042E+02  0.19480640285E+02  0.00000000000E+00 0.  1.
</event>
<event>
 7    1  0.4592673E-010  0.4778727E+02  0.7816164E-02  0.1312668E+00
        -11   -1    0    0    0    0  0.00000000000E+00  0.00000000000E+00  0.45593999997E+02  0.45594000000E+02  0.51100000000E-03 0.  1.
         11   -1    0    0    0    0 -0.00000000000E+00 -0.00000000000E+00 -0.45593999997E+02  0.45594000000E+02  0.51100000000E-03 0. -1.
    9900012    2    1    2    0    0 -0.29435621550E+02  0.95200748555E+01 -0.30439044993E+02  0.47787273031E+02  0.20000009059E+02 0.  0.
        -12    1    1    2    0    0  0.29435621550E+02 -0.95200748555E+01  0.30439044993E+02  0.43400726969E+02  0.00000000000E+00 0.  1.
         11    1    3    3    0    0 -0.15044963368E+02 -0.34599434431E+00 -0.96440426786E+01  0.17873952956E+02  0.51100000000E-03 0. -1.
        -11    1    3    3    0    0 -0.12721348872E+02  0.82708180763E+01 -0.84774194701E+01  0.17381190693E+02  0.51100000000E-03 0.  1.
         12    1    3    3    0    0 -0.16693093106E+01  0.15952511235E+01 -0.12317582845E+02  0.12532129382E+02  0.00000000000E+00 0. -1.
</event>
<event>
 7    1  0.4592673E-010  0.4778727E+02  0.7816164E-02  0.1312668E+00
        -11   -1    0    0    0    0  0.00000000000E+00  0.00000000000E+00  0.45593999997E+02  0.45594000000E+02  0.51100000000E-03 0.  1.
         11   -1    0    0    0    0 -0.00000000000E+00 -0.00000000000E+00 -0.45593999997E+02  0.45594000000E+02  0.51100000000E-03 0. -1.
    9900012    2    1    2    0    0 -0.32501769113E+02  0.11238587351E+02 -0.26475503246E+02  0.47787272895E+02  0.20000008437E+02 0.  0.
        -12    1    1    2    0    0  0.32501769113E+02 -0.11238587351E+02  0.26475503246E+02  0.43400727105E+02  0.00000000000E+00 0.  1.
         11    1    3    3    0    0 -0.51486878086E+00 -0.24360301460E+01 -0.14410323731E+01  0.28767876694E+01  0.51100000000E-03 0. -1.
        -11    1    3    3    0    0 -0.11567246313E-01  0.37734665307E+01 -0.31784882909E+01  0.49337583581E+01  0.51100000000E-03 0.  1.
         12    1    3    3    0    0 -0.31975333085E+02  0.99011509664E+01 -0.21855982582E+02  0.39976726867E+02  0.00000000000E+00 0. -1.
</event>
<event>
 7    1  0.6464835E-010  0.4778727E+02  0.7816164E-02  0.1312668E+00
        -11   -1    0    0    0    0  0.00000000000E+00  0.00000000000E+00  0.45593999997E+02  0.45594000000E+02  0.51100000000E-03 0.  1.
         11   -1    0    0    0    0 -0.00000000000E+00 -0.00000000000E+00 -0.45593999997E+02  0.45594000000E+02  0.51100000000E-03 0. -1.
    9900012    2    1    2    0    0 -0.11296887664E+02 -0.41764660187E+02 -0.34229721209E+01  0.47787271325E+02  0.20000001278E+02 0.  0.
        -12    1    1    2    0    0  0.11296887664E+02  0.41764660187E+02  0.34229721209E+01  0.43400728675E+02  0.00000000000E+00 0.  1.
         11    1    3    3    0    0 -0.42707240347E+01 -0.22832029559E+02 -0.38875592056E+00  0.23231267486E+02  0.51100000000E-03 0. -1.
        -11    1    3    3    0    0 -0.71154703652E+01 -0.19031633275E+02 -0.63115098238E+01  0.21275999157E+02  0.51100000000E-03 0.  1.
        -12    1    3    3    0    0  0.89306735795E-01  0.99002647400E-01  0.32772936235E+01  0.32800046817E+01  0.00000000000E+00 0.  1.
</event>
<event>
 7    1  0.4592673E-010  0.4778727E+02  0.7816164E-02  0.1312668E+00
        -11   -1    0    0    0    0  0.00000000000E+00  0.00000000000E+00  0.45593999997E+02  0.45594000000E+02  0.51100000000E-03 0.  1.
         11   -1    0    0    0    0 -0.00000000000E+00 -0.00000000000E+00 -0.45593999997E+02  0.45594000000E+02  0.51100000000E-03 0. -1.
    9900012    2    1    2    0    0 -0.68286363610E+01  0.14902694795E+02 -0.40185853993E+02  0.47787269040E+02  0.19999990860E+02 0.  0.
        -12    1    1    2    0    0  0.68286363610E+01 -0.14902694795E+02  0.40185853993E+02  0.43400730960E+02  0.00000000000E+00 0.  1.
         11    1    3    3    0    0  0.33567701849E+01  0.40304778808E+01 -0.65793903983E+01  0.84143351666E+01  0.51100000000E-03 0. -1.
        -11    1    3    3    0    0  0.86008435258E+00  0.62947983177E+01 -0.41663765146E+01  0.75975604292E+01  0.51100000000E-03 0.  1.
        -12    1    3    3    0    0 -0.11045490898E+02  0.45774185970E+01 -0.29440087080E+02  0.31775373444E+02  0.00000000000E+00 0.  1.
</event>
<event>
 7    1  0.6242315E-010  0.4778727E+02  0.7816164E-02  0.1312668E+00
        -11   -1    0    0    0    0  0.00000000000E+00  0.00000000000E+00  0.45593999997E+02  0.45594000000E+02  0.51100000000E-03 0. -1.
         11   -1    0    0    0    0 -0.00000000000E+00 -0.00000000000E+00 -0.45593999997E+02  0.45594000000E+02  0.51100000000E-03 0.  1.
    9900012    2    1    2    0    0 -0.43375238217E+02 -0.14865247017E+01 -0.49775696025E-01  0.47787268166E+02  0.19999986876E+02 0.  0.
        -12    1    1    2    0    0  0.43375238217E+02  0.14865247017E+01  0.49775696025E-01  0.43400731834E+02  0.00000000000E+00 0.  1.
         11    1    3    3    0    0 -0.19515770739E+02 -0.21710481086E+01 -0.10256834125E+01  0.19662929185E+02  0.51100000000E-03 0. -1.
        -11    1    3    3    0    0 -0.80339407040E+01 -0.61372399768E+01  0.35182982113E+01  0.10704594356E+02  0.51100000000E-03 0.  1.
        -12    1    3    3    0    0 -0.15825526775E+02  0.68217633837E+01 -0.25423904949E+01  0.17419744625E+02  0.00000000000E+00 0.  1.
</event>
<event>
 7    1  0.4592673E-010  0.4778727E+02  0.7816164E-02  0.1312668E+00
        -11   -1    0    0    0    0  0.00000000000E+00  0.00000000000E+00  0.45593999997E+02  0.45594000000E+02  0.51100000000E-03 0.  1.
         11   -1    0    0    0    0 -0.00000000000E+00 -0.00000000000E+00 -0.45593999997E+02  0.45594000000E+02  0.51100000000E-03 0. -1.
    9900012    2    1    2    0    0  0.37395712771E+02 -0.15764582629E+02 -0.15383820940E+02  0.47787270216E+02  0.19999996222E+02 0.  0.
        -12    1    1    2    0    0 -0.37395712771E+02  0.15764582629E+02  0.15383820940E+02  0.43400729784E+02  0.00000000000E+00 0.  1.
         11    1    3    3    0    0  0.75663290969E+01 -0.13078135600E+01 -0.81133269470E+01  0.11170755871E+02  0.51100000000E-03 0. -1.
        -11    1    3    3    0    0  0.32484434952E+00 -0.27015073278E+01  0.21730057897E+01  0.34821861118E+01  0.51100000000E-03 0.  1.
         12    1    3    3    0    0  0.29504539324E+02 -0.11755261741E+02 -0.94434997829E+01  0.33134328233E+02  0.00000000000E+00 0. -1.
</event>
<event>
 7    1  0.4592673E-010  0.4778727E+02  0.7816164E-02  0.1312668E+00
        -11   -1    0    0    0    0  0.00000000000E+00  0.00000000000E+00  0.45593999997E+02  0.45594000000E+02  0.51100000000E-03 0. -1.
         11   -1    0    0    0    0 -0.00000000000E+00 -0.00000000000E+00 -0.45593999997E+02  0.45594000000E+02  0.51100000000E-03 0.  1.
    9900012    2    1    2    0    0 -0.34102950922E+02 -0.19842844464E+02  0.18079640708E+02  0.47787272516E+02  0.20000006710E+02 0.  0.
        -12    1    1    2    0    0  0.34102950922E+02  0.19842844464E+02 -0.18079640708E+02  0.43400727484E+02  0.00000000000E+00 0.  1.
         11    1    3    3    0    0 -0.78841229452E+01 -0.15269853808E+02  0.48431867380E+01  0.17854531301E+02  0.51100000000E-03 0.  1.
        -11    1    3    3    0    0 -0.42833014220E+01 -0.26554862735E+00  0.35514703032E+01  0.55704693448E+01  0.51100000000E-03 0. -1.
        -12    1    3    3    0    0 -0.21935526555E+02 -0.43074420283E+01  0.96849836670E+01  0.24362271871E+02  0.00000000000E+00 0.  1.
</event>
<event>
 7    1  0.4592673E-010  0.4778727E+02  0.7816164E-02  0.1312668E+00
        -11   -1    0    0    0    0  0.00000000000E+00  0.00000000000E+00  0.45593999997E+02  0.45594000000E+02  0.51100000000E-03 0.  1.
         11   -1    0    0    0    0 -0.00000000000E+00 -0.00000000000E+00 -0.45593999997E+02  0.45594000000E+02  0.51100000000E-03 0. -1.
    9900012    2    1    2    0    0  0.27924454353E+02 -0.31128158456E+02  0.11614036963E+02  0.47787271270E+02  0.20000001027E+02 0.  0.
        -12    1    1    2    0    0 -0.27924454353E+02  0.31128158456E+02 -0.11614036963E+02  0.43400728730E+02  0.00000000000E+00 0.  1.
         11    1    3    3    0    0  0.87996468594E+01 -0.12966681957E+02  0.41824912795E+01  0.16219181835E+02  0.51100000000E-03 0. -1.
        -11    1    3    3    0    0  0.13338683486E+02 -0.12171898493E+02  0.12367982827E+02  0.21887041590E+02  0.51100000000E-03 0.  1.
         12    1    3    3    0    0  0.57861240071E+01 -0.59895780053E+01 -0.49364371435E+01  0.96810478451E+01  0.00000000000E+00 0. -1.
</event>
<event>
 7    1  0.4592673E-010  0.4778727E+02  0.7816164E-02  0.1312668E+00
        -11   -1    0    0    0    0  0.00000000000E+00  0.00000000000E+00  0.45593999997E+02  0.45594000000E+02  0.51100000000E-03 0. -1.
         11   -1    0    0    0    0 -0.00000000000E+00 -0.00000000000E+00 -0.45593999997E+02  0.45594000000E+02  0.51100000000E-03 0.  1.
    9900012    2    1    2    0    0 -0.35552170620E+02 -0.24461551060E+02  0.46151165180E+01  0.47787267097E+02  0.19999982000E+02 0.  0.
        -12    1    1    2    0    0  0.35552170620E+02  0.24461551060E+02 -0.46151165180E+01  0.43400732903E+02  0.00000000000E+00 0.  1.
         11    1    3    3    0    0 -0.24168247894E+01 -0.43830687786E+01  0.61264262255E+01  0.79110955334E+01  0.51100000000E-03 0. -1.
        -11    1    3    3    0    0 -0.79393529431E+01 -0.98079527980E+01  0.10950638251E+00  0.12619082976E+02  0.51100000000E-03 0.  1.
        -12    1    3    3    0    0 -0.25195992887E+02 -0.10270529484E+02 -0.16208160900E+01  0.27257088587E+02  0.00000000000E+00 0.  1.
</event>
<event>
 7    1  0.4592673E-010  0.4778728E+02  0.7816164E-02  0.1312668E+00
        -11   -1    0    0    0    0  0.00000000000E+00  0.00000000000E+00  0.45593999997E+02  0.45594000000E+02  0.51100000000E-03 0.  1.
         11   -1    0    0    0    0 -0.00000000000E+00 -0.00000000000E+00 -0.45593999997E+02  0.45594000000E+02  0.51100000000E-03 0. -1.
    9900012    2    1    2    0    0 -0.26881105673E+02  0.34310633734E+01 -0.33900683456E+02  0.47787281379E+02  0.20000047119E+02 0.  0.
        -12    1    1    2    0    0  0.26881105673E+02 -0.34310633734E+01  0.33900683456E+02  0.43400718621E+02  0.00000000000E+00 0.  1.
         11    1    3    3    0    0 -0.18098359431E+01  0.60222839666E+00  0.11058099929E+01  0.22047678300E+01  0.51100000000E-03 0. -1.
        -11    1    3    3    0    0 -0.11995963939E+02  0.83186184919E+01 -0.21579950637E+02  0.26053729756E+02  0.51100000000E-03 0.  1.
         12    1    3    3    0    0 -0.13075305791E+02 -0.54897835151E+01 -0.13426542812E+02  0.19528783793E+02  0.00000000000E+00 0. -1.
</event>
<event>
 7    1  0.4592673E-010  0.4778727E+02  0.7816164E-02  0.1312668E+00
        -11   -1    0    0    0    0  0.00000000000E+00  0.00000000000E+00  0.45593999997E+02  0.45594000000E+02  0.51100000000E-03 0.  1.
         11   -1    0    0    0    0 -0.00000000000E+00 -0.00000000000E+00 -0.45593999997E+02  0.45594000000E+02  0.51100000000E-03 0. -1.
    9900012    2    1    2    0    0 -0.55367588476E+01 -0.18117545442E+02 -0.39047689243E+02  0.47787272050E+02  0.20000004586E+02 0.  0.
        -12    1    1    2    0    0  0.55367588476E+01  0.18117545442E+02  0.39047689243E+02  0.43400727950E+02  0.00000000000E+00 0.  1.
         11    1    3    3    0    0 -0.81727510898E+01 -0.44015073642E+01 -0.10414279786E+02  0.13950783175E+02  0.51100000000E-03 0.  1.
        -11    1    3    3    0    0 -0.31908363749E+01 -0.15372643895E+01 -0.22407354057E+01  0.41911232377E+01  0.51100000000E-03 0. -1.
        -12    1    3    3    0    0  0.58268286171E+01 -0.12178773688E+02 -0.26392674050E+02  0.29645365638E+02  0.00000000000E+00 0.  1.
</event>
<event>
 7    1  0.4592673E-010  0.4778727E+02  0.7816164E-02  0.1312668E+00
        -11   -1    0    0    0    0  0.00000000000E+00  0.00000000000E+00  0.45593999997E+02  0.45594000000E+02  0.51100000000E-03 0.  1.
         11   -1    0    0    0    0 -0.00000000000E+00 -0.00000000000E+00 -0.45593999997E+02  0.45594000000E+02  0.51100000000E-03 0. -1.
    9900012    2    1    2    0    0  0.16693258114E+01 -0.27665026670E+02  0.33398844940E+02  0.47787271980E+02  0.20000004268E+02 0.  0.
        -12    1    1    2    0    0 -0.16693258114E+01  0.27665026670E+02 -0.33398844940E+02  0.43400728020E+02  0.00000000000E+00 0.  1.
         11    1    3    3    0    0  0.10378503366E+01  0.85291903103E+00  0.50932359251E+01  0.52674146072E+01  0.51100000000E-03 0. -1.
        -11    1    3    3    0    0  0.25491795124E+01 -0.83875445732E+01  0.14234679009E+01  0.88811869297E+01  0.51100000000E-03 0.  1.
         12    1    3    3    0    0 -0.19177040377E+01 -0.20130401127E+02  0.26882141114E+02  0.33638670443E+02  0.00000000000E+00 0. -1.
</event>
<event>
 7    1  0.4592673E-010  0.4778727E+02  0.7816164E-02  0.1312668E+00
        -11   -1    0    0    0    0  0.00000000000E+00  0.00000000000E+00  0.45593999997E+02  0.45594000000E+02  0.51100000000E-03 0. -1.
         11   -1    0    0    0    0 -0.00000000000E+00 -0.00000000000E+00 -0.45593999997E+02  0.45594000000E+02  0.51100000000E-03 0.  1.
    9900012    2    1    2    0    0 -0.11157917298E+02 -0.38344386949E+02 -0.16995064635E+02  0.47787270157E+02  0.19999995954E+02 0.  0.
        -12    1    1    2    0    0  0.11157917298E+02  0.38344386949E+02  0.16995064635E+02  0.43400729843E+02  0.00000000000E+00 0.  1.
         11    1    3    3    0    0  0.46006337224E+01 -0.87418623778E+01 -0.38671998396E+01  0.10608544827E+02  0.51100000000E-03 0.  1.
        -11    1    3    3    0    0 -0.49191513157E+01 -0.15990304100E+02 -0.28545175264E+01  0.16971627660E+02  0.51100000000E-03 0. -1.
        -12    1    3    3    0    0 -0.10839399705E+02 -0.13612220472E+02 -0.10273347269E+02  0.20207097670E+02  0.00000000000E+00 0.  1.
</event>
<event>
 7    1  0.4592673E-010  0.4778727E+02  0.7816164E-02  0.1312668E+00
        -11   -1    0    0    0    0  0.00000000000E+00  0.00000000000E+00  0.45593999997E+02  0.45594000000E+02  0.51100000000E-03 0.  1.
         11   -1    0    0    0    0 -0.00000000000E+00 -0.00000000000E+00 -0.45593999997E+02  0.45594000000E+02  0.51100000000E-03 0. -1.
    9900012    2    1    2    0    0  0.17763972890E+02  0.37182614420E+02 -0.13620494370E+02  0.47787269421E+02  0.19999992597E+02 0.  0.
        -12    1    1    2    0    0 -0.17763972890E+02 -0.37182614420E+02  0.13620494370E+02  0.43400730579E+02  0.00000000000E+00 0.  1.
         11    1    3    3    0    0  0.12382855520E+02  0.16537180541E+02 -0.35537713874E+01  0.20962889648E+02  0.51100000000E-03 0. -1.
        -11    1    3    3    0    0  0.48426999845E+01  0.94708905720E+01  0.14884097062E+01  0.10740804210E+02  0.51100000000E-03 0.  1.
        -12    1    3    3    0    0  0.53841738552E+00  0.11174543307E+02 -0.11555132689E+02  0.16083575562E+02  0.00000000000E+00 0.  1.
</event>
<event>
 7    1  0.4592673E-010  0.4778727E+02  0.7816164E-02  0.1312668E+00
        -11   -1    0    0    0    0  0.00000000000E+00  0.00000000000E+00  0.45593999997E+02  0.45594000000E+02  0.51100000000E-03 0. -1.
         11   -1    0    0    0    0 -0.00000000000E+00 -0.00000000000E+00 -0.45593999997E+02  0.45594000000E+02  0.51100000000E-03 0.  1.
    9900012    2    1    2    0    0  0.18842201903E+02 -0.37934485787E+02 -0.94641156064E+01  0.47787271104E+02  0.20000000270E+02 0.  0.
        -12    1    1    2    0    0 -0.18842201903E+02  0.37934485787E+02  0.94641156064E+01  0.43400728896E+02  0.00000000000E+00 0.  1.
         11    1    3    3    0    0  0.14211549133E+01 -0.12173633978E+02 -0.52759643975E+01  0.13343644408E+02  0.51100000000E-03 0. -1.
        -11    1    3    3    0    0  0.15972441414E+01 -0.14782659716E+02 -0.28390521800E+01  0.15137319269E+02  0.51100000000E-03 0.  1.
         12    1    3    3    0    0  0.15823802849E+02 -0.10978192094E+02 -0.13490990289E+01  0.19306307426E+02  0.00000000000E+00 0. -1.
</event>
<event>
 7    1  0.4592673E-010  0.4778727E+02  0.7816164E-02  0.1312668E+00
        -11   -1    0    0    0    0  0.00000000000E+00  0.00000000000E+00  0.45593999997E+02  0.45594000000E+02  0.51100000000E-03 0.  1.
         11   -1    0    0    0    0 -0.00000000000E+00 -0.00000000000E+00 -0.45593999997E+02  0.45594000000E+02  0.51100000000E-03 0. -1.
    9900012    2    1    2    0    0 -0.42814875414E+02  0.82027604786E+00 -0.70595043183E+01  0.47787274076E+02  0.20000013821E+02 0.  0.
        -12    1    1    2    0    0  0.42814875414E+02 -0.82027604786E+00  0.70595043183E+01  0.43400725924E+02  0.00000000000E+00 0.  1.
         11    1    3    3    0    0 -0.29799323801E+02  0.15676977393E+01 -0.83197117971E+00  0.29852128090E+02  0.51100000000E-03 0. -1.
        -11    1    3    3    0    0 -0.62582987097E+01  0.47800015123E+01 -0.15323356776E+01  0.80226410918E+01  0.51100000000E-03 0.  1.
         12    1    3    3    0    0 -0.67572529038E+01 -0.55274232037E+01 -0.46951974610E+01  0.99125048941E+01  0.00000000000E+00 0. -1.
</event>
<event>
 7    1  0.4592673E-010  0.4778727E+02  0.7816164E-02  0.1312668E+00
        -11   -1    0    0    0    0  0.00000000000E+00  0.00000000000E+00  0.45593999997E+02  0.45594000000E+02  0.51100000000E-03 0.  1.
         11   -1    0    0    0    0 -0.00000000000E+00 -0.00000000000E+00 -0.45593999997E+02  0.45594000000E+02  0.51100000000E-03 0. -1.
    9900012    2    1    2    0    0  0.44451408341E+01 -0.25087426419E+02 -0.35135237844E+02  0.47787272129E+02  0.20000004944E+02 0.  0.
        -12    1    1    2    0    0 -0.44451408341E+01  0.25087426419E+02  0.35135237844E+02  0.43400727871E+02  0.00000000000E+00 0.  1.
         11    1    3    3    0    0 -0.14836202693E+01 -0.11014051997E+02 -0.14343114533E+02  0.18144845143E+02  0.51100000000E-03 0. -1.
        -11    1    3    3    0    0 -0.40634232867E+01 -0.41605014619E+00 -0.28609566497E+01  0.49869409205E+01  0.51100000000E-03 0.  1.
        -12    1    3    3    0    0  0.99921843901E+01 -0.13657324276E+02 -0.17931166661E+02  0.24655486065E+02  0.00000000000E+00 0.  1.
</event>
<event>
 7    1  0.4592673E-010  0.4778727E+02  0.7816164E-02  0.1312668E+00
        -11   -1    0    0    0    0  0.00000000000E+00  0.00000000000E+00  0.45593999997E+02  0.45594000000E+02  0.51100000000E-03 0. -1.
         11   -1    0    0    0    0 -0.00000000000E+00 -0.00000000000E+00 -0.45593999997E+02  0.45594000000E+02  0.51100000000E-03 0.  1.
    9900012    2    1    2    0    0 -0.31578290180E+02  0.29484867501E+02 -0.41324980092E+01  0.47787270029E+02  0.19999995368E+02 0.  0.
        -12    1    1    2    0    0  0.31578290180E+02 -0.29484867501E+02  0.41324980092E+01  0.43400729971E+02  0.00000000000E+00 0.  1.
         11    1    3    3    0    0 -0.20951721026E+02  0.16332222406E+02 -0.22018941672E+01  0.26656414629E+02  0.51100000000E-03 0. -1.
        -11    1    3    3    0    0 -0.13461441139E+02  0.11092709948E+02 -0.23539078231E+01  0.17601121948E+02  0.51100000000E-03 0.  1.
        -12    1    3    3    0    0  0.28348719848E+01  0.20599351473E+01  0.42330398116E+00  0.35297334519E+01  0.00000000000E+00 0.  1.
</event>
<event>
 7    1  0.4592673E-010  0.4778727E+02  0.7816164E-02  0.1312668E+00
        -11   -1    0    0    0    0  0.00000000000E+00  0.00000000000E+00  0.45593999997E+02  0.45594000000E+02  0.51100000000E-03 0. -1.
         11   -1    0    0    0    0 -0.00000000000E+00 -0.00000000000E+00 -0.45593999997E+02  0.45594000000E+02  0.51100000000E-03 0.  1.
    9900012    2    1    2    0    0  0.26304963051E+02 -0.62219339976E+00  0.34515000420E+02  0.47787268903E+02  0.19999990236E+02 0.  0.
        -12    1    1    2    0    0 -0.26304963051E+02  0.62219339976E+00 -0.34515000420E+02  0.43400731097E+02  0.00000000000E+00 0.  1.
         11    1    3    3    0    0 -0.90463521734E+00  0.16891302546E+01 -0.30947346102E+00  0.19409533682E+01  0.51100000000E-03 0. -1.
        -11    1    3    3    0    0  0.92084106869E+01 -0.40972250761E+01  0.57498659873E+01  0.11603578751E+02  0.51100000000E-03 0.  1.
         12    1    3    3    0    0  0.18001187582E+02  0.17859014217E+01  0.29074607894E+02  0.34242736783E+02  0.00000000000E+00 0. -1.
</event>
<event>
 7    1  0.4592673E-010  0.4778727E+02  0.7816164E-02  0.1312668E+00
        -11   -1    0    0    0    0  0.00000000000E+00  0.00000000000E+00  0.45593999997E+02  0.45594000000E+02  0.51100000000E-03 0.  1.
         11   -1    0    0    0    0 -0.00000000000E+00 -0.00000000000E+00 -0.45593999997E+02  0.45594000000E+02  0.51100000000E-03 0. -1.
    9900012    2    1    2    0    0  0.10357367664E+02 -0.24763373552E+02 -0.34104596291E+02  0.47787271633E+02  0.20000002683E+02 0.  0.
        -12    1    1    2    0    0 -0.10357367664E+02  0.24763373552E+02  0.34104596291E+02  0.43400728367E+02  0.00000000000E+00 0.  1.
         11    1    3    3    0    0  0.74414285816E+01 -0.10180930459E+02 -0.20026378545E+02  0.23666052528E+02  0.51100000000E-03 0. -1.
        -11    1    3    3    0    0  0.75891437491E+01 -0.58218495885E+01 -0.57378754469E+01  0.11154023955E+02  0.51100000000E-03 0.  1.
         12    1    3    3    0    0 -0.46732046663E+01 -0.87605935049E+01 -0.83403422989E+01  0.12967195151E+02  0.00000000000E+00 0. -1.
</event>
<event>
 7    1  0.4592673E-010  0.4778727E+02  0.7816164E-02  0.1312668E+00
        -11   -1    0    0    0    0  0.00000000000E+00  0.00000000000E+00  0.45593999997E+02  0.45594000000E+02  0.51100000000E-03 0.  1.
         11   -1    0    0    0    0 -0.00000000000E+00 -0.00000000000E+00 -0.45593999997E+02  0.45594000000E+02  0.51100000000E-03 0. -1.
    9900012    2    1    2    0    0  0.14664672364E+02  0.40292609432E+02 -0.67139088273E+01  0.47787267723E+02  0.19999984858E+02 0.  0.
        -12    1    1    2    0    0 -0.14664672364E+02 -0.40292609432E+02  0.67139088273E+01  0.43400732277E+02  0.00000000000E+00 0.  1.
         11    1    3    3    0    0  0.56695954149E+01  0.12923036904E+02 -0.37596189270E+01  0.14604243552E+02  0.51100000000E-03 0. -1.
        -11    1    3    3    0    0  0.11132890219E+02  0.11740519642E+02 -0.57334896823E+01  0.17165487185E+02  0.51100000000E-03 0.  1.
        -12    1    3    3    0    0 -0.21378132694E+01  0.15629052886E+02  0.27791997821E+01  0.16017536986E+02  0.00000000000E+00 0.  1.
</event>
<event>
 7    1  0.4592673E-010  0.4778727E+02  0.7816164E-02  0.1312668E+00
        -11   -1    0    0    0    0  0.00000000000E+00  0.00000000000E+00  0.45593999997E+02  0.45594000000E+02  0.51100000000E-03 0. -1.
         11   -1    0    0    0    0 -0.00000000000E+00 -0.00000000000E+00 -0.45593999997E+02  0.45594000000E+02  0.51100000000E-03 0.  1.
    9900012    2    1    2    0    0 -0.85211508617E+01  0.29854580265E+02  0.30326839229E+02  0.47787272444E+02  0.20000006379E+02 0.  0.
        -12    1    1    2    0    0  0.85211508617E+01 -0.29854580265E+02 -0.30326839229E+02  0.43400727556E+02  0.00000000000E+00 0.  1.
         11    1    3    3    0    0  0.80229338438E+00  0.21224309896E+01  0.51524754834E+01  0.56299548709E+01  0.51100000000E-03 0. -1.
        -11    1    3    3    0    0 -0.78745668234E+01  0.28912259545E+02  0.26388844784E+02  0.39928669950E+02  0.51100000000E-03 0.  1.
        -12    1    3    3    0    0 -0.14488774227E+01 -0.11801102696E+01 -0.12144810386E+01  0.22286476230E+01  0.00000000000E+00 0.  1.
</event>
<event>
 7    1  0.4592673E-010  0.4778728E+02  0.7816164E-02  0.1312668E+00
        -11   -1    0    0    0    0  0.00000000000E+00  0.00000000000E+00  0.45593999997E+02  0.45594000000E+02  0.51100000000E-03 0.  1.
         11   -1    0    0    0    0 -0.00000000000E+00 -0.00000000000E+00 -0.45593999997E+02  0.45594000000E+02  0.51100000000E-03 0. -1.
    9900012    2    1    2    0    0 -0.10384778515E+02  0.40023991356E+02 -0.13185569696E+02  0.47787276999E+02  0.20000027147E+02 0.  0.
        -12    1    1    2    0    0  0.10384778515E+02 -0.40023991356E+02  0.13185569696E+02  0.43400723001E+02  0.00000000000E+00 0.  1.
         11    1    3    3    0    0 -0.74622246403E+00  0.20409202714E+01 -0.31163084763E+01  0.37991554720E+01  0.51100000000E-03 0. -1.
        -11    1    3    3    0    0  0.35741948400E+01  0.98579952183E+01  0.19589240885E+01  0.10667348420E+02  0.51100000000E-03 0.  1.
        -12    1    3    3    0    0 -0.13212750891E+02  0.28125075866E+02 -0.12028185308E+02  0.33320773106E+02  0.00000000000E+00 0.  1.
</event>
<event>
 7    1  0.4592673E-010  0.4778727E+02  0.7816164E-02  0.1312668E+00
        -11   -1    0    0    0    0  0.00000000000E+00  0.00000000000E+00  0.45593999997E+02  0.45594000000E+02  0.51100000000E-03 0. -1.
         11   -1    0    0    0    0 -0.00000000000E+00 -0.00000000000E+00 -0.45593999997E+02  0.45594000000E+02  0.51100000000E-03 0.  1.
    9900012    2    1    2    0    0  0.29035078021E+02 -0.31763679656E+02  0.56263606480E+01  0.47787273795E+02  0.20000012542E+02 0.  0.
        -12    1    1    2    0    0 -0.29035078021E+02  0.31763679656E+02 -0.56263606480E+01  0.43400726205E+02  0.00000000000E+00 0.  1.
         11    1    3    3    0    0 -0.45947291264E+00 -0.93972086625E+00 -0.10833201149E+01  0.15059128116E+01  0.51100000000E-03 0. -1.
        -11    1    3    3    0    0  0.58997633013E+01 -0.40094484858E+01 -0.49801069299E+01  0.86996752506E+01  0.51100000000E-03 0.  1.
         12    1    3    3    0    0  0.23594787632E+02 -0.26814510304E+02  0.11689787693E+02  0.37581685733E+02  0.00000000000E+00 0. -1.
</event>
<event>
 7    1  0.4592673E-010  0.4778727E+02  0.7816164E-02  0.1312668E+00
        -11   -1    0    0    0    0  0.00000000000E+00  0.00000000000E+00  0.45593999997E+02  0.45594000000E+02  0.51100000000E-03 0.  1.
         11   -1    0    0    0    0 -0.00000000000E+00 -0.00000000000E+00 -0.45593999997E+02  0.45594000000E+02  0.51100000000E-03 0. -1.
    9900012    2    1    2    0    0  0.71387767055E+01 -0.42547911771E+02  0.47261199523E+01  0.47787272601E+02  0.20000007099E+02 0.  0.
        -12    1    1    2    0    0 -0.71387767055E+01  0.42547911771E+02 -0.47261199523E+01  0.43400727399E+02  0.00000000000E+00 0.  1.
         11    1    3    3    0    0  0.69134141745E+01 -0.13351799230E+02 -0.16970517512E+01  0.15130955791E+02  0.51100000000E-03 0. -1.
        -11    1    3    3    0    0  0.58094080914E+01 -0.11371476898E+02  0.56441450968E+01  0.13961235023E+02  0.51100000000E-03 0.  1.
        -12    1    3    3    0    0 -0.55840455604E+01 -0.17824635642E+02  0.77902660672E+00  0.18695081788E+02  0.00000000000E+00 0.  1.
</event>
<event>
 7    1  0.4592673E-010  0.4778727E+02  0.7816164E-02  0.1312668E+00
        -11   -1    0    0    0    0  0.00000000000E+00  0.00000000000E+00  0.45593999997E+02  0.45594000000E+02  0.51100000000E-03 0. -1.
         11   -1    0    0    0    0 -0.00000000000E+00 -0.00000000000E+00 -0.45593999997E+02  0.45594000000E+02  0.51100000000E-03 0.  1.
    9900012    2    1    2    0    0 -0.14377883423E+02 -0.35208802256E+02 -0.20910292947E+02  0.47787266837E+02  0.19999980815E+02 0.  0.
        -12    1    1    2    0    0  0.14377883423E+02  0.35208802256E+02  0.20910292947E+02  0.43400733163E+02  0.00000000000E+00 0.  1.
         11    1    3    3    0    0 -0.10128439359E+02 -0.23020646082E+02 -0.12945656888E+02  0.28286489043E+02  0.51100000000E-03 0. -1.
        -11    1    3    3    0    0  0.42247758414E+00 -0.12446604893E+02 -0.32774058637E+01  0.12877804553E+02  0.51100000000E-03 0.  1.
         12    1    3    3    0    0 -0.46719216487E+01  0.25844871921E+00 -0.46872301953E+01  0.66229732399E+01  0.00000000000E+00 0. -1.
</event>
<event>
 7    1  0.4592673E-010  0.4778727E+02  0.7816164E-02  0.1312668E+00
        -11   -1    0    0    0    0  0.00000000000E+00  0.00000000000E+00  0.45593999997E+02  0.45594000000E+02  0.51100000000E-03 0.  1.
         11   -1    0    0    0    0 -0.00000000000E+00 -0.00000000000E+00 -0.45593999997E+02  0.45594000000E+02  0.51100000000E-03 0. -1.
    9900012    2    1    2    0    0  0.12689974472E+02  0.49093047526E+01 -0.41212694924E+02  0.47787274797E+02  0.20000017111E+02 0.  0.
        -12    1    1    2    0    0 -0.12689974472E+02 -0.49093047526E+01  0.41212694924E+02  0.43400725203E+02  0.00000000000E+00 0.  1.
         11    1    3    3    0    0  0.10317510261E+02  0.67468880777E-01 -0.35822543936E+02  0.37278817368E+02  0.51100000000E-03 0. -1.
        -11    1    3    3    0    0  0.20143667644E+01 -0.22820417732E+00 -0.50181757899E+01  0.54121935597E+01  0.51100000000E-03 0.  1.
        -12    1    3    3    0    0  0.35809744593E+00  0.50700400492E+01 -0.37197519780E+00  0.50962638696E+01  0.00000000000E+00 0.  1.
</event>
<event>
 7    1  0.4592673E-010  0.4778728E+02  0.7816164E-02  0.1312668E+00
        -11   -1    0    0    0    0  0.00000000000E+00  0.00000000000E+00  0.45593999997E+02  0.45594000000E+02  0.51100000000E-03 0.  1.
         11   -1    0    0    0    0 -0.00000000000E+00 -0.00000000000E+00 -0.45593999997E+02  0.45594000000E+02  0.51100000000E-03 0. -1.
    9900012    2    1    2    0    0  0.18875243037E+01 -0.22450200160E+02 -0.37095124523E+02  0.47787279977E+02  0.20000040725E+02 0.  0.
        -12    1    1    2    0    0 -0.18875243037E+01  0.22450200160E+02  0.37095124523E+02  0.43400720023E+02  0.00000000000E+00 0.  1.
         11    1    3    3    0    0 -0.29870440821E+01 -0.15049211521E+02 -0.20907872523E+02  0.25933382607E+02  0.51100000000E-03 0. -1.
        -11    1    3    3    0    0  0.30397170183E+01 -0.90930573520E+01 -0.16745762475E+02  0.19296220684E+02  0.51100000000E-03 0.  1.
        -12    1    3    3    0    0  0.18348513674E+01  0.16920687138E+01  0.55851047574E+00  0.25576766848E+01  0.00000000000E+00 0.  1.
</event>
<event>
 7    1  0.4592673E-010  0.4778728E+02  0.7816164E-02  0.1312668E+00
        -11   -1    0    0    0    0  0.00000000000E+00  0.00000000000E+00  0.45593999997E+02  0.45594000000E+02  0.51100000000E-03 0.  1.
         11   -1    0    0    0    0 -0.00000000000E+00 -0.00000000000E+00 -0.45593999997E+02  0.45594000000E+02  0.51100000000E-03 0. -1.
    9900012    2    1    2    0    0  0.37762246417E+02  0.21366924795E+02 -0.10441163206E+01  0.47787275253E+02  0.20000019189E+02 0.  0.
        -12    1    1    2    0    0 -0.37762246417E+02 -0.21366924795E+02  0.10441163206E+01  0.43400724747E+02  0.00000000000E+00 0.  1.
         11    1    3    3    0    0  0.32206309724E+02  0.19948351883E+02 -0.42660964343E+01  0.38123256786E+02  0.51100000000E-03 0. -1.
        -11    1    3    3    0    0  0.65187762395E+01  0.29864973063E+01  0.19617199608E+01  0.74338385298E+01  0.51100000000E-03 0.  1.
         12    1    3    3    0    0 -0.96283954647E+00 -0.15679243949E+01  0.12602601530E+01  0.22301799375E+01  0.00000000000E+00 0. -1.
</event>
<event>
 7    1  0.4592673E-010  0.4778727E+02  0.7816164E-02  0.1312668E+00
        -11   -1    0    0    0    0  0.00000000000E+00  0.00000000000E+00  0.45593999997E+02  0.45594000000E+02  0.51100000000E-03 0. -1.
         11   -1    0    0    0    0 -0.00000000000E+00 -0.00000000000E+00 -0.45593999997E+02  0.45594000000E+02  0.51100000000E-03 0.  1.
    9900012    2    1    2    0    0 -0.21148399423E+02 -0.15752611614E+02  0.34470624641E+02  0.47787268048E+02  0.19999986339E+02 0.  0.
        -12    1    1    2    0    0  0.21148399423E+02  0.15752611614E+02 -0.34470624641E+02  0.43400731952E+02  0.00000000000E+00 0.  1.
         11    1    3    3    0    0 -0.10779777192E+02 -0.11309543300E+02  0.11631690895E+02  0.19478336667E+02  0.51100000000E-03 0. -1.
        -11    1    3    3    0    0 -0.47326920984E+01 -0.79126084153E+01  0.17597451373E+02  0.19866505519E+02  0.51100000000E-03 0.  1.
         12    1    3    3    0    0 -0.56359301319E+01  0.34695401021E+01  0.52414823737E+01  0.84424258626E+01  0.00000000000E+00 0. -1.
</event>
<event>
 7    1  0.4592673E-010  0.4778722E+02  0.7816164E-02  0.1312668E+00
        -11   -1    0    0    0    0  0.00000000000E+00  0.00000000000E+00  0.45593999997E+02  0.45594000000E+02  0.51100000000E-03 0. -1.
         11   -1    0    0    0    0 -0.00000000000E+00 -0.00000000000E+00 -0.45593999997E+02  0.45594000000E+02  0.51100000000E-03 0.  1.
    9900012    2    1    2    0    0  0.39393660432E+02 -0.67070685468E+01  0.16934652992E+02  0.47787219792E+02  0.19999766316E+02 0.  0.
        -12    1    1    2    0    0 -0.39393660432E+02  0.67070685468E+01 -0.16934652992E+02  0.43400780208E+02  0.00000000000E+00 0.  1.
         11    1    3    3    0    0  0.12760478341E+02  0.27492816250E+01  0.65281347195E+01  0.14594687394E+02  0.51100000000E-03 0. -1.
        -11    1    3    3    0    0  0.26213496376E+02 -0.68190320794E+01  0.55477262951E+01  0.27648216182E+02  0.51100000000E-03 0.  1.
        -12    1    3    3    0    0  0.41968571528E+00 -0.26373180925E+01  0.48587919769E+01  0.55443162153E+01  0.00000000000E+00 0.  1.
</event>
<event>
 7    1  0.4592673E-010  0.4778728E+02  0.7816164E-02  0.1312668E+00
        -11   -1    0    0    0    0  0.00000000000E+00  0.00000000000E+00  0.45593999997E+02  0.45594000000E+02  0.51100000000E-03 0. -1.
         11   -1    0    0    0    0 -0.00000000000E+00 -0.00000000000E+00 -0.45593999997E+02  0.45594000000E+02  0.51100000000E-03 0.  1.
    9900012    2    1    2    0    0  0.26013625827E+02  0.25468244543E+02  0.23628007142E+02  0.47787275003E+02  0.20000018048E+02 0.  0.
        -12    1    1    2    0    0 -0.26013625827E+02 -0.25468244543E+02 -0.23628007142E+02  0.43400724997E+02  0.00000000000E+00 0.  1.
         11    1    3    3    0    0  0.73289272010E+01  0.48676926652E+01  0.10073677054E+02  0.13374848614E+02  0.51100000000E-03 0. -1.
        -11    1    3    3    0    0  0.34460453748E+01 -0.19010381840E+01  0.39848795798E+01  0.56007535590E+01  0.51100000000E-03 0.  1.
        -12    1    3    3    0    0  0.15238653252E+02  0.22501590061E+02  0.95694505085E+01  0.28811672830E+02  0.00000000000E+00 0.  1.
</event>
<event>
 7    1  0.4592673E-010  0.4778727E+02  0.7816164E-02  0.1312668E+00
        -11   -1    0    0    0    0  0.00000000000E+00  0.00000000000E+00  0.45593999997E+02  0.45594000000E+02  0.51100000000E-03 0.  1.
         11   -1    0    0    0    0 -0.00000000000E+00 -0.00000000000E+00 -0.45593999997E+02  0.45594000000E+02  0.51100000000E-03 0. -1.
    9900012    2    1    2    0    0 -0.16884195104E+02  0.57401869496E+01 -0.39567638210E+02  0.47787265167E+02  0.19999973202E+02 0.  0.
        -12    1    1    2    0    0  0.16884195104E+02 -0.57401869496E+01  0.39567638210E+02  0.43400734833E+02  0.00000000000E+00 0.  1.
         11    1    3    3    0    0  0.12703842022E+00  0.49291726798E+01 -0.10053624703E+02  0.11197689583E+02  0.51100000000E-03 0. -1.
        -11    1    3    3    0    0  0.74141822775E+00 -0.22890172816E+01 -0.53624592973E+00  0.24651290153E+01  0.51100000000E-03 0.  1.
        -12    1    3    3    0    0 -0.17752651752E+02  0.31000315514E+01 -0.28977767577E+02  0.34124446568E+02  0.00000000000E+00 0.  1.
</event>
<event>
 7    1  0.4592673E-010  0.4778727E+02  0.7816164E-02  0.1312668E+00
        -11   -1    0    0    0    0  0.00000000000E+00  0.00000000000E+00  0.45593999997E+02  0.45594000000E+02  0.51100000000E-03 0.  1.
         11   -1    0    0    0    0 -0.00000000000E+00 -0.00000000000E+00 -0.45593999997E+02  0.45594000000E+02  0.51100000000E-03 0. -1.
    9900012    2    1    2    0    0 -0.33683207105E+02  0.13447756655E+02  0.23837418289E+02  0.47787272925E+02  0.20000008575E+02 0.  0.
        -12    1    1    2    0    0  0.33683207105E+02 -0.13447756655E+02 -0.23837418289E+02  0.43400727075E+02  0.00000000000E+00 0.  1.
         11    1    3    3    0    0 -0.11843970777E+02  0.72034633114E+01  0.16254975791E+02  0.21363374398E+02  0.51100000000E-03 0. -1.
        -11    1    3    3    0    0 -0.19853969218E+02  0.88924227559E+01  0.52618460077E+01  0.22381740322E+02  0.51100000000E-03 0.  1.
         12    1    3    3    0    0 -0.19852671093E+01 -0.26481294120E+01  0.23205964903E+01  0.40421582044E+01  0.00000000000E+00 0. -1.
</event>
<event>
 7    1  0.4690997E-010  0.4778727E+02  0.7816164E-02  0.1312668E+00
        -11   -1    0    0    0    0  0.00000000000E+00  0.00000000000E+00  0.45593999997E+02  0.45594000000E+02  0.51100000000E-03 0. -1.
         11   -1    0    0    0    0 -0.00000000000E+00 -0.00000000000E+00 -0.45593999997E+02  0.45594000000E+02  0.51100000000E-03 0.  1.
    9900012    2    1    2    0    0  0.19697967994E+02 -0.12672053839E+02  0.36538094595E+02  0.47787271340E+02  0.20000001347E+02 0.  0.
        -12    1    1    2    0    0 -0.19697967994E+02  0.12672053839E+02 -0.36538094595E+02  0.43400728660E+02  0.00000000000E+00 0.  1.
         11    1    3    3    0    0  0.98238959909E+01 -0.14069029010E+02  0.26880160600E+02  0.31890273500E+02  0.51100000000E-03 0.  1.
        -11    1    3    3    0    0  0.11881300582E+01  0.14438958431E+01  0.63213767974E+01  0.65921387361E+01  0.51100000000E-03 0. -1.
        -12    1    3    3    0    0  0.86859419445E+01 -0.46920672225E-01  0.33365571973E+01  0.93048591039E+01  0.00000000000E+00 0.  1.
</event>
<event>
 7    1  0.4592673E-010  0.4778727E+02  0.7816164E-02  0.1312668E+00
        -11   -1    0    0    0    0  0.00000000000E+00  0.00000000000E+00  0.45593999997E+02  0.45594000000E+02  0.51100000000E-03 0.  1.
         11   -1    0    0    0    0 -0.00000000000E+00 -0.00000000000E+00 -0.45593999997E+02  0.45594000000E+02  0.51100000000E-03 0. -1.
    9900012    2    1    2    0    0  0.96494242027E+01  0.74219372641E+00 -0.42307930673E+02  0.47787271472E+02  0.20000001948E+02 0.  0.
        -12    1    1    2    0    0 -0.96494242027E+01 -0.74219372641E+00  0.42307930673E+02  0.43400728528E+02  0.00000000000E+00 0.  1.
         11    1    3    3    0    0  0.10757807017E+02 -0.34237584527E+01 -0.26479692363E+02  0.28785875732E+02  0.51100000000E-03 0. -1.
        -11    1    3    3    0    0 -0.11940674049E+01  0.30864427569E+00 -0.15005871362E+02  0.15056468173E+02  0.51100000000E-03 0.  1.
        -12    1    3    3    0    0  0.85684590711E-01  0.38573079034E+01 -0.82236694806E+00  0.39449275669E+01  0.00000000000E+00 0.  1.
</event>
<event>
 7    1  0.4592673E-010  0.4778727E+02  0.7816164E-02  0.1312668E+00
        -11   -1    0    0    0    0  0.00000000000E+00  0.00000000000E+00  0.45593999997E+02  0.45594000000E+02  0.51100000000E-03 0.  1.
         11   -1    0    0    0    0 -0.00000000000E+00 -0.00000000000E+00 -0.45593999997E+02  0.45594000000E+02  0.51100000000E-03 0. -1.
    9900012    2    1    2    0    0  0.13789450730E+02 -0.32667873526E+02 -0.25025673335E+02  0.47787271458E+02  0.20000001884E+02 0.  0.
        -12    1    1    2    0    0 -0.13789450730E+02  0.32667873526E+02  0.25025673335E+02  0.43400728542E+02  0.00000000000E+00 0.  1.
         11    1    3    3    0    0  0.97532483853E+01 -0.11420728516E+02 -0.77733831474E+01  0.16911072696E+02  0.51100000000E-03 0. -1.
        -11    1    3    3    0    0  0.16383691964E+01  0.16515165748E+01 -0.30066908468E+01  0.38015721392E+01  0.51100000000E-03 0.  1.
        -12    1    3    3    0    0  0.23978331482E+01 -0.22898661585E+02 -0.14245599341E+02  0.27074626623E+02  0.00000000000E+00 0.  1.
</event>
<event>
 7    1  0.4592673E-010  0.4778727E+02  0.7816164E-02  0.1312668E+00
        -11   -1    0    0    0    0  0.00000000000E+00  0.00000000000E+00  0.45593999997E+02  0.45594000000E+02  0.51100000000E-03 0. -1.
         11   -1    0    0    0    0 -0.00000000000E+00 -0.00000000000E+00 -0.45593999997E+02  0.45594000000E+02  0.51100000000E-03 0.  1.
    9900012    2    1    2    0    0  0.28174842473E+02 -0.24698010690E+02 -0.21904557121E+02  0.47787273012E+02  0.20000008970E+02 0.  0.
        -12    1    1    2    0    0 -0.28174842473E+02  0.24698010690E+02  0.21904557121E+02  0.43400726988E+02  0.00000000000E+00 0.  1.
         11    1    3    3    0    0  0.99705472569E+01 -0.67259981241E+01  0.14481904944E+00  0.12027960600E+02  0.51100000000E-03 0. -1.
        -11    1    3    3    0    0  0.16612722421E+01 -0.82678913684E+01 -0.36759341562E+01  0.91994752743E+01  0.51100000000E-03 0.  1.
        -12    1    3    3    0    0  0.16543022974E+02 -0.97041211976E+01 -0.18373442014E+02  0.26559837138E+02  0.00000000000E+00 0.  1.
</event>
<event>
 7    1  0.4592673E-010  0.4778727E+02  0.7816164E-02  0.1312668E+00
        -11   -1    0    0    0    0  0.00000000000E+00  0.00000000000E+00  0.45593999997E+02  0.45594000000E+02  0.51100000000E-03 0.  1.
         11   -1    0    0    0    0 -0.00000000000E+00 -0.00000000000E+00 -0.45593999997E+02  0.45594000000E+02  0.51100000000E-03 0. -1.
    9900012    2    1    2    0    0  0.40641392556E+02  0.12213553395E+02 -0.90956062211E+01  0.47787265813E+02  0.19999976148E+02 0.  0.
        -12    1    1    2    0    0 -0.40641392556E+02 -0.12213553395E+02  0.90956062211E+01  0.43400734187E+02  0.00000000000E+00 0.  1.
         11    1    3    3    0    0  0.24936668203E+01 -0.12141920952E+01 -0.77623417573E+00  0.28801347905E+01  0.51100000000E-03 0. -1.
        -11    1    3    3    0    0  0.53825312319E+00  0.24627066685E+01 -0.49900135665E+01  0.55906060686E+01  0.51100000000E-03 0.  1.
        -12    1    3    3    0    0  0.37609472613E+02  0.10965038822E+02 -0.33293584789E+01  0.39316524954E+02  0.00000000000E+00 0.  1.
</event>
<event>
 7    1  0.4592673E-010  0.4778728E+02  0.7816164E-02  0.1312668E+00
        -11   -1    0    0    0    0  0.00000000000E+00  0.00000000000E+00  0.45593999997E+02  0.45594000000E+02  0.51100000000E-03 0.  1.
         11   -1    0    0    0    0 -0.00000000000E+00 -0.00000000000E+00 -0.45593999997E+02  0.45594000000E+02  0.51100000000E-03 0. -1.
    9900012    2    1    2    0    0  0.92216677500E+01  0.26407304286E+02 -0.33184900574E+02  0.47787279938E+02  0.20000040550E+02 0.  0.
        -12    1    1    2    0    0 -0.92216677500E+01 -0.26407304286E+02  0.33184900574E+02  0.43400720062E+02  0.00000000000E+00 0.  1.
         11    1    3    3    0    0 -0.11510538845E+01  0.99901339794E+01 -0.13913823549E+02  0.17167474712E+02  0.51100000000E-03 0. -1.
        -11    1    3    3    0    0  0.72397212527E+01  0.19209554418E+01 -0.18015105317E+01  0.77038350244E+01  0.51100000000E-03 0.  1.
         12    1    3    3    0    0  0.31330003818E+01  0.14496214865E+02 -0.17469566493E+02  0.22915970202E+02  0.00000000000E+00 0. -1.
</event>
<event>
 7    1  0.4592673E-010  0.4778727E+02  0.7816164E-02  0.1312668E+00
        -11   -1    0    0    0    0  0.00000000000E+00  0.00000000000E+00  0.45593999997E+02  0.45594000000E+02  0.51100000000E-03 0.  1.
         11   -1    0    0    0    0 -0.00000000000E+00 -0.00000000000E+00 -0.45593999997E+02  0.45594000000E+02  0.51100000000E-03 0. -1.
    9900012    2    1    2    0    0 -0.25802731876E+02  0.21643314549E+02 -0.27375345418E+02  0.47787267591E+02  0.19999984254E+02 0.  0.
        -12    1    1    2    0    0  0.25802731876E+02 -0.21643314549E+02  0.27375345418E+02  0.43400732409E+02  0.00000000000E+00 0.  1.
         11    1    3    3    0    0 -0.11085160854E+02  0.77138090083E+01 -0.93341469346E+01  0.16416757897E+02  0.51100000000E-03 0. -1.
        -11    1    3    3    0    0 -0.17627815476E+02  0.10300568088E+02 -0.17083542483E+02  0.26621213447E+02  0.51100000000E-03 0.  1.
        -12    1    3    3    0    0  0.29102444549E+01  0.36289374528E+01 -0.95765600068E+00  0.47492962467E+01  0.00000000000E+00 0.  1.
</event>
<event>
 7    1  0.4592673E-010  0.4778727E+02  0.7816164E-02  0.1312668E+00
        -11   -1    0    0    0    0  0.00000000000E+00  0.00000000000E+00  0.45593999997E+02  0.45594000000E+02  0.51100000000E-03 0.  1.
         11   -1    0    0    0    0 -0.00000000000E+00 -0.00000000000E+00 -0.45593999997E+02  0.45594000000E+02  0.51100000000E-03 0. -1.
    9900012    2    1    2    0    0 -0.18837030145E+02 -0.28383137793E+01 -0.38996585028E+02  0.47787269895E+02  0.19999994757E+02 0.  0.
        -12    1    1    2    0    0  0.18837030145E+02  0.28383137793E+01  0.38996585028E+02  0.43400730105E+02  0.00000000000E+00 0.  1.
         11    1    3    3    0    0 -0.12576980581E+02 -0.41038796496E+01 -0.16562350474E+02  0.21197493300E+02  0.51100000000E-03 0. -1.
        -11    1    3    3    0    0 -0.75418531035E+01  0.48659352884E+01 -0.93578130246E+01  0.12966323277E+02  0.51100000000E-03 0.  1.
        -12    1    3    3    0    0  0.12818035395E+01 -0.36003694181E+01 -0.13076421530E+02  0.13623453318E+02  0.00000000000E+00 0.  1.
</event>
<event>
 7    1  0.4592673E-010  0.4778727E+02  0.7816164E-02  0.1312668E+00
        -11   -1    0    0    0    0  0.00000000000E+00  0.00000000000E+00  0.45593999997E+02  0.45594000000E+02  0.51100000000E-03 0. -1.
         11   -1    0    0    0    0 -0.00000000000E+00 -0.00000000000E+00 -0.45593999997E+02  0.45594000000E+02  0.51100000000E-03 0.  1.
    9900012    2    1    2    0    0 -0.20637865614E+02  0.37435390429E+02  0.75028985299E+01  0.47787269131E+02  0.19999991275E+02 0.  0.
        -12    1    1    2    0    0  0.20637865614E+02 -0.37435390429E+02 -0.75028985299E+01  0.43400730869E+02  0.00000000000E+00 0.  1.
         11    1    3    3    0    0 -0.12321972293E+02  0.28142101010E+02  0.16202780645E+01  0.30764169934E+02  0.51100000000E-03 0. -1.
        -11    1    3    3    0    0 -0.82189518631E+01  0.10237218152E+02  0.23142250559E+01  0.13330695522E+02  0.51100000000E-03 0.  1.
        -12    1    3    3    0    0 -0.96941458096E-01 -0.94392873378E+00  0.35683954096E+01  0.36924036751E+01  0.00000000000E+00 0.  1.
</event>
<event>
 7    1  0.4592673E-010  0.4778727E+02  0.7816164E-02  0.1312668E+00
        -11   -1    0    0    0    0  0.00000000000E+00  0.00000000000E+00  0.45593999997E+02  0.45594000000E+02  0.51100000000E-03 0. -1.
         11   -1    0    0    0    0 -0.00000000000E+00 -0.00000000000E+00 -0.45593999997E+02  0.45594000000E+02  0.51100000000E-03 0.  1.
    9900012    2    1    2    0    0 -0.17886529092E+02 -0.29034956018E+02  0.26845235564E+02  0.47787271131E+02  0.20000000393E+02 0.  0.
        -12    1    1    2    0    0  0.17886529092E+02  0.29034956018E+02 -0.26845235564E+02  0.43400728869E+02  0.00000000000E+00 0.  1.
         11    1    3    3    0    0  0.93933937954E+00 -0.11014452435E+02  0.81835374934E+01  0.13753937875E+02  0.51100000000E-03 0. -1.
        -11    1    3    3    0    0 -0.21474842651E+01 -0.25410383248E+01  0.84707498571E+01  0.91006685380E+01  0.51100000000E-03 0.  1.
         12    1    3    3    0    0 -0.16678384207E+02 -0.15479465258E+02  0.10190948213E+02  0.24932664717E+02  0.00000000000E+00 0. -1.
</event>
<event>
 7    1  0.4592673E-010  0.4778727E+02  0.7816164E-02  0.1312668E+00
        -11   -1    0    0    0    0  0.00000000000E+00  0.00000000000E+00  0.45593999997E+02  0.45594000000E+02  0.51100000000E-03 0.  1.
         11   -1    0    0    0    0 -0.00000000000E+00 -0.00000000000E+00 -0.45593999997E+02  0.45594000000E+02  0.51100000000E-03 0. -1.
    9900012    2    1    2    0    0 -0.82397334600E+01 -0.22794481295E+02 -0.36001969337E+02  0.47787269809E+02  0.19999994366E+02 0.  0.
        -12    1    1    2    0    0  0.82397334600E+01  0.22794481295E+02  0.36001969337E+02  0.43400730191E+02  0.00000000000E+00 0.  1.
         11    1    3    3    0    0 -0.28093479709E+01 -0.98874215241E+01 -0.15703385428E+02  0.18768320505E+02  0.51100000000E-03 0. -1.
        -11    1    3    3    0    0 -0.60157782364E+01 -0.10931946385E+02 -0.22670355848E+02  0.25877443345E+02  0.51100000000E-03 0.  1.
        -12    1    3    3    0    0  0.58539274740E+00 -0.19751133865E+01  0.23717719391E+01  0.31415059588E+01  0.00000000000E+00 0.  1.
</event>
<event>
 7    1  0.4592673E-010  0.4778727E+02  0.7816164E-02  0.1312668E+00
        -11   -1    0    0    0    0  0.00000000000E+00  0.00000000000E+00  0.45593999997E+02  0.45594000000E+02  0.51100000000E-03 0. -1.
         11   -1    0    0    0    0 -0.00000000000E+00 -0.00000000000E+00 -0.45593999997E+02  0.45594000000E+02  0.51100000000E-03 0.  1.
    9900012    2    1    2    0    0 -0.17558026263E+02 -0.38869191371E+02 -0.80327283261E+01  0.47787273642E+02  0.20000011842E+02 0.  0.
        -12    1    1    2    0    0  0.17558026263E+02  0.38869191371E+02  0.80327283261E+01  0.43400726358E+02  0.00000000000E+00 0.  1.
         11    1    3    3    0    0  0.31741934067E-01 -0.82991738084E-01 -0.37477818882E+01  0.37488350886E+01  0.51100000000E-03 0. -1.
        -11    1    3    3    0    0 -0.35754028967E+01 -0.14584377423E+01  0.44518328531E+00  0.38869956188E+01  0.51100000000E-03 0.  1.
         12    1    3    3    0    0 -0.14014365301E+02 -0.37327761890E+02 -0.47301297232E+01  0.40151442934E+02  0.00000000000E+00 0. -1.
</event>
<event>
 7    1  0.4592673E-010  0.4778727E+02  0.7816164E-02  0.1312668E+00
        -11   -1    0    0    0    0  0.00000000000E+00  0.00000000000E+00  0.45593999997E+02  0.45594000000E+02  0.51100000000E-03 0.  1.
         11   -1    0    0    0    0 -0.00000000000E+00 -0.00000000000E+00 -0.45593999997E+02  0.45594000000E+02  0.51100000000E-03 0. -1.
    9900012    2    1    2    0    0 -0.37785659211E+02  0.18142435965E+02  0.11256980829E+02  0.47787266802E+02  0.19999980657E+02 0.  0.
        -12    1    1    2    0    0  0.37785659211E+02 -0.18142435965E+02 -0.11256980829E+02  0.43400733198E+02  0.00000000000E+00 0.  1.
         11    1    3    3    0    0 -0.24679904962E+02  0.11766571440E+02  0.63840784578E+01  0.28076794161E+02  0.51100000000E-03 0. -1.
        -11    1    3    3    0    0 -0.11959594437E+02  0.97817857974E+01  0.45285779441E+01  0.16100411514E+02  0.51100000000E-03 0.  1.
         12    1    3    3    0    0 -0.11461598126E+01 -0.34059212716E+01  0.34432442683E+00  0.36100611263E+01  0.00000000000E+00 0. -1.
</event>
<event>
 7    1  0.4592673E-010  0.4778728E+02  0.7816164E-02  0.1312668E+00
        -11   -1    0    0    0    0  0.00000000000E+00  0.00000000000E+00  0.45593999997E+02  0.45594000000E+02  0.51100000000E-03 0. -1.
         11   -1    0    0    0    0 -0.00000000000E+00 -0.00000000000E+00 -0.45593999997E+02  0.45594000000E+02  0.51100000000E-03 0.  1.
    9900012    2    1    2    0    0 -0.36054036663E+02  0.23680987393E+02  0.47895654985E+01  0.47787278102E+02  0.20000032178E+02 0.  0.
        -12    1    1    2    0    0  0.36054036663E+02 -0.23680987393E+02 -0.47895654985E+01  0.43400721898E+02  0.00000000000E+00 0.  1.
         11    1    3    3    0    0 -0.59732501494E+01  0.46525140201E+01  0.27297783706E+01  0.80484342743E+01  0.51100000000E-03 0. -1.
        -11    1    3    3    0    0 -0.23852966526E+02  0.14446999204E+02 -0.60484575945E+01  0.28535305108E+02  0.51100000000E-03 0.  1.
        -12    1    3    3    0    0 -0.62278199876E+01  0.45814741692E+01  0.81082447224E+01  0.11203538720E+02  0.00000000000E+00 0.  1.
</event>
<event>
 7    1  0.4592673E-010  0.4778727E+02  0.7816164E-02  0.1312668E+00
        -11   -1    0    0    0    0  0.00000000000E+00  0.00000000000E+00  0.45593999997E+02  0.45594000000E+02  0.51100000000E-03 0.  1.
         11   -1    0    0    0    0 -0.00000000000E+00 -0.00000000000E+00 -0.45593999997E+02  0.45594000000E+02  0.51100000000E-03 0. -1.
    9900012    2    1    2    0    0  0.28255075633E+02 -0.32920584452E+02 -0.12283357033E+01  0.47787274335E+02  0.20000015003E+02 0.  0.
        -12    1    1    2    0    0 -0.28255075633E+02  0.32920584452E+02  0.12283357033E+01  0.43400725665E+02  0.00000000000E+00 0.  1.
         11    1    3    3    0    0  0.21602177385E+02 -0.18626369688E+02 -0.19325647266E+01  0.28588993025E+02  0.51100000000E-03 0. -1.
        -11    1    3    3    0    0  0.75901951528E+01 -0.37060905137E+01  0.13281911211E+01  0.85504538633E+01  0.51100000000E-03 0.  1.
        -12    1    3    3    0    0 -0.93729690495E+00 -0.10588124251E+02 -0.62396209788E+00  0.10647827447E+02  0.00000000000E+00 0.  1.
</event>
<event>
 7    1  0.4592673E-010  0.4778728E+02  0.7816164E-02  0.1312668E+00
        -11   -1    0    0    0    0  0.00000000000E+00  0.00000000000E+00  0.45593999997E+02  0.45594000000E+02  0.51100000000E-03 0.  1.
         11   -1    0    0    0    0 -0.00000000000E+00 -0.00000000000E+00 -0.45593999997E+02  0.45594000000E+02  0.51100000000E-03 0. -1.
    9900012    2    1    2    0    0 -0.18370156798E+02 -0.37818977810E+02 -0.10764992676E+02  0.47787276380E+02  0.20000024328E+02 0.  0.
        -12    1    1    2    0    0  0.18370156798E+02  0.37818977810E+02  0.10764992676E+02  0.43400723620E+02  0.00000000000E+00 0.  1.
         11    1    3    3    0    0  0.66052628474E+00  0.23439314928E+00  0.96245392359E+00  0.11906103214E+01  0.51100000000E-03 0. -1.
        -11    1    3    3    0    0 -0.20451536803E+01 -0.57824618017E+01  0.35173229468E+01  0.70704369764E+01  0.51100000000E-03 0.  1.
         12    1    3    3    0    0 -0.16985529403E+02 -0.32270909158E+02 -0.15244769547E+02  0.39526229082E+02  0.00000000000E+00 0. -1.
</event>
<event>
 7    1  0.4592673E-010  0.4778727E+02  0.7816164E-02  0.1312668E+00
        -11   -1    0    0    0    0  0.00000000000E+00  0.00000000000E+00  0.45593999997E+02  0.45594000000E+02  0.51100000000E-03 0. -1.
         11   -1    0    0    0    0 -0.00000000000E+00 -0.00000000000E+00 -0.45593999997E+02  0.45594000000E+02  0.51100000000E-03 0.  1.
    9900012    2    1    2    0    0 -0.15729653603E+02 -0.54696751397E+01  0.40078470969E+02  0.47787272082E+02  0.20000004732E+02 0.  0.
        -12    1    1    2    0    0  0.15729653603E+02  0.54696751397E+01 -0.40078470969E+02  0.43400727918E+02  0.00000000000E+00 0.  1.
         11    1    3    3    0    0 -0.26340013252E+01 -0.70051633227E+00  0.73690240019E+00  0.28234219525E+01  0.51100000000E-03 0.  1.
        -11    1    3    3    0    0 -0.10238632833E+02 -0.81960538301E+01  0.13809449870E+02  0.19044836745E+02  0.51100000000E-03 0. -1.
         12    1    3    3    0    0 -0.28570194447E+01  0.34268950227E+01  0.25532118699E+02  0.25919013385E+02  0.00000000000E+00 0. -1.
</event>
<event>
 7    1  0.4592673E-010  0.4778726E+02  0.7816164E-02  0.1312668E+00
        -11   -1    0    0    0    0  0.00000000000E+00  0.00000000000E+00  0.45593999997E+02  0.45594000000E+02  0.51100000000E-03 0. -1.
         11   -1    0    0    0    0 -0.00000000000E+00 -0.00000000000E+00 -0.45593999997E+02  0.45594000000E+02  0.51100000000E-03 0.  1.
    9900012    2    1    2    0    0  0.31296744309E+02 -0.29491600266E+02  0.58637165035E+01  0.47787264271E+02  0.19999969118E+02 0.  0.
        -12    1    1    2    0    0 -0.31296744309E+02  0.29491600266E+02 -0.58637165035E+01  0.43400735729E+02  0.00000000000E+00 0.  1.
         11    1    3    3    0    0  0.47204549613E+01 -0.11593867121E+02 -0.12986962540E+01  0.12585192175E+02  0.51100000000E-03 0. -1.
        -11    1    3    3    0    0  0.34121224361E+01 -0.77385573747E+01  0.49785266346E+01  0.98139481084E+01  0.51100000000E-03 0.  1.
        -12    1    3    3    0    0  0.23164166911E+02 -0.10159175771E+02  0.21838861228E+01  0.25388123988E+02  0.00000000000E+00 0.  1.
</event>
<event>
 7    1  0.4592673E-010  0.4778730E+02  0.7816164E-02  0.1312668E+00
        -11   -1    0    0    0    0  0.00000000000E+00  0.00000000000E+00  0.45593999997E+02  0.45594000000E+02  0.51100000000E-03 0. -1.
         11   -1    0    0    0    0 -0.00000000000E+00 -0.00000000000E+00 -0.45593999997E+02  0.45594000000E+02  0.51100000000E-03 0.  1.
    9900012    2    1    2    0    0  0.52596981974E+00  0.28161013092E+02  0.33019709500E+02  0.47787302792E+02  0.20000144751E+02 0.  0.
        -12    1    1    2    0    0 -0.52596981974E+00 -0.28161013092E+02 -0.33019709500E+02  0.43400697208E+02  0.00000000000E+00 0.  1.
         11    1    3    3    0    0  0.14736203279E+01  0.10571005767E+02  0.23230110115E+02  0.25564736181E+02  0.51100000000E-03 0. -1.
        -11    1    3    3    0    0  0.79462286182E+00  0.17415180159E+01  0.53349631354E+01  0.56679928025E+01  0.51100000000E-03 0.  1.
        -12    1    3    3    0    0 -0.17422733700E+01  0.15848489309E+02  0.44546362500E+01  0.16554573808E+02  0.00000000000E+00 0.  1.
</event>
<event>
 7    1  0.4592673E-010  0.4778727E+02  0.7816164E-02  0.1312668E+00
        -11   -1    0    0    0    0  0.00000000000E+00  0.00000000000E+00  0.45593999997E+02  0.45594000000E+02  0.51100000000E-03 0. -1.
         11   -1    0    0    0    0 -0.00000000000E+00 -0.00000000000E+00 -0.45593999997E+02  0.45594000000E+02  0.51100000000E-03 0.  1.
    9900012    2    1    2    0    0 -0.31346031251E+02 -0.87052510295E+01  0.28727482884E+02  0.47787270242E+02  0.19999996341E+02 0.  0.
        -12    1    1    2    0    0  0.31346031251E+02  0.87052510295E+01 -0.28727482884E+02  0.43400729758E+02  0.00000000000E+00 0.  1.
         11    1    3    3    0    0 -0.82848239478E+01 -0.41563310431E+01  0.83753748202E+00  0.93067107444E+01  0.51100000000E-03 0.  1.
        -11    1    3    3    0    0 -0.11367170587E+02 -0.74119584145E+00  0.48849016846E+01  0.12394523112E+02  0.51100000000E-03 0. -1.
         12    1    3    3    0    0 -0.11694036716E+02 -0.38077241450E+01  0.23005043717E+02  0.26086036386E+02  0.00000000000E+00 0. -1.
</event>
<event>
 7    1  0.4592673E-010  0.4778727E+02  0.7816164E-02  0.1312668E+00
        -11   -1    0    0    0    0  0.00000000000E+00  0.00000000000E+00  0.45593999997E+02  0.45594000000E+02  0.51100000000E-03 0.  1.
         11   -1    0    0    0    0 -0.00000000000E+00 -0.00000000000E+00 -0.45593999997E+02  0.45594000000E+02  0.51100000000E-03 0. -1.
    9900012    2    1    2    0    0 -0.57083687837E+00  0.34418737528E+02 -0.26431953050E+02  0.47787268557E+02  0.19999988657E+02 0.  0.
        -12    1    1    2    0    0  0.57083687837E+00 -0.34418737528E+02  0.26431953050E+02  0.43400731443E+02  0.00000000000E+00 0.  1.
         11    1    3    3    0    0  0.20976840266E+01  0.20362883390E+02 -0.12865105217E+02  0.24177639064E+02  0.51100000000E-03 0. -1.
        -11    1    3    3    0    0 -0.45102596193E+01  0.97494310176E+01 -0.17309797706E+01  0.10880723240E+02  0.51100000000E-03 0.  1.
        -12    1    3    3    0    0  0.18417387143E+01  0.43064231208E+01 -0.11835868063E+02  0.12728906252E+02  0.00000000000E+00 0.  1.
</event>
<event>
 7    1  0.5052041E-010  0.4778727E+02  0.7816164E-02  0.1312668E+00
        -11   -1    0    0    0    0  0.00000000000E+00  0.00000000000E+00  0.45593999997E+02  0.45594000000E+02  0.51100000000E-03 0. -1.
         11   -1    0    0    0    0 -0.00000000000E+00 -0.00000000000E+00 -0.45593999997E+02  0.45594000000E+02  0.51100000000E-03 0.  1.
    9900012    2    1    2    0    0 -0.78631716625E+01  0.21885826544E+02  0.36644299023E+02  0.47787268175E+02  0.19999986916E+02 0.  0.
        -12    1    1    2    0    0  0.78631716625E+01 -0.21885826544E+02 -0.36644299023E+02  0.43400731825E+02  0.00000000000E+00 0.  1.
         11    1    3    3    0    0 -0.36043811150E+01  0.63205318434E+01  0.22574062560E+02  0.23717693537E+02  0.51100000000E-03 0. -1.
        -11    1    3    3    0    0  0.35326553428E+01  0.46101279641E+01  0.61842117507E+01  0.84839500738E+01  0.51100000000E-03 0.  1.
        -12    1    3    3    0    0 -0.77914458902E+01  0.10955166737E+02  0.78860247120E+01  0.15585624564E+02  0.00000000000E+00 0.  1.
</event>
<event>
 7    1  0.4592673E-010  0.4778727E+02  0.7816164E-02  0.1312668E+00
        -11   -1    0    0    0    0  0.00000000000E+00  0.00000000000E+00  0.45593999997E+02  0.45594000000E+02  0.51100000000E-03 0. -1.
         11   -1    0    0    0    0 -0.00000000000E+00 -0.00000000000E+00 -0.45593999997E+02  0.45594000000E+02  0.51100000000E-03 0.  1.
    9900012    2    1    2    0    0  0.42734091362E+02  0.65874235976E+01  0.37451938750E+01  0.47787271996E+02  0.20000004337E+02 0.  0.
        -12    1    1    2    0    0 -0.42734091362E+02 -0.65874235976E+01 -0.37451938750E+01  0.43400728004E+02  0.00000000000E+00 0.  1.
         11    1    3    3    0    0  0.27230228399E+02  0.46491435509E+01  0.48500590713E+00  0.27628519784E+02  0.51100000000E-03 0. -1.
        -11    1    3    3    0    0  0.30878226761E+01 -0.45337412055E+01 -0.88525883048E+00  0.55563604685E+01  0.51100000000E-03 0.  1.
         12    1    3    3    0    0  0.12416040286E+02  0.64720212521E+01  0.41454467984E+01  0.14602391743E+02  0.00000000000E+00 0. -1.
</event>
<event>
 7    1  0.4592673E-010  0.4778728E+02  0.7816164E-02  0.1312668E+00
        -11   -1    0    0    0    0  0.00000000000E+00  0.00000000000E+00  0.45593999997E+02  0.45594000000E+02  0.51100000000E-03 0.  1.
         11   -1    0    0    0    0 -0.00000000000E+00 -0.00000000000E+00 -0.45593999997E+02  0.45594000000E+02  0.51100000000E-03 0. -1.
    9900012    2    1    2    0    0 -0.36626185520E+02 -0.22114866117E+02 -0.72854262281E+01  0.47787283364E+02  0.20000056171E+02 0.  0.
        -12    1    1    2    0    0  0.36626185520E+02  0.22114866117E+02  0.72854262281E+01  0.43400716636E+02  0.00000000000E+00 0.  1.
         11    1    3    3    0    0 -0.57147421169E+01 -0.93795032525E+01 -0.48182383195E+01  0.11993697490E+02  0.51100000000E-03 0. -1.
        -11    1    3    3    0    0 -0.77953502144E+01 -0.71751188202E+01 -0.53061793037E+01  0.11849276523E+02  0.51100000000E-03 0.  1.
        -12    1    3    3    0    0 -0.23116093189E+02 -0.55602440446E+01  0.28389913952E+01  0.23944309351E+02  0.00000000000E+00 0.  1.
</event>
<event>
 7    1  0.4592673E-010  0.4778727E+02  0.7816164E-02  0.1312668E+00
        -11   -1    0    0    0    0  0.00000000000E+00  0.00000000000E+00  0.45593999997E+02  0.45594000000E+02  0.51100000000E-03 0.  1.
         11   -1    0    0    0    0 -0.00000000000E+00 -0.00000000000E+00 -0.45593999997E+02  0.45594000000E+02  0.51100000000E-03 0. -1.
    9900012    2    1    2    0    0 -0.97669938575E+01 -0.33021074172E+02 -0.26416622831E+02  0.47787268782E+02  0.19999989684E+02 0.  0.
        -12    1    1    2    0    0  0.97669938575E+01  0.33021074172E+02  0.26416622831E+02  0.43400731218E+02  0.00000000000E+00 0.  1.
         11    1    3    3    0    0 -0.31001248886E+01 -0.21070934541E+02 -0.20029165658E+02  0.29236322169E+02  0.51100000000E-03 0. -1.
        -11    1    3    3    0    0 -0.18904242748E+00 -0.79215789541E+00 -0.55633118884E+01  0.56226053213E+01  0.51100000000E-03 0.  1.
        -12    1    3    3    0    0 -0.64778265415E+01 -0.11157981735E+02 -0.82414528520E+00  0.12928341291E+02  0.00000000000E+00 0.  1.
</event>
<event>
 7    1  0.4592673E-010  0.4778726E+02  0.7816164E-02  0.1312668E+00
        -11   -1    0    0    0    0  0.00000000000E+00  0.00000000000E+00  0.45593999997E+02  0.45594000000E+02  0.51100000000E-03 0.  1.
         11   -1    0    0    0    0 -0.00000000000E+00 -0.00000000000E+00 -0.45593999997E+02  0.45594000000E+02  0.51100000000E-03 0. -1.
    9900012    2    1    2    0    0  0.60218627779E+01 -0.42341220277E+02 -0.73879822311E+01  0.47787262134E+02  0.19999959375E+02 0.  0.
        -12    1    1    2    0    0 -0.60218627779E+01  0.42341220277E+02  0.73879822311E+01  0.43400737866E+02  0.00000000000E+00 0.  1.
         11    1    3    3    0    0  0.56274155204E+01 -0.14766342833E+02 -0.50037688018E+01  0.16575596176E+02  0.51100000000E-03 0. -1.
        -11    1    3    3    0    0  0.69895971394E+01 -0.12256528929E+02 -0.33646898268E+01  0.14505106254E+02  0.51100000000E-03 0.  1.
        -12    1    3    3    0    0 -0.65951498819E+01 -0.15318348515E+02  0.98047639750E+00  0.16706559704E+02  0.00000000000E+00 0.  1.
</event>
<event>
 7    1  0.4592673E-010  0.4778727E+02  0.7816164E-02  0.1312668E+00
        -11   -1    0    0    0    0  0.00000000000E+00  0.00000000000E+00  0.45593999997E+02  0.45594000000E+02  0.51100000000E-03 0. -1.
         11   -1    0    0    0    0 -0.00000000000E+00 -0.00000000000E+00 -0.45593999997E+02  0.45594000000E+02  0.51100000000E-03 0.  1.
    9900012    2    1    2    0    0  0.58840686208E+01  0.39039757717E+02  0.18024930698E+02  0.47787273361E+02  0.20000010562E+02 0.  0.
        -12    1    1    2    0    0 -0.58840686208E+01 -0.39039757717E+02 -0.18024930698E+02  0.43400726639E+02  0.00000000000E+00 0.  1.
         11    1    3    3    0    0  0.82160770945E+01  0.14230739524E+02  0.10637350409E+02  0.19574756556E+02  0.51100000000E-03 0. -1.
        -11    1    3    3    0    0  0.10040687102E+01  0.14910491539E+02  0.92880986761E+01  0.17595445126E+02  0.51100000000E-03 0.  1.
        -12    1    3    3    0    0 -0.33360771839E+01  0.98985266537E+01 -0.19005183876E+01  0.10617071679E+02  0.00000000000E+00 0.  1.
</event>
<event>
 7    1  0.4592673E-010  0.4778726E+02  0.7816164E-02  0.1312668E+00
        -11   -1    0    0    0    0  0.00000000000E+00  0.00000000000E+00  0.45593999997E+02  0.45594000000E+02  0.51100000000E-03 0.  1.
         11   -1    0    0    0    0 -0.00000000000E+00 -0.00000000000E+00 -0.45593999997E+02  0.45594000000E+02  0.51100000000E-03 0. -1.
    9900012    2    1    2    0    0 -0.18321634637E+02  0.19257357570E+02 -0.34308839398E+02  0.47787256030E+02  0.19999931542E+02 0.  0.
        -12    1    1    2    0    0  0.18321634637E+02 -0.19257357570E+02  0.34308839398E+02  0.43400743970E+02  0.00000000000E+00 0.  1.
         11    1    3    3    0    0 -0.14437668694E+01  0.86211620629E+01 -0.12329755390E+02  0.15113959320E+02  0.51100000000E-03 0. -1.
        -11    1    3    3    0    0 -0.57612039031E+01  0.96610170218E+01 -0.48946777440E+01  0.12267216098E+02  0.51100000000E-03 0.  1.
        -12    1    3    3    0    0 -0.11116663865E+02  0.97517848517E+00 -0.17084406264E+02  0.20406080612E+02  0.00000000000E+00 0.  1.
</event>
<event>
 7    1  0.4592673E-010  0.4778728E+02  0.7816164E-02  0.1312668E+00
        -11   -1    0    0    0    0  0.00000000000E+00  0.00000000000E+00  0.45593999997E+02  0.45594000000E+02  0.51100000000E-03 0.  1.
         11   -1    0    0    0    0 -0.00000000000E+00 -0.00000000000E+00 -0.45593999997E+02  0.45594000000E+02  0.51100000000E-03 0. -1.
    9900012    2    1    2    0    0 -0.22477546216E+01 -0.42946994174E+02  0.58417424478E+01  0.47787278067E+02  0.20000032020E+02 0.  0.
        -12    1    1    2    0    0  0.22477546216E+01  0.42946994174E+02 -0.58417424478E+01  0.43400721933E+02  0.00000000000E+00 0.  1.
         11    1    3    3    0    0  0.45154978121E+01 -0.11885133340E+02  0.35711376868E+01  0.13206026641E+02  0.51100000000E-03 0. -1.
        -11    1    3    3    0    0  0.53046119209E+00 -0.14498963192E+02  0.66517080964E+01  0.15960781421E+02  0.51100000000E-03 0.  1.
         12    1    3    3    0    0 -0.72937136258E+01 -0.16562897643E+02 -0.43811033354E+01  0.18620470005E+02  0.00000000000E+00 0. -1.
</event>
<event>
 7    1  0.4592673E-010  0.4778727E+02  0.7816164E-02  0.1312668E+00
        -11   -1    0    0    0    0  0.00000000000E+00  0.00000000000E+00  0.45593999997E+02  0.45594000000E+02  0.51100000000E-03 0.  1.
         11   -1    0    0    0    0 -0.00000000000E+00 -0.00000000000E+00 -0.45593999997E+02  0.45594000000E+02  0.51100000000E-03 0. -1.
    9900012    2    1    2    0    0  0.25626513863E+02 -0.61769432259E+01 -0.34478260737E+02  0.47787270700E+02  0.19999998428E+02 0.  0.
        -12    1    1    2    0    0 -0.25626513863E+02  0.61769432259E+01  0.34478260737E+02  0.43400729300E+02  0.00000000000E+00 0.  1.
         11    1    3    3    0    0  0.11678401166E+02 -0.39440901494E+01 -0.75309259544E+01  0.14444921145E+02  0.51100000000E-03 0. -1.
        -11    1    3    3    0    0  0.92218924692E+01 -0.59516783925E+01 -0.83328414941E+01  0.13780494332E+02  0.51100000000E-03 0.  1.
         12    1    3    3    0    0  0.47262202272E+01  0.37188253160E+01 -0.18614493288E+02  0.19561855222E+02  0.00000000000E+00 0. -1.
</event>
<event>
 7    1  0.4592673E-010  0.4778726E+02  0.7816164E-02  0.1312668E+00
        -11   -1    0    0    0    0  0.00000000000E+00  0.00000000000E+00  0.45593999997E+02  0.45594000000E+02  0.51100000000E-03 0.  1.
         11   -1    0    0    0    0 -0.00000000000E+00 -0.00000000000E+00 -0.45593999997E+02  0.45594000000E+02  0.51100000000E-03 0. -1.
    9900012    2    1    2    0    0 -0.30295500179E+01 -0.41217883849E+02  0.13248850972E+02  0.47787260670E+02  0.19999952697E+02 0.  0.
        -12    1    1    2    0    0  0.30295500179E+01  0.41217883849E+02 -0.13248850972E+02  0.43400739330E+02  0.00000000000E+00 0.  1.
         11    1    3    3    0    0  0.22594929537E+01 -0.27902952231E+02  0.12975931151E+02  0.30855385933E+02  0.51100000000E-03 0. -1.
        -11    1    3    3    0    0  0.11502565418E+01 -0.35840731514E+01  0.31563753868E+01  0.49123697245E+01  0.51100000000E-03 0.  1.
        -12    1    3    3    0    0 -0.64392995134E+01 -0.97308584672E+01 -0.28834555655E+01  0.12019505012E+02  0.00000000000E+00 0.  1.
</event>
<event>
 7    1  0.4592673E-010  0.4778726E+02  0.7816164E-02  0.1312668E+00
        -11   -1    0    0    0    0  0.00000000000E+00  0.00000000000E+00  0.45593999997E+02  0.45594000000E+02  0.51100000000E-03 0.  1.
         11   -1    0    0    0    0 -0.00000000000E+00 -0.00000000000E+00 -0.45593999997E+02  0.45594000000E+02  0.51100000000E-03 0. -1.
    9900012    2    1    2    0    0 -0.33798393933E+02 -0.46313559395E+01 -0.26829889244E+02  0.47787264440E+02  0.19999969888E+02 0.  0.
        -12    1    1    2    0    0  0.33798393933E+02  0.46313559395E+01  0.26829889244E+02  0.43400735560E+02  0.00000000000E+00 0.  1.
         11    1    3    3    0    0 -0.67287350911E+01 -0.32829106674E+01 -0.47717311958E+01  0.88782203872E+01  0.51100000000E-03 0. -1.
        -11    1    3    3    0    0 -0.83640934292E+01 -0.76843539437E+01 -0.37018271555E+01  0.11946165869E+02  0.51100000000E-03 0.  1.
         12    1    3    3    0    0 -0.18705565413E+02  0.63359086717E+01 -0.18356330893E+02  0.26962878184E+02  0.00000000000E+00 0. -1.
</event>
<event>
 7    1  0.4592673E-010  0.4778727E+02  0.7816164E-02  0.1312668E+00
        -11   -1    0    0    0    0  0.00000000000E+00  0.00000000000E+00  0.45593999997E+02  0.45594000000E+02  0.51100000000E-03 0.  1.
         11   -1    0    0    0    0 -0.00000000000E+00 -0.00000000000E+00 -0.45593999997E+02  0.45594000000E+02  0.51100000000E-03 0. -1.
    9900012    2    1    2    0    0 -0.81527115605E+01 -0.33741814438E+01 -0.42494369237E+02  0.47787271630E+02  0.20000002668E+02 0.  0.
        -12    1    1    2    0    0  0.81527115605E+01  0.33741814438E+01  0.42494369237E+02  0.43400728370E+02  0.00000000000E+00 0.  1.
         11    1    3    3    0    0 -0.15028244093E+01 -0.59322573211E+00 -0.89904009096E+01  0.91344242704E+01  0.51100000000E-03 0. -1.
        -11    1    3    3    0    0 -0.24739871494E+01  0.74440618813E+01 -0.17819884081E+02  0.19470052353E+02  0.51100000000E-03 0.  1.
         12    1    3    3    0    0 -0.41759000018E+01 -0.10225017593E+02 -0.15684084247E+02  0.19182795007E+02  0.00000000000E+00 0. -1.
</event>
<event>
 7    1  0.4592673E-010  0.4778727E+02  0.7816164E-02  0.1312668E+00
        -11   -1    0    0    0    0  0.00000000000E+00  0.00000000000E+00  0.45593999997E+02  0.45594000000E+02  0.51100000000E-03 0.  1.
         11   -1    0    0    0    0 -0.00000000000E+00 -0.00000000000E+00 -0.45593999997E+02  0.45594000000E+02  0.51100000000E-03 0. -1.
    9900012    2    1    2    0    0  0.88009978927E+01  0.14162822426E+02 -0.40069690803E+02  0.47787271619E+02  0.20000002620E+02 0.  0.
        -12    1    1    2    0    0 -0.88009978927E+01 -0.14162822426E+02  0.40069690803E+02  0.43400728381E+02  0.00000000000E+00 0.  1.
         11    1    3    3    0    0  0.86699034488E+01  0.29246464582E+01 -0.12256906132E+02  0.15295506886E+02  0.51100000000E-03 0. -1.
        -11    1    3    3    0    0  0.30946509538E+00  0.60519072921E+01 -0.23402455588E+01  0.64960064697E+01  0.51100000000E-03 0.  1.
        -12    1    3    3    0    0 -0.17837065150E+00  0.51862686754E+01 -0.25472539112E+02  0.25995758263E+02  0.00000000000E+00 0.  1.
</event>
<event>
 7    1  0.4592673E-010  0.4778727E+02  0.7816164E-02  0.1312668E+00
        -11   -1    0    0    0    0  0.00000000000E+00  0.00000000000E+00  0.45593999997E+02  0.45594000000E+02  0.51100000000E-03 0.  1.
         11   -1    0    0    0    0 -0.00000000000E+00 -0.00000000000E+00 -0.45593999997E+02  0.45594000000E+02  0.51100000000E-03 0. -1.
    9900012    2    1    2    0    0 -0.19396625802E+02 -0.37627546484E+02 -0.95688007093E+01  0.47787270813E+02  0.19999998946E+02 0.  0.
        -12    1    1    2    0    0  0.19396625802E+02  0.37627546484E+02  0.95688007093E+01  0.43400729187E+02  0.00000000000E+00 0.  1.
         11    1    3    3    0    0 -0.30401403745E+01 -0.22099001509E+01 -0.25829162376E+01  0.45604351465E+01  0.51100000000E-03 0. -1.
        -11    1    3    3    0    0 -0.54779669733E+01 -0.42975548654E+01  0.45301922004E+01  0.83066083100E+01  0.51100000000E-03 0.  1.
        -12    1    3    3    0    0 -0.10878518454E+02 -0.31120091468E+02 -0.11516076672E+02  0.34920227357E+02  0.00000000000E+00 0.  1.
</event>
<event>
 7    1  0.4592673E-010  0.4778727E+02  0.7816164E-02  0.1312668E+00
        -11   -1    0    0    0    0  0.00000000000E+00  0.00000000000E+00  0.45593999997E+02  0.45594000000E+02  0.51100000000E-03 0.  1.
         11   -1    0    0    0    0 -0.00000000000E+00 -0.00000000000E+00 -0.45593999997E+02  0.45594000000E+02  0.51100000000E-03 0. -1.
    9900012    2    1    2    0    0 -0.11340463592E+02  0.29601651666E+02 -0.29643880107E+02  0.47787268167E+02  0.19999986882E+02 0.  0.
        -12    1    1    2    0    0  0.11340463592E+02 -0.29601651666E+02  0.29643880107E+02  0.43400731833E+02  0.00000000000E+00 0.  1.
         11    1    3    3    0    0 -0.42257440159E+00  0.33629824224E+00  0.21833525622E-01  0.54050217074E+00  0.51100000000E-03 0. -1.
        -11    1    3    3    0    0  0.21579139519E+01 -0.49679404098E+00 -0.77033701038E+01  0.80153170966E+01  0.51100000000E-03 0.  1.
         12    1    3    3    0    0 -0.13075803142E+02  0.29762147465E+02 -0.21962343529E+02  0.39231448900E+02  0.00000000000E+00 0. -1.
</event>
<event>
 7    1  0.4592673E-010  0.4778727E+02  0.7816164E-02  0.1312668E+00
        -11   -1    0    0    0    0  0.00000000000E+00  0.00000000000E+00  0.45593999997E+02  0.45594000000E+02  0.51100000000E-03 0.  1.
         11   -1    0    0    0    0 -0.00000000000E+00 -0.00000000000E+00 -0.45593999997E+02  0.45594000000E+02  0.51100000000E-03 0. -1.
    9900012    2    1    2    0    0 -0.16832795253E+02  0.39842458736E+02 -0.35859276527E+01  0.47787269691E+02  0.19999993831E+02 0.  0.
        -12    1    1    2    0    0  0.16832795253E+02 -0.39842458736E+02  0.35859276527E+01  0.43400730309E+02  0.00000000000E+00 0.  1.
         11    1    3    3    0    0  0.67557909888E+00  0.16530818619E+01 -0.20421017074E+00  0.17974395166E+01  0.51100000000E-03 0.  1.
        -11    1    3    3    0    0 -0.11459942984E+02  0.36428480102E+02  0.11885875332E+01  0.38207030718E+02  0.51100000000E-03 0. -1.
         12    1    3    3    0    0 -0.60484313674E+01  0.17608967731E+01 -0.45703050152E+01  0.77827994567E+01  0.00000000000E+00 0. -1.
</event>
<event>
 7    1  0.4592673E-010  0.4778727E+02  0.7816164E-02  0.1312668E+00
        -11   -1    0    0    0    0  0.00000000000E+00  0.00000000000E+00  0.45593999997E+02  0.45594000000E+02  0.51100000000E-03 0.  1.
         11   -1    0    0    0    0 -0.00000000000E+00 -0.00000000000E+00 -0.45593999997E+02  0.45594000000E+02  0.51100000000E-03 0. -1.
    9900012    2    1    2    0    0 -0.40836157906E+00  0.14072576557E+02 -0.41053854572E+02  0.47787272525E+02  0.20000006749E+02 0.  0.
        -12    1    1    2    0    0  0.40836157906E+00 -0.14072576557E+02  0.41053854572E+02  0.43400727475E+02  0.00000000000E+00 0.  1.
         11    1    3    3    0    0 -0.46205165067E+01  0.16238110746E+01 -0.65423446511E+01  0.81724053369E+01  0.51100000000E-03 0. -1.
        -11    1    3    3    0    0  0.10334900715E+01 -0.21593411335E+01 -0.47607931595E+00  0.24408006135E+01  0.51100000000E-03 0.  1.
         12    1    3    3    0    0  0.31786648562E+01  0.14608106616E+02 -0.34035430605E+02  0.37174066574E+02  0.00000000000E+00 0. -1.
</event>
<event>
 7    1  0.4592673E-010  0.4778727E+02  0.7816164E-02  0.1312668E+00
        -11   -1    0    0    0    0  0.00000000000E+00  0.00000000000E+00  0.45593999997E+02  0.45594000000E+02  0.51100000000E-03 0. -1.
         11   -1    0    0    0    0 -0.00000000000E+00 -0.00000000000E+00 -0.45593999997E+02  0.45594000000E+02  0.51100000000E-03 0.  1.
    9900012    2    1    2    0    0  0.16611444832E+02  0.20196569434E+02  0.34637870555E+02  0.47787267369E+02  0.19999983242E+02 0.  0.
        -12    1    1    2    0    0 -0.16611444832E+02 -0.20196569434E+02 -0.34637870555E+02  0.43400732631E+02  0.00000000000E+00 0.  1.
         11    1    3    3    0    0  0.17982589823E+02  0.11525674723E+02  0.19877232344E+02  0.29177372748E+02  0.51100000000E-03 0. -1.
        -11    1    3    3    0    0  0.12301913708E+00 -0.31926241319E+00 -0.63372107637E+00  0.72018390729E+00  0.51100000000E-03 0.  1.
         12    1    3    3    0    0 -0.14941641274E+01  0.89901571239E+01  0.15394359287E+02  0.17889710714E+02  0.00000000000E+00 0. -1.
</event>
<event>
 7    1  0.4592673E-010  0.4778727E+02  0.7816164E-02  0.1312668E+00
        -11   -1    0    0    0    0  0.00000000000E+00  0.00000000000E+00  0.45593999997E+02  0.45594000000E+02  0.51100000000E-03 0.  1.
         11   -1    0    0    0    0 -0.00000000000E+00 -0.00000000000E+00 -0.45593999997E+02  0.45594000000E+02  0.51100000000E-03 0. -1.
    9900012    2    1    2    0    0  0.40389044845E+02  0.20360240511E+01 -0.15754453778E+02  0.47787272457E+02  0.20000006439E+02 0.  0.
        -12    1    1    2    0    0 -0.40389044845E+02 -0.20360240511E+01  0.15754453778E+02  0.43400727543E+02  0.00000000000E+00 0.  1.
         11    1    3    3    0    0  0.67557599875E+01  0.29898169303E+01  0.21181283715E+01  0.76854255799E+01  0.51100000000E-03 0. -1.
        -11    1    3    3    0    0  0.14310504379E+02 -0.91456043715E+00 -0.87417064271E+00  0.14366319325E+02  0.51100000000E-03 0.  1.
         12    1    3    3    0    0  0.19322780479E+02 -0.39232442023E-01 -0.16998411507E+02  0.25735527551E+02  0.00000000000E+00 0. -1.
</event>
<event>
 7    1  0.4592673E-010  0.4778727E+02  0.7816164E-02  0.1312668E+00
        -11   -1    0    0    0    0  0.00000000000E+00  0.00000000000E+00  0.45593999997E+02  0.45594000000E+02  0.51100000000E-03 0.  1.
         11   -1    0    0    0    0 -0.00000000000E+00 -0.00000000000E+00 -0.45593999997E+02  0.45594000000E+02  0.51100000000E-03 0. -1.
    9900012    2    1    2    0    0  0.20488331358E+02 -0.34670601344E+02  0.16180266859E+02  0.47787270110E+02  0.19999995739E+02 0.  0.
        -12    1    1    2    0    0 -0.20488331358E+02  0.34670601344E+02 -0.16180266859E+02  0.43400729890E+02  0.00000000000E+00 0.  1.
         11    1    3    3    0    0  0.96927817525E+01 -0.86758150787E+01  0.59850304948E+01  0.14319230973E+02  0.51100000000E-03 0. -1.
        -11    1    3    3    0    0  0.12132130557E+02 -0.17872891437E+02  0.12451475542E+02  0.24933272621E+02  0.51100000000E-03 0.  1.
        -12    1    3    3    0    0 -0.13365809522E+01 -0.81218948280E+01 -0.22562391780E+01  0.85347665151E+01  0.00000000000E+00 0.  1.
</event>
<event>
 7    1  0.4592673E-010  0.4778727E+02  0.7816164E-02  0.1312668E+00
        -11   -1    0    0    0    0  0.00000000000E+00  0.00000000000E+00  0.45593999997E+02  0.45594000000E+02  0.51100000000E-03 0. -1.
         11   -1    0    0    0    0 -0.00000000000E+00 -0.00000000000E+00 -0.45593999997E+02  0.45594000000E+02  0.51100000000E-03 0.  1.
    9900012    2    1    2    0    0 -0.35959832781E+02 -0.23158876865E+02  0.73607029468E+01  0.47787273057E+02  0.20000009177E+02 0.  0.
        -12    1    1    2    0    0  0.35959832781E+02  0.23158876865E+02 -0.73607029468E+01  0.43400726943E+02  0.00000000000E+00 0.  1.
         11    1    3    3    0    0 -0.55334075208E+01 -0.91182450272E+01 -0.32331367645E+01  0.11145140859E+02  0.51100000000E-03 0. -1.
        -11    1    3    3    0    0 -0.12763071641E+02 -0.11534286550E+02  0.43917885309E+01  0.17754536623E+02  0.51100000000E-03 0.  1.
         12    1    3    3    0    0 -0.17663353619E+02 -0.25063452885E+01  0.62020511804E+01  0.18887595576E+02  0.00000000000E+00 0. -1.
</event>
<event>
 7    1  0.4592673E-010  0.4778728E+02  0.7816164E-02  0.1312668E+00
        -11   -1    0    0    0    0  0.00000000000E+00  0.00000000000E+00  0.45593999997E+02  0.45594000000E+02  0.51100000000E-03 0.  1.
         11   -1    0    0    0    0 -0.00000000000E+00 -0.00000000000E+00 -0.45593999997E+02  0.45594000000E+02  0.51100000000E-03 0. -1.
    9900012    2    1    2    0    0 -0.60236185772E+01 -0.96209690901E+01 -0.41890043904E+02  0.47787276443E+02  0.20000024612E+02 0.  0.
        -12    1    1    2    0    0  0.60236185772E+01  0.96209690901E+01  0.41890043904E+02  0.43400723557E+02  0.00000000000E+00 0.  1.
         11    1    3    3    0    0 -0.15043459920E+01 -0.10550030969E+02 -0.17744913425E+02  0.20698989420E+02  0.51100000000E-03 0. -1.
        -11    1    3    3    0    0  0.24906145263E+01 -0.10678144429E+01 -0.15702578475E+02  0.15934690440E+02  0.51100000000E-03 0.  1.
        -12    1    3    3    0    0 -0.70098871115E+01  0.19968763220E+01 -0.84425520053E+01  0.11153596582E+02  0.00000000000E+00 0.  1.
</event>
<event>
 7    1  0.4592673E-010  0.4778727E+02  0.7816164E-02  0.1312668E+00
        -11   -1    0    0    0    0  0.00000000000E+00  0.00000000000E+00  0.45593999997E+02  0.45594000000E+02  0.51100000000E-03 0. -1.
         11   -1    0    0    0    0 -0.00000000000E+00 -0.00000000000E+00 -0.45593999997E+02  0.45594000000E+02  0.51100000000E-03 0.  1.
    9900012    2    1    2    0    0 -0.16214492953E+02  0.40231075379E+02 -0.14744415857E+01  0.47787272058E+02  0.20000004621E+02 0.  0.
        -12    1    1    2    0    0  0.16214492953E+02 -0.40231075379E+02  0.14744415857E+01  0.43400727942E+02  0.00000000000E+00 0.  1.
         11    1    3    3    0    0 -0.10341865058E+02  0.11183297376E+02 -0.89724925733E+00  0.15258616240E+02  0.51100000000E-03 0. -1.
        -11    1    3    3    0    0 -0.71998639994E+01  0.17077861550E+02 -0.57737911059E+01  0.19412059672E+02  0.51100000000E-03 0.  1.
        -12    1    3    3    0    0  0.13272361042E+01  0.11969916454E+02  0.51965987776E+01  0.13116596145E+02  0.00000000000E+00 0.  1.
</event>
<event>
 7    1  0.4592673E-010  0.4778727E+02  0.7816164E-02  0.1312668E+00
        -11   -1    0    0    0    0  0.00000000000E+00  0.00000000000E+00  0.45593999997E+02  0.45594000000E+02  0.51100000000E-03 0. -1.
         11   -1    0    0    0    0 -0.00000000000E+00 -0.00000000000E+00 -0.45593999997E+02  0.45594000000E+02  0.51100000000E-03 0.  1.
    9900012    2    1    2    0    0 -0.75649583713E+01 -0.77242357668E+01  0.42032498602E+02  0.47787270144E+02  0.19999995893E+02 0.  0.
        -12    1    1    2    0    0  0.75649583713E+01  0.77242357668E+01 -0.42032498602E+02  0.43400729856E+02  0.00000000000E+00 0.  1.
         11    1    3    3    0    0 -0.51410666585E+01 -0.59209658166E+01  0.10298537937E+02  0.12944044441E+02  0.51100000000E-03 0. -1.
        -11    1    3    3    0    0 -0.44389920583E+01 -0.53500658465E+01  0.73362809930E+01  0.10106872618E+02  0.51100000000E-03 0.  1.
         12    1    3    3    0    0  0.20151003455E+01  0.35467958963E+01  0.24397679672E+02  0.24736353085E+02  0.00000000000E+00 0. -1.
</event>
<event>
 7    1  0.6684084E-010  0.4778727E+02  0.7816164E-02  0.1312668E+00
        -11   -1    0    0    0    0  0.00000000000E+00  0.00000000000E+00  0.45593999997E+02  0.45594000000E+02  0.51100000000E-03 0. -1.
         11   -1    0    0    0    0 -0.00000000000E+00 -0.00000000000E+00 -0.45593999997E+02  0.45594000000E+02  0.51100000000E-03 0.  1.
    9900012    2    1    2    0    0  0.90584238059E+00 -0.82294898528E+01  0.42603735270E+02  0.47787270598E+02  0.19999997966E+02 0.  0.
        -12    1    1    2    0    0 -0.90584238059E+00  0.82294898528E+01 -0.42603735270E+02  0.43400729402E+02  0.00000000000E+00 0.  1.
         11    1    3    3    0    0  0.49755992319E+01 -0.81282864196E+01  0.33061979422E+02  0.34408140191E+02  0.51100000000E-03 0. -1.
        -11    1    3    3    0    0 -0.91026908938E+00  0.37858076741E+01  0.63207121944E+01  0.74237680773E+01  0.51100000000E-03 0.  1.
        -12    1    3    3    0    0 -0.31594877619E+01 -0.38870111072E+01  0.32210436532E+01  0.59553623300E+01  0.00000000000E+00 0.  1.
</event>
<event>
 7    1  0.4592673E-010  0.4778728E+02  0.7816164E-02  0.1312668E+00
        -11   -1    0    0    0    0  0.00000000000E+00  0.00000000000E+00  0.45593999997E+02  0.45594000000E+02  0.51100000000E-03 0. -1.
         11   -1    0    0    0    0 -0.00000000000E+00 -0.00000000000E+00 -0.45593999997E+02  0.45594000000E+02  0.51100000000E-03 0.  1.
    9900012    2    1    2    0    0  0.52552288051E+01 -0.20226552340E+01  0.43033872315E+02  0.47787277305E+02  0.20000028545E+02 0.  0.
        -12    1    1    2    0    0 -0.52552288051E+01  0.20226552340E+01 -0.43033872315E+02  0.43400722695E+02  0.00000000000E+00 0.  1.
         11    1    3    3    0    0  0.69104876364E+01 -0.41191354531E+01  0.17607750316E+02  0.19358589508E+02  0.51100000000E-03 0. -1.
        -11    1    3    3    0    0  0.18477356243E+01  0.25776866974E+01  0.44973720993E+00  0.32032576335E+01  0.51100000000E-03 0.  1.
         12    1    3    3    0    0 -0.35029944556E+01 -0.48120647838E+00  0.24976384789E+02  0.25225430164E+02  0.00000000000E+00 0. -1.
</event>
<event>
 7    1  0.4592673E-010  0.4778726E+02  0.7816164E-02  0.1312668E+00
        -11   -1    0    0    0    0  0.00000000000E+00  0.00000000000E+00  0.45593999997E+02  0.45594000000E+02  0.51100000000E-03 0.  1.
         11   -1    0    0    0    0 -0.00000000000E+00 -0.00000000000E+00 -0.45593999997E+02  0.45594000000E+02  0.51100000000E-03 0. -1.
    9900012    2    1    2    0    0 -0.15411149922E+02  0.21992891934E+02 -0.34094474213E+02  0.47787262571E+02  0.19999961366E+02 0.  0.
        -12    1    1    2    0    0  0.15411149922E+02 -0.21992891934E+02  0.34094474213E+02  0.43400737429E+02  0.00000000000E+00 0.  1.
         11    1    3    3    0    0 -0.36694795632E+01  0.11000777299E+02 -0.15797857671E+02  0.19597308201E+02  0.51100000000E-03 0. -1.
        -11    1    3    3    0    0 -0.83499523198E+01  0.11565662387E+02 -0.19826749479E+02  0.24425115053E+02  0.51100000000E-03 0.  1.
        -12    1    3    3    0    0 -0.33917180388E+01 -0.57354775316E+00  0.15301329368E+01  0.37648393172E+01  0.00000000000E+00 0.  1.
</event>
<event>
 7    1  0.4592673E-010  0.4778727E+02  0.7816164E-02  0.1312668E+00
        -11   -1    0    0    0    0  0.00000000000E+00  0.00000000000E+00  0.45593999997E+02  0.45594000000E+02  0.51100000000E-03 0. -1.
         11   -1    0    0    0    0 -0.00000000000E+00 -0.00000000000E+00 -0.45593999997E+02  0.45594000000E+02  0.51100000000E-03 0.  1.
    9900012    2    1    2    0    0  0.38246461213E+02  0.13723546827E+02  0.15247814632E+02  0.47787269777E+02  0.19999994221E+02 0.  0.
        -12    1    1    2    0    0 -0.38246461213E+02 -0.13723546827E+02 -0.15247814632E+02  0.43400730223E+02  0.00000000000E+00 0.  1.
         11    1    3    3    0    0  0.37826198931E+01  0.55710448833E+00  0.60276620068E+01  0.71380171053E+01  0.51100000000E-03 0. -1.
        -11    1    3    3    0    0  0.77574827309E+01 -0.33179316082E-01 -0.31763642425E+01  0.83826564554E+01  0.51100000000E-03 0.  1.
         12    1    3    3    0    0  0.26706358589E+02  0.13199621654E+02  0.12396516868E+02  0.32266596216E+02  0.00000000000E+00 0. -1.
</event>
<event>
 7    1  0.4592673E-010  0.4778727E+02  0.7816164E-02  0.1312668E+00
        -11   -1    0    0    0    0  0.00000000000E+00  0.00000000000E+00  0.45593999997E+02  0.45594000000E+02  0.51100000000E-03 0. -1.
         11   -1    0    0    0    0 -0.00000000000E+00 -0.00000000000E+00 -0.45593999997E+02  0.45594000000E+02  0.51100000000E-03 0.  1.
    9900012    2    1    2    0    0  0.41179726544E+01 -0.41370451225E+02  0.12455968994E+02  0.47787273083E+02  0.20000009295E+02 0.  0.
        -12    1    1    2    0    0 -0.41179726544E+01  0.41370451225E+02 -0.12455968994E+02  0.43400726917E+02  0.00000000000E+00 0.  1.
         11    1    3    3    0    0  0.29076356637E+01 -0.21473823845E+02  0.40487546840E+01  0.22044769684E+02  0.51100000000E-03 0. -1.
        -11    1    3    3    0    0  0.21194305409E+01 -0.20976255967E+02  0.10232648638E+02  0.23435067711E+02  0.51100000000E-03 0.  1.
        -12    1    3    3    0    0 -0.90909355021E+00  0.10796285873E+01 -0.18254343274E+01  0.23074356877E+01  0.00000000000E+00 0.  1.
</event>
<event>
 7    1  0.4592673E-010  0.4778727E+02  0.7816164E-02  0.1312668E+00
        -11   -1    0    0    0    0  0.00000000000E+00  0.00000000000E+00  0.45593999997E+02  0.45594000000E+02  0.51100000000E-03 0.  1.
         11   -1    0    0    0    0 -0.00000000000E+00 -0.00000000000E+00 -0.45593999997E+02  0.45594000000E+02  0.51100000000E-03 0. -1.
    9900012    2    1    2    0    0 -0.25998556323E+02 -0.30878236548E+02 -0.15944678843E+02  0.47787271819E+02  0.20000003533E+02 0.  0.
        -12    1    1    2    0    0  0.25998556323E+02  0.30878236548E+02  0.15944678843E+02  0.43400728181E+02  0.00000000000E+00 0.  1.
         11    1    3    3    0    0 -0.14462195629E+02 -0.22117828021E+02 -0.97233325110E+01  0.28158419951E+02  0.51100000000E-03 0. -1.
        -11    1    3    3    0    0 -0.50880526647E+01 -0.10092268715E+02 -0.12353225361E+01  0.11369616958E+02  0.51100000000E-03 0.  1.
        -12    1    3    3    0    0 -0.64483080295E+01  0.13318601882E+01 -0.49860237962E+01  0.82592349101E+01  0.00000000000E+00 0.  1.
</event>
<event>
 7    1  0.4592673E-010  0.4778728E+02  0.7816164E-02  0.1312668E+00
        -11   -1    0    0    0    0  0.00000000000E+00  0.00000000000E+00  0.45593999997E+02  0.45594000000E+02  0.51100000000E-03 0.  1.
         11   -1    0    0    0    0 -0.00000000000E+00 -0.00000000000E+00 -0.45593999997E+02  0.45594000000E+02  0.51100000000E-03 0. -1.
    9900012    2    1    2    0    0 -0.42547828875E+02  0.82636073057E+01  0.22400670109E+01  0.47787275952E+02  0.20000022376E+02 0.  0.
        -12    1    1    2    0    0  0.42547828875E+02 -0.82636073057E+01 -0.22400670109E+01  0.43400724048E+02  0.00000000000E+00 0.  1.
         11    1    3    3    0    0 -0.35178180740E+02  0.10692515479E+02 -0.34816983910E+01  0.36931781860E+02  0.51100000000E-03 0. -1.
        -11    1    3    3    0    0 -0.63716012709E+00  0.53396994453E-02 -0.90057520724E+00  0.11031942281E+01  0.51100000000E-03 0.  1.
        -12    1    3    3    0    0 -0.67324880080E+01 -0.24342478729E+01  0.66223406092E+01  0.97522998636E+01  0.00000000000E+00 0.  1.
</event>
<event>
 7    1  0.4592673E-010  0.4778726E+02  0.7816164E-02  0.1312668E+00
        -11   -1    0    0    0    0  0.00000000000E+00  0.00000000000E+00  0.45593999997E+02  0.45594000000E+02  0.51100000000E-03 0. -1.
         11   -1    0    0    0    0 -0.00000000000E+00 -0.00000000000E+00 -0.45593999997E+02  0.45594000000E+02  0.51100000000E-03 0.  1.
    9900012    2    1    2    0    0  0.17607849671E+02 -0.39649138862E+02 -0.12385742705E+01  0.47787255205E+02  0.19999927784E+02 0.  0.
        -12    1    1    2    0    0 -0.17607849671E+02  0.39649138862E+02  0.12385742705E+01  0.43400744795E+02  0.00000000000E+00 0.  1.
         11    1    3    3    0    0  0.84714382232E+01 -0.32292840024E+02  0.19420519888E+01  0.33441954916E+02  0.51100000000E-03 0. -1.
        -11    1    3    3    0    0  0.47788408769E+01 -0.66781014800E+01  0.99519596980E+00  0.82719269088E+01  0.51100000000E-03 0.  1.
        -12    1    3    3    0    0  0.43575705708E+01 -0.67819735725E+00 -0.41758222291E+01  0.60733733809E+01  0.00000000000E+00 0.  1.
</event>
<event>
 7    1  0.4592673E-010  0.4778727E+02  0.7816164E-02  0.1312668E+00
        -11   -1    0    0    0    0  0.00000000000E+00  0.00000000000E+00  0.45593999997E+02  0.45594000000E+02  0.51100000000E-03 0.  1.
         11   -1    0    0    0    0 -0.00000000000E+00 -0.00000000000E+00 -0.45593999997E+02  0.45594000000E+02  0.51100000000E-03 0. -1.
    9900012    2    1    2    0    0  0.84602008580E+01  0.10009279738E+02 -0.41374660818E+02  0.47787271466E+02  0.20000001924E+02 0.  0.
        -12    1    1    2    0    0 -0.84602008580E+01 -0.10009279738E+02  0.41374660818E+02  0.43400728534E+02  0.00000000000E+00 0.  1.
         11    1    3    3    0    0  0.95810386784E+01  0.89075396975E+01 -0.28428541204E+02  0.31294129176E+02  0.51100000000E-03 0. -1.
        -11    1    3    3    0    0  0.40930186831E+01 -0.66398455068E+00 -0.83462187048E+01  0.93194980741E+01  0.51100000000E-03 0.  1.
        -12    1    3    3    0    0 -0.52138565035E+01  0.17657245913E+01 -0.45999009095E+01  0.71736442168E+01  0.00000000000E+00 0.  1.
</event>
<event>
 7    1  0.4592673E-010  0.4778728E+02  0.7816164E-02  0.1312668E+00
        -11   -1    0    0    0    0  0.00000000000E+00  0.00000000000E+00  0.45593999997E+02  0.45594000000E+02  0.51100000000E-03 0.  1.
         11   -1    0    0    0    0 -0.00000000000E+00 -0.00000000000E+00 -0.45593999997E+02  0.45594000000E+02  0.51100000000E-03 0. -1.
    9900012    2    1    2    0    0 -0.15166634692E+02 -0.80558524198E+01 -0.39858489553E+02  0.47787277016E+02  0.20000027227E+02 0.  0.
        -12    1    1    2    0    0  0.15166634692E+02  0.80558524198E+01  0.39858489553E+02  0.43400722984E+02  0.00000000000E+00 0.  1.
         11    1    3    3    0    0 -0.71517228192E+01  0.40940415357E+00 -0.14469474550E+02  0.16145601415E+02  0.51100000000E-03 0. -1.
        -11    1    3    3    0    0 -0.25165141011E+01  0.42111386237E+01 -0.85687375360E+01  0.98736920628E+01  0.51100000000E-03 0.  1.
        -12    1    3    3    0    0 -0.54983977713E+01 -0.12676395197E+02 -0.16820277467E+02  0.21767983538E+02  0.00000000000E+00 0.  1.
</event>
<event>
 7    1  0.4592673E-010  0.4778727E+02  0.7816164E-02  0.1312668E+00
        -11   -1    0    0    0    0  0.00000000000E+00  0.00000000000E+00  0.45593999997E+02  0.45594000000E+02  0.51100000000E-03 0.  1.
         11   -1    0    0    0    0 -0.00000000000E+00 -0.00000000000E+00 -0.45593999997E+02  0.45594000000E+02  0.51100000000E-03 0. -1.
    9900012    2    1    2    0    0 -0.10726853670E+01  0.23927892206E+02 -0.36192938317E+02  0.47787268862E+02  0.19999990049E+02 0.  0.
        -12    1    1    2    0    0  0.10726853670E+01 -0.23927892206E+02  0.36192938317E+02  0.43400731138E+02  0.00000000000E+00 0.  1.
         11    1    3    3    0    0 -0.24463738660E+01  0.11887275786E+02 -0.12187441701E+02  0.17199587384E+02  0.51100000000E-03 0. -1.
        -11    1    3    3    0    0 -0.57485644289E+01  0.68344808293E+01 -0.17429658609E+02  0.19584410144E+02  0.51100000000E-03 0.  1.
        -12    1    3    3    0    0  0.71222529279E+01  0.52061355915E+01 -0.65758380061E+01  0.11003271334E+02  0.00000000000E+00 0.  1.
</event>
<event>
 7    1  0.4592673E-010  0.4778727E+02  0.7816164E-02  0.1312668E+00
        -11   -1    0    0    0    0  0.00000000000E+00  0.00000000000E+00  0.45593999997E+02  0.45594000000E+02  0.51100000000E-03 0. -1.
         11   -1    0    0    0    0 -0.00000000000E+00 -0.00000000000E+00 -0.45593999997E+02  0.45594000000E+02  0.51100000000E-03 0.  1.
    9900012    2    1    2    0    0 -0.11834521295E+02  0.67960530492E+01  0.41199282259E+02  0.47787273163E+02  0.20000009660E+02 0.  0.
        -12    1    1    2    0    0  0.11834521295E+02 -0.67960530492E+01 -0.41199282259E+02  0.43400726837E+02  0.00000000000E+00 0.  1.
         11    1    3    3    0    0 -0.11574954531E+01  0.32718517005E+01 -0.45215686981E+00  0.34998936227E+01  0.51100000000E-03 0.  1.
        -11    1    3    3    0    0  0.11247780444E+01  0.14791290608E+01  0.14405905303E+02  0.14525255808E+02  0.51100000000E-03 0. -1.
         12    1    3    3    0    0 -0.11801803886E+02  0.20450722879E+01  0.27245533825E+02  0.29762123732E+02  0.00000000000E+00 0. -1.
</event>
<event>
 7    1  0.4592673E-010  0.4778727E+02  0.7816164E-02  0.1312668E+00
        -11   -1    0    0    0    0  0.00000000000E+00  0.00000000000E+00  0.45593999997E+02  0.45594000000E+02  0.51100000000E-03 0. -1.
         11   -1    0    0    0    0 -0.00000000000E+00 -0.00000000000E+00 -0.45593999997E+02  0.45594000000E+02  0.51100000000E-03 0.  1.
    9900012    2    1    2    0    0 -0.35770452468E+02  0.19607133046E+02  0.14820884943E+02  0.47787267673E+02  0.19999984629E+02 0.  0.
        -12    1    1    2    0    0  0.35770452468E+02 -0.19607133046E+02 -0.14820884943E+02  0.43400732327E+02  0.00000000000E+00 0.  1.
         11    1    3    3    0    0 -0.12030929489E+02  0.14491973217E+02  0.77079689245E+01  0.20351249035E+02  0.51100000000E-03 0. -1.
        -11    1    3    3    0    0 -0.94324220490E+01  0.69644885730E+01  0.99783228891E+00  0.11767342790E+02  0.51100000000E-03 0.  1.
        -12    1    3    3    0    0 -0.14307100930E+02 -0.18493287440E+01  0.61150837295E+01  0.15668675848E+02  0.00000000000E+00 0.  1.
</event>
<event>
 7    1  0.4592673E-010  0.4778729E+02  0.7816164E-02  0.1312668E+00
        -11   -1    0    0    0    0  0.00000000000E+00  0.00000000000E+00  0.45593999997E+02  0.45594000000E+02  0.51100000000E-03 0. -1.
         11   -1    0    0    0    0 -0.00000000000E+00 -0.00000000000E+00 -0.45593999997E+02  0.45594000000E+02  0.51100000000E-03 0.  1.
    9900012    2    1    2    0    0  0.62526876183E+01  0.25094135963E+02  0.34854123228E+02  0.47787289543E+02  0.20000084343E+02 0.  0.
        -12    1    1    2    0    0 -0.62526876183E+01 -0.25094135963E+02 -0.34854123228E+02  0.43400710457E+02  0.00000000000E+00 0.  1.
         11    1    3    3    0    0  0.91464592092E+01  0.77900471517E+01  0.58227038827E+01  0.13350896279E+02  0.51100000000E-03 0.  1.
        -11    1    3    3    0    0 -0.30887669189E+01  0.34943340936E+01  0.84246577919E+01  0.96294190380E+01  0.51100000000E-03 0. -1.
        -12    1    3    3    0    0  0.19499532793E+00  0.13809754717E+02  0.20606761553E+02  0.24806974226E+02  0.00000000000E+00 0.  1.
</event>
<event>
 7    1  0.4592673E-010  0.4778733E+02  0.7816164E-02  0.1312667E+00
        -11   -1    0    0    0    0  0.00000000000E+00  0.00000000000E+00  0.45593999997E+02  0.45594000000E+02  0.51100000000E-03 0. -1.
         11   -1    0    0    0    0 -0.00000000000E+00 -0.00000000000E+00 -0.45593999997E+02  0.45594000000E+02  0.51100000000E-03 0.  1.
    9900012    2    1    2    0    0 -0.15640279951E+02  0.25511487103E+02  0.31435073779E+02  0.47787329560E+02  0.20000266795E+02 0.  0.
        -12    1    1    2    0    0  0.15640279951E+02 -0.25511487103E+02 -0.31435073779E+02  0.43400670440E+02  0.00000000000E+00 0.  1.
         11    1    3    3    0    0 -0.58222237607E+00  0.16764532558E+01  0.15953266799E-01  0.17747487658E+01  0.51100000000E-03 0. -1.
        -11    1    3    3    0    0 -0.43877096864E+01  0.86255792260E+01  0.19547492136E+00  0.96794020467E+01  0.51100000000E-03 0.  1.
         12    1    3    3    0    0 -0.10670347888E+02  0.15209454622E+02  0.31223645591E+02  0.36333178748E+02  0.00000000000E+00 0. -1.
</event>
<event>
 7    1  0.4592673E-010  0.4778727E+02  0.7816164E-02  0.1312668E+00
        -11   -1    0    0    0    0  0.00000000000E+00  0.00000000000E+00  0.45593999997E+02  0.45594000000E+02  0.51100000000E-03 0.  1.
         11   -1    0    0    0    0 -0.00000000000E+00 -0.00000000000E+00 -0.45593999997E+02  0.45594000000E+02  0.51100000000E-03 0. -1.
    9900012    2    1    2    0    0 -0.40304205876E+02  0.15081933219E+02  0.56328788283E+01  0.47787273684E+02  0.20000012034E+02 0.  0.
        -12    1    1    2    0    0  0.40304205876E+02 -0.15081933219E+02 -0.56328788283E+01  0.43400726316E+02  0.00000000000E+00 0.  1.
         11    1    3    3    0    0 -0.76974923855E+01 -0.65621337738E+00 -0.45556727824E+01  0.89686208406E+01  0.51100000000E-03 0. -1.
        -11    1    3    3    0    0 -0.86496198947E+01  0.66220912771E+00 -0.17080724218E+00  0.86766134308E+01  0.51100000000E-03 0.  1.
        -12    1    3    3    0    0 -0.23957093596E+02  0.15075937468E+02  0.10359358853E+02  0.30142039412E+02  0.00000000000E+00 0.  1.
</event>
<event>
 7    1  0.4592673E-010  0.4778727E+02  0.7816164E-02  0.1312668E+00
        -11   -1    0    0    0    0  0.00000000000E+00  0.00000000000E+00  0.45593999997E+02  0.45594000000E+02  0.51100000000E-03 0. -1.
         11   -1    0    0    0    0 -0.00000000000E+00 -0.00000000000E+00 -0.45593999997E+02  0.45594000000E+02  0.51100000000E-03 0.  1.
    9900012    2    1    2    0    0 -0.17882828557E+02  0.31349961019E+02  0.24104098202E+02  0.47787272319E+02  0.20000005812E+02 0.  0.
        -12    1    1    2    0    0  0.17882828557E+02 -0.31349961019E+02 -0.24104098202E+02  0.43400727681E+02  0.00000000000E+00 0.  1.
         11    1    3    3    0    0 -0.11016680433E+02  0.14316120094E+02  0.17339345895E+02  0.25039398128E+02  0.51100000000E-03 0. -1.
        -11    1    3    3    0    0 -0.88697622303E+01  0.65172736331E+01  0.31550834964E+01  0.11449982086E+02  0.51100000000E-03 0.  1.
         12    1    3    3    0    0  0.20036141068E+01  0.10516567292E+02  0.36096688113E+01  0.11297892105E+02  0.00000000000E+00 0. -1.
</event>
<event>
 7    1  0.4592673E-010  0.4778727E+02  0.7816164E-02  0.1312668E+00
        -11   -1    0    0    0    0  0.00000000000E+00  0.00000000000E+00  0.45593999997E+02  0.45594000000E+02  0.51100000000E-03 0.  1.
         11   -1    0    0    0    0 -0.00000000000E+00 -0.00000000000E+00 -0.45593999997E+02  0.45594000000E+02  0.51100000000E-03 0. -1.
    9900012    2    1    2    0    0 -0.91548942484E+00 -0.17141196644E+02 -0.39861824422E+02  0.47787265103E+02  0.19999972913E+02 0.  0.
        -12    1    1    2    0    0  0.91548942484E+00  0.17141196644E+02  0.39861824422E+02  0.43400734897E+02  0.00000000000E+00 0.  1.
         11    1    3    3    0    0  0.16078746831E+01  0.23413290784E+01 -0.20493220325E+01  0.35023997350E+01  0.51100000000E-03 0. -1.
        -11    1    3    3    0    0 -0.47888712880E+01 -0.16348948527E+01 -0.83838557889E+01  0.97926098433E+01  0.51100000000E-03 0.  1.
         12    1    3    3    0    0  0.22655071800E+01 -0.17847630870E+02 -0.29428646601E+02  0.34492255525E+02  0.00000000000E+00 0. -1.
</event>
<event>
 7    1  0.4592673E-010  0.4778728E+02  0.7816164E-02  0.1312668E+00
        -11   -1    0    0    0    0  0.00000000000E+00  0.00000000000E+00  0.45593999997E+02  0.45594000000E+02  0.51100000000E-03 0. -1.
         11   -1    0    0    0    0 -0.00000000000E+00 -0.00000000000E+00 -0.45593999997E+02  0.45594000000E+02  0.51100000000E-03 0.  1.
    9900012    2    1    2    0    0 -0.15992070030E+02 -0.35597003091E+02  0.18992883776E+02  0.47787279188E+02  0.20000037129E+02 0.  0.
        -12    1    1    2    0    0  0.15992070030E+02  0.35597003091E+02 -0.18992883776E+02  0.43400720812E+02  0.00000000000E+00 0.  1.
         11    1    3    3    0    0 -0.99727586323E+01 -0.87248311426E+01  0.39976676040E+01  0.13840518044E+02  0.51100000000E-03 0. -1.
        -11    1    3    3    0    0 -0.29181059758E+01 -0.37025709327E+01 -0.19222491241E+01  0.50911114655E+01  0.51100000000E-03 0.  1.
         12    1    3    3    0    0 -0.31012054222E+01 -0.23169601015E+02  0.16917465296E+02  0.28855649678E+02  0.00000000000E+00 0. -1.
</event>
<event>
 7    1  0.4592673E-010  0.4778727E+02  0.7816164E-02  0.1312668E+00
        -11   -1    0    0    0    0  0.00000000000E+00  0.00000000000E+00  0.45593999997E+02  0.45594000000E+02  0.51100000000E-03 0. -1.
         11   -1    0    0    0    0 -0.00000000000E+00 -0.00000000000E+00 -0.45593999997E+02  0.45594000000E+02  0.51100000000E-03 0.  1.
    9900012    2    1    2    0    0  0.26385649058E+02 -0.34430049458E+02  0.14115831566E+01  0.47787270181E+02  0.19999996061E+02 0.  0.
        -12    1    1    2    0    0 -0.26385649058E+02  0.34430049458E+02 -0.14115831566E+01  0.43400729819E+02  0.00000000000E+00 0.  1.
         11    1    3    3    0    0  0.14900557932E+02 -0.26720050811E+02  0.14224881370E+01  0.30626968750E+02  0.51100000000E-03 0. -1.
        -11    1    3    3    0    0  0.82408433232E+01 -0.99562398139E+01  0.13303226014E+01  0.12992612070E+02  0.51100000000E-03 0.  1.
        -12    1    3    3    0    0  0.32442478023E+01  0.22462411673E+01 -0.13412275818E+01  0.41676893611E+01  0.00000000000E+00 0.  1.
</event>
<event>
 7    1  0.4592673E-010  0.4778727E+02  0.7816164E-02  0.1312668E+00
        -11   -1    0    0    0    0  0.00000000000E+00  0.00000000000E+00  0.45593999997E+02  0.45594000000E+02  0.51100000000E-03 0. -1.
         11   -1    0    0    0    0 -0.00000000000E+00 -0.00000000000E+00 -0.45593999997E+02  0.45594000000E+02  0.51100000000E-03 0.  1.
    9900012    2    1    2    0    0  0.13886736867E+02  0.40705799493E+02  0.58154908459E+01  0.47787268359E+02  0.19999987755E+02 0.  0.
        -12    1    1    2    0    0 -0.13886736867E+02 -0.40705799493E+02 -0.58154908459E+01  0.43400731641E+02  0.00000000000E+00 0.  1.
         11    1    3    3    0    0  0.38896105894E+01  0.32436282304E+02  0.71023998093E+00  0.32676381705E+02  0.51100000000E-03 0. -1.
        -11    1    3    3    0    0  0.11582137590E+01  0.11809899106E+01 -0.12924474216E+01  0.20991943405E+01  0.51100000000E-03 0.  1.
         12    1    3    3    0    0  0.88389125187E+01  0.70885272792E+01  0.63976982865E+01  0.13011692314E+02  0.00000000000E+00 0. -1.
</event>
<event>
 7    1  0.4592673E-010  0.4778726E+02  0.7816164E-02  0.1312668E+00
        -11   -1    0    0    0    0  0.00000000000E+00  0.00000000000E+00  0.45593999997E+02  0.45594000000E+02  0.51100000000E-03 0.  1.
         11   -1    0    0    0    0 -0.00000000000E+00 -0.00000000000E+00 -0.45593999997E+02  0.45594000000E+02  0.51100000000E-03 0. -1.
    9900012    2    1    2    0    0  0.32658661649E+02  0.14986351957E+02 -0.24340197414E+02  0.47787261114E+02  0.19999954725E+02 0.  0.
        -12    1    1    2    0    0 -0.32658661649E+02 -0.14986351957E+02  0.24340197414E+02  0.43400738886E+02  0.00000000000E+00 0.  1.
         11    1    3    3    0    0  0.16139819691E+02  0.11019294436E+02 -0.16569780951E+02  0.25621792883E+02  0.51100000000E-03 0. -1.
        -11    1    3    3    0    0  0.15395757117E+02  0.74256855592E+01 -0.59509519120E+01  0.18099280985E+02  0.51100000000E-03 0.  1.
         12    1    3    3    0    0  0.11230848410E+01 -0.34586280392E+01 -0.18194645511E+01  0.40661872468E+01  0.00000000000E+00 0. -1.
</event>
<event>
 7    1  0.4592673E-010  0.4778727E+02  0.7816164E-02  0.1312668E+00
        -11   -1    0    0    0    0  0.00000000000E+00  0.00000000000E+00  0.45593999997E+02  0.45594000000E+02  0.51100000000E-03 0.  1.
         11   -1    0    0    0    0 -0.00000000000E+00 -0.00000000000E+00 -0.45593999997E+02  0.45594000000E+02  0.51100000000E-03 0. -1.
    9900012    2    1    2    0    0  0.16881827539E+02 -0.25472402347E+02 -0.30818569551E+02  0.47787267154E+02  0.19999982262E+02 0.  0.
        -12    1    1    2    0    0 -0.16881827539E+02  0.25472402347E+02  0.30818569551E+02  0.43400732846E+02  0.00000000000E+00 0.  1.
         11    1    3    3    0    0 -0.25275142136E+01 -0.17386228158E+01 -0.46026278278E+01  0.55313036960E+01  0.51100000000E-03 0. -1.
        -11    1    3    3    0    0  0.63818932745E+01 -0.23221091286E+01 -0.12989443774E+01  0.69143336142E+01  0.51100000000E-03 0.  1.
         12    1    3    3    0    0  0.13027448478E+02 -0.21411670403E+02 -0.24916997346E+02  0.35341629844E+02  0.00000000000E+00 0. -1.
</event>
<event>
 7    1  0.4592673E-010  0.4778727E+02  0.7816164E-02  0.1312668E+00
        -11   -1    0    0    0    0  0.00000000000E+00  0.00000000000E+00  0.45593999997E+02  0.45594000000E+02  0.51100000000E-03 0.  1.
         11   -1    0    0    0    0 -0.00000000000E+00 -0.00000000000E+00 -0.45593999997E+02  0.45594000000E+02  0.51100000000E-03 0. -1.
    9900012    2    1    2    0    0  0.99840251901E+01 -0.20799088701E+02 -0.36760580795E+02  0.47787272470E+02  0.20000006497E+02 0.  0.
        -12    1    1    2    0    0 -0.99840251901E+01  0.20799088701E+02  0.36760580795E+02  0.43400727530E+02  0.00000000000E+00 0.  1.
         11    1    3    3    0    0  0.23721290305E+01  0.10381108612E+01 -0.67481814512E+01  0.72279058832E+01  0.51100000000E-03 0. -1.
        -11    1    3    3    0    0  0.21476570279E+01 -0.13500149730E+01  0.12158295109E+01  0.28130433338E+01  0.51100000000E-03 0.  1.
         12    1    3    3    0    0  0.54642391317E+01 -0.20487184589E+02 -0.31228228855E+02  0.37746323253E+02  0.00000000000E+00 0. -1.
</event>
<event>
 7    1  0.4592673E-010  0.4778728E+02  0.7816164E-02  0.1312668E+00
        -11   -1    0    0    0    0  0.00000000000E+00  0.00000000000E+00  0.45593999997E+02  0.45594000000E+02  0.51100000000E-03 0.  1.
         11   -1    0    0    0    0 -0.00000000000E+00 -0.00000000000E+00 -0.45593999997E+02  0.45594000000E+02  0.51100000000E-03 0. -1.
    9900012    2    1    2    0    0 -0.15967927829E+02  0.43131254529E+01 -0.40125363433E+02  0.47787279258E+02  0.20000037448E+02 0.  0.
        -12    1    1    2    0    0  0.15967927829E+02 -0.43131254529E+01  0.40125363433E+02  0.43400720742E+02  0.00000000000E+00 0.  1.
         11    1    3    3    0    0  0.71531418143E+00  0.31646776585E+01 -0.13620911443E+02  0.14002002995E+02  0.51100000000E-03 0. -1.
        -11    1    3    3    0    0  0.12489085940E+01  0.74889955785E+00 -0.75510920361E+01  0.76902285026E+01  0.51100000000E-03 0.  1.
         12    1    3    3    0    0 -0.17932150604E+02  0.39954823655E+00 -0.18953359953E+02  0.26095047760E+02  0.00000000000E+00 0. -1.
</event>
<event>
 7    1  0.4592673E-010  0.4778727E+02  0.7816164E-02  0.1312668E+00
        -11   -1    0    0    0    0  0.00000000000E+00  0.00000000000E+00  0.45593999997E+02  0.45594000000E+02  0.51100000000E-03 0.  1.
         11   -1    0    0    0    0 -0.00000000000E+00 -0.00000000000E+00 -0.45593999997E+02  0.45594000000E+02  0.51100000000E-03 0. -1.
    9900012    2    1    2    0    0 -0.61773622054E+01  0.18204131830E+02 -0.38911093624E+02  0.47787269286E+02  0.19999991982E+02 0.  0.
        -12    1    1    2    0    0  0.61773622054E+01 -0.18204131830E+02  0.38911093624E+02  0.43400730714E+02  0.00000000000E+00 0.  1.
         11    1    3    3    0    0  0.40845278356E+01 -0.12854202180E+01 -0.51635461891E+01  0.67080460855E+01  0.51100000000E-03 0.  1.
        -11    1    3    3    0    0 -0.85582649606E+00  0.94859937033E+01 -0.11458891090E+02  0.14900426195E+02  0.51100000000E-03 0. -1.
        -12    1    3    3    0    0 -0.94060635449E+01  0.10003558344E+02 -0.22288656346E+02  0.26178797005E+02  0.00000000000E+00 0.  1.
</event>
<event>
 7    1  0.4592673E-010  0.4778727E+02  0.7816164E-02  0.1312668E+00
        -11   -1    0    0    0    0  0.00000000000E+00  0.00000000000E+00  0.45593999997E+02  0.45594000000E+02  0.51100000000E-03 0.  1.
         11   -1    0    0    0    0 -0.00000000000E+00 -0.00000000000E+00 -0.45593999997E+02  0.45594000000E+02  0.51100000000E-03 0. -1.
    9900012    2    1    2    0    0  0.41376809272E+02  0.35051718401E+01 -0.12621272827E+02  0.47787273014E+02  0.20000008981E+02 0.  0.
        -12    1    1    2    0    0 -0.41376809272E+02 -0.35051718401E+01  0.12621272827E+02  0.43400726986E+02  0.00000000000E+00 0.  1.
         11    1    3    3    0    0  0.47230911181E+00  0.14408019108E+01  0.17089172150E+01  0.22845971969E+01  0.51100000000E-03 0.  1.
        -11    1    3    3    0    0  0.11712826474E+02  0.47987919939E+01 -0.94120879895E+01  0.15773588977E+02  0.51100000000E-03 0. -1.
         12    1    3    3    0    0  0.29191673685E+02 -0.27344220646E+01 -0.49181020521E+01  0.29729086841E+02  0.00000000000E+00 0. -1.
</event>
<event>
 7    1  0.4592673E-010  0.4778727E+02  0.7816164E-02  0.1312668E+00
        -11   -1    0    0    0    0  0.00000000000E+00  0.00000000000E+00  0.45593999997E+02  0.45594000000E+02  0.51100000000E-03 0. -1.
         11   -1    0    0    0    0 -0.00000000000E+00 -0.00000000000E+00 -0.45593999997E+02  0.45594000000E+02  0.51100000000E-03 0.  1.
    9900012    2    1    2    0    0 -0.27158206794E+02 -0.17996847412E+02  0.28673477808E+02  0.47787273709E+02  0.20000012147E+02 0.  0.
        -12    1    1    2    0    0  0.27158206794E+02  0.17996847412E+02 -0.28673477808E+02  0.43400726291E+02  0.00000000000E+00 0.  1.
         11    1    3    3    0    0 -0.13512058067E+02 -0.68577492613E+01  0.29637954894E+01  0.15439835559E+02  0.51100000000E-03 0. -1.
        -11    1    3    3    0    0 -0.15200459159E+01  0.14124996497E+01  0.38690743054E+01  0.43903793787E+01  0.51100000000E-03 0.  1.
         12    1    3    3    0    0 -0.12126102811E+02 -0.12551597800E+02  0.21840608013E+02  0.27957058771E+02  0.00000000000E+00 0. -1.
</event>
<event>
 7    1  0.4592673E-010  0.4778728E+02  0.7816164E-02  0.1312668E+00
        -11   -1    0    0    0    0  0.00000000000E+00  0.00000000000E+00  0.45593999997E+02  0.45594000000E+02  0.51100000000E-03 0.  1.
         11   -1    0    0    0    0 -0.00000000000E+00 -0.00000000000E+00 -0.45593999997E+02  0.45594000000E+02  0.51100000000E-03 0. -1.
    9900012    2    1    2    0    0  0.37874619114E+02 -0.28307846653E+01 -0.21002906056E+02  0.47787283673E+02  0.20000057579E+02 0.  0.
        -12    1    1    2    0    0 -0.37874619114E+02  0.28307846653E+01  0.21002906056E+02  0.43400716327E+02  0.00000000000E+00 0.  1.
         11    1    3    3    0    0  0.73022128254E+01 -0.76593055518E+00 -0.55935884216E+01  0.92302325785E+01  0.51100000000E-03 0. -1.
        -11    1    3    3    0    0  0.28231947644E+01  0.61628029753E+00 -0.96719053982E+01  0.10094354084E+02  0.51100000000E-03 0.  1.
        -12    1    3    3    0    0  0.27749211524E+02 -0.26811344076E+01 -0.57374122366E+01  0.28462697010E+02  0.00000000000E+00 0.  1.
</event>
<event>
 7    1  0.4592673E-010  0.4778727E+02  0.7816164E-02  0.1312668E+00
        -11   -1    0    0    0    0  0.00000000000E+00  0.00000000000E+00  0.45593999997E+02  0.45594000000E+02  0.51100000000E-03 0.  1.
         11   -1    0    0    0    0 -0.00000000000E+00 -0.00000000000E+00 -0.45593999997E+02  0.45594000000E+02  0.51100000000E-03 0. -1.
    9900012    2    1    2    0    0 -0.73195233791E+01  0.34423785610E+02 -0.25397847103E+02  0.47787273327E+02  0.20000010409E+02 0.  0.
        -12    1    1    2    0    0  0.73195233791E+01 -0.34423785610E+02  0.25397847103E+02  0.43400726673E+02  0.00000000000E+00 0.  1.
         11    1    3    3    0    0 -0.59269625874E+01  0.28332227381E+01 -0.63213150105E+01  0.91167461475E+01  0.51100000000E-03 0. -1.
        -11    1    3    3    0    0 -0.31204906528E+01  0.38069763661E+01  0.27530755915E-02  0.49224525195E+01  0.51100000000E-03 0.  1.
         12    1    3    3    0    0  0.17279298611E+01  0.27783586506E+02 -0.19079285168E+02  0.33748074660E+02  0.00000000000E+00 0. -1.
</event>
<event>
 7    1  0.4592673E-010  0.4778727E+02  0.7816164E-02  0.1312668E+00
        -11   -1    0    0    0    0  0.00000000000E+00  0.00000000000E+00  0.45593999997E+02  0.45594000000E+02  0.51100000000E-03 0.  1.
         11   -1    0    0    0    0 -0.00000000000E+00 -0.00000000000E+00 -0.45593999997E+02  0.45594000000E+02  0.51100000000E-03 0. -1.
    9900012    2    1    2    0    0  0.22319944789E+02  0.68049487839E+01 -0.36594207312E+02  0.47787271065E+02  0.20000000092E+02 0.  0.
        -12    1    1    2    0    0 -0.22319944789E+02 -0.68049487839E+01  0.36594207312E+02  0.43400728935E+02  0.00000000000E+00 0.  1.
         11    1    3    3    0    0  0.88934355808E+01  0.35390845398E+01 -0.11568072752E+02  0.15014613657E+02  0.51100000000E-03 0. -1.
        -11    1    3    3    0    0  0.19372008490E+01  0.20718350004E+01  0.19401567963E+01  0.34364889136E+01  0.51100000000E-03 0.  1.
         12    1    3    3    0    0  0.11489308359E+02  0.11940292437E+01 -0.26966291356E+02  0.29336168494E+02  0.00000000000E+00 0. -1.
</event>
<event>
 7    1  0.4592673E-010  0.4778727E+02  0.7816164E-02  0.1312668E+00
        -11   -1    0    0    0    0  0.00000000000E+00  0.00000000000E+00  0.45593999997E+02  0.45594000000E+02  0.51100000000E-03 0.  1.
         11   -1    0    0    0    0 -0.00000000000E+00 -0.00000000000E+00 -0.45593999997E+02  0.45594000000E+02  0.51100000000E-03 0. -1.
    9900012    2    1    2    0    0 -0.41167389682E+02  0.11269277344E+02 -0.78659152942E+01  0.47787271798E+02  0.20000003435E+02 0.  0.
        -12    1    1    2    0    0  0.41167389682E+02 -0.11269277344E+02  0.78659152942E+01  0.43400728202E+02  0.00000000000E+00 0.  1.
         11    1    3    3    0    0 -0.18141365986E+02  0.53421530565E+01  0.23355968443E+01  0.19055255758E+02  0.51100000000E-03 0. -1.
        -11    1    3    3    0    0 -0.22046976393E+01 -0.33159311361E+01 -0.67130939362E+00  0.40381614063E+01  0.51100000000E-03 0.  1.
        -12    1    3    3    0    0 -0.20821326057E+02  0.92430554237E+01 -0.95302027449E+01  0.24693854634E+02  0.00000000000E+00 0.  1.
</event>
<event>
 7    1  0.4592673E-010  0.4778726E+02  0.7816164E-02  0.1312668E+00
        -11   -1    0    0    0    0  0.00000000000E+00  0.00000000000E+00  0.45593999997E+02  0.45594000000E+02  0.51100000000E-03 0. -1.
         11   -1    0    0    0    0 -0.00000000000E+00 -0.00000000000E+00 -0.45593999997E+02  0.45594000000E+02  0.51100000000E-03 0.  1.
    9900012    2    1    2    0    0  0.26688608604E+02 -0.27904319899E+02  0.19816430887E+02  0.47787264622E+02  0.19999970719E+02 0.  0.
        -12    1    1    2    0    0 -0.26688608604E+02  0.27904319899E+02 -0.19816430887E+02  0.43400735378E+02  0.00000000000E+00 0.  1.
         11    1    3    3    0    0  0.14086489218E+01 -0.53279055371E+01  0.10190860643E+02  0.11585530204E+02  0.51100000000E-03 0.  1.
        -11    1    3    3    0    0  0.49557991834E+01 -0.59847035461E+01  0.57813066094E+01  0.96850466418E+01  0.51100000000E-03 0. -1.
        -12    1    3    3    0    0  0.20324160498E+02 -0.16591710816E+02  0.38442636345E+01  0.26516687777E+02  0.00000000000E+00 0.  1.
</event>
<event>
 7    1  0.4592673E-010  0.4778727E+02  0.7816164E-02  0.1312668E+00
        -11   -1    0    0    0    0  0.00000000000E+00  0.00000000000E+00  0.45593999997E+02  0.45594000000E+02  0.51100000000E-03 0.  1.
         11   -1    0    0    0    0 -0.00000000000E+00 -0.00000000000E+00 -0.45593999997E+02  0.45594000000E+02  0.51100000000E-03 0. -1.
    9900012    2    1    2    0    0 -0.26605575479E+01 -0.42619318878E+02 -0.77548915563E+01  0.47787271307E+02  0.20000001196E+02 0.  0.
        -12    1    1    2    0    0  0.26605575479E+01  0.42619318878E+02  0.77548915563E+01  0.43400728693E+02  0.00000000000E+00 0.  1.
         11    1    3    3    0    0 -0.38499691800E+01 -0.51552219071E+01 -0.33061446680E+01  0.72338902691E+01  0.51100000000E-03 0. -1.
        -11    1    3    3    0    0  0.13218737756E+01 -0.53587415695E-01  0.21895954326E+01  0.25582318717E+01  0.51100000000E-03 0.  1.
         12    1    3    3    0    0 -0.13246214351E+00 -0.37410509555E+02 -0.66383423209E+01  0.37995149166E+02  0.00000000000E+00 0. -1.
</event>
<event>
 7    1  0.4592673E-010  0.4778727E+02  0.7816164E-02  0.1312668E+00
        -11   -1    0    0    0    0  0.00000000000E+00  0.00000000000E+00  0.45593999997E+02  0.45594000000E+02  0.51100000000E-03 0. -1.
         11   -1    0    0    0    0 -0.00000000000E+00 -0.00000000000E+00 -0.45593999997E+02  0.45594000000E+02  0.51100000000E-03 0.  1.
    9900012    2    1    2    0    0 -0.83293587011E+01  0.51309123992E+01  0.42283788887E+02  0.47787270962E+02  0.19999999624E+02 0.  0.
        -12    1    1    2    0    0  0.83293587011E+01 -0.51309123992E+01 -0.42283788887E+02  0.43400729038E+02  0.00000000000E+00 0.  1.
         11    1    3    3    0    0  0.25204417547E+01 -0.95475906493E+00  0.83838801603E+01  0.88064543554E+01  0.51100000000E-03 0. -1.
        -11    1    3    3    0    0 -0.66523446734E-01  0.12528566731E+01 -0.13261587627E+01  0.18255882716E+01  0.51100000000E-03 0.  1.
         12    1    3    3    0    0 -0.10783277009E+02  0.48328147910E+01  0.35226067489E+02  0.37155228335E+02  0.00000000000E+00 0. -1.
</event>
<event>
 7    1  0.4592673E-010  0.4778727E+02  0.7816164E-02  0.1312668E+00
        -11   -1    0    0    0    0  0.00000000000E+00  0.00000000000E+00  0.45593999997E+02  0.45594000000E+02  0.51100000000E-03 0.  1.
         11   -1    0    0    0    0 -0.00000000000E+00 -0.00000000000E+00 -0.45593999997E+02  0.45594000000E+02  0.51100000000E-03 0. -1.
    9900012    2    1    2    0    0 -0.20824464534E+02 -0.29757615898E+02 -0.23758145387E+02  0.47787268448E+02  0.19999988162E+02 0.  0.
        -12    1    1    2    0    0  0.20824464534E+02  0.29757615898E+02  0.23758145387E+02  0.43400731552E+02  0.00000000000E+00 0.  1.
         11    1    3    3    0    0 -0.47838271378E+01 -0.65485546709E+01 -0.14686541143E+01  0.82416937295E+01  0.51100000000E-03 0. -1.
        -11    1    3    3    0    0 -0.15094090248E+02 -0.15957507169E+02 -0.23461705022E+02  0.32139153665E+02  0.51100000000E-03 0.  1.
        -12    1    3    3    0    0 -0.94654714778E+00 -0.72515540577E+01  0.11722137497E+01  0.74064210540E+01  0.00000000000E+00 0.  1.
</event>
<event>
 7    1  0.4592673E-010  0.4778727E+02  0.7816164E-02  0.1312668E+00
        -11   -1    0    0    0    0  0.00000000000E+00  0.00000000000E+00  0.45593999997E+02  0.45594000000E+02  0.51100000000E-03 0.  1.
         11   -1    0    0    0    0 -0.00000000000E+00 -0.00000000000E+00 -0.45593999997E+02  0.45594000000E+02  0.51100000000E-03 0. -1.
    9900012    2    1    2    0    0  0.67043012382E+01  0.42024919980E+02  0.85194867542E+01  0.47787271792E+02  0.20000003409E+02 0.  0.
        -12    1    1    2    0    0 -0.67043012382E+01 -0.42024919980E+02 -0.85194867542E+01  0.43400728208E+02  0.00000000000E+00 0.  1.
         11    1    3    3    0    0 -0.14316957866E+01  0.25304304411E+02  0.10089106562E+02  0.27279069743E+02  0.51100000000E-03 0. -1.
        -11    1    3    3    0    0  0.76039318330E+00  0.27866563662E+00  0.19820078449E+01  0.21410762921E+01  0.51100000000E-03 0.  1.
         12    1    3    3    0    0  0.73756038415E+01  0.16441949932E+02 -0.35516276526E+01  0.18367125757E+02  0.00000000000E+00 0. -1.
</event>
<event>
 7    1  0.4592673E-010  0.4778726E+02  0.7816164E-02  0.1312668E+00
        -11   -1    0    0    0    0  0.00000000000E+00  0.00000000000E+00  0.45593999997E+02  0.45594000000E+02  0.51100000000E-03 0.  1.
         11   -1    0    0    0    0 -0.00000000000E+00 -0.00000000000E+00 -0.45593999997E+02  0.45594000000E+02  0.51100000000E-03 0. -1.
    9900012    2    1    2    0    0  0.13738342867E+02 -0.39938501840E+02  0.99898852975E+01  0.47787264957E+02  0.19999972247E+02 0.  0.
        -12    1    1    2    0    0 -0.13738342867E+02  0.39938501840E+02 -0.99898852975E+01  0.43400735043E+02  0.00000000000E+00 0.  1.
         11    1    3    3    0    0  0.40411534639E+01 -0.45300250269E+01 -0.12768578679E+00  0.60719314871E+01  0.51100000000E-03 0. -1.
        -11    1    3    3    0    0  0.13024700333E+01 -0.75893371647E+01  0.10045280156E+02  0.12657097631E+02  0.51100000000E-03 0.  1.
        -12    1    3    3    0    0  0.83947193703E+01 -0.27819139649E+02  0.72290928766E-01  0.29058235839E+02  0.00000000000E+00 0.  1.
</event>
<event>
 7    1  0.4592673E-010  0.4778727E+02  0.7816164E-02  0.1312668E+00
        -11   -1    0    0    0    0  0.00000000000E+00  0.00000000000E+00  0.45593999997E+02  0.45594000000E+02  0.51100000000E-03 0.  1.
         11   -1    0    0    0    0 -0.00000000000E+00 -0.00000000000E+00 -0.45593999997E+02  0.45594000000E+02  0.51100000000E-03 0. -1.
    9900012    2    1    2    0    0  0.13385900350E+01 -0.42270504085E+02 -0.97486367865E+01  0.47787271226E+02  0.20000000828E+02 0.  0.
        -12    1    1    2    0    0 -0.13385900350E+01  0.42270504085E+02  0.97486367865E+01  0.43400728774E+02  0.00000000000E+00 0.  1.
         11    1    3    3    0    0 -0.12377638711E+01 -0.12441400694E+02 -0.64865875849E+01  0.14085323190E+02  0.51100000000E-03 0. -1.
        -11    1    3    3    0    0  0.46232033086E+01 -0.18764679596E+01 -0.26904228842E+01  0.56686432586E+01  0.51100000000E-03 0.  1.
        -12    1    3    3    0    0 -0.20468494025E+01 -0.27952635432E+02 -0.57162631739E+00  0.28033304777E+02  0.00000000000E+00 0.  1.
</event>
<event>
 7    1  0.4592673E-010  0.4778727E+02  0.7816164E-02  0.1312668E+00
        -11   -1    0    0    0    0  0.00000000000E+00  0.00000000000E+00  0.45593999997E+02  0.45594000000E+02  0.51100000000E-03 0. -1.
         11   -1    0    0    0    0 -0.00000000000E+00 -0.00000000000E+00 -0.45593999997E+02  0.45594000000E+02  0.51100000000E-03 0.  1.
    9900012    2    1    2    0    0 -0.38469865494E+01  0.42153531118E+02  0.95866424796E+01  0.47787271835E+02  0.20000003603E+02 0.  0.
        -12    1    1    2    0    0  0.38469865494E+01 -0.42153531118E+02 -0.95866424796E+01  0.43400728165E+02  0.00000000000E+00 0.  1.
         11    1    3    3    0    0 -0.44252734571E+01  0.32121754968E+02  0.75741065028E+01  0.33298007102E+02  0.51100000000E-03 0. -1.
        -11    1    3    3    0    0  0.24128428591E+01  0.72961621424E+01  0.56828088881E+01  0.95577251368E+01  0.51100000000E-03 0.  1.
         12    1    3    3    0    0 -0.18345559514E+01  0.27356140075E+01 -0.36702729114E+01  0.49315395954E+01  0.00000000000E+00 0. -1.
</event>
<event>
 7    1  0.4592673E-010  0.4778729E+02  0.7816164E-02  0.1312668E+00
        -11   -1    0    0    0    0  0.00000000000E+00  0.00000000000E+00  0.45593999997E+02  0.45594000000E+02  0.51100000000E-03 0.  1.
         11   -1    0    0    0    0 -0.00000000000E+00 -0.00000000000E+00 -0.45593999997E+02  0.45594000000E+02  0.51100000000E-03 0. -1.
    9900012    2    1    2    0    0 -0.80761376884E+01 -0.35151387541E+02 -0.24140788720E+02  0.47787288876E+02  0.20000081301E+02 0.  0.
        -12    1    1    2    0    0  0.80761376884E+01  0.35151387541E+02  0.24140788720E+02  0.43400711124E+02  0.00000000000E+00 0.  1.
         11    1    3    3    0    0  0.49199203909E+01 -0.18305753176E+02 -0.10223167658E+02  0.21536466126E+02  0.51100000000E-03 0. -1.
        -11    1    3    3    0    0 -0.44955652910E+00 -0.57338020890E+00 -0.27901599570E+01  0.28837230767E+01  0.51100000000E-03 0.  1.
         12    1    3    3    0    0 -0.12546501550E+02 -0.16272254157E+02 -0.11127461105E+02  0.23367099673E+02  0.00000000000E+00 0. -1.
</event>
<event>
 7    1  0.4592673E-010  0.4778727E+02  0.7816164E-02  0.1312668E+00
        -11   -1    0    0    0    0  0.00000000000E+00  0.00000000000E+00  0.45593999997E+02  0.45594000000E+02  0.51100000000E-03 0.  1.
         11   -1    0    0    0    0 -0.00000000000E+00 -0.00000000000E+00 -0.45593999997E+02  0.45594000000E+02  0.51100000000E-03 0. -1.
    9900012    2    1    2    0    0 -0.36306190184E+02 -0.21176706438E+01 -0.23685429647E+02  0.47787267838E+02  0.19999985380E+02 0.  0.
        -12    1    1    2    0    0  0.36306190184E+02  0.21176706438E+01  0.23685429647E+02  0.43400732162E+02  0.00000000000E+00 0.  1.
         11    1    3    3    0    0 -0.10623105109E+02  0.22005363825E+01 -0.10647789633E+02  0.15200925855E+02  0.51100000000E-03 0. -1.
        -11    1    3    3    0    0 -0.26687691558E+02 -0.19671852494E+01 -0.98853283251E+01  0.28527572888E+02  0.51100000000E-03 0.  1.
         12    1    3    3    0    0  0.10046064831E+01 -0.23510217769E+01 -0.31523116890E+01  0.40587690949E+01  0.00000000000E+00 0. -1.
</event>
<event>
 7    1  0.4592673E-010  0.4778727E+02  0.7816164E-02  0.1312668E+00
        -11   -1    0    0    0    0  0.00000000000E+00  0.00000000000E+00  0.45593999997E+02  0.45594000000E+02  0.51100000000E-03 0.  1.
         11   -1    0    0    0    0 -0.00000000000E+00 -0.00000000000E+00 -0.45593999997E+02  0.45594000000E+02  0.51100000000E-03 0. -1.
    9900012    2    1    2    0    0  0.32486779535E+02 -0.10392039142E+02 -0.26837252889E+02  0.47787268846E+02  0.19999989974E+02 0.  0.
        -12    1    1    2    0    0 -0.32486779535E+02  0.10392039142E+02  0.26837252889E+02  0.43400731154E+02  0.00000000000E+00 0.  1.
         11    1    3    3    0    0  0.17512523149E+02 -0.10165621447E+02 -0.13774613791E+02  0.24490167655E+02  0.51100000000E-03 0. -1.
        -11    1    3    3    0    0  0.64970740449E+00 -0.43179631983E+01 -0.34818380864E+01  0.55848117796E+01  0.51100000000E-03 0.  1.
        -12    1    3    3    0    0  0.14324548982E+02  0.40915455028E+01 -0.95808010121E+01  0.17712289411E+02  0.00000000000E+00 0.  1.
</event>
<event>
 7    1  0.4592673E-010  0.4778727E+02  0.7816164E-02  0.1312668E+00
        -11   -1    0    0    0    0  0.00000000000E+00  0.00000000000E+00  0.45593999997E+02  0.45594000000E+02  0.51100000000E-03 0.  1.
         11   -1    0    0    0    0 -0.00000000000E+00 -0.00000000000E+00 -0.45593999997E+02  0.45594000000E+02  0.51100000000E-03 0. -1.
    9900012    2    1    2    0    0  0.28193058286E+01  0.29920072192E+02 -0.31312363962E+02  0.47787270258E+02  0.19999996413E+02 0.  0.
        -12    1    1    2    0    0 -0.28193058286E+01 -0.29920072192E+02  0.31312363962E+02  0.43400729742E+02  0.00000000000E+00 0.  1.
         11    1    3    3    0    0  0.17627572038E+01  0.65908771624E+01 -0.29815354199E+01  0.74455710627E+01  0.51100000000E-03 0. -1.
        -11    1    3    3    0    0  0.48170962639E+01  0.34576117935E+01 -0.14972769473E+02  0.16104139893E+02  0.51100000000E-03 0.  1.
        -12    1    3    3    0    0 -0.37605476390E+01  0.19871583236E+02 -0.13358059068E+02  0.24237559302E+02  0.00000000000E+00 0.  1.
</event>
<event>
 7    1  0.4592673E-010  0.4778727E+02  0.7816164E-02  0.1312668E+00
        -11   -1    0    0    0    0  0.00000000000E+00  0.00000000000E+00  0.45593999997E+02  0.45594000000E+02  0.51100000000E-03 0.  1.
         11   -1    0    0    0    0 -0.00000000000E+00 -0.00000000000E+00 -0.45593999997E+02  0.45594000000E+02  0.51100000000E-03 0. -1.
    9900012    2    1    2    0    0  0.27540833780E+02  0.32831292012E+02  0.68725498638E+01  0.47787271872E+02  0.20000003771E+02 0.  0.
        -12    1    1    2    0    0 -0.27540833780E+02 -0.32831292012E+02 -0.68725498638E+01  0.43400728128E+02  0.00000000000E+00 0.  1.
         11    1    3    3    0    0  0.15657933444E+02  0.13474305080E+02  0.82507121068E+00  0.20673860788E+02  0.51100000000E-03 0. -1.
        -11    1    3    3    0    0  0.14637241208E+02  0.13876589950E+02  0.34957966283E+01  0.20470202079E+02  0.51100000000E-03 0.  1.
        -12    1    3    3    0    0 -0.27543408725E+01  0.54803969821E+01  0.25516820248E+01  0.66432090046E+01  0.00000000000E+00 0.  1.
</event>
<event>
 7    1  0.4592673E-010  0.4778727E+02  0.7816164E-02  0.1312668E+00
        -11   -1    0    0    0    0  0.00000000000E+00  0.00000000000E+00  0.45593999997E+02  0.45594000000E+02  0.51100000000E-03 0. -1.
         11   -1    0    0    0    0 -0.00000000000E+00 -0.00000000000E+00 -0.45593999997E+02  0.45594000000E+02  0.51100000000E-03 0.  1.
    9900012    2    1    2    0    0 -0.20889173296E+02 -0.34805142515E+02  0.15357983829E+02  0.47787272197E+02  0.20000005257E+02 0.  0.
        -12    1    1    2    0    0  0.20889173296E+02  0.34805142515E+02 -0.15357983829E+02  0.43400727803E+02  0.00000000000E+00 0.  1.
         11    1    3    3    0    0 -0.78804825228E+01 -0.14872943413E+02  0.19427094948E+01  0.16943452157E+02  0.51100000000E-03 0. -1.
        -11    1    3    3    0    0 -0.30606306746E+01 -0.13458140023E+02  0.12670590103E+01  0.13859813556E+02  0.51100000000E-03 0.  1.
        -12    1    3    3    0    0 -0.99480600989E+01 -0.64740590785E+01  0.12148215324E+02  0.16984006484E+02  0.00000000000E+00 0.  1.
</event>
<event>
 7    1  0.4592673E-010  0.4778729E+02  0.7816164E-02  0.1312668E+00
        -11   -1    0    0    0    0  0.00000000000E+00  0.00000000000E+00  0.45593999997E+02  0.45594000000E+02  0.51100000000E-03 0.  1.
         11   -1    0    0    0    0 -0.00000000000E+00 -0.00000000000E+00 -0.45593999997E+02  0.45594000000E+02  0.51100000000E-03 0. -1.
    9900012    2    1    2    0    0  0.82814296301E+01 -0.27950658241E+02 -0.32152770877E+02  0.47787285169E+02  0.20000064397E+02 0.  0.
        -12    1    1    2    0    0 -0.82814296301E+01  0.27950658241E+02  0.32152770877E+02  0.43400714831E+02  0.00000000000E+00 0.  1.
         11    1    3    3    0    0 -0.28546892423E+01 -0.30170041265E+00 -0.12760945974E+01  0.31414473561E+01  0.51100000000E-03 0. -1.
        -11    1    3    3    0    0  0.20428988914E+01 -0.31634292895E-01  0.24196701360E+00  0.20574219076E+01  0.51100000000E-03 0.  1.
        -12    1    3    3    0    0  0.90932199809E+01 -0.27617323535E+02 -0.31118643293E+02  0.42588415905E+02  0.00000000000E+00 0.  1.
</event>
<event>
 7    1  0.4592673E-010  0.4778727E+02  0.7816164E-02  0.1312668E+00
        -11   -1    0    0    0    0  0.00000000000E+00  0.00000000000E+00  0.45593999997E+02  0.45594000000E+02  0.51100000000E-03 0.  1.
         11   -1    0    0    0    0 -0.00000000000E+00 -0.00000000000E+00 -0.45593999997E+02  0.45594000000E+02  0.51100000000E-03 0. -1.
    9900012    2    1    2    0    0 -0.45279952777E+01  0.34857497541E+01 -0.43022901443E+02  0.47787271422E+02  0.20000001720E+02 0.  0.
        -12    1    1    2    0    0  0.45279952777E+01 -0.34857497541E+01  0.43022901443E+02  0.43400728578E+02  0.00000000000E+00 0.  1.
         11    1    3    3    0    0  0.35908019462E+01  0.17451054078E+01 -0.32102334640E+02  0.32349638964E+02  0.51100000000E-03 0. -1.
        -11    1    3    3    0    0 -0.83153776736E+00 -0.23928226346E+01 -0.25928279915E+01  0.36248879257E+01  0.51100000000E-03 0.  1.
        -12    1    3    3    0    0 -0.72872594566E+01  0.41334669809E+01 -0.83277388109E+01  0.11812744532E+02  0.00000000000E+00 0.  1.
</event>
<event>
 7    1  0.4592673E-010  0.4778727E+02  0.7816164E-02  0.1312668E+00
        -11   -1    0    0    0    0  0.00000000000E+00  0.00000000000E+00  0.45593999997E+02  0.45594000000E+02  0.51100000000E-03 0.  1.
         11   -1    0    0    0    0 -0.00000000000E+00 -0.00000000000E+00 -0.45593999997E+02  0.45594000000E+02  0.51100000000E-03 0. -1.
    9900012    2    1    2    0    0 -0.22127760744E+01  0.15883356889E+02 -0.40329218282E+02  0.47787271305E+02  0.20000001188E+02 0.  0.
        -12    1    1    2    0    0  0.22127760744E+01 -0.15883356889E+02  0.40329218282E+02  0.43400728695E+02  0.00000000000E+00 0.  1.
         11    1    3    3    0    0  0.91291144334E+00 -0.34842163866E+01 -0.71911755964E+01  0.80427717767E+01  0.51100000000E-03 0.  1.
        -11    1    3    3    0    0  0.30139543272E+01  0.67705920558E+01 -0.15796169083E+02  0.17448317840E+02  0.51100000000E-03 0. -1.
         12    1    3    3    0    0 -0.61396418449E+01  0.12596981220E+02 -0.17341873602E+02  0.22296181688E+02  0.00000000000E+00 0. -1.
</event>
<event>
 7    1  0.4592673E-010  0.4778726E+02  0.7816164E-02  0.1312668E+00
        -11   -1    0    0    0    0  0.00000000000E+00  0.00000000000E+00  0.45593999997E+02  0.45594000000E+02  0.51100000000E-03 0. -1.
         11   -1    0    0    0    0 -0.00000000000E+00 -0.00000000000E+00 -0.45593999997E+02  0.45594000000E+02  0.51100000000E-03 0.  1.
    9900012    2    1    2    0    0 -0.81047078380E+01  0.27512891648E+02  0.32572663369E+02  0.47787263890E+02  0.19999967378E+02 0.  0.
        -12    1    1    2    0    0  0.81047078380E+01 -0.27512891648E+02 -0.32572663369E+02  0.43400736110E+02  0.00000000000E+00 0.  1.
         11    1    3    3    0    0 -0.11154702616E-01  0.20442317609E+02  0.18998413150E+02  0.27907493189E+02  0.51100000000E-03 0. -1.
        -11    1    3    3    0    0 -0.29877214223E+01  0.56866752698E+01  0.13557816483E+01  0.65652798158E+01  0.51100000000E-03 0.  1.
         12    1    3    3    0    0 -0.51058317131E+01  0.13838987693E+01  0.12218468571E+02  0.13314490884E+02  0.00000000000E+00 0. -1.
</event>
<event>
 7    1  0.4592673E-010  0.4778727E+02  0.7816164E-02  0.1312668E+00
        -11   -1    0    0    0    0  0.00000000000E+00  0.00000000000E+00  0.45593999997E+02  0.45594000000E+02  0.51100000000E-03 0.  1.
         11   -1    0    0    0    0 -0.00000000000E+00 -0.00000000000E+00 -0.45593999997E+02  0.45594000000E+02  0.51100000000E-03 0. -1.
    9900012    2    1    2    0    0  0.17259709301E+02 -0.36345303202E+01 -0.39654964350E+02  0.47787267594E+02  0.19999984269E+02 0.  0.
        -12    1    1    2    0    0 -0.17259709301E+02  0.36345303202E+01  0.39654964350E+02  0.43400732406E+02  0.00000000000E+00 0.  1.
         11    1    3    3    0    0  0.79692009764E+01 -0.38244904536E+01 -0.93334197724E+01  0.12854867418E+02  0.51100000000E-03 0. -1.
        -11    1    3    3    0    0  0.12567844759E+02 -0.81651234462E+00 -0.16880890883E+02  0.21061383894E+02  0.51100000000E-03 0.  1.
        -12    1    3    3    0    0 -0.32773364340E+01  0.10064724779E+01 -0.13440653694E+02  0.13871016282E+02  0.00000000000E+00 0.  1.
</event>
<event>
 7    1  0.4592673E-010  0.4778727E+02  0.7816164E-02  0.1312668E+00
        -11   -1    0    0    0    0  0.00000000000E+00  0.00000000000E+00  0.45593999997E+02  0.45594000000E+02  0.51100000000E-03 0.  1.
         11   -1    0    0    0    0 -0.00000000000E+00 -0.00000000000E+00 -0.45593999997E+02  0.45594000000E+02  0.51100000000E-03 0. -1.
    9900012    2    1    2    0    0 -0.26445470104E+02  0.23431425863E+02 -0.25203738983E+02  0.47787273443E+02  0.20000010934E+02 0.  0.
        -12    1    1    2    0    0  0.26445470104E+02 -0.23431425863E+02  0.25203738983E+02  0.43400726557E+02  0.00000000000E+00 0.  1.
         11    1    3    3    0    0 -0.18525884419E+02  0.14714393394E+02 -0.15088637795E+02  0.28060448272E+02  0.51100000000E-03 0. -1.
        -11    1    3    3    0    0 -0.93492652662E+01  0.58588621264E+01 -0.11765913227E+02  0.16129840072E+02  0.51100000000E-03 0.  1.
        -12    1    3    3    0    0  0.14296795810E+01  0.28581703422E+01  0.16508120389E+01  0.35969850983E+01  0.00000000000E+00 0.  1.
</event>
<event>
 7    1  0.4592673E-010  0.4778728E+02  0.7816164E-02  0.1312668E+00
        -11   -1    0    0    0    0  0.00000000000E+00  0.00000000000E+00  0.45593999997E+02  0.45594000000E+02  0.51100000000E-03 0.  1.
         11   -1    0    0    0    0 -0.00000000000E+00 -0.00000000000E+00 -0.45593999997E+02  0.45594000000E+02  0.51100000000E-03 0. -1.
    9900012    2    1    2    0    0 -0.11650651766E+02  0.40596201857E+02 -0.99916696192E+01  0.47787277039E+02  0.20000027332E+02 0.  0.
        -12    1    1    2    0    0  0.11650651766E+02 -0.40596201857E+02  0.99916696192E+01  0.43400722961E+02  0.00000000000E+00 0.  1.
         11    1    3    3    0    0 -0.34573716592E+01  0.94588367274E+01 -0.78495656764E+01  0.12768660564E+02  0.51100000000E-03 0. -1.
        -11    1    3    3    0    0 -0.33537946744E+01  0.26016611422E+02 -0.61076691584E+01  0.26933541012E+02  0.51100000000E-03 0.  1.
        -12    1    3    3    0    0 -0.48394854321E+01  0.51207537067E+01  0.39655652156E+01  0.80850754635E+01  0.00000000000E+00 0.  1.
</event>
<event>
 7    1  0.4592673E-010  0.4778727E+02  0.7816164E-02  0.1312668E+00
        -11   -1    0    0    0    0  0.00000000000E+00  0.00000000000E+00  0.45593999997E+02  0.45594000000E+02  0.51100000000E-03 0. -1.
         11   -1    0    0    0    0 -0.00000000000E+00 -0.00000000000E+00 -0.45593999997E+02  0.45594000000E+02  0.51100000000E-03 0.  1.
    9900012    2    1    2    0    0  0.13468092978E+02 -0.35722833885E+02  0.20642499996E+02  0.47787271950E+02  0.20000004127E+02 0.  0.
        -12    1    1    2    0    0 -0.13468092978E+02  0.35722833885E+02 -0.20642499996E+02  0.43400728050E+02  0.00000000000E+00 0.  1.
         11    1    3    3    0    0  0.58722919811E+01 -0.88986171787E+01  0.24443000539E+01  0.10938181011E+02  0.51100000000E-03 0. -1.
        -11    1    3    3    0    0 -0.21536696904E+01 -0.34609062642E+01 -0.19265983932E+01  0.45086524522E+01  0.51100000000E-03 0.  1.
        -12    1    3    3    0    0  0.97494706869E+01 -0.23363310442E+02  0.20124798335E+02  0.32340438487E+02  0.00000000000E+00 0.  1.
</event>
<event>
 7    1  0.4592673E-010  0.4778727E+02  0.7816164E-02  0.1312668E+00
        -11   -1    0    0    0    0  0.00000000000E+00  0.00000000000E+00  0.45593999997E+02  0.45594000000E+02  0.51100000000E-03 0.  1.
         11   -1    0    0    0    0 -0.00000000000E+00 -0.00000000000E+00 -0.45593999997E+02  0.45594000000E+02  0.51100000000E-03 0. -1.
    9900012    2    1    2    0    0 -0.70522744023E+01  0.38351381395E+02 -0.19054147639E+02  0.47787267616E+02  0.19999984371E+02 0.  0.
        -12    1    1    2    0    0  0.70522744023E+01 -0.38351381395E+02  0.19054147639E+02  0.43400732384E+02  0.00000000000E+00 0.  1.
         11    1    3    3    0    0 -0.64712479637E+01  0.88679279835E+01 -0.88476383975E+01  0.14099571001E+02  0.51100000000E-03 0.  1.
        -11    1    3    3    0    0 -0.34846615189E+01  0.31255162043E+01 -0.46426952638E+01  0.65929005012E+01  0.51100000000E-03 0. -1.
         12    1    3    3    0    0  0.29036350803E+01  0.26357937208E+02 -0.55638139775E+01  0.27094796115E+02  0.00000000000E+00 0. -1.
</event>
<event>
 7    1  0.4592673E-010  0.4778727E+02  0.7816164E-02  0.1312668E+00
        -11   -1    0    0    0    0  0.00000000000E+00  0.00000000000E+00  0.45593999997E+02  0.45594000000E+02  0.51100000000E-03 0.  1.
         11   -1    0    0    0    0 -0.00000000000E+00 -0.00000000000E+00 -0.45593999997E+02  0.45594000000E+02  0.51100000000E-03 0. -1.
    9900012    2    1    2    0    0 -0.33572353400E+01  0.32393342210E+02 -0.28688392074E+02  0.47787268572E+02  0.19999988728E+02 0.  0.
        -12    1    1    2    0    0  0.33572353400E+01 -0.32393342210E+02  0.28688392074E+02  0.43400731428E+02  0.00000000000E+00 0.  1.
         11    1    3    3    0    0 -0.44405880429E+01  0.15523399184E+02 -0.98056734164E+01  0.18890367275E+02  0.51100000000E-03 0. -1.
        -11    1    3    3    0    0  0.21720254138E+01  0.17858452570E+02 -0.20109328809E+02  0.26981977838E+02  0.51100000000E-03 0.  1.
        -12    1    3    3    0    0 -0.10886727109E+01 -0.98850954402E+00  0.12266101519E+01  0.19149234593E+01  0.00000000000E+00 0.  1.
</event>
<event>
 7    1  0.4592673E-010  0.4778727E+02  0.7816164E-02  0.1312668E+00
        -11   -1    0    0    0    0  0.00000000000E+00  0.00000000000E+00  0.45593999997E+02  0.45594000000E+02  0.51100000000E-03 0. -1.
         11   -1    0    0    0    0 -0.00000000000E+00 -0.00000000000E+00 -0.45593999997E+02  0.45594000000E+02  0.51100000000E-03 0.  1.
    9900012    2    1    2    0    0 -0.11175807508E+02  0.20376226046E+02  0.36654246162E+02  0.47787273934E+02  0.20000013175E+02 0.  0.
        -12    1    1    2    0    0  0.11175807508E+02 -0.20376226046E+02 -0.36654246162E+02  0.43400726066E+02  0.00000000000E+00 0.  1.
         11    1    3    3    0    0 -0.90891321862E+00  0.70364182370E+01  0.20659719928E+02  0.21844022812E+02  0.51100000000E-03 0. -1.
        -11    1    3    3    0    0  0.22048559205E+01  0.56152100214E+00  0.34060482045E+01  0.40960786246E+01  0.51100000000E-03 0.  1.
        -12    1    3    3    0    0 -0.12471750210E+02  0.12778286807E+02  0.12588478029E+02  0.21847172497E+02  0.00000000000E+00 0.  1.
</event>
<event>
 7    1  0.4592673E-010  0.4778727E+02  0.7816164E-02  0.1312668E+00
        -11   -1    0    0    0    0  0.00000000000E+00  0.00000000000E+00  0.45593999997E+02  0.45594000000E+02  0.51100000000E-03 0. -1.
         11   -1    0    0    0    0 -0.00000000000E+00 -0.00000000000E+00 -0.45593999997E+02  0.45594000000E+02  0.51100000000E-03 0.  1.
    9900012    2    1    2    0    0 -0.42830997069E+02  0.24324828086E+01  0.65735778030E+01  0.47787271807E+02  0.20000003476E+02 0.  0.
        -12    1    1    2    0    0  0.42830997069E+02 -0.24324828086E+01 -0.65735778030E+01  0.43400728193E+02  0.00000000000E+00 0.  1.
         11    1    3    3    0    0 -0.20878130374E+01 -0.21234639991E+01  0.39952770947E+01  0.49830013004E+01  0.51100000000E-03 0. -1.
        -11    1    3    3    0    0 -0.47239753230E+01  0.43442568346E+01 -0.13896165566E+01  0.65665473983E+01  0.51100000000E-03 0.  1.
         12    1    3    3    0    0 -0.36019208709E+02  0.21168997307E+00  0.39679172649E+01  0.36237723108E+02  0.00000000000E+00 0. -1.
</event>
<event>
 7    1  0.4592673E-010  0.4778727E+02  0.7816164E-02  0.1312668E+00
        -11   -1    0    0    0    0  0.00000000000E+00  0.00000000000E+00  0.45593999997E+02  0.45594000000E+02  0.51100000000E-03 0.  1.
         11   -1    0    0    0    0 -0.00000000000E+00 -0.00000000000E+00 -0.45593999997E+02  0.45594000000E+02  0.51100000000E-03 0. -1.
    9900012    2    1    2    0    0  0.36473603173E+01  0.36139259328E+02 -0.23754454188E+02  0.47787269639E+02  0.19999993593E+02 0.  0.
        -12    1    1    2    0    0 -0.36473603173E+01 -0.36139259328E+02  0.23754454188E+02  0.43400730361E+02  0.00000000000E+00 0.  1.
         11    1    3    3    0    0  0.31669117712E+01  0.74727872259E+01 -0.58150963765E+01  0.99843490133E+01  0.51100000000E-03 0. -1.
        -11    1    3    3    0    0  0.39674321154E+01  0.19492369922E+02 -0.32787239062E+01  0.20160432373E+02  0.51100000000E-03 0.  1.
        -12    1    3    3    0    0 -0.34869835693E+01  0.91741021801E+01 -0.14660633906E+02  0.17642488253E+02  0.00000000000E+00 0.  1.
</event>
<event>
 7    1  0.4592673E-010  0.4778727E+02  0.7816164E-02  0.1312668E+00
        -11   -1    0    0    0    0  0.00000000000E+00  0.00000000000E+00  0.45593999997E+02  0.45594000000E+02  0.51100000000E-03 0.  1.
         11   -1    0    0    0    0 -0.00000000000E+00 -0.00000000000E+00 -0.45593999997E+02  0.45594000000E+02  0.51100000000E-03 0. -1.
    9900012    2    1    2    0    0 -0.36447954208E+02 -0.34897322640E+01 -0.23302180815E+02  0.47787271573E+02  0.20000002411E+02 0.  0.
        -12    1    1    2    0    0  0.36447954208E+02  0.34897322640E+01  0.23302180815E+02  0.43400728427E+02  0.00000000000E+00 0.  1.
         11    1    3    3    0    0 -0.58065027178E+01 -0.92800809595E+00 -0.40817500325E+00  0.58943430451E+01  0.51100000000E-03 0. -1.
        -11    1    3    3    0    0 -0.18221636934E+01 -0.49923031306E+01 -0.54473770841E+00  0.53422944982E+01  0.51100000000E-03 0.  1.
         12    1    3    3    0    0 -0.28819287797E+02  0.24305789626E+01 -0.22349268104E+02  0.36550634030E+02  0.00000000000E+00 0. -1.
</event>
<event>
 7    1  0.4592673E-010  0.4778729E+02  0.7816164E-02  0.1312668E+00
        -11   -1    0    0    0    0  0.00000000000E+00  0.00000000000E+00  0.45593999997E+02  0.45594000000E+02  0.51100000000E-03 0.  1.
         11   -1    0    0    0    0 -0.00000000000E+00 -0.00000000000E+00 -0.45593999997E+02  0.45594000000E+02  0.51100000000E-03 0. -1.
    9900012    2    1    2    0    0  0.18426821592E+02 -0.38483348478E+02  0.79439234691E+01  0.47787288207E+02  0.20000078252E+02 0.  0.
        -12    1    1    2    0    0 -0.18426821592E+02  0.38483348478E+02 -0.79439234691E+01  0.43400711793E+02  0.00000000000E+00 0.  1.
         11    1    3    3    0    0  0.11176613833E+02 -0.20293511161E+02  0.78760100785E+00  0.23181104538E+02  0.51100000000E-03 0. -1.
        -11    1    3    3    0    0  0.50925333612E+01 -0.62336286595E+01 -0.31800832432E+01  0.86547646990E+01  0.51100000000E-03 0.  1.
        -12    1    3    3    0    0  0.21576743977E+01 -0.11956208657E+02  0.10336405705E+02  0.15951418970E+02  0.00000000000E+00 0.  1.
</event>
<event>
 7    1  0.4592673E-010  0.4778727E+02  0.7816164E-02  0.1312668E+00
        -11   -1    0    0    0    0  0.00000000000E+00  0.00000000000E+00  0.45593999997E+02  0.45594000000E+02  0.51100000000E-03 0.  1.
         11   -1    0    0    0    0 -0.00000000000E+00 -0.00000000000E+00 -0.45593999997E+02  0.45594000000E+02  0.51100000000E-03 0. -1.
    9900012    2    1    2    0    0 -0.66178879316E+01 -0.41258945916E+02  0.11727173987E+02  0.47787266498E+02  0.19999979271E+02 0.  0.
        -12    1    1    2    0    0  0.66178879316E+01  0.41258945916E+02 -0.11727173987E+02  0.43400733502E+02  0.00000000000E+00 0.  1.
         11    1    3    3    0    0 -0.56055399992E+01 -0.28831255040E+02  0.49286056684E+01  0.29781781343E+02  0.51100000000E-03 0. -1.
        -11    1    3    3    0    0 -0.33602458020E+01 -0.88406673285E+01 -0.57607814525E+00  0.94752581471E+01  0.51100000000E-03 0.  1.
        -12    1    3    3    0    0  0.23478978695E+01 -0.35870235477E+01  0.73746464640E+01  0.85302270079E+01  0.00000000000E+00 0.  1.
</event>
<event>
 7    1  0.4592673E-010  0.4778727E+02  0.7816164E-02  0.1312668E+00
        -11   -1    0    0    0    0  0.00000000000E+00  0.00000000000E+00  0.45593999997E+02  0.45594000000E+02  0.51100000000E-03 0.  1.
         11   -1    0    0    0    0 -0.00000000000E+00 -0.00000000000E+00 -0.45593999997E+02  0.45594000000E+02  0.51100000000E-03 0. -1.
    9900012    2    1    2    0    0 -0.25869732164E+02  0.44334424165E+00 -0.34845137645E+02  0.47787271736E+02  0.20000003154E+02 0.  0.
        -12    1    1    2    0    0  0.25869732164E+02 -0.44334424165E+00  0.34845137645E+02  0.43400728264E+02  0.00000000000E+00 0.  1.
         11    1    3    3    0    0 -0.19538125603E+02  0.36273631035E-01 -0.19639977062E+02  0.27703219436E+02  0.51100000000E-03 0. -1.
        -11    1    3    3    0    0 -0.82508137534E+01  0.35515082814E+01 -0.12964219941E+02  0.15772131676E+02  0.51100000000E-03 0.  1.
        -12    1    3    3    0    0  0.19192071926E+01 -0.31444376707E+01 -0.22409406427E+01  0.43119206251E+01  0.00000000000E+00 0.  1.
</event>
<event>
 7    1  0.4592673E-010  0.4778727E+02  0.7816164E-02  0.1312668E+00
        -11   -1    0    0    0    0  0.00000000000E+00  0.00000000000E+00  0.45593999997E+02  0.45594000000E+02  0.51100000000E-03 0.  1.
         11   -1    0    0    0    0 -0.00000000000E+00 -0.00000000000E+00 -0.45593999997E+02  0.45594000000E+02  0.51100000000E-03 0. -1.
    9900012    2    1    2    0    0  0.26406112199E+02 -0.34441486120E+02 -0.35330924729E+00  0.47787267806E+02  0.19999985233E+02 0.  0.
        -12    1    1    2    0    0 -0.26406112199E+02  0.34441486120E+02  0.35330924729E+00  0.43400732194E+02  0.00000000000E+00 0.  1.
         11    1    3    3    0    0  0.13737836496E+02 -0.13962010468E+02 -0.20333032478E+01  0.19692643557E+02  0.51100000000E-03 0. -1.
        -11    1    3    3    0    0  0.12785124061E+02 -0.22062575587E+02  0.34333352808E+01  0.25729446753E+02  0.51100000000E-03 0.  1.
        -12    1    3    3    0    0 -0.11684835915E+00  0.15830999348E+01 -0.17533412804E+01  0.23651774961E+01  0.00000000000E+00 0.  1.
</event>
<event>
 7    1  0.4592673E-010  0.4778727E+02  0.7816164E-02  0.1312668E+00
        -11   -1    0    0    0    0  0.00000000000E+00  0.00000000000E+00  0.45593999997E+02  0.45594000000E+02  0.51100000000E-03 0.  1.
         11   -1    0    0    0    0 -0.00000000000E+00 -0.00000000000E+00 -0.45593999997E+02  0.45594000000E+02  0.51100000000E-03 0. -1.
    9900012    2    1    2    0    0  0.17981489626E+02 -0.12255992915E+02 -0.37551029791E+02  0.47787272243E+02  0.20000005464E+02 0.  0.
        -12    1    1    2    0    0 -0.17981489626E+02  0.12255992915E+02  0.37551029791E+02  0.43400727757E+02  0.00000000000E+00 0.  1.
         11    1    3    3    0    0  0.11774173140E+01 -0.64032006180E+01 -0.32053503673E+01  0.72568285721E+01  0.51100000000E-03 0. -1.
        -11    1    3    3    0    0  0.10051414426E+02 -0.58806878739E+01 -0.10274183761E+02  0.15529722279E+02  0.51100000000E-03 0.  1.
        -12    1    3    3    0    0  0.67526578854E+01  0.27895577310E-01 -0.24071495663E+02  0.25000721392E+02  0.00000000000E+00 0.  1.
</event>
<event>
 7    1  0.4592673E-010  0.4778727E+02  0.7816164E-02  0.1312668E+00
        -11   -1    0    0    0    0  0.00000000000E+00  0.00000000000E+00  0.45593999997E+02  0.45594000000E+02  0.51100000000E-03 0.  1.
         11   -1    0    0    0    0 -0.00000000000E+00 -0.00000000000E+00 -0.45593999997E+02  0.45594000000E+02  0.51100000000E-03 0. -1.
    9900012    2    1    2    0    0 -0.25698051321E+02 -0.21133909257E+02 -0.27867382821E+02  0.47787274344E+02  0.20000015044E+02 0.  0.
        -12    1    1    2    0    0  0.25698051321E+02  0.21133909257E+02  0.27867382821E+02  0.43400725656E+02  0.00000000000E+00 0.  1.
         11    1    3    3    0    0 -0.99516666071E+01 -0.88045775920E+01 -0.50447430919E+01  0.14212870504E+02  0.51100000000E-03 0. -1.
        -11    1    3    3    0    0 -0.16754653912E+02 -0.12404505030E+02 -0.14989683732E+02  0.25676463764E+02  0.51100000000E-03 0.  1.
        -12    1    3    3    0    0  0.10082691985E+01  0.75173364348E-01 -0.78329559964E+01  0.78979400766E+01  0.00000000000E+00 0.  1.
</event>
<event>
 7    1  0.4592673E-010  0.4778728E+02  0.7816164E-02  0.1312668E+00
        -11   -1    0    0    0    0  0.00000000000E+00  0.00000000000E+00  0.45593999997E+02  0.45594000000E+02  0.51100000000E-03 0.  1.
         11   -1    0    0    0    0 -0.00000000000E+00 -0.00000000000E+00 -0.45593999997E+02  0.45594000000E+02  0.51100000000E-03 0. -1.
    9900012    2    1    2    0    0  0.22811648856E+02  0.26886414325E+02 -0.25305573313E+02  0.47787278353E+02  0.20000033321E+02 0.  0.
        -12    1    1    2    0    0 -0.22811648856E+02 -0.26886414325E+02  0.25305573313E+02  0.43400721647E+02  0.00000000000E+00 0.  1.
         11    1    3    3    0    0  0.99930907425E+01  0.61775589694E+01 -0.12373052737E+02  0.17062137372E+02  0.51100000000E-03 0. -1.
        -11    1    3    3    0    0  0.12454538255E+02  0.90214992270E+01 -0.10917241671E+02  0.18859722623E+02  0.51100000000E-03 0.  1.
        -12    1    3    3    0    0  0.36401985870E+00  0.11687356129E+02 -0.20152789051E+01  0.11865418358E+02  0.00000000000E+00 0.  1.
</event>
<event>
 7    1  0.4592673E-010  0.4778727E+02  0.7816164E-02  0.1312668E+00
        -11   -1    0    0    0    0  0.00000000000E+00  0.00000000000E+00  0.45593999997E+02  0.45594000000E+02  0.51100000000E-03 0.  1.
         11   -1    0    0    0    0 -0.00000000000E+00 -0.00000000000E+00 -0.45593999997E+02  0.45594000000E+02  0.51100000000E-03 0. -1.
    9900012    2    1    2    0    0  0.26172300112E+02  0.18863402362E+02 -0.29031116375E+02  0.47787274663E+02  0.20000016499E+02 0.  0.
        -12    1    1    2    0    0 -0.26172300112E+02 -0.18863402362E+02  0.29031116375E+02  0.43400725337E+02  0.00000000000E+00 0.  1.
         11    1    3    3    0    0  0.90811424878E+01  0.45081397318E+01 -0.15661439485E+02  0.18656665290E+02  0.51100000000E-03 0. -1.
        -11    1    3    3    0    0  0.16423972099E+02  0.12873689440E+02 -0.15822534194E+02  0.26188381544E+02  0.51100000000E-03 0.  1.
        -12    1    3    3    0    0  0.66718552434E+00  0.14815731899E+01  0.24528573046E+01  0.29422278290E+01  0.00000000000E+00 0.  1.
</event>
<event>
 7    1  0.4592673E-010  0.4778727E+02  0.7816164E-02  0.1312668E+00
        -11   -1    0    0    0    0  0.00000000000E+00  0.00000000000E+00  0.45593999997E+02  0.45594000000E+02  0.51100000000E-03 0.  1.
         11   -1    0    0    0    0 -0.00000000000E+00 -0.00000000000E+00 -0.45593999997E+02  0.45594000000E+02  0.51100000000E-03 0. -1.
    9900012    2    1    2    0    0  0.33329174360E+02  0.26204033621E+02 -0.92810625375E+01  0.47787270014E+02  0.19999995301E+02 0.  0.
        -12    1    1    2    0    0 -0.33329174360E+02 -0.26204033621E+02  0.92810625375E+01  0.43400729986E+02  0.00000000000E+00 0.  1.
         11    1    3    3    0    0  0.25640168739E+02  0.23182538753E+02 -0.65050978695E+01  0.35173351483E+02  0.51100000000E-03 0. -1.
        -11    1    3    3    0    0  0.64130762846E+01  0.25145185927E+01  0.23724925938E+01  0.72855385905E+01  0.51100000000E-03 0.  1.
        -12    1    3    3    0    0  0.12759293363E+01  0.50697627539E+00 -0.51484572618E+01  0.53283799406E+01  0.00000000000E+00 0.  1.
</event>
<event>
 7    1  0.4592673E-010  0.4778726E+02  0.7816164E-02  0.1312668E+00
        -11   -1    0    0    0    0  0.00000000000E+00  0.00000000000E+00  0.45593999997E+02  0.45594000000E+02  0.51100000000E-03 0.  1.
         11   -1    0    0    0    0 -0.00000000000E+00 -0.00000000000E+00 -0.45593999997E+02  0.45594000000E+02  0.51100000000E-03 0. -1.
    9900012    2    1    2    0    0  0.26106228279E+02  0.11297200211E+02 -0.32778995168E+02  0.47787257935E+02  0.19999940228E+02 0.  0.
        -12    1    1    2    0    0 -0.26106228279E+02 -0.11297200211E+02  0.32778995168E+02  0.43400742065E+02  0.00000000000E+00 0.  1.
         11    1    3    3    0    0  0.13214557091E+02  0.51481902073E+01 -0.13967260651E+02  0.19905093616E+02  0.51100000000E-03 0. -1.
        -11    1    3    3    0    0  0.12580727566E+02  0.98457007032E+01 -0.11502952375E+02  0.19685792898E+02  0.51100000000E-03 0.  1.
        -12    1    3    3    0    0  0.31094362247E+00 -0.36966906994E+01 -0.73087821416E+01  0.81963714201E+01  0.00000000000E+00 0.  1.
</event>
<event>
 7    1  0.4592673E-010  0.4778728E+02  0.7816164E-02  0.1312668E+00
        -11   -1    0    0    0    0  0.00000000000E+00  0.00000000000E+00  0.45593999997E+02  0.45594000000E+02  0.51100000000E-03 0.  1.
         11   -1    0    0    0    0 -0.00000000000E+00 -0.00000000000E+00 -0.45593999997E+02  0.45594000000E+02  0.51100000000E-03 0. -1.
    9900012    2    1    2    0    0  0.19752597518E+02  0.14073363681E+02 -0.35991634776E+02  0.47787280560E+02  0.20000043387E+02 0.  0.
        -12    1    1    2    0    0 -0.19752597518E+02 -0.14073363681E+02  0.35991634776E+02  0.43400719440E+02  0.00000000000E+00 0.  1.
         11    1    3    3    0    0  0.14384528493E+02  0.62416573392E+01 -0.21535451474E+02  0.26639230784E+02  0.51100000000E-03 0. -1.
        -11    1    3    3    0    0  0.88863472534E+01  0.78278924844E+01 -0.10230830478E+02  0.15649695230E+02  0.51100000000E-03 0.  1.
        -12    1    3    3    0    0 -0.35182782279E+01  0.38138578807E-02 -0.42253528242E+01  0.54983545469E+01  0.00000000000E+00 0.  1.
</event>
<event>
 7    1  0.4592673E-010  0.4778727E+02  0.7816164E-02  0.1312668E+00
        -11   -1    0    0    0    0  0.00000000000E+00  0.00000000000E+00  0.45593999997E+02  0.45594000000E+02  0.51100000000E-03 0. -1.
         11   -1    0    0    0    0 -0.00000000000E+00 -0.00000000000E+00 -0.45593999997E+02  0.45594000000E+02  0.51100000000E-03 0.  1.
    9900012    2    1    2    0    0  0.30528061473E+02 -0.30212572853E+02 -0.62338924539E+01  0.47787268315E+02  0.19999987554E+02 0.  0.
        -12    1    1    2    0    0 -0.30528061473E+02  0.30212572853E+02  0.62338924539E+01  0.43400731685E+02  0.00000000000E+00 0.  1.
         11    1    3    3    0    0  0.15381949334E+02 -0.12760637761E+02  0.35219875771E+01  0.20293906428E+02  0.51100000000E-03 0. -1.
        -11    1    3    3    0    0  0.53818301109E+01 -0.12804481518E+02 -0.16675891669E+01  0.13989270753E+02  0.51100000000E-03 0.  1.
        -12    1    3    3    0    0  0.97642820283E+01 -0.46474535736E+01 -0.80882908641E+01  0.13504091134E+02  0.00000000000E+00 0.  1.
</event>
<event>
 7    1  0.4592673E-010  0.4778727E+02  0.7816164E-02  0.1312668E+00
        -11   -1    0    0    0    0  0.00000000000E+00  0.00000000000E+00  0.45593999997E+02  0.45594000000E+02  0.51100000000E-03 0.  1.
         11   -1    0    0    0    0 -0.00000000000E+00 -0.00000000000E+00 -0.45593999997E+02  0.45594000000E+02  0.51100000000E-03 0. -1.
    9900012    2    1    2    0    0  0.19736265069E+02 -0.21528565399E+02 -0.32103331726E+02  0.47787271954E+02  0.20000004148E+02 0.  0.
        -12    1    1    2    0    0 -0.19736265069E+02  0.21528565399E+02  0.32103331726E+02  0.43400728046E+02  0.00000000000E+00 0.  1.
         11    1    3    3    0    0  0.11890984708E+01 -0.24145616817E+01 -0.62971420616E+01  0.68482159496E+01  0.51100000000E-03 0. -1.
        -11    1    3    3    0    0  0.87914074189E+00 -0.43940272166E+01  0.19560139793E+01  0.48894124977E+01  0.51100000000E-03 0.  1.
        -12    1    3    3    0    0  0.17668025856E+02 -0.14719976500E+02 -0.27762203644E+02  0.36049643507E+02  0.00000000000E+00 0.  1.
</event>
<event>
 7    1  0.4592673E-010  0.4778727E+02  0.7816164E-02  0.1312668E+00
        -11   -1    0    0    0    0  0.00000000000E+00  0.00000000000E+00  0.45593999997E+02  0.45594000000E+02  0.51100000000E-03 0. -1.
         11   -1    0    0    0    0 -0.00000000000E+00 -0.00000000000E+00 -0.45593999997E+02  0.45594000000E+02  0.51100000000E-03 0.  1.
    9900012    2    1    2    0    0 -0.41345221936E+02 -0.99006152582E+01 -0.87277675990E+01  0.47787268593E+02  0.19999988821E+02 0.  0.
        -12    1    1    2    0    0  0.41345221936E+02  0.99006152582E+01  0.87277675990E+01  0.43400731407E+02  0.00000000000E+00 0.  1.
         11    1    3    3    0    0 -0.98929057741E+01  0.69756145929E+00  0.30300951943E-02  0.99174687339E+01  0.51100000000E-03 0. -1.
        -11    1    3    3    0    0 -0.22200923010E+02 -0.39751795815E+00 -0.93316465008E+01  0.24085651946E+02  0.51100000000E-03 0.  1.
        -12    1    3    3    0    0 -0.92513931522E+01 -0.10200658759E+02  0.60084880660E+00  0.13784147912E+02  0.00000000000E+00 0.  1.
</event>
<event>
 7    1  0.4592673E-010  0.4778728E+02  0.7816164E-02  0.1312668E+00
        -11   -1    0    0    0    0  0.00000000000E+00  0.00000000000E+00  0.45593999997E+02  0.45594000000E+02  0.51100000000E-03 0. -1.
         11   -1    0    0    0    0 -0.00000000000E+00 -0.00000000000E+00 -0.45593999997E+02  0.45594000000E+02  0.51100000000E-03 0.  1.
    9900012    2    1    2    0    0 -0.18411133006E+02 -0.39236089576E+02  0.22763717105E+01  0.47787280975E+02  0.20000045275E+02 0.  0.
        -12    1    1    2    0    0  0.18411133006E+02  0.39236089576E+02 -0.22763717105E+01  0.43400719025E+02  0.00000000000E+00 0.  1.
         11    1    3    3    0    0 -0.69181672465E+01 -0.20942511173E+02 -0.49939365429E+01  0.22613916395E+02  0.51100000000E-03 0.  1.
        -11    1    3    3    0    0 -0.10561845395E+01 -0.13981005001E+00 -0.20054217692E+01  0.22708565267E+01  0.51100000000E-03 0. -1.
         12    1    3    3    0    0 -0.10436781220E+02 -0.18153768353E+02  0.92757300226E+01  0.22902508053E+02  0.00000000000E+00 0. -1.
</event>
<event>
 7    1  0.4592673E-010  0.4778729E+02  0.7816164E-02  0.1312668E+00
        -11   -1    0    0    0    0  0.00000000000E+00  0.00000000000E+00  0.45593999997E+02  0.45594000000E+02  0.51100000000E-03 0.  1.
         11   -1    0    0    0    0 -0.00000000000E+00 -0.00000000000E+00 -0.45593999997E+02  0.45594000000E+02  0.51100000000E-03 0. -1.
    9900012    2    1    2    0    0 -0.12364432748E+02  0.86930438657E+01 -0.40683827728E+02  0.47787285174E+02  0.20000064422E+02 0.  0.
        -12    1    1    2    0    0  0.12364432748E+02 -0.86930438657E+01  0.40683827728E+02  0.43400714826E+02  0.00000000000E+00 0.  1.
         11    1    3    3    0    0  0.84761044674E+00  0.15500493174E+01 -0.15752893268E+02  0.15851647956E+02  0.51100000000E-03 0.  1.
        -11    1    3    3    0    0 -0.62100686840E+01  0.10271988818E+02 -0.17761525426E+02  0.21437128843E+02  0.51100000000E-03 0. -1.
        -12    1    3    3    0    0 -0.70019745106E+01 -0.31289942695E+01 -0.71694090341E+01  0.10498508374E+02  0.00000000000E+00 0.  1.
</event>
<event>
 7    1  0.4592673E-010  0.4778727E+02  0.7816164E-02  0.1312668E+00
        -11   -1    0    0    0    0  0.00000000000E+00  0.00000000000E+00  0.45593999997E+02  0.45594000000E+02  0.51100000000E-03 0. -1.
         11   -1    0    0    0    0 -0.00000000000E+00 -0.00000000000E+00 -0.45593999997E+02  0.45594000000E+02  0.51100000000E-03 0.  1.
    9900012    2    1    2    0    0  0.81432978352E+01  0.23907944510E+02  0.35294761888E+02  0.47787270431E+02  0.19999997205E+02 0.  0.
        -12    1    1    2    0    0 -0.81432978352E+01 -0.23907944510E+02 -0.35294761888E+02  0.43400729569E+02  0.00000000000E+00 0.  1.
         11    1    3    3    0    0  0.67131047819E+01  0.54777815203E+01  0.20610082161E+02  0.22357266227E+02  0.51100000000E-03 0. -1.
        -11    1    3    3    0    0  0.22577999885E+01  0.18725545424E+01  0.60824644418E+01  0.67528138764E+01  0.51100000000E-03 0.  1.
        -12    1    3    3    0    0 -0.82760693516E+00  0.16557608447E+02  0.86022152853E+01  0.18677190328E+02  0.00000000000E+00 0.  1.
</event>
<event>
 7    1  0.4592673E-010  0.4778727E+02  0.7816164E-02  0.1312668E+00
        -11   -1    0    0    0    0  0.00000000000E+00  0.00000000000E+00  0.45593999997E+02  0.45594000000E+02  0.51100000000E-03 0.  1.
         11   -1    0    0    0    0 -0.00000000000E+00 -0.00000000000E+00 -0.45593999997E+02  0.45594000000E+02  0.51100000000E-03 0. -1.
    9900012    2    1    2    0    0  0.26135122135E+00 -0.12219570299E+02 -0.41644176839E+02  0.47787266512E+02  0.19999979333E+02 0.  0.
        -12    1    1    2    0    0 -0.26135122135E+00  0.12219570299E+02  0.41644176839E+02  0.43400733488E+02  0.00000000000E+00 0.  1.
         11    1    3    3    0    0  0.66626273144E+00 -0.21430447300E+01 -0.24342247635E+02  0.24445481524E+02  0.51100000000E-03 0. -1.
        -11    1    3    3    0    0 -0.35985906657E+01 -0.92872502807E+01 -0.17401724540E+02  0.20050508467E+02  0.51100000000E-03 0.  1.
        -12    1    3    3    0    0  0.31936791557E+01 -0.78927528812E+00  0.99795335993E-01  0.32912765212E+01  0.00000000000E+00 0.  1.
</event>
<event>
 7    1  0.4592673E-010  0.4778722E+02  0.7816164E-02  0.1312668E+00
        -11   -1    0    0    0    0  0.00000000000E+00  0.00000000000E+00  0.45593999997E+02  0.45594000000E+02  0.51100000000E-03 0.  1.
         11   -1    0    0    0    0 -0.00000000000E+00 -0.00000000000E+00 -0.45593999997E+02  0.45594000000E+02  0.51100000000E-03 0. -1.
    9900012    2    1    2    0    0  0.10245452652E+02  0.36611338896E+02  0.20934864902E+02  0.47787216548E+02  0.19999751528E+02 0.  0.
        -12    1    1    2    0    0 -0.10245452652E+02 -0.36611338896E+02 -0.20934864902E+02  0.43400783452E+02  0.00000000000E+00 0.  1.
         11    1    3    3    0    0  0.10053993055E+02  0.15363141278E+02  0.10120889019E+02  0.20965239829E+02  0.51100000000E-03 0. -1.
        -11    1    3    3    0    0 -0.29031405935E+00  0.92247139187E+00  0.58017965037E+01  0.58818431340E+01  0.51100000000E-03 0.  1.
        -12    1    3    3    0    0  0.48177365637E+00  0.20325726226E+02  0.50121793793E+01  0.20940133586E+02  0.00000000000E+00 0.  1.
</event>
<event>
 7    1  0.4592673E-010  0.4778727E+02  0.7816164E-02  0.1312668E+00
        -11   -1    0    0    0    0  0.00000000000E+00  0.00000000000E+00  0.45593999997E+02  0.45594000000E+02  0.51100000000E-03 0. -1.
         11   -1    0    0    0    0 -0.00000000000E+00 -0.00000000000E+00 -0.45593999997E+02  0.45594000000E+02  0.51100000000E-03 0.  1.
    9900012    2    1    2    0    0  0.38128263481E+02  0.18695013685E+02  0.89641311860E+01  0.47787266588E+02  0.19999979683E+02 0.  0.
        -12    1    1    2    0    0 -0.38128263481E+02 -0.18695013685E+02 -0.89641311860E+01  0.43400733412E+02  0.00000000000E+00 0.  1.
         11    1    3    3    0    0  0.27365629388E+02  0.73440078524E+01  0.99528569672E+01  0.30031175221E+02  0.51100000000E-03 0. -1.
        -11    1    3    3    0    0 -0.19638177695E+00  0.71272822272E-01  0.17758922892E+01  0.17881385018E+01  0.51100000000E-03 0.  1.
        -12    1    3    3    0    0  0.10959015870E+02  0.11279733010E+02 -0.27646180704E+01  0.15967952865E+02  0.00000000000E+00 0.  1.
</event>
<event>
 7    1  0.4592673E-010  0.4778732E+02  0.7816164E-02  0.1312668E+00
        -11   -1    0    0    0    0  0.00000000000E+00  0.00000000000E+00  0.45593999997E+02  0.45594000000E+02  0.51100000000E-03 0.  1.
         11   -1    0    0    0    0 -0.00000000000E+00 -0.00000000000E+00 -0.45593999997E+02  0.45594000000E+02  0.51100000000E-03 0. -1.
    9900012    2    1    2    0    0 -0.20553503772E+02 -0.78572980976E+01 -0.37409026097E+02  0.47787321616E+02  0.20000230574E+02 0.  0.
        -12    1    1    2    0    0  0.20553503772E+02  0.78572980976E+01  0.37409026097E+02  0.43400678384E+02  0.00000000000E+00 0.  1.
         11    1    3    3    0    0 -0.15187627438E+02 -0.10642473811E+01 -0.19794801585E+02  0.24972601381E+02  0.51100000000E-03 0. -1.
        -11    1    3    3    0    0 -0.41532308600E+01 -0.22451310491E+01 -0.14599851288E+00  0.47234792083E+01  0.51100000000E-03 0.  1.
         12    1    3    3    0    0 -0.12126454739E+01 -0.45479196674E+01 -0.17468225998E+02  0.18091241026E+02  0.00000000000E+00 0. -1.
</event>
<event>
 7    1  0.4592673E-010  0.4778727E+02  0.7816164E-02  0.1312668E+00
        -11   -1    0    0    0    0  0.00000000000E+00  0.00000000000E+00  0.45593999997E+02  0.45594000000E+02  0.51100000000E-03 0.  1.
         11   -1    0    0    0    0 -0.00000000000E+00 -0.00000000000E+00 -0.45593999997E+02  0.45594000000E+02  0.51100000000E-03 0. -1.
    9900012    2    1    2    0    0  0.41399064733E+02 -0.12198505228E+02  0.45757240485E+01  0.47787270270E+02  0.19999996468E+02 0.  0.
        -12    1    1    2    0    0 -0.41399064733E+02  0.12198505228E+02 -0.45757240485E+01  0.43400729730E+02  0.00000000000E+00 0.  1.
         11    1    3    3    0    0  0.11360486123E+02 -0.63074334193E+01 -0.39179536065E+01  0.13571835617E+02  0.51100000000E-03 0. -1.
        -11    1    3    3    0    0  0.16775513558E+02 -0.45839042177E+01 -0.16476187427E+01  0.17468390904E+02  0.51100000000E-03 0.  1.
        -12    1    3    3    0    0  0.13263065052E+02 -0.13071675908E+01  0.10141296398E+02  0.16747043748E+02  0.00000000000E+00 0.  1.
</event>
<event>
 7    1  0.4592673E-010  0.4778727E+02  0.7816164E-02  0.1312668E+00
        -11   -1    0    0    0    0  0.00000000000E+00  0.00000000000E+00  0.45593999997E+02  0.45594000000E+02  0.51100000000E-03 0. -1.
         11   -1    0    0    0    0 -0.00000000000E+00 -0.00000000000E+00 -0.45593999997E+02  0.45594000000E+02  0.51100000000E-03 0.  1.
    9900012    2    1    2    0    0 -0.11314732429E+01  0.11692457065E+02  0.41780735554E+02  0.47787266741E+02  0.19999980380E+02 0.  0.
        -12    1    1    2    0    0  0.11314732429E+01 -0.11692457065E+02 -0.41780735554E+02  0.43400733259E+02  0.00000000000E+00 0.  1.
         11    1    3    3    0    0  0.78179566945E+00  0.24239342803E+01  0.10304359197E+01  0.27474461432E+01  0.51100000000E-03 0. -1.
        -11    1    3    3    0    0 -0.59742755893E+01  0.13658641177E+01  0.42108867779E+01  0.74356654929E+01  0.51100000000E-03 0.  1.
         12    1    3    3    0    0  0.40610066770E+01  0.79026586672E+01  0.36539412857E+02  0.37604155105E+02  0.00000000000E+00 0. -1.
</event>
<event>
 7    1  0.4592673E-010  0.4778727E+02  0.7816164E-02  0.1312668E+00
        -11   -1    0    0    0    0  0.00000000000E+00  0.00000000000E+00  0.45593999997E+02  0.45594000000E+02  0.51100000000E-03 0.  1.
         11   -1    0    0    0    0 -0.00000000000E+00 -0.00000000000E+00 -0.45593999997E+02  0.45594000000E+02  0.51100000000E-03 0. -1.
    9900012    2    1    2    0    0  0.27672015787E+00  0.30249710607E+02 -0.31120755397E+02  0.47787274403E+02  0.20000015314E+02 0.  0.
        -12    1    1    2    0    0 -0.27672015787E+00 -0.30249710607E+02  0.31120755397E+02  0.43400725597E+02  0.00000000000E+00 0.  1.
         11    1    3    3    0    0  0.39040819913E+01  0.10504861343E+02 -0.28032968559E+01  0.11552161770E+02  0.51100000000E-03 0. -1.
        -11    1    3    3    0    0  0.88049062663E+00  0.15864870756E+02 -0.15960407769E+02  0.22521190116E+02  0.51100000000E-03 0.  1.
        -12    1    3    3    0    0 -0.45078524600E+01  0.38799785083E+01 -0.12357050772E+02  0.13713922517E+02  0.00000000000E+00 0.  1.
</event>
<event>
 7    1  0.4592673E-010  0.4778728E+02  0.7816164E-02  0.1312668E+00
        -11   -1    0    0    0    0  0.00000000000E+00  0.00000000000E+00  0.45593999997E+02  0.45594000000E+02  0.51100000000E-03 0. -1.
         11   -1    0    0    0    0 -0.00000000000E+00 -0.00000000000E+00 -0.45593999997E+02  0.45594000000E+02  0.51100000000E-03 0.  1.
    9900012    2    1    2    0    0 -0.90741904354E+01 -0.40586509500E+02 -0.12410358140E+02  0.47787277948E+02  0.20000031475E+02 0.  0.
        -12    1    1    2    0    0  0.90741904354E+01  0.40586509500E+02  0.12410358140E+02  0.43400722052E+02  0.00000000000E+00 0.  1.
         11    1    3    3    0    0 -0.67100370805E+00 -0.13568290092E+02 -0.99070826375E+01  0.16813656016E+02  0.51100000000E-03 0. -1.
        -11    1    3    3    0    0 -0.40956109782E+01 -0.11177606654E+02 -0.71832842267E+01  0.13903686286E+02  0.51100000000E-03 0.  1.
         12    1    3    3    0    0 -0.43075757491E+01 -0.15840612755E+02  0.46800087238E+01  0.17069935645E+02  0.00000000000E+00 0. -1.
</event>
<event>
 7    1  0.4592673E-010  0.4778727E+02  0.7816164E-02  0.1312668E+00
        -11   -1    0    0    0    0  0.00000000000E+00  0.00000000000E+00  0.45593999997E+02  0.45594000000E+02  0.51100000000E-03 0.  1.
         11   -1    0    0    0    0 -0.00000000000E+00 -0.00000000000E+00 -0.45593999997E+02  0.45594000000E+02  0.51100000000E-03 0. -1.
    9900012    2    1    2    0    0 -0.15464241376E+02 -0.48538273005E+01 -0.40260664149E+02  0.47787268687E+02  0.19999989253E+02 0.  0.
        -12    1    1    2    0    0  0.15464241376E+02  0.48538273005E+01  0.40260664149E+02  0.43400731313E+02  0.00000000000E+00 0.  1.
         11    1    3    3    0    0 -0.65728554960E+01  0.88015203807E+00 -0.67281282861E+01  0.94469469924E+01  0.51100000000E-03 0. -1.
        -11    1    3    3    0    0 -0.10282524304E+02 -0.50429402997E+01 -0.11420261032E+02  0.16173556048E+02  0.51100000000E-03 0.  1.
         12    1    3    3    0    0  0.13911384246E+01 -0.69103903881E+00 -0.22112274830E+02  0.22166765647E+02  0.00000000000E+00 0. -1.
</event>
<event>
 7    1  0.4592673E-010  0.4778726E+02  0.7816164E-02  0.1312668E+00
        -11   -1    0    0    0    0  0.00000000000E+00  0.00000000000E+00  0.45593999997E+02  0.45594000000E+02  0.51100000000E-03 0. -1.
         11   -1    0    0    0    0 -0.00000000000E+00 -0.00000000000E+00 -0.45593999997E+02  0.45594000000E+02  0.51100000000E-03 0.  1.
    9900012    2    1    2    0    0  0.35330112946E+02  0.11694458526E+02  0.22330400242E+02  0.47787262495E+02  0.19999961018E+02 0.  0.
        -12    1    1    2    0    0 -0.35330112946E+02 -0.11694458526E+02 -0.22330400242E+02  0.43400737505E+02  0.00000000000E+00 0.  1.
         11    1    3    3    0    0  0.58311213287E+01 -0.29250685695E+01  0.86246933784E+01  0.10814034317E+02  0.51100000000E-03 0. -1.
        -11    1    3    3    0    0  0.16739218101E+02  0.29422386218E+01  0.77567466560E+01  0.18682219079E+02  0.51100000000E-03 0.  1.
         12    1    3    3    0    0  0.12759773516E+02  0.11677288474E+02  0.59489602079E+01  0.18291009098E+02  0.00000000000E+00 0. -1.
</event>
<event>
 7    1  0.4592673E-010  0.4778727E+02  0.7816164E-02  0.1312668E+00
        -11   -1    0    0    0    0  0.00000000000E+00  0.00000000000E+00  0.45593999997E+02  0.45594000000E+02  0.51100000000E-03 0.  1.
         11   -1    0    0    0    0 -0.00000000000E+00 -0.00000000000E+00 -0.45593999997E+02  0.45594000000E+02  0.51100000000E-03 0. -1.
    9900012    2    1    2    0    0 -0.75761184250E+01  0.70444458868E+00 -0.42728554705E+02  0.47787271898E+02  0.20000003893E+02 0.  0.
        -12    1    1    2    0    0  0.75761184250E+01 -0.70444458868E+00  0.42728554705E+02  0.43400728102E+02  0.00000000000E+00 0.  1.
         11    1    3    3    0    0 -0.80435274489E+01  0.15240511275E+00 -0.90327322477E+01  0.12095942016E+02  0.51100000000E-03 0. -1.
        -11    1    3    3    0    0 -0.30537634172E+01  0.46555087670E+01 -0.10625802113E+02  0.11996120360E+02  0.51100000000E-03 0.  1.
         12    1    3    3    0    0  0.35211724412E+01 -0.41034692911E+01 -0.23070020345E+02  0.23695209522E+02  0.00000000000E+00 0. -1.
</event>
<event>
 7    1  0.4592673E-010  0.4778727E+02  0.7816164E-02  0.1312668E+00
        -11   -1    0    0    0    0  0.00000000000E+00  0.00000000000E+00  0.45593999997E+02  0.45594000000E+02  0.51100000000E-03 0.  1.
         11   -1    0    0    0    0 -0.00000000000E+00 -0.00000000000E+00 -0.45593999997E+02  0.45594000000E+02  0.51100000000E-03 0. -1.
    9900012    2    1    2    0    0 -0.10937422531E+02 -0.19400697078E+02 -0.37250624884E+02  0.47787270594E+02  0.19999997946E+02 0.  0.
        -12    1    1    2    0    0  0.10937422531E+02  0.19400697078E+02  0.37250624884E+02  0.43400729406E+02  0.00000000000E+00 0.  1.
         11    1    3    3    0    0 -0.13919735002E+01 -0.14411981269E+02 -0.17310995078E+02  0.22567971667E+02  0.51100000000E-03 0.  1.
        -11    1    3    3    0    0 -0.94137145124E+01 -0.74899019193E+01 -0.12408410806E+02  0.17282514594E+02  0.51100000000E-03 0. -1.
        -12    1    3    3    0    0 -0.13173451864E+00  0.25011861093E+01 -0.75312189994E+01  0.79367843334E+01  0.00000000000E+00 0.  1.
</event>
<event>
 7    1  0.4592673E-010  0.4778727E+02  0.7816164E-02  0.1312668E+00
        -11   -1    0    0    0    0  0.00000000000E+00  0.00000000000E+00  0.45593999997E+02  0.45594000000E+02  0.51100000000E-03 0. -1.
         11   -1    0    0    0    0 -0.00000000000E+00 -0.00000000000E+00 -0.45593999997E+02  0.45594000000E+02  0.51100000000E-03 0.  1.
    9900012    2    1    2    0    0  0.64601571010E+01  0.15262342523E+02  0.40111725467E+02  0.47787271331E+02  0.20000001307E+02 0.  0.
        -12    1    1    2    0    0 -0.64601571010E+01 -0.15262342523E+02 -0.40111725467E+02  0.43400728669E+02  0.00000000000E+00 0.  1.
         11    1    3    3    0    0  0.36647866754E+00 -0.34853565895E+01  0.53606041256E+01  0.64045369874E+01  0.51100000000E-03 0. -1.
        -11    1    3    3    0    0 -0.20725475252E+01  0.10718918510E+02  0.15011691411E+02  0.18561830366E+02  0.51100000000E-03 0.  1.
         12    1    3    3    0    0  0.81662259586E+01  0.80287806027E+01  0.19739429931E+02  0.22820903978E+02  0.00000000000E+00 0. -1.
</event>
<event>
 7    1  0.4592673E-010  0.4778724E+02  0.7816164E-02  0.1312668E+00
        -11   -1    0    0    0    0  0.00000000000E+00  0.00000000000E+00  0.45593999997E+02  0.45594000000E+02  0.51100000000E-03 0.  1.
         11   -1    0    0    0    0 -0.00000000000E+00 -0.00000000000E+00 -0.45593999997E+02  0.45594000000E+02  0.51100000000E-03 0. -1.
    9900012    2    1    2    0    0  0.48460260514E+01  0.36330545093E+02 -0.23242928527E+02  0.47787237314E+02  0.19999846208E+02 0.  0.
        -12    1    1    2    0    0 -0.48460260514E+01 -0.36330545093E+02  0.23242928527E+02  0.43400762686E+02  0.00000000000E+00 0.  1.
         11    1    3    3    0    0  0.41137352143E+01  0.53544724951E+01 -0.76697944228E+01  0.10218558600E+02  0.51100000000E-03 0. -1.
        -11    1    3    3    0    0 -0.44649606350E+01  0.14908341723E+02 -0.13410264908E+02  0.20543362226E+02  0.51100000000E-03 0.  1.
        -12    1    3    3    0    0  0.51972514721E+01  0.16067730875E+02 -0.21628691962E+01  0.17025316487E+02  0.00000000000E+00 0.  1.
</event>
<event>
 7    1  0.4592673E-010  0.4778727E+02  0.7816164E-02  0.1312668E+00
        -11   -1    0    0    0    0  0.00000000000E+00  0.00000000000E+00  0.45593999997E+02  0.45594000000E+02  0.51100000000E-03 0. -1.
         11   -1    0    0    0    0 -0.00000000000E+00 -0.00000000000E+00 -0.45593999997E+02  0.45594000000E+02  0.51100000000E-03 0.  1.
    9900012    2    1    2    0    0 -0.18858849725E+01 -0.41106936153E+02  0.13794441114E+02  0.47787269964E+02  0.19999995073E+02 0.  0.
        -12    1    1    2    0    0  0.18858849725E+01  0.41106936153E+02 -0.13794441114E+02  0.43400730036E+02  0.00000000000E+00 0.  1.
         11    1    3    3    0    0  0.46195391639E+01 -0.12787385216E+02  0.91046513367E+01  0.16363130476E+02  0.51100000000E-03 0. -1.
        -11    1    3    3    0    0  0.20982309111E+01 -0.14530481953E+02  0.74963691244E+00  0.14700320898E+02  0.51100000000E-03 0.  1.
        -12    1    3    3    0    0 -0.86036550475E+01 -0.13789068984E+02  0.39401528651E+01  0.16723818590E+02  0.00000000000E+00 0.  1.
</event>
<event>
 7    1  0.4592673E-010  0.4778728E+02  0.7816164E-02  0.1312668E+00
        -11   -1    0    0    0    0  0.00000000000E+00  0.00000000000E+00  0.45593999997E+02  0.45594000000E+02  0.51100000000E-03 0. -1.
         11   -1    0    0    0    0 -0.00000000000E+00 -0.00000000000E+00 -0.45593999997E+02  0.45594000000E+02  0.51100000000E-03 0.  1.
    9900012    2    1    2    0    0 -0.42510077398E+02  0.40035791645E+01  0.77773504538E+01  0.47787279884E+02  0.20000040302E+02 0.  0.
        -12    1    1    2    0    0  0.42510077398E+02 -0.40035791645E+01 -0.77773504538E+01  0.43400720116E+02  0.00000000000E+00 0.  1.
         11    1    3    3    0    0 -0.30530736431E+02 -0.18055740012E+01  0.64306852575E+01  0.31252834714E+02  0.51100000000E-03 0. -1.
        -11    1    3    3    0    0 -0.11794450845E+02  0.33104736013E+01 -0.19387183296E+01  0.12402698707E+02  0.51100000000E-03 0.  1.
        -12    1    3    3    0    0 -0.18489012254E+00  0.24986795644E+01  0.32853835259E+01  0.41317464631E+01  0.00000000000E+00 0.  1.
</event>
<event>
 7    1  0.4592673E-010  0.4778727E+02  0.7816164E-02  0.1312668E+00
        -11   -1    0    0    0    0  0.00000000000E+00  0.00000000000E+00  0.45593999997E+02  0.45594000000E+02  0.51100000000E-03 0.  1.
         11   -1    0    0    0    0 -0.00000000000E+00 -0.00000000000E+00 -0.45593999997E+02  0.45594000000E+02  0.51100000000E-03 0. -1.
    9900012    2    1    2    0    0  0.55359630035E+01  0.28366896575E+02 -0.32377393740E+02  0.47787270362E+02  0.19999996890E+02 0.  0.
        -12    1    1    2    0    0 -0.55359630035E+01 -0.28366896575E+02  0.32377393740E+02  0.43400729638E+02  0.00000000000E+00 0.  1.
         11    1    3    3    0    0 -0.12501391094E+01  0.71638620530E+00 -0.56765705519E+00  0.15486419151E+01  0.51100000000E-03 0. -1.
        -11    1    3    3    0    0  0.68992989175E+01  0.52285738272E+01 -0.19089599695E+01  0.88646736119E+01  0.51100000000E-03 0.  1.
         12    1    3    3    0    0 -0.11319680464E+00  0.22421936543E+02 -0.29900776715E+02  0.37373954835E+02  0.00000000000E+00 0. -1.
</event>
<event>
 7    1  0.5068993E-010  0.4778727E+02  0.7816164E-02  0.1312668E+00
        -11   -1    0    0    0    0  0.00000000000E+00  0.00000000000E+00  0.45593999997E+02  0.45594000000E+02  0.51100000000E-03 0. -1.
         11   -1    0    0    0    0 -0.00000000000E+00 -0.00000000000E+00 -0.45593999997E+02  0.45594000000E+02  0.51100000000E-03 0.  1.
    9900012    2    1    2    0    0 -0.42912160767E+02  0.64564187305E+01 -0.69599819584E+00  0.47787270766E+02  0.19999998733E+02 0.  0.
        -12    1    1    2    0    0  0.42912160767E+02 -0.64564187305E+01  0.69599819584E+00  0.43400729234E+02  0.00000000000E+00 0.  1.
         11    1    3    3    0    0 -0.18130393157E+02  0.43918201441E+01  0.65526721088E+01  0.19772120580E+02  0.51100000000E-03 0. -1.
        -11    1    3    3    0    0 -0.17427074368E+02 -0.15639412124E-01  0.78305373717E-01  0.17427257317E+02  0.51100000000E-03 0.  1.
        -12    1    3    3    0    0 -0.73546932421E+01  0.20802379985E+01 -0.73269756784E+01  0.10587892869E+02  0.00000000000E+00 0.  1.
</event>
<event>
 7    1  0.4592673E-010  0.4778727E+02  0.7816164E-02  0.1312668E+00
        -11   -1    0    0    0    0  0.00000000000E+00  0.00000000000E+00  0.45593999997E+02  0.45594000000E+02  0.51100000000E-03 0. -1.
         11   -1    0    0    0    0 -0.00000000000E+00 -0.00000000000E+00 -0.45593999997E+02  0.45594000000E+02  0.51100000000E-03 0.  1.
    9900012    2    1    2    0    0 -0.38481609024E-01  0.38117915592E+02  0.20752023714E+02  0.47787268922E+02  0.19999990321E+02 0.  0.
        -12    1    1    2    0    0  0.38481609024E-01 -0.38117915592E+02 -0.20752023714E+02  0.43400731078E+02  0.00000000000E+00 0.  1.
         11    1    3    3    0    0 -0.32739430166E+01  0.37309020966E+02  0.19367933993E+02  0.42163949243E+02  0.51100000000E-03 0. -1.
        -11    1    3    3    0    0 -0.36905133407E+00  0.10850370002E+01 -0.80184908598E+00  0.13987374295E+01  0.51100000000E-03 0.  1.
         12    1    3    3    0    0  0.36045127417E+01 -0.27614237410E+00  0.21859388069E+01  0.42245822496E+01  0.00000000000E+00 0. -1.
</event>
<event>
 7    1  0.4592673E-010  0.4778727E+02  0.7816164E-02  0.1312668E+00
        -11   -1    0    0    0    0  0.00000000000E+00  0.00000000000E+00  0.45593999997E+02  0.45594000000E+02  0.51100000000E-03 0. -1.
         11   -1    0    0    0    0 -0.00000000000E+00 -0.00000000000E+00 -0.45593999997E+02  0.45594000000E+02  0.51100000000E-03 0.  1.
    9900012    2    1    2    0    0  0.10537869695E+01  0.39143247630E+02  0.18716810351E+02  0.47787270839E+02  0.19999999064E+02 0.  0.
        -12    1    1    2    0    0 -0.10537869695E+01 -0.39143247630E+02 -0.18716810351E+02  0.43400729161E+02  0.00000000000E+00 0.  1.
         11    1    3    3    0    0 -0.37597621334E+01  0.25673942875E+02  0.20084058682E+02  0.32812445313E+02  0.51100000000E-03 0. -1.
        -11    1    3    3    0    0  0.10034289255E+01  0.96117692826E+00  0.96655959859E+00  0.16926217577E+01  0.51100000000E-03 0.  1.
        -12    1    3    3    0    0  0.38101201774E+01  0.12508127826E+02 -0.23338079293E+01  0.13282203768E+02  0.00000000000E+00 0.  1.
</event>
<event>
 7    1  0.4592673E-010  0.4778725E+02  0.7816164E-02  0.1312668E+00
        -11   -1    0    0    0    0  0.00000000000E+00  0.00000000000E+00  0.45593999997E+02  0.45594000000E+02  0.51100000000E-03 0. -1.
         11   -1    0    0    0    0 -0.00000000000E+00 -0.00000000000E+00 -0.45593999997E+02  0.45594000000E+02  0.51100000000E-03 0.  1.
    9900012    2    1    2    0    0  0.24703267546E+01  0.43013399365E+02 -0.52316219026E+01  0.47787252231E+02  0.19999914222E+02 0.  0.
        -12    1    1    2    0    0 -0.24703267546E+01 -0.43013399365E+02  0.52316219026E+01  0.43400747769E+02  0.00000000000E+00 0.  1.
         11    1    3    3    0    0  0.27130023986E+01  0.13470697086E+02  0.70639518391E+00  0.13759326161E+02  0.51100000000E-03 0. -1.
        -11    1    3    3    0    0  0.25625748264E+01  0.18635192656E+02 -0.10878288622E+02  0.21729573366E+02  0.51100000000E-03 0.  1.
         12    1    3    3    0    0 -0.28052504704E+01  0.10907509623E+02  0.49402715360E+01  0.12298352704E+02  0.00000000000E+00 0. -1.
</event>
<event>
 7    1  0.4592673E-010  0.4778727E+02  0.7816164E-02  0.1312668E+00
        -11   -1    0    0    0    0  0.00000000000E+00  0.00000000000E+00  0.45593999997E+02  0.45594000000E+02  0.51100000000E-03 0.  1.
         11   -1    0    0    0    0 -0.00000000000E+00 -0.00000000000E+00 -0.45593999997E+02  0.45594000000E+02  0.51100000000E-03 0. -1.
    9900012    2    1    2    0    0  0.28217846503E+02 -0.32941704685E+02 -0.14902021482E+01  0.47787268771E+02  0.19999989634E+02 0.  0.
        -12    1    1    2    0    0 -0.28217846503E+02  0.32941704685E+02  0.14902021482E+01  0.43400731229E+02  0.00000000000E+00 0.  1.
         11    1    3    3    0    0  0.25204454426E+01 -0.12203976658E+01 -0.27946479093E+01  0.39562700729E+01  0.51100000000E-03 0. -1.
        -11    1    3    3    0    0  0.17922769149E+01  0.10327036188E+01 -0.23336013305E+01  0.31184016314E+01  0.51100000000E-03 0.  1.
         12    1    3    3    0    0  0.23905124145E+02 -0.32754010638E+02  0.36380470916E+01  0.40712597066E+02  0.00000000000E+00 0. -1.
</event>
<event>
 7    1  0.4592673E-010  0.4778727E+02  0.7816164E-02  0.1312668E+00
        -11   -1    0    0    0    0  0.00000000000E+00  0.00000000000E+00  0.45593999997E+02  0.45594000000E+02  0.51100000000E-03 0.  1.
         11   -1    0    0    0    0 -0.00000000000E+00 -0.00000000000E+00 -0.45593999997E+02  0.45594000000E+02  0.51100000000E-03 0. -1.
    9900012    2    1    2    0    0  0.21314946005E+02  0.17682294195E+02 -0.33416057193E+02  0.47787270404E+02  0.19999997078E+02 0.  0.
        -12    1    1    2    0    0 -0.21314946005E+02 -0.17682294195E+02  0.33416057193E+02  0.43400729596E+02  0.00000000000E+00 0.  1.
         11    1    3    3    0    0  0.11740469709E+02  0.24567402673E+01 -0.12151537423E+02  0.17074368619E+02  0.51100000000E-03 0. -1.
        -11    1    3    3    0    0  0.36444905226E+01 -0.91945681543E+00 -0.56622990873E+00  0.38010957072E+01  0.51100000000E-03 0.  1.
        -12    1    3    3    0    0  0.59299857727E+01  0.16145010743E+02 -0.20698289862E+02  0.26911806077E+02  0.00000000000E+00 0.  1.
</event>
<event>
 7    1  0.4592673E-010  0.4778727E+02  0.7816164E-02  0.1312668E+00
        -11   -1    0    0    0    0  0.00000000000E+00  0.00000000000E+00  0.45593999997E+02  0.45594000000E+02  0.51100000000E-03 0. -1.
         11   -1    0    0    0    0 -0.00000000000E+00 -0.00000000000E+00 -0.45593999997E+02  0.45594000000E+02  0.51100000000E-03 0.  1.
    9900012    2    1    2    0    0 -0.25859160599E+02  0.88933865076E+01 -0.33702150033E+02  0.47787269276E+02  0.19999991939E+02 0.  0.
        -12    1    1    2    0    0  0.25859160599E+02 -0.88933865076E+01  0.33702150033E+02  0.43400730724E+02  0.00000000000E+00 0.  1.
         11    1    3    3    0    0  0.50999333288E+00  0.67507339850E+00  0.37473563630E-01  0.84688949812E+00  0.51100000000E-03 0. -1.
        -11    1    3    3    0    0 -0.84563461171E+01  0.10758739555E+02 -0.93522201161E+01  0.16574808832E+02  0.51100000000E-03 0.  1.
         12    1    3    3    0    0 -0.17912807815E+02 -0.25404264457E+01 -0.24387403481E+02  0.30365570946E+02  0.00000000000E+00 0. -1.
</event>
<event>
 7    1  0.4592673E-010  0.4778727E+02  0.7816164E-02  0.1312668E+00
        -11   -1    0    0    0    0  0.00000000000E+00  0.00000000000E+00  0.45593999997E+02  0.45594000000E+02  0.51100000000E-03 0. -1.
         11   -1    0    0    0    0 -0.00000000000E+00 -0.00000000000E+00 -0.45593999997E+02  0.45594000000E+02  0.51100000000E-03 0.  1.
    9900012    2    1    2    0    0  0.20792897459E+02  0.17096877977E+02  0.34043733585E+02  0.47787267083E+02  0.19999981938E+02 0.  0.
        -12    1    1    2    0    0 -0.20792897459E+02 -0.17096877977E+02 -0.34043733585E+02  0.43400732917E+02  0.00000000000E+00 0.  1.
         11    1    3    3    0    0  0.59482550875E+01  0.10700073506E+02  0.91516479281E+01  0.15284828153E+02  0.51100000000E-03 0. -1.
        -11    1    3    3    0    0  0.41295563226E+01  0.58938517059E+01  0.18881269759E+02  0.20206263171E+02  0.51100000000E-03 0.  1.
         12    1    3    3    0    0  0.10715086049E+02  0.50295276547E+00  0.60108158979E+01  0.12296175759E+02  0.00000000000E+00 0. -1.
</event>
<event>
 7    1  0.4592673E-010  0.4778727E+02  0.7816164E-02  0.1312668E+00
        -11   -1    0    0    0    0  0.00000000000E+00  0.00000000000E+00  0.45593999997E+02  0.45594000000E+02  0.51100000000E-03 0.  1.
         11   -1    0    0    0    0 -0.00000000000E+00 -0.00000000000E+00 -0.45593999997E+02  0.45594000000E+02  0.51100000000E-03 0. -1.
    9900012    2    1    2    0    0 -0.18635799424E+02  0.74444877883E+01 -0.38482589558E+02  0.47787272844E+02  0.20000008204E+02 0.  0.
        -12    1    1    2    0    0  0.18635799424E+02 -0.74444877883E+01  0.38482589558E+02  0.43400727156E+02  0.00000000000E+00 0.  1.
         11    1    3    3    0    0 -0.11671464406E+02  0.12744057731E+02 -0.29330066224E+02  0.34042427554E+02  0.51100000000E-03 0. -1.
        -11    1    3    3    0    0 -0.32711165421E+01 -0.12495365374E+01 -0.70547985978E+01  0.78760223786E+01  0.51100000000E-03 0.  1.
        -12    1    3    3    0    0 -0.36932184760E+01 -0.40500334050E+01 -0.20977247367E+01  0.58688229113E+01  0.00000000000E+00 0.  1.
</event>
<event>
 7    1  0.4592673E-010  0.4778728E+02  0.7816164E-02  0.1312668E+00
        -11   -1    0    0    0    0  0.00000000000E+00  0.00000000000E+00  0.45593999997E+02  0.45594000000E+02  0.51100000000E-03 0.  1.
         11   -1    0    0    0    0 -0.00000000000E+00 -0.00000000000E+00 -0.45593999997E+02  0.45594000000E+02  0.51100000000E-03 0. -1.
    9900012    2    1    2    0    0  0.19164048781E+02 -0.37557876819E+02 -0.10284359394E+02  0.47787275064E+02  0.20000018325E+02 0.  0.
        -12    1    1    2    0    0 -0.19164048781E+02  0.37557876819E+02  0.10284359394E+02  0.43400724936E+02  0.00000000000E+00 0.  1.
         11    1    3    3    0    0  0.16188211078E+02 -0.26850984079E+02 -0.15039609607E+02  0.34773889361E+02  0.51100000000E-03 0. -1.
        -11    1    3    3    0    0  0.31855994220E+01 -0.72328787563E+01  0.11227175269E+01  0.79826733421E+01  0.51100000000E-03 0.  1.
         12    1    3    3    0    0 -0.20976171899E+00 -0.34740139837E+01  0.36325326856E+01  0.50307123600E+01  0.00000000000E+00 0. -1.
</event>
<event>
 7    1  0.4592673E-010  0.4778728E+02  0.7816164E-02  0.1312668E+00
        -11   -1    0    0    0    0  0.00000000000E+00  0.00000000000E+00  0.45593999997E+02  0.45594000000E+02  0.51100000000E-03 0.  1.
         11   -1    0    0    0    0 -0.00000000000E+00 -0.00000000000E+00 -0.45593999997E+02  0.45594000000E+02  0.51100000000E-03 0. -1.
    9900012    2    1    2    0    0  0.22906316659E+02  0.19325711616E+02 -0.31391721998E+02  0.47787277859E+02  0.20000031071E+02 0.  0.
        -12    1    1    2    0    0 -0.22906316659E+02 -0.19325711616E+02  0.31391721998E+02  0.43400722141E+02  0.00000000000E+00 0.  1.
         11    1    3    3    0    0  0.47553299511E+00  0.83118251985E+01 -0.44783905827E+01  0.94534941811E+01  0.51100000000E-03 0. -1.
        -11    1    3    3    0    0  0.71406260059E+01  0.63201085178E+01 -0.17070662679E+02  0.19553512114E+02  0.51100000000E-03 0.  1.
        -12    1    3    3    0    0  0.15290157658E+02  0.46937778996E+01 -0.98426687369E+01  0.18780271564E+02  0.00000000000E+00 0.  1.
</event>
<event>
 7    1  0.4592673E-010  0.4778728E+02  0.7816164E-02  0.1312668E+00
        -11   -1    0    0    0    0  0.00000000000E+00  0.00000000000E+00  0.45593999997E+02  0.45594000000E+02  0.51100000000E-03 0. -1.
         11   -1    0    0    0    0 -0.00000000000E+00 -0.00000000000E+00 -0.45593999997E+02  0.45594000000E+02  0.51100000000E-03 0.  1.
    9900012    2    1    2    0    0 -0.36890596654E+01 -0.26119095280E+02  0.34464569358E+02  0.47787276037E+02  0.20000022763E+02 0.  0.
        -12    1    1    2    0    0  0.36890596654E+01  0.26119095280E+02 -0.34464569358E+02  0.43400723963E+02  0.00000000000E+00 0.  1.
         11    1    3    3    0    0  0.17696892735E+01 -0.41799285113E+01  0.11385233964E+02  0.12256718776E+02  0.51100000000E-03 0. -1.
        -11    1    3    3    0    0 -0.15815665293E+01 -0.13537571842E+02  0.22440642310E+02  0.26255468604E+02  0.51100000000E-03 0.  1.
        -12    1    3    3    0    0 -0.38771824096E+01 -0.84015949261E+01  0.63869308486E+00  0.92750886571E+01  0.00000000000E+00 0.  1.
</event>
<event>
 7    1  0.4592673E-010  0.4778727E+02  0.7816164E-02  0.1312668E+00
        -11   -1    0    0    0    0  0.00000000000E+00  0.00000000000E+00  0.45593999997E+02  0.45594000000E+02  0.51100000000E-03 0.  1.
         11   -1    0    0    0    0 -0.00000000000E+00 -0.00000000000E+00 -0.45593999997E+02  0.45594000000E+02  0.51100000000E-03 0. -1.
    9900012    2    1    2    0    0 -0.96745644019E+01  0.99903444260E+01 -0.41112275747E+02  0.47787269646E+02  0.19999993625E+02 0.  0.
        -12    1    1    2    0    0  0.96745644019E+01 -0.99903444260E+01  0.41112275747E+02  0.43400730354E+02  0.00000000000E+00 0.  1.
         11    1    3    3    0    0  0.10998577601E+01 -0.28089367793E+01 -0.17840428917E+02  0.18093665110E+02  0.51100000000E-03 0. -1.
        -11    1    3    3    0    0 -0.37239915308E+01 -0.11606100556E+00 -0.45109603217E+01  0.58506705909E+01  0.51100000000E-03 0.  1.
        -12    1    3    3    0    0 -0.70504306312E+01  0.12915342211E+02 -0.18760886509E+02  0.23842933945E+02  0.00000000000E+00 0.  1.
</event>
<event>
 7    1  0.4592673E-010  0.4778727E+02  0.7816164E-02  0.1312668E+00
        -11   -1    0    0    0    0  0.00000000000E+00  0.00000000000E+00  0.45593999997E+02  0.45594000000E+02  0.51100000000E-03 0.  1.
         11   -1    0    0    0    0 -0.00000000000E+00 -0.00000000000E+00 -0.45593999997E+02  0.45594000000E+02  0.51100000000E-03 0. -1.
    9900012    2    1    2    0    0  0.94325672544E+01 -0.37878965805E+02 -0.18969283681E+02  0.47787273061E+02  0.20000009194E+02 0.  0.
        -12    1    1    2    0    0 -0.94325672544E+01  0.37878965805E+02  0.18969283681E+02  0.43400726939E+02  0.00000000000E+00 0.  1.
         11    1    3    3    0    0  0.27937474540E+01 -0.15534248347E+02 -0.95068591831E+01  0.18425478781E+02  0.51100000000E-03 0. -1.
        -11    1    3    3    0    0  0.52090666716E+01 -0.18545870741E+02 -0.21716990245E+00  0.19264756945E+02  0.51100000000E-03 0.  1.
        -12    1    3    3    0    0  0.14297531288E+01 -0.37988467174E+01 -0.92452545959E+01  0.10097037334E+02  0.00000000000E+00 0.  1.
</event>
<event>
 7    1  0.4592673E-010  0.4778728E+02  0.7816164E-02  0.1312668E+00
        -11   -1    0    0    0    0  0.00000000000E+00  0.00000000000E+00  0.45593999997E+02  0.45594000000E+02  0.51100000000E-03 0. -1.
         11   -1    0    0    0    0 -0.00000000000E+00 -0.00000000000E+00 -0.45593999997E+02  0.45594000000E+02  0.51100000000E-03 0.  1.
    9900012    2    1    2    0    0  0.16432729179E+02 -0.39040463196E+02 -0.94567639806E+01  0.47787277197E+02  0.20000028052E+02 0.  0.
        -12    1    1    2    0    0 -0.16432729179E+02  0.39040463196E+02  0.94567639806E+01  0.43400722803E+02  0.00000000000E+00 0.  1.
         11    1    3    3    0    0  0.56158824246E+01 -0.36405939208E+01 -0.29904452087E+01  0.73304039663E+01  0.51100000000E-03 0. -1.
        -11    1    3    3    0    0  0.12424651177E+02 -0.15057737703E+02 -0.27270590643E+01  0.19711526400E+02  0.51100000000E-03 0.  1.
        -12    1    3    3    0    0 -0.16078044225E+01 -0.20342131573E+02 -0.37392597076E+01  0.20745346831E+02  0.00000000000E+00 0.  1.
</event>
<event>
 7    1  0.4592673E-010  0.4778728E+02  0.7816164E-02  0.1312668E+00
        -11   -1    0    0    0    0  0.00000000000E+00  0.00000000000E+00  0.45593999997E+02  0.45594000000E+02  0.51100000000E-03 0.  1.
         11   -1    0    0    0    0 -0.00000000000E+00 -0.00000000000E+00 -0.45593999997E+02  0.45594000000E+02  0.51100000000E-03 0. -1.
    9900012    2    1    2    0    0 -0.40368444296E+02  0.56197898682E+01 -0.14914073622E+02  0.47787275063E+02  0.20000018323E+02 0.  0.
        -12    1    1    2    0    0  0.40368444296E+02 -0.56197898682E+01  0.14914073622E+02  0.43400724937E+02  0.00000000000E+00 0.  1.
         11    1    3    3    0    0 -0.13279012530E+02 -0.99166937811E+00 -0.56268215323E+00  0.13327872801E+02  0.51100000000E-03 0.  1.
        -11    1    3    3    0    0 -0.64575969742E+01 -0.45161336372E+01 -0.32900276901E+01  0.85393386262E+01  0.51100000000E-03 0. -1.
        -12    1    3    3    0    0 -0.20631834792E+02  0.11127592884E+02 -0.11061363779E+02  0.25920063636E+02  0.00000000000E+00 0.  1.
</event>
<event>
 7    1  0.4592673E-010  0.4778727E+02  0.7816164E-02  0.1312668E+00
        -11   -1    0    0    0    0  0.00000000000E+00  0.00000000000E+00  0.45593999997E+02  0.45594000000E+02  0.51100000000E-03 0.  1.
         11   -1    0    0    0    0 -0.00000000000E+00 -0.00000000000E+00 -0.45593999997E+02  0.45594000000E+02  0.51100000000E-03 0. -1.
    9900012    2    1    2    0    0 -0.20602441147E+02  0.15384802304E+02 -0.34963846077E+02  0.47787271255E+02  0.20000000958E+02 0.  0.
        -12    1    1    2    0    0  0.20602441147E+02 -0.15384802304E+02  0.34963846077E+02  0.43400728745E+02  0.00000000000E+00 0.  1.
         11    1    3    3    0    0 -0.13442514296E+02  0.34935232863E+01 -0.11098874436E+02  0.17778945682E+02  0.51100000000E-03 0. -1.
        -11    1    3    3    0    0 -0.60778393150E+01  0.49050543160E+01 -0.37044554612E+01  0.86442280804E+01  0.51100000000E-03 0.  1.
         12    1    3    3    0    0 -0.10820875357E+01  0.69862247012E+01 -0.20160516180E+02  0.21364097492E+02  0.00000000000E+00 0. -1.
</event>
<event>
 7    1  0.4592673E-010  0.4778727E+02  0.7816164E-02  0.1312668E+00
        -11   -1    0    0    0    0  0.00000000000E+00  0.00000000000E+00  0.45593999997E+02  0.45594000000E+02  0.51100000000E-03 0.  1.
         11   -1    0    0    0    0 -0.00000000000E+00 -0.00000000000E+00 -0.45593999997E+02  0.45594000000E+02  0.51100000000E-03 0. -1.
    9900012    2    1    2    0    0  0.14855342593E+02 -0.86134234403E+01 -0.39859143845E+02  0.47787267115E+02  0.19999982084E+02 0.  0.
        -12    1    1    2    0    0 -0.14855342593E+02  0.86134234403E+01  0.39859143845E+02  0.43400732885E+02  0.00000000000E+00 0.  1.
         11    1    3    3    0    0  0.67569420069E+00  0.13205473467E+01  0.31929181457E+00  0.15173514661E+01  0.51100000000E-03 0. -1.
        -11    1    3    3    0    0  0.42937063324E+01  0.17776733199E+01 -0.18698049393E+01  0.50092122408E+01  0.51100000000E-03 0.  1.
         12    1    3    3    0    0  0.98859420599E+01 -0.11711644107E+02 -0.38308630720E+02  0.41260703408E+02  0.00000000000E+00 0. -1.
</event>
<event>
 7    1  0.4592673E-010  0.4778727E+02  0.7816164E-02  0.1312668E+00
        -11   -1    0    0    0    0  0.00000000000E+00  0.00000000000E+00  0.45593999997E+02  0.45594000000E+02  0.51100000000E-03 0.  1.
         11   -1    0    0    0    0 -0.00000000000E+00 -0.00000000000E+00 -0.45593999997E+02  0.45594000000E+02  0.51100000000E-03 0. -1.
    9900012    2    1    2    0    0  0.40424639527E+02  0.98407196495E+01 -0.12354432365E+02  0.47787271398E+02  0.20000001611E+02 0.  0.
        -12    1    1    2    0    0 -0.40424639527E+02 -0.98407196495E+01  0.12354432365E+02  0.43400728602E+02  0.00000000000E+00 0.  1.
         11    1    3    3    0    0  0.22224335213E+02  0.77428892168E+01 -0.53318263699E+01  0.24130929982E+02  0.51100000000E-03 0. -1.
        -11    1    3    3    0    0  0.11420099749E+02  0.72446023804E+01 -0.68084793968E+01  0.15141279136E+02  0.51100000000E-03 0.  1.
        -12    1    3    3    0    0  0.67802045651E+01 -0.51467719476E+01 -0.21412659855E+00  0.85150622796E+01  0.00000000000E+00 0.  1.
</event>
<event>
 7    1  0.4592673E-010  0.4778727E+02  0.7816164E-02  0.1312668E+00
        -11   -1    0    0    0    0  0.00000000000E+00  0.00000000000E+00  0.45593999997E+02  0.45594000000E+02  0.51100000000E-03 0. -1.
         11   -1    0    0    0    0 -0.00000000000E+00 -0.00000000000E+00 -0.45593999997E+02  0.45594000000E+02  0.51100000000E-03 0.  1.
    9900012    2    1    2    0    0  0.17000199441E+02 -0.34171017782E+02  0.20662960916E+02  0.47787271998E+02  0.20000004349E+02 0.  0.
        -12    1    1    2    0    0 -0.17000199441E+02  0.34171017782E+02 -0.20662960916E+02  0.43400728002E+02  0.00000000000E+00 0.  1.
         11    1    3    3    0    0  0.96316386344E+01 -0.14895770882E+02  0.11233506176E+02  0.20996288106E+02  0.51100000000E-03 0. -1.
        -11    1    3    3    0    0  0.82777610731E+01 -0.21269320541E+02  0.80499345652E+01  0.24201379536E+02  0.51100000000E-03 0.  1.
        -12    1    3    3    0    0 -0.90920026692E+00  0.19940736412E+01  0.13795201748E+01  0.25896043568E+01  0.00000000000E+00 0.  1.
</event>
<event>
 7    1  0.4592673E-010  0.4778728E+02  0.7816164E-02  0.1312668E+00
        -11   -1    0    0    0    0  0.00000000000E+00  0.00000000000E+00  0.45593999997E+02  0.45594000000E+02  0.51100000000E-03 0.  1.
         11   -1    0    0    0    0 -0.00000000000E+00 -0.00000000000E+00 -0.45593999997E+02  0.45594000000E+02  0.51100000000E-03 0. -1.
    9900012    2    1    2    0    0  0.96370260003E+01  0.34532219351E+01 -0.42176122554E+02  0.47787281970E+02  0.20000049813E+02 0.  0.
        -12    1    1    2    0    0 -0.96370260003E+01 -0.34532219351E+01  0.42176122554E+02  0.43400718030E+02  0.00000000000E+00 0.  1.
         11    1    3    3    0    0  0.61882039544E+01  0.40615680707E+01 -0.26816485170E+02  0.27819311288E+02  0.51100000000E-03 0. -1.
        -11    1    3    3    0    0  0.41397849964E+01  0.53479407140E+01 -0.80971800140E+01  0.10550005409E+02  0.51100000000E-03 0.  1.
        -12    1    3    3    0    0 -0.69096295037E+00 -0.59562868496E+01 -0.72624573696E+01  0.94179652727E+01  0.00000000000E+00 0.  1.
</event>
<event>
 7    1  0.4592673E-010  0.4778727E+02  0.7816164E-02  0.1312668E+00
        -11   -1    0    0    0    0  0.00000000000E+00  0.00000000000E+00  0.45593999997E+02  0.45594000000E+02  0.51100000000E-03 0.  1.
         11   -1    0    0    0    0 -0.00000000000E+00 -0.00000000000E+00 -0.45593999997E+02  0.45594000000E+02  0.51100000000E-03 0. -1.
    9900012    2    1    2    0    0 -0.31410972047E+02 -0.27935757161E+02 -0.10796644570E+02  0.47787271584E+02  0.20000002459E+02 0.  0.
        -12    1    1    2    0    0  0.31410972047E+02  0.27935757161E+02  0.10796644570E+02  0.43400728416E+02  0.00000000000E+00 0.  1.
         11    1    3    3    0    0 -0.96569257118E+01 -0.94574835713E+01 -0.46816752891E+00  0.13524769529E+02  0.51100000000E-03 0. -1.
        -11    1    3    3    0    0  0.22651331327E+01 -0.11579985156E+01  0.73907776400E+00  0.26491555019E+01  0.51100000000E-03 0.  1.
         12    1    3    3    0    0 -0.24019179468E+02 -0.17320275074E+02 -0.11067554805E+02  0.31613346553E+02  0.00000000000E+00 0. -1.
</event>
<event>
 7    1  0.4592673E-010  0.4778727E+02  0.7816164E-02  0.1312668E+00
        -11   -1    0    0    0    0  0.00000000000E+00  0.00000000000E+00  0.45593999997E+02  0.45594000000E+02  0.51100000000E-03 0. -1.
         11   -1    0    0    0    0 -0.00000000000E+00 -0.00000000000E+00 -0.45593999997E+02  0.45594000000E+02  0.51100000000E-03 0.  1.
    9900012    2    1    2    0    0  0.14403075319E+02  0.11276921481E+02  0.39357415475E+02  0.47787266255E+02  0.19999978162E+02 0.  0.
        -12    1    1    2    0    0 -0.14403075319E+02 -0.11276921481E+02 -0.39357415475E+02  0.43400733745E+02  0.00000000000E+00 0.  1.
         11    1    3    3    0    0  0.10580285342E+02  0.27997799348E+01  0.13115206036E+02  0.17081856902E+02  0.51100000000E-03 0. -1.
        -11    1    3    3    0    0  0.37675460629E+01 -0.39659862491E+00  0.95575145864E+00  0.39070647445E+01  0.51100000000E-03 0.  1.
         12    1    3    3    0    0  0.55243913650E-01  0.88737401716E+01  0.25286457981E+02  0.26798344608E+02  0.00000000000E+00 0. -1.
</event>
<event>
 7    1  0.4592673E-010  0.4778728E+02  0.7816164E-02  0.1312668E+00
        -11   -1    0    0    0    0  0.00000000000E+00  0.00000000000E+00  0.45593999997E+02  0.45594000000E+02  0.51100000000E-03 0.  1.
         11   -1    0    0    0    0 -0.00000000000E+00 -0.00000000000E+00 -0.45593999997E+02  0.45594000000E+02  0.51100000000E-03 0. -1.
    9900012    2    1    2    0    0 -0.29102700539E+01 -0.40029641939E+01 -0.43117623169E+02  0.47787276252E+02  0.20000023743E+02 0.  0.
        -12    1    1    2    0    0  0.29102700539E+01  0.40029641939E+01  0.43117623169E+02  0.43400723748E+02  0.00000000000E+00 0.  1.
         11    1    3    3    0    0 -0.65178204875E+01 -0.26033203127E+01 -0.27876837897E+02  0.28746779854E+02  0.51100000000E-03 0. -1.
        -11    1    3    3    0    0 -0.31117989908E+01 -0.21605406447E+01 -0.22795768131E+01  0.44212780442E+01  0.51100000000E-03 0.  1.
        -12    1    3    3    0    0  0.67193494244E+01  0.76089676347E+00 -0.12961208459E+02  0.14619218354E+02  0.00000000000E+00 0.  1.
</event>
<event>
 7    1  0.4592673E-010  0.4778727E+02  0.7816164E-02  0.1312668E+00
        -11   -1    0    0    0    0  0.00000000000E+00  0.00000000000E+00  0.45593999997E+02  0.45594000000E+02  0.51100000000E-03 0.  1.
         11   -1    0    0    0    0 -0.00000000000E+00 -0.00000000000E+00 -0.45593999997E+02  0.45594000000E+02  0.51100000000E-03 0. -1.
    9900012    2    1    2    0    0 -0.27416935070E+02  0.14514442044E+02  0.30352364484E+02  0.47787269750E+02  0.19999994096E+02 0.  0.
        -12    1    1    2    0    0  0.27416935070E+02 -0.14514442044E+02 -0.30352364484E+02  0.43400730250E+02  0.00000000000E+00 0.  1.
         11    1    3    3    0    0 -0.11408996714E+02  0.74794309786E+01  0.13377102787E+02  0.19106385661E+02  0.51100000000E-03 0. -1.
        -11    1    3    3    0    0 -0.16464755751E+02  0.97207539454E+01  0.17484660166E+02  0.25909353149E+02  0.51100000000E-03 0.  1.
        -12    1    3    3    0    0  0.45681739500E+00 -0.26857428804E+01 -0.50939846834E+00  0.27715309400E+01  0.00000000000E+00 0.  1.
</event>
<event>
 7    1  0.4592673E-010  0.4778727E+02  0.7816164E-02  0.1312668E+00
        -11   -1    0    0    0    0  0.00000000000E+00  0.00000000000E+00  0.45593999997E+02  0.45594000000E+02  0.51100000000E-03 0. -1.
         11   -1    0    0    0    0 -0.00000000000E+00 -0.00000000000E+00 -0.45593999997E+02  0.45594000000E+02  0.51100000000E-03 0.  1.
    9900012    2    1    2    0    0 -0.30997248842E+02  0.23415539892E+02 -0.19352165296E+02  0.47787271367E+02  0.20000001471E+02 0.  0.
        -12    1    1    2    0    0  0.30997248842E+02 -0.23415539892E+02  0.19352165296E+02  0.43400728633E+02  0.00000000000E+00 0.  1.
         11    1    3    3    0    0 -0.12512987711E+02  0.11528480118E+02 -0.13874096420E+02  0.21953844015E+02  0.51100000000E-03 0. -1.
        -11    1    3    3    0    0  0.14251210493E+01  0.60715065710E+00 -0.22389194996E+01  0.27225654652E+01  0.51100000000E-03 0.  1.
         12    1    3    3    0    0 -0.19909382180E+02  0.11279909116E+02 -0.32391493770E+01  0.23110861887E+02  0.00000000000E+00 0. -1.
</event>
<event>
 7    1  0.4592673E-010  0.4778727E+02  0.7816164E-02  0.1312668E+00
        -11   -1    0    0    0    0  0.00000000000E+00  0.00000000000E+00  0.45593999997E+02  0.45594000000E+02  0.51100000000E-03 0.  1.
         11   -1    0    0    0    0 -0.00000000000E+00 -0.00000000000E+00 -0.45593999997E+02  0.45594000000E+02  0.51100000000E-03 0. -1.
    9900012    2    1    2    0    0 -0.27091714780E+02  0.98026688241E+01 -0.32458747599E+02  0.47787267040E+02  0.19999981740E+02 0.  0.
        -12    1    1    2    0    0  0.27091714780E+02 -0.98026688241E+01  0.32458747599E+02  0.43400732960E+02  0.00000000000E+00 0.  1.
         11    1    3    3    0    0 -0.59843602781E+01  0.72221126634E+01 -0.16110518459E+02  0.18641895948E+02  0.51100000000E-03 0. -1.
        -11    1    3    3    0    0 -0.27877162242E+00 -0.25846621277E+01 -0.24923897558E+01  0.36014162336E+01  0.51100000000E-03 0.  1.
         12    1    3    3    0    0 -0.20828582879E+02  0.51652182884E+01 -0.13855839384E+02  0.25543954858E+02  0.00000000000E+00 0. -1.
</event>
<event>
 7    1  0.4592673E-010  0.4778727E+02  0.7816164E-02  0.1312668E+00
        -11   -1    0    0    0    0  0.00000000000E+00  0.00000000000E+00  0.45593999997E+02  0.45594000000E+02  0.51100000000E-03 0. -1.
         11   -1    0    0    0    0 -0.00000000000E+00 -0.00000000000E+00 -0.45593999997E+02  0.45594000000E+02  0.51100000000E-03 0.  1.
    9900012    2    1    2    0    0  0.40393346606E+02 -0.43996568400E+01  0.15252661138E+02  0.47787273023E+02  0.20000009020E+02 0.  0.
        -12    1    1    2    0    0 -0.40393346606E+02  0.43996568400E+01 -0.15252661138E+02  0.43400726977E+02  0.00000000000E+00 0.  1.
         11    1    3    3    0    0  0.27546351397E+01  0.25752848984E+01 -0.12977132818E+01  0.39880028941E+01  0.51100000000E-03 0. -1.
        -11    1    3    3    0    0  0.25935468884E+02 -0.81572978168E+00  0.54074831867E+01  0.26505750998E+02  0.51100000000E-03 0.  1.
         12    1    3    3    0    0  0.11703242582E+02 -0.61592119567E+01  0.11142891233E+02  0.17293519130E+02  0.00000000000E+00 0. -1.
</event>
<event>
 7    1  0.4592673E-010  0.4778727E+02  0.7816164E-02  0.1312668E+00
        -11   -1    0    0    0    0  0.00000000000E+00  0.00000000000E+00  0.45593999997E+02  0.45594000000E+02  0.51100000000E-03 0.  1.
         11   -1    0    0    0    0 -0.00000000000E+00 -0.00000000000E+00 -0.45593999997E+02  0.45594000000E+02  0.51100000000E-03 0. -1.
    9900012    2    1    2    0    0 -0.32094054373E+02  0.18967350976E+02 -0.22222391619E+02  0.47787269379E+02  0.19999992406E+02 0.  0.
        -12    1    1    2    0    0  0.32094054373E+02 -0.18967350976E+02  0.22222391619E+02  0.43400730621E+02  0.00000000000E+00 0.  1.
         11    1    3    3    0    0 -0.67035412545E+01  0.73795744272E+01 -0.12412079097E+02  0.15920279264E+02  0.51100000000E-03 0. -1.
        -11    1    3    3    0    0 -0.10724020199E+02  0.11135627408E+02 -0.67934038397E+01  0.16886596548E+02  0.51100000000E-03 0.  1.
         12    1    3    3    0    0 -0.14666492920E+02  0.45214914152E+00 -0.30169086825E+01  0.14980393567E+02  0.00000000000E+00 0. -1.
</event>
<event>
 7    1  0.4592673E-010  0.4778727E+02  0.7816164E-02  0.1312668E+00
        -11   -1    0    0    0    0  0.00000000000E+00  0.00000000000E+00  0.45593999997E+02  0.45594000000E+02  0.51100000000E-03 0. -1.
         11   -1    0    0    0    0 -0.00000000000E+00 -0.00000000000E+00 -0.45593999997E+02  0.45594000000E+02  0.51100000000E-03 0.  1.
    9900012    2    1    2    0    0  0.17915186185E+02 -0.20196268516E+02  0.33982051044E+02  0.47787274762E+02  0.20000016949E+02 0.  0.
        -12    1    1    2    0    0 -0.17915186185E+02  0.20196268516E+02 -0.33982051044E+02  0.43400725238E+02  0.00000000000E+00 0.  1.
         11    1    3    3    0    0  0.13874900236E+02 -0.20608698627E+02  0.18161902949E+02  0.30774762950E+02  0.51100000000E-03 0. -1.
        -11    1    3    3    0    0  0.72401449921E+00  0.92453244441E+00  0.41395255722E+00  0.12451161458E+01  0.51100000000E-03 0.  1.
         12    1    3    3    0    0  0.33162714496E+01 -0.51210233387E+00  0.15406195538E+02  0.15767395666E+02  0.00000000000E+00 0. -1.
</event>
<event>
 7    1  0.4592673E-010  0.4778727E+02  0.7816164E-02  0.1312668E+00
        -11   -1    0    0    0    0  0.00000000000E+00  0.00000000000E+00  0.45593999997E+02  0.45594000000E+02  0.51100000000E-03 0.  1.
         11   -1    0    0    0    0 -0.00000000000E+00 -0.00000000000E+00 -0.45593999997E+02  0.45594000000E+02  0.51100000000E-03 0. -1.
    9900012    2    1    2    0    0 -0.27335792076E+02 -0.15241002631E+02 -0.30068084949E+02  0.47787269337E+02  0.19999992214E+02 0.  0.
        -12    1    1    2    0    0  0.27335792076E+02  0.15241002631E+02  0.30068084949E+02  0.43400730663E+02  0.00000000000E+00 0.  1.
         11    1    3    3    0    0  0.21332867444E+01  0.11647959055E+00 -0.17399178661E+01  0.27553210831E+01  0.51100000000E-03 0. -1.
        -11    1    3    3    0    0  0.23548098467E+00 -0.27106509783E+01 -0.22102446655E+01  0.35054617047E+01  0.51100000000E-03 0.  1.
        -12    1    3    3    0    0 -0.29704559805E+02 -0.12646831243E+02 -0.26117922418E+02  0.41526486549E+02  0.00000000000E+00 0.  1.
</event>
<event>
 7    1  0.7919605E-010  0.4778726E+02  0.7816164E-02  0.1312668E+00
        -11   -1    0    0    0    0  0.00000000000E+00  0.00000000000E+00  0.45593999997E+02  0.45594000000E+02  0.51100000000E-03 0. -1.
         11   -1    0    0    0    0 -0.00000000000E+00 -0.00000000000E+00 -0.45593999997E+02  0.45594000000E+02  0.51100000000E-03 0.  1.
    9900012    2    1    2    0    0 -0.18529823352E+01 -0.75076105942E+01  0.42706281300E+02  0.47787260111E+02  0.19999950152E+02 0.  0.
        -12    1    1    2    0    0  0.18529823352E+01  0.75076105942E+01 -0.42706281300E+02  0.43400739889E+02  0.00000000000E+00 0.  1.
         11    1    3    3    0    0  0.35502774975E+01 -0.71632487129E+01  0.23513882660E+02  0.24835846683E+02  0.51100000000E-03 0. -1.
        -11    1    3    3    0    0  0.31149298740E+01 -0.21985893910E+01  0.48763569776E+01  0.61899467739E+01  0.51100000000E-03 0.  1.
        -12    1    3    3    0    0 -0.85181897067E+01  0.18542275097E+01  0.14316041663E+02  0.16761466655E+02  0.00000000000E+00 0.  1.
</event>
<event>
 7    1  0.4592673E-010  0.4778727E+02  0.7816164E-02  0.1312668E+00
        -11   -1    0    0    0    0  0.00000000000E+00  0.00000000000E+00  0.45593999997E+02  0.45594000000E+02  0.51100000000E-03 0.  1.
         11   -1    0    0    0    0 -0.00000000000E+00 -0.00000000000E+00 -0.45593999997E+02  0.45594000000E+02  0.51100000000E-03 0. -1.
    9900012    2    1    2    0    0  0.65024394027E+00 -0.21593615648E+01 -0.43342102546E+02  0.47787268294E+02  0.19999987458E+02 0.  0.
        -12    1    1    2    0    0 -0.65024394027E+00  0.21593615648E+01  0.43342102546E+02  0.43400731706E+02  0.00000000000E+00 0.  1.
         11    1    3    3    0    0 -0.68977188667E+01  0.53799951241E+01 -0.14730567317E+02  0.17132206129E+02  0.51100000000E-03 0. -1.
        -11    1    3    3    0    0  0.23757892909E+01 -0.81363748467E+00 -0.70791339748E+01  0.75113593181E+01  0.51100000000E-03 0.  1.
         12    1    3    3    0    0  0.51721735161E+01 -0.67257192042E+01 -0.21532401254E+02  0.23143702846E+02  0.00000000000E+00 0. -1.
</event>
<event>
 7    1 -0.4592673E-010  0.4778726E+02  0.7816164E-02  0.1312668E+00
        -11   -1    0    0    0    0  0.00000000000E+00  0.00000000000E+00  0.45593999997E+02  0.45594000000E+02  0.51100000000E-03 0.  1.
         11   -1    0    0    0    0 -0.00000000000E+00 -0.00000000000E+00 -0.45593999997E+02  0.45594000000E+02  0.51100000000E-03 0. -1.
    9900012    2    1    2    0    0 -0.12634074736E+02  0.35192822603E+02 -0.22033374893E+02  0.47787260186E+02  0.19999950494E+02 0.  0.
        -12    1    1    2    0    0  0.12634074736E+02 -0.35192822603E+02  0.22033374893E+02  0.43400739814E+02  0.00000000000E+00 0.  1.
         11    1    3    3    0    0 -0.74947001022E+01  0.13248730876E+02 -0.85011279681E+01  0.17434694618E+02  0.51100000000E-03 0. -1.
        -11    1    3    3    0    0 -0.39921743871E+01  0.79321807745E+01  0.23060813718E+01  0.91746912608E+01  0.51100000000E-03 0.  1.
        -12    1    3    3    0    0 -0.11472002463E+01  0.14011910953E+02 -0.15838328296E+02  0.21177874307E+02  0.00000000000E+00 0.  1.
</event>
<event>
 7    1  0.4592673E-010  0.4778728E+02  0.7816164E-02  0.1312668E+00
        -11   -1    0    0    0    0  0.00000000000E+00  0.00000000000E+00  0.45593999997E+02  0.45594000000E+02  0.51100000000E-03 0.  1.
         11   -1    0    0    0    0 -0.00000000000E+00 -0.00000000000E+00 -0.45593999997E+02  0.45594000000E+02  0.51100000000E-03 0. -1.
    9900012    2    1    2    0    0  0.22350077660E+02 -0.28792303289E+02 -0.23560552401E+02  0.47787281924E+02  0.20000049604E+02 0.  0.
        -12    1    1    2    0    0 -0.22350077660E+02  0.28792303289E+02  0.23560552401E+02  0.43400718076E+02  0.00000000000E+00 0.  1.
         11    1    3    3    0    0  0.48373380785E+01 -0.91197136349E+01 -0.62399724666E+01  0.12062598108E+02  0.51100000000E-03 0. -1.
        -11    1    3    3    0    0  0.40864652555E+01  0.43473157876E+00 -0.94386912453E+01  0.10294517109E+02  0.51100000000E-03 0.  1.
        -12    1    3    3    0    0  0.13426274326E+02 -0.20107321233E+02 -0.78818886888E+01  0.25430166707E+02  0.00000000000E+00 0.  1.
</event>
<event>
 7    1  0.4592673E-010  0.4778727E+02  0.7816164E-02  0.1312668E+00
        -11   -1    0    0    0    0  0.00000000000E+00  0.00000000000E+00  0.45593999997E+02  0.45594000000E+02  0.51100000000E-03 0.  1.
         11   -1    0    0    0    0 -0.00000000000E+00 -0.00000000000E+00 -0.45593999997E+02  0.45594000000E+02  0.51100000000E-03 0. -1.
    9900012    2    1    2    0    0 -0.14870269173E+02 -0.40742428150E+02  0.15977706148E+01  0.47787271576E+02  0.20000002422E+02 0.  0.
        -12    1    1    2    0    0  0.14870269173E+02  0.40742428150E+02 -0.15977706148E+01  0.43400728424E+02  0.00000000000E+00 0.  1.
         11    1    3    3    0    0  0.26386035057E+00 -0.51235980235E+01 -0.22483629062E+01  0.56014297292E+01  0.51100000000E-03 0.  1.
        -11    1    3    3    0    0 -0.16297000357E+02 -0.19102303337E+02 -0.32285357456E+00  0.25111639693E+02  0.51100000000E-03 0. -1.
        -12    1    3    3    0    0  0.11628708330E+01 -0.16516526789E+02  0.41689870956E+01  0.17074202153E+02  0.00000000000E+00 0.  1.
</event>
<event>
 7    1  0.4592673E-010  0.4778727E+02  0.7816164E-02  0.1312668E+00
        -11   -1    0    0    0    0  0.00000000000E+00  0.00000000000E+00  0.45593999997E+02  0.45594000000E+02  0.51100000000E-03 0.  1.
         11   -1    0    0    0    0 -0.00000000000E+00 -0.00000000000E+00 -0.45593999997E+02  0.45594000000E+02  0.51100000000E-03 0. -1.
    9900012    2    1    2    0    0 -0.16428702296E+02 -0.15527861185E+02 -0.37048704445E+02  0.47787271514E+02  0.20000002140E+02 0.  0.
        -12    1    1    2    0    0  0.16428702296E+02  0.15527861185E+02  0.37048704445E+02  0.43400728486E+02  0.00000000000E+00 0.  1.
         11    1    3    3    0    0 -0.31762920204E+01  0.34623496863E+01 -0.70029780341E+01  0.84331724728E+01  0.51100000000E-03 0.  1.
        -11    1    3    3    0    0 -0.84501824153E+01 -0.40734365495E+01 -0.14578068096E+02  0.17335470512E+02  0.51100000000E-03 0. -1.
         12    1    3    3    0    0 -0.48022278604E+01 -0.14916774322E+02 -0.15467658314E+02  0.22018628529E+02  0.00000000000E+00 0. -1.
</event>
<event>
 7    1  0.4592673E-010  0.4778727E+02  0.7816164E-02  0.1312668E+00
        -11   -1    0    0    0    0  0.00000000000E+00  0.00000000000E+00  0.45593999997E+02  0.45594000000E+02  0.51100000000E-03 0. -1.
         11   -1    0    0    0    0 -0.00000000000E+00 -0.00000000000E+00 -0.45593999997E+02  0.45594000000E+02  0.51100000000E-03 0.  1.
    9900012    2    1    2    0    0  0.56065691565E+01  0.88506708116E+01  0.42117160495E+02  0.47787271899E+02  0.20000003898E+02 0.  0.
        -12    1    1    2    0    0 -0.56065691565E+01 -0.88506708116E+01 -0.42117160495E+02  0.43400728101E+02  0.00000000000E+00 0.  1.
         11    1    3    3    0    0 -0.58725770841E+01  0.78163908823E+01  0.16925331241E+02  0.19546098483E+02  0.51100000000E-03 0. -1.
        -11    1    3    3    0    0  0.17067458925E+01  0.23325852293E+01  0.63216335292E+01  0.69510420896E+01  0.51100000000E-03 0.  1.
         12    1    3    3    0    0  0.97724003481E+01 -0.12983053000E+01  0.18870195725E+02  0.21290131327E+02  0.00000000000E+00 0. -1.
</event>
<event>
 7    1  0.4592673E-010  0.4778727E+02  0.7816164E-02  0.1312668E+00
        -11   -1    0    0    0    0  0.00000000000E+00  0.00000000000E+00  0.45593999997E+02  0.45594000000E+02  0.51100000000E-03 0.  1.
         11   -1    0    0    0    0 -0.00000000000E+00 -0.00000000000E+00 -0.45593999997E+02  0.45594000000E+02  0.51100000000E-03 0. -1.
    9900012    2    1    2    0    0 -0.34070574379E+02 -0.12754363229E+02 -0.23667397370E+02  0.47787268230E+02  0.19999987168E+02 0.  0.
        -12    1    1    2    0    0  0.34070574379E+02  0.12754363229E+02  0.23667397370E+02  0.43400731770E+02  0.00000000000E+00 0.  1.
         11    1    3    3    0    0  0.99218055448E+00 -0.24589613681E+01 -0.30288567421E+01  0.40255293674E+01  0.51100000000E-03 0.  1.
        -11    1    3    3    0    0 -0.25823294407E+01 -0.17245754405E+01 -0.67150699146E+01  0.73982937228E+01  0.51100000000E-03 0. -1.
         12    1    3    3    0    0 -0.32480425493E+02 -0.85708264201E+01 -0.13923470713E+02  0.36363445140E+02  0.00000000000E+00 0. -1.
</event>
<event>
 7    1  0.4592673E-010  0.4778727E+02  0.7816164E-02  0.1312668E+00
        -11   -1    0    0    0    0  0.00000000000E+00  0.00000000000E+00  0.45593999997E+02  0.45594000000E+02  0.51100000000E-03 0.  1.
         11   -1    0    0    0    0 -0.00000000000E+00 -0.00000000000E+00 -0.45593999997E+02  0.45594000000E+02  0.51100000000E-03 0. -1.
    9900012    2    1    2    0    0  0.15511249659E+02 -0.79906543147E+01 -0.39738820207E+02  0.47787271276E+02  0.20000001056E+02 0.  0.
        -12    1    1    2    0    0 -0.15511249659E+02  0.79906543147E+01  0.39738820207E+02  0.43400728724E+02  0.00000000000E+00 0.  1.
         11    1    3    3    0    0 -0.25123690503E+01 -0.13240916722E+00 -0.10463935258E+02  0.10762131377E+02  0.51100000000E-03 0. -1.
        -11    1    3    3    0    0  0.70350557920E+00  0.36656568048E+00 -0.93119492564E+01  0.93456775951E+01  0.51100000000E-03 0.  1.
        -12    1    3    3    0    0  0.17320113130E+02 -0.82248108280E+01 -0.19962935692E+02  0.27679462304E+02  0.00000000000E+00 0.  1.
</event>
<event>
 7    1  0.4592673E-010  0.4778727E+02  0.7816164E-02  0.1312668E+00
        -11   -1    0    0    0    0  0.00000000000E+00  0.00000000000E+00  0.45593999997E+02  0.45594000000E+02  0.51100000000E-03 0. -1.
         11   -1    0    0    0    0 -0.00000000000E+00 -0.00000000000E+00 -0.45593999997E+02  0.45594000000E+02  0.51100000000E-03 0.  1.
    9900012    2    1    2    0    0 -0.35661215542E+02 -0.21665362428E+02  0.11937899255E+02  0.47787266577E+02  0.19999979630E+02 0.  0.
        -12    1    1    2    0    0  0.35661215542E+02  0.21665362428E+02 -0.11937899255E+02  0.43400733423E+02  0.00000000000E+00 0.  1.
         11    1    3    3    0    0 -0.56443719547E+01 -0.77319442802E+01  0.15290789324E+00  0.95741985670E+01  0.51100000000E-03 0. -1.
        -11    1    3    3    0    0 -0.59684634832E+01 -0.62194310710E+01 -0.27820705536E+01  0.90578030462E+01  0.51100000000E-03 0.  1.
         12    1    3    3    0    0 -0.24048380104E+02 -0.77139870765E+01  0.14567061915E+02  0.29155264964E+02  0.00000000000E+00 0. -1.
</event>
<event>
 7    1  0.4592673E-010  0.4778727E+02  0.7816164E-02  0.1312668E+00
        -11   -1    0    0    0    0  0.00000000000E+00  0.00000000000E+00  0.45593999997E+02  0.45594000000E+02  0.51100000000E-03 0. -1.
         11   -1    0    0    0    0 -0.00000000000E+00 -0.00000000000E+00 -0.45593999997E+02  0.45594000000E+02  0.51100000000E-03 0.  1.
    9900012    2    1    2    0    0 -0.37947786360E+01 -0.30567425186E+02  0.30575401134E+02  0.47787274408E+02  0.20000015337E+02 0.  0.
        -12    1    1    2    0    0  0.37947786360E+01  0.30567425186E+02 -0.30575401134E+02  0.43400725592E+02  0.00000000000E+00 0.  1.
         11    1    3    3    0    0  0.13468337674E+01 -0.13934056671E+02  0.78679271876E+01  0.16058523438E+02  0.51100000000E-03 0. -1.
        -11    1    3    3    0    0 -0.71410389680E+00 -0.28301601575E+01 -0.16730231226E+01  0.33643361191E+01  0.51100000000E-03 0.  1.
         12    1    3    3    0    0 -0.44275085067E+01 -0.13803208357E+02  0.24380497069E+02  0.28364414851E+02  0.00000000000E+00 0. -1.
</event>
<event>
 7    1  0.4592673E-010  0.4778727E+02  0.7816164E-02  0.1312668E+00
        -11   -1    0    0    0    0  0.00000000000E+00  0.00000000000E+00  0.45593999997E+02  0.45594000000E+02  0.51100000000E-03 0.  1.
         11   -1    0    0    0    0 -0.00000000000E+00 -0.00000000000E+00 -0.45593999997E+02  0.45594000000E+02  0.51100000000E-03 0. -1.
    9900012    2    1    2    0    0 -0.31714715835E+02  0.23083702322E+02 -0.18572631644E+02  0.47787272362E+02  0.20000006006E+02 0.  0.
        -12    1    1    2    0    0  0.31714715835E+02 -0.23083702322E+02  0.18572631644E+02  0.43400727638E+02  0.00000000000E+00 0.  1.
         11    1    3    3    0    0 -0.10714661643E+02  0.13096571694E+02 -0.10815487737E+02  0.20082304138E+02  0.51100000000E-03 0. -1.
        -11    1    3    3    0    0 -0.14387727914E+02  0.12324863984E+02 -0.82732848896E+01  0.20672596109E+02  0.51100000000E-03 0.  1.
        -12    1    3    3    0    0 -0.66123262773E+01 -0.23377333557E+01  0.51614098294E+00  0.70323721143E+01  0.00000000000E+00 0.  1.
</event>
<event>
 7    1  0.4592673E-010  0.4778727E+02  0.7816164E-02  0.1312668E+00
        -11   -1    0    0    0    0  0.00000000000E+00  0.00000000000E+00  0.45593999997E+02  0.45594000000E+02  0.51100000000E-03 0.  1.
         11   -1    0    0    0    0 -0.00000000000E+00 -0.00000000000E+00 -0.45593999997E+02  0.45594000000E+02  0.51100000000E-03 0. -1.
    9900012    2    1    2    0    0  0.95655756451E+01 -0.18222414287E+02 -0.38210818539E+02  0.47787271051E+02  0.20000000031E+02 0.  0.
        -12    1    1    2    0    0 -0.95655756451E+01  0.18222414287E+02  0.38210818539E+02  0.43400728949E+02  0.00000000000E+00 0.  1.
         11    1    3    3    0    0 -0.54065042656E+00 -0.39567589766E+00 -0.11175553852E+02  0.11195618181E+02  0.51100000000E-03 0. -1.
        -11    1    3    3    0    0 -0.27299392916E+01 -0.59648419954E+01 -0.40250452021E+01  0.76962911656E+01  0.51100000000E-03 0.  1.
        -12    1    3    3    0    0  0.12836165363E+02 -0.11861896394E+02 -0.23010219485E+02  0.28895361705E+02  0.00000000000E+00 0.  1.
</event>
<event>
 7    1  0.4592673E-010  0.4778727E+02  0.7816164E-02  0.1312668E+00
        -11   -1    0    0    0    0  0.00000000000E+00  0.00000000000E+00  0.45593999997E+02  0.45594000000E+02  0.51100000000E-03 0. -1.
         11   -1    0    0    0    0 -0.00000000000E+00 -0.00000000000E+00 -0.45593999997E+02  0.45594000000E+02  0.51100000000E-03 0.  1.
    9900012    2    1    2    0    0  0.70693897092E+01 -0.41386211819E+02 -0.10992215700E+02  0.47787267223E+02  0.19999982576E+02 0.  0.
        -12    1    1    2    0    0 -0.70693897092E+01  0.41386211819E+02  0.10992215700E+02  0.43400732777E+02  0.00000000000E+00 0.  1.
         11    1    3    3    0    0  0.13162353995E+02 -0.29250786907E+02 -0.11104148661E+02  0.33943456146E+02  0.51100000000E-03 0. -1.
        -11    1    3    3    0    0 -0.96220180664E+00 -0.43347023905E+01  0.66934375322E+00  0.44903784308E+01  0.51100000000E-03 0.  1.
         12    1    3    3    0    0 -0.51307624794E+01 -0.78007225215E+01 -0.55741079235E+00  0.93534326463E+01  0.00000000000E+00 0. -1.
</event>
<event>
 7    1  0.4592673E-010  0.4778727E+02  0.7816164E-02  0.1312668E+00
        -11   -1    0    0    0    0  0.00000000000E+00  0.00000000000E+00  0.45593999997E+02  0.45594000000E+02  0.51100000000E-03 0. -1.
         11   -1    0    0    0    0 -0.00000000000E+00 -0.00000000000E+00 -0.45593999997E+02  0.45594000000E+02  0.51100000000E-03 0.  1.
    9900012    2    1    2    0    0  0.18664509723E+01  0.33516694118E+02 -0.27509469497E+02  0.47787270331E+02  0.19999996746E+02 0.  0.
        -12    1    1    2    0    0 -0.18664509723E+01 -0.33516694118E+02  0.27509469497E+02  0.43400729669E+02  0.00000000000E+00 0.  1.
         11    1    3    3    0    0 -0.20395994706E+01  0.99197008571E+01 -0.41342884301E+01  0.10938590960E+02  0.51100000000E-03 0. -1.
        -11    1    3    3    0    0 -0.30597077811E+01 -0.64919543135E+00 -0.15493337052E+01  0.34905159511E+01  0.51100000000E-03 0.  1.
         12    1    3    3    0    0  0.69657582240E+01  0.24246188692E+02 -0.21825847361E+02  0.33358163420E+02  0.00000000000E+00 0. -1.
</event>
<event>
 7    1  0.4592673E-010  0.4778727E+02  0.7816164E-02  0.1312668E+00
        -11   -1    0    0    0    0  0.00000000000E+00  0.00000000000E+00  0.45593999997E+02  0.45594000000E+02  0.51100000000E-03 0.  1.
         11   -1    0    0    0    0 -0.00000000000E+00 -0.00000000000E+00 -0.45593999997E+02  0.45594000000E+02  0.51100000000E-03 0. -1.
    9900012    2    1    2    0    0  0.35815591018E+02  0.37680084380E-01 -0.24512555928E+02  0.47787269846E+02  0.19999994537E+02 0.  0.
        -12    1    1    2    0    0 -0.35815591018E+02 -0.37680084380E-01  0.24512555928E+02  0.43400730154E+02  0.00000000000E+00 0.  1.
         11    1    3    3    0    0  0.16855944311E+02 -0.21321653490E+01 -0.16705035925E+02  0.23827026948E+02  0.51100000000E-03 0. -1.
        -11    1    3    3    0    0  0.37713569363E+00 -0.26053400971E+01 -0.33543121776E+01  0.42639698403E+01  0.51100000000E-03 0.  1.
        -12    1    3    3    0    0  0.18582511014E+02  0.47751855304E+01 -0.44532078248E+01  0.19696273058E+02  0.00000000000E+00 0.  1.
</event>
<event>
 7    1  0.4592673E-010  0.4778728E+02  0.7816164E-02  0.1312668E+00
        -11   -1    0    0    0    0  0.00000000000E+00  0.00000000000E+00  0.45593999997E+02  0.45594000000E+02  0.51100000000E-03 0. -1.
         11   -1    0    0    0    0 -0.00000000000E+00 -0.00000000000E+00 -0.45593999997E+02  0.45594000000E+02  0.51100000000E-03 0.  1.
    9900012    2    1    2    0    0 -0.38219323983E+02  0.20516497024E+02  0.14069381616E+01  0.47787275918E+02  0.20000022220E+02 0.  0.
        -12    1    1    2    0    0  0.38219323983E+02 -0.20516497024E+02 -0.14069381616E+01  0.43400724082E+02  0.00000000000E+00 0.  1.
         11    1    3    3    0    0 -0.95532199722E+01  0.19023836175E+01  0.33856698272E+01  0.10312411731E+02  0.51100000000E-03 0. -1.
        -11    1    3    3    0    0 -0.25281127252E+02  0.83766760870E+01 -0.10734687833E+01  0.26654388624E+02  0.51100000000E-03 0.  1.
        -12    1    3    3    0    0 -0.33849767584E+01  0.10237437320E+02 -0.90526288232E+00  0.10820475563E+02  0.00000000000E+00 0.  1.
</event>
<event>
 7    1  0.4592673E-010  0.4778726E+02  0.7816164E-02  0.1312668E+00
        -11   -1    0    0    0    0  0.00000000000E+00  0.00000000000E+00  0.45593999997E+02  0.45594000000E+02  0.51100000000E-03 0.  1.
         11   -1    0    0    0    0 -0.00000000000E+00 -0.00000000000E+00 -0.45593999997E+02  0.45594000000E+02  0.51100000000E-03 0. -1.
    9900012    2    1    2    0    0 -0.29290004385E+02  0.28463585190E+02 -0.14681412725E+02  0.47787263620E+02  0.19999966148E+02 0.  0.
        -12    1    1    2    0    0  0.29290004385E+02 -0.28463585190E+02  0.14681412725E+02  0.43400736380E+02  0.00000000000E+00 0.  1.
         11    1    3    3    0    0 -0.71558476639E+01  0.65860829929E+01  0.25560128635E+01  0.10055637573E+02  0.51100000000E-03 0. -1.
        -11    1    3    3    0    0 -0.16690964600E+01 -0.16213182501E+01 -0.58161031336E+00  0.23985050925E+01  0.51100000000E-03 0.  1.
         12    1    3    3    0    0 -0.20465060261E+02  0.23498820448E+02 -0.16655815275E+02  0.35333120954E+02  0.00000000000E+00 0. -1.
</event>
<event>
 7    1  0.4592673E-010  0.4778725E+02  0.7816164E-02  0.1312668E+00
        -11   -1    0    0    0    0  0.00000000000E+00  0.00000000000E+00  0.45593999997E+02  0.45594000000E+02  0.51100000000E-03 0.  1.
         11   -1    0    0    0    0 -0.00000000000E+00 -0.00000000000E+00 -0.45593999997E+02  0.45594000000E+02  0.51100000000E-03 0. -1.
    9900012    2    1    2    0    0 -0.32025042657E+02  0.76165358200E+01 -0.28284449631E+02  0.47787250398E+02  0.19999905865E+02 0.  0.
        -12    1    1    2    0    0  0.32025042657E+02 -0.76165358200E+01  0.28284449631E+02  0.43400749602E+02  0.00000000000E+00 0.  1.
         11    1    3    3    0    0 -0.23689632214E+02  0.37000586590E+01 -0.85872801647E+01  0.25468225094E+02  0.51100000000E-03 0. -1.
        -11    1    3    3    0    0 -0.11974600718E+01 -0.11801328696E+01 -0.24734561873E+01  0.29907540830E+01  0.51100000000E-03 0.  1.
         12    1    3    3    0    0 -0.71379503710E+01  0.50966100305E+01 -0.17223713279E+02  0.19328271222E+02  0.00000000000E+00 0. -1.
</event>
<event>
 7    1  0.4592673E-010  0.4778728E+02  0.7816164E-02  0.1312668E+00
        -11   -1    0    0    0    0  0.00000000000E+00  0.00000000000E+00  0.45593999997E+02  0.45594000000E+02  0.51100000000E-03 0.  1.
         11   -1    0    0    0    0 -0.00000000000E+00 -0.00000000000E+00 -0.45593999997E+02  0.45594000000E+02  0.51100000000E-03 0. -1.
    9900012    2    1    2    0    0  0.36554902322E+02 -0.24006646365E+01 -0.23272275313E+02  0.47787275666E+02  0.20000021073E+02 0.  0.
        -12    1    1    2    0    0 -0.36554902322E+02  0.24006646365E+01  0.23272275313E+02  0.43400724334E+02  0.00000000000E+00 0.  1.
         11    1    3    3    0    0  0.15446076671E+01 -0.23535786435E+01  0.14455624937E+01  0.31646163212E+01  0.51100000000E-03 0. -1.
        -11    1    3    3    0    0  0.69049650185E+01  0.45227820784E+00  0.39216854899E+00  0.69308653079E+01  0.51100000000E-03 0.  1.
         12    1    3    3    0    0  0.28105329636E+02 -0.49936420090E+00 -0.25110006356E+02  0.37691794037E+02  0.00000000000E+00 0. -1.
</event>
<event>
 7    1  0.4592673E-010  0.4778726E+02  0.7816164E-02  0.1312668E+00
        -11   -1    0    0    0    0  0.00000000000E+00  0.00000000000E+00  0.45593999997E+02  0.45594000000E+02  0.51100000000E-03 0. -1.
         11   -1    0    0    0    0 -0.00000000000E+00 -0.00000000000E+00 -0.45593999997E+02  0.45594000000E+02  0.51100000000E-03 0.  1.
    9900012    2    1    2    0    0 -0.22720872159E+02 -0.84242235486E+01  0.36005811847E+02  0.47787261978E+02  0.19999958663E+02 0.  0.
        -12    1    1    2    0    0  0.22720872159E+02  0.84242235486E+01 -0.36005811847E+02  0.43400738022E+02  0.00000000000E+00 0.  1.
         11    1    3    3    0    0  0.13748318460E+00 -0.26171806369E+01  0.62665952519E+01  0.67925512457E+01  0.51100000000E-03 0. -1.
        -11    1    3    3    0    0  0.25649980696E+00  0.19774530422E+01 -0.58563703181E+00  0.20782405249E+01  0.51100000000E-03 0.  1.
        -12    1    3    3    0    0 -0.23114855151E+02 -0.77844959539E+01  0.30324853627E+02  0.38916470207E+02  0.00000000000E+00 0.  1.
</event>
<event>
 7    1  0.4592673E-010  0.4778727E+02  0.7816164E-02  0.1312668E+00
        -11   -1    0    0    0    0  0.00000000000E+00  0.00000000000E+00  0.45593999997E+02  0.45594000000E+02  0.51100000000E-03 0. -1.
         11   -1    0    0    0    0 -0.00000000000E+00 -0.00000000000E+00 -0.45593999997E+02  0.45594000000E+02  0.51100000000E-03 0.  1.
    9900012    2    1    2    0    0  0.12232325689E+02 -0.11771690376E+02  0.39942722614E+02  0.47787267565E+02  0.19999984137E+02 0.  0.
        -12    1    1    2    0    0 -0.12232325689E+02  0.11771690376E+02 -0.39942722614E+02  0.43400732435E+02  0.00000000000E+00 0.  1.
         11    1    3    3    0    0  0.99277277759E+00 -0.35322704847E+01  0.16640662652E+02  0.17040369313E+02  0.51100000000E-03 0. -1.
        -11    1    3    3    0    0  0.17068834308E+01 -0.84765845289E+01  0.46959830996E+01  0.98396236642E+01  0.51100000000E-03 0.  1.
         12    1    3    3    0    0  0.95326694807E+01  0.23716463786E+00  0.18606076862E+02  0.20907274588E+02  0.00000000000E+00 0. -1.
</event>
<event>
 7    1  0.4592673E-010  0.4778728E+02  0.7816164E-02  0.1312668E+00
        -11   -1    0    0    0    0  0.00000000000E+00  0.00000000000E+00  0.45593999997E+02  0.45594000000E+02  0.51100000000E-03 0.  1.
         11   -1    0    0    0    0 -0.00000000000E+00 -0.00000000000E+00 -0.45593999997E+02  0.45594000000E+02  0.51100000000E-03 0. -1.
    9900012    2    1    2    0    0  0.34852386550E+02  0.65324377243E+01 -0.25025202203E+02  0.47787281847E+02  0.20000049254E+02 0.  0.
        -12    1    1    2    0    0 -0.34852386550E+02 -0.65324377243E+01  0.25025202203E+02  0.43400718153E+02  0.00000000000E+00 0.  1.
         11    1    3    3    0    0  0.24821298047E+02  0.88434705242E+01 -0.24560072562E+02  0.36020840803E+02  0.51100000000E-03 0. -1.
        -11    1    3    3    0    0  0.14227271865E+00  0.31984042542E+00 -0.14450350298E+01  0.14868308319E+01  0.51100000000E-03 0.  1.
        -12    1    3    3    0    0  0.98888157842E+01 -0.26308732253E+01  0.97990538851E+00  0.10279610212E+02  0.00000000000E+00 0.  1.
</event>
<event>
 7    1  0.4592673E-010  0.4778727E+02  0.7816164E-02  0.1312668E+00
        -11   -1    0    0    0    0  0.00000000000E+00  0.00000000000E+00  0.45593999997E+02  0.45594000000E+02  0.51100000000E-03 0. -1.
         11   -1    0    0    0    0 -0.00000000000E+00 -0.00000000000E+00 -0.45593999997E+02  0.45594000000E+02  0.51100000000E-03 0.  1.
    9900012    2    1    2    0    0 -0.10111118157E+02  0.19052484744E+02  0.37661539685E+02  0.47787268938E+02  0.19999990395E+02 0.  0.
        -12    1    1    2    0    0  0.10111118157E+02 -0.19052484744E+02 -0.37661539685E+02  0.43400731062E+02  0.00000000000E+00 0.  1.
         11    1    3    3    0    0 -0.27845044856E+01  0.52433980179E+01  0.14965961267E+02  0.16100518156E+02  0.51100000000E-03 0. -1.
        -11    1    3    3    0    0 -0.73405717814E+00  0.58471327067E+00  0.14994507934E+02  0.15023847643E+02  0.51100000000E-03 0.  1.
        -12    1    3    3    0    0 -0.65925564933E+01  0.13224373455E+02  0.77010704837E+01  0.16662903138E+02  0.00000000000E+00 0.  1.
</event>
<event>
 7    1  0.4592673E-010  0.4778729E+02  0.7816164E-02  0.1312668E+00
        -11   -1    0    0    0    0  0.00000000000E+00  0.00000000000E+00  0.45593999997E+02  0.45594000000E+02  0.51100000000E-03 0. -1.
         11   -1    0    0    0    0 -0.00000000000E+00 -0.00000000000E+00 -0.45593999997E+02  0.45594000000E+02  0.51100000000E-03 0.  1.
    9900012    2    1    2    0    0  0.49378721422E+01 -0.28914082275E+02  0.31987731963E+02  0.47787288817E+02  0.20000081032E+02 0.  0.
        -12    1    1    2    0    0 -0.49378721422E+01  0.28914082275E+02 -0.31987731963E+02  0.43400711183E+02  0.00000000000E+00 0.  1.
         11    1    3    3    0    0  0.39341661546E+01  0.36745658093E+00  0.91055936405E+01  0.99259520187E+01  0.51100000000E-03 0. -1.
        -11    1    3    3    0    0  0.70661544397E+00 -0.59347763140E+01  0.14106179472E+01  0.61409053515E+01  0.51100000000E-03 0.  1.
        -12    1    3    3    0    0  0.29709054357E+00 -0.23346762542E+02  0.21471520375E+02  0.31720431447E+02  0.00000000000E+00 0.  1.
</event>
<event>
 7    1  0.4592673E-010  0.4778727E+02  0.7816164E-02  0.1312668E+00
        -11   -1    0    0    0    0  0.00000000000E+00  0.00000000000E+00  0.45593999997E+02  0.45594000000E+02  0.51100000000E-03 0. -1.
         11   -1    0    0    0    0 -0.00000000000E+00 -0.00000000000E+00 -0.45593999997E+02  0.45594000000E+02  0.51100000000E-03 0.  1.
    9900012    2    1    2    0    0  0.30836029767E+02 -0.28871651670E+02 -0.99594381735E+01  0.47787269469E+02  0.19999992815E+02 0.  0.
        -12    1    1    2    0    0 -0.30836029767E+02  0.28871651670E+02  0.99594381735E+01  0.43400730531E+02  0.00000000000E+00 0.  1.
         11    1    3    3    0    0  0.96841681630E+00  0.11515345918E+00  0.34361673992E+01  0.35718815918E+01  0.51100000000E-03 0.  1.
        -11    1    3    3    0    0  0.11500623771E+02 -0.71515455799E+01 -0.32013991195E+01  0.13916102468E+02  0.51100000000E-03 0. -1.
        -12    1    3    3    0    0  0.18366989179E+02 -0.21835259549E+02 -0.10194206453E+02  0.30299285409E+02  0.00000000000E+00 0.  1.
</event>
<event>
 7    1  0.4592673E-010  0.4778727E+02  0.7816164E-02  0.1312668E+00
        -11   -1    0    0    0    0  0.00000000000E+00  0.00000000000E+00  0.45593999997E+02  0.45594000000E+02  0.51100000000E-03 0.  1.
         11   -1    0    0    0    0 -0.00000000000E+00 -0.00000000000E+00 -0.45593999997E+02  0.45594000000E+02  0.51100000000E-03 0. -1.
    9900012    2    1    2    0    0  0.47619860093E+01 -0.24725002481E+02 -0.35349982044E+02  0.47787268567E+02  0.19999988705E+02 0.  0.
        -12    1    1    2    0    0 -0.47619860093E+01  0.24725002481E+02  0.35349982044E+02  0.43400731433E+02  0.00000000000E+00 0.  1.
         11    1    3    3    0    0  0.17030325082E+01 -0.11309883386E+02 -0.24143161778E+02  0.26715277330E+02  0.51100000000E-03 0. -1.
        -11    1    3    3    0    0  0.33390658984E+01  0.76825483203E+00 -0.91682378401E+00  0.35468496829E+01  0.51100000000E-03 0.  1.
         12    1    3    3    0    0 -0.28011239729E+00 -0.14183373927E+02 -0.10289996482E+02  0.17525141555E+02  0.00000000000E+00 0. -1.
</event>
<event>
 7    1  0.4592673E-010  0.4778727E+02  0.7816164E-02  0.1312668E+00
        -11   -1    0    0    0    0  0.00000000000E+00  0.00000000000E+00  0.45593999997E+02  0.45594000000E+02  0.51100000000E-03 0. -1.
         11   -1    0    0    0    0 -0.00000000000E+00 -0.00000000000E+00 -0.45593999997E+02  0.45594000000E+02  0.51100000000E-03 0.  1.
    9900012    2    1    2    0    0  0.29529889333E+02 -0.29811236547E+02  0.11085989415E+02  0.47787270170E+02  0.19999996012E+02 0.  0.
        -12    1    1    2    0    0 -0.29529889333E+02  0.29811236547E+02 -0.11085989415E+02  0.43400729830E+02  0.00000000000E+00 0.  1.
         11    1    3    3    0    0  0.82462545540E+01 -0.12607792871E+02  0.61199326044E+01  0.16260711257E+02  0.51100000000E-03 0. -1.
        -11    1    3    3    0    0  0.22277080904E+02 -0.17550599247E+02  0.20587673207E+01  0.28434668816E+02  0.51100000000E-03 0.  1.
        -12    1    3    3    0    0 -0.99344612502E+00  0.34715557069E+00  0.29072894897E+01  0.30918900968E+01  0.00000000000E+00 0.  1.
</event>
<event>
 7    1  0.4592673E-010  0.4778727E+02  0.7816164E-02  0.1312668E+00
        -11   -1    0    0    0    0  0.00000000000E+00  0.00000000000E+00  0.45593999997E+02  0.45594000000E+02  0.51100000000E-03 0.  1.
         11   -1    0    0    0    0 -0.00000000000E+00 -0.00000000000E+00 -0.45593999997E+02  0.45594000000E+02  0.51100000000E-03 0. -1.
    9900012    2    1    2    0    0 -0.29882995075E+01 -0.21250889191E+02 -0.37723906557E+02  0.47787270153E+02  0.19999995934E+02 0.  0.
        -12    1    1    2    0    0  0.29882995075E+01  0.21250889191E+02  0.37723906557E+02  0.43400729847E+02  0.00000000000E+00 0.  1.
         11    1    3    3    0    0  0.41264857086E+00  0.54561279935E+00 -0.96199702708E+01  0.96442625660E+01  0.51100000000E-03 0. -1.
        -11    1    3    3    0    0  0.50947996685E+01 -0.87598404158E+01 -0.95117660728E+01  0.13898398536E+02  0.51100000000E-03 0.  1.
        -12    1    3    3    0    0 -0.84957477469E+01 -0.13036661575E+02 -0.18592170213E+02  0.24244609051E+02  0.00000000000E+00 0.  1.
</event>
<event>
 7    1  0.4592673E-010  0.4778728E+02  0.7816164E-02  0.1312668E+00
        -11   -1    0    0    0    0  0.00000000000E+00  0.00000000000E+00  0.45593999997E+02  0.45594000000E+02  0.51100000000E-03 0. -1.
         11   -1    0    0    0    0 -0.00000000000E+00 -0.00000000000E+00 -0.45593999997E+02  0.45594000000E+02  0.51100000000E-03 0.  1.
    9900012    2    1    2    0    0  0.23941039470E+02 -0.10575573488E+02  0.34620898728E+02  0.47787277031E+02  0.20000027295E+02 0.  0.
        -12    1    1    2    0    0 -0.23941039470E+02  0.10575573488E+02 -0.34620898728E+02  0.43400722969E+02  0.00000000000E+00 0.  1.
         11    1    3    3    0    0  0.11995752554E+01 -0.62972167933E+00  0.12752806285E+02  0.12824570113E+02  0.51100000000E-03 0. -1.
        -11    1    3    3    0    0  0.14534270476E+02 -0.27634638115E+01  0.18203342762E+02  0.23457268351E+02  0.51100000000E-03 0.  1.
        -12    1    3    3    0    0  0.82071937380E+01 -0.71823879967E+01  0.36647496814E+01  0.11505438567E+02  0.00000000000E+00 0.  1.
</event>
<event>
 7    1  0.4592673E-010  0.4778728E+02  0.7816164E-02  0.1312668E+00
        -11   -1    0    0    0    0  0.00000000000E+00  0.00000000000E+00  0.45593999997E+02  0.45594000000E+02  0.51100000000E-03 0.  1.
         11   -1    0    0    0    0 -0.00000000000E+00 -0.00000000000E+00 -0.45593999997E+02  0.45594000000E+02  0.51100000000E-03 0. -1.
    9900012    2    1    2    0    0  0.22816741135E+02  0.36876428286E+02  0.17743198706E+01  0.47787275926E+02  0.20000022259E+02 0.  0.
        -12    1    1    2    0    0 -0.22816741135E+02 -0.36876428286E+02 -0.17743198706E+01  0.43400724074E+02  0.00000000000E+00 0.  1.
         11    1    3    3    0    0  0.54181152902E+01  0.26034725730E+01 -0.45802648370E+01  0.75573056690E+01  0.51100000000E-03 0. -1.
        -11    1    3    3    0    0  0.77939809909E+01  0.15590046336E+02 -0.21595617380E+01  0.17563012031E+02  0.51100000000E-03 0.  1.
        -12    1    3    3    0    0  0.96046448535E+01  0.18682909377E+02  0.85141464456E+01  0.22666958226E+02  0.00000000000E+00 0.  1.
</event>
<event>
 7    1  0.4592673E-010  0.4778727E+02  0.7816164E-02  0.1312668E+00
        -11   -1    0    0    0    0  0.00000000000E+00  0.00000000000E+00  0.45593999997E+02  0.45594000000E+02  0.51100000000E-03 0. -1.
         11   -1    0    0    0    0 -0.00000000000E+00 -0.00000000000E+00 -0.45593999997E+02  0.45594000000E+02  0.51100000000E-03 0.  1.
    9900012    2    1    2    0    0 -0.26928865359E+02 -0.31072021105E+02  0.13892036771E+02  0.47787274537E+02  0.20000015922E+02 0.  0.
        -12    1    1    2    0    0  0.26928865359E+02  0.31072021105E+02 -0.13892036771E+02  0.43400725463E+02  0.00000000000E+00 0.  1.
         11    1    3    3    0    0 -0.45013960212E+01 -0.85189221168E+01 -0.19701515694E+01  0.98344342816E+01  0.51100000000E-03 0. -1.
        -11    1    3    3    0    0 -0.75034575551E+01 -0.63120278141E+01 -0.14519392744E+01  0.99121994696E+01  0.51100000000E-03 0.  1.
         12    1    3    3    0    0 -0.14924011783E+02 -0.16241071174E+02  0.17314127615E+02  0.28040640785E+02  0.00000000000E+00 0. -1.
</event>
<event>
 7    1  0.4592673E-010  0.4778727E+02  0.7816164E-02  0.1312668E+00
        -11   -1    0    0    0    0  0.00000000000E+00  0.00000000000E+00  0.45593999997E+02  0.45594000000E+02  0.51100000000E-03 0.  1.
         11   -1    0    0    0    0 -0.00000000000E+00 -0.00000000000E+00 -0.45593999997E+02  0.45594000000E+02  0.51100000000E-03 0. -1.
    9900012    2    1    2    0    0 -0.24996573849E+02  0.34677473918E+01 -0.35309620173E+02  0.47787271286E+02  0.20000001101E+02 0.  0.
        -12    1    1    2    0    0  0.24996573849E+02 -0.34677473918E+01  0.35309620173E+02  0.43400728714E+02  0.00000000000E+00 0.  1.
         11    1    3    3    0    0 -0.36921485282E+01  0.14927651888E+01  0.18358839135E+00  0.39867296901E+01  0.51100000000E-03 0. -1.
        -11    1    3    3    0    0 -0.11184556257E+02  0.35458099911E+01 -0.73335620387E+01  0.13836480752E+02  0.51100000000E-03 0.  1.
         12    1    3    3    0    0 -0.10119869063E+02 -0.15708277880E+01 -0.28159646526E+02  0.29964060844E+02  0.00000000000E+00 0. -1.
</event>
<event>
 7    1  0.4592673E-010  0.4778727E+02  0.7816164E-02  0.1312668E+00
        -11   -1    0    0    0    0  0.00000000000E+00  0.00000000000E+00  0.45593999997E+02  0.45594000000E+02  0.51100000000E-03 0.  1.
         11   -1    0    0    0    0 -0.00000000000E+00 -0.00000000000E+00 -0.45593999997E+02  0.45594000000E+02  0.51100000000E-03 0. -1.
    9900012    2    1    2    0    0 -0.16145399900E+02 -0.40284899648E+02  0.27583575922E+00  0.47787272322E+02  0.20000005827E+02 0.  0.
        -12    1    1    2    0    0  0.16145399900E+02  0.40284899648E+02 -0.27583575922E+00  0.43400727678E+02  0.00000000000E+00 0.  1.
         11    1    3    3    0    0 -0.37053697785E-01 -0.12310793455E+02  0.31178487564E+01  0.12699527141E+02  0.51100000000E-03 0. -1.
        -11    1    3    3    0    0 -0.92047498114E+00 -0.16184586455E+01  0.35464828102E+01  0.40055240809E+01  0.51100000000E-03 0.  1.
         12    1    3    3    0    0 -0.15187871221E+02 -0.26355647548E+02 -0.63884958074E+01  0.31082221101E+02  0.00000000000E+00 0. -1.
</event>
<event>
 7    1  0.4592673E-010  0.4778727E+02  0.7816164E-02  0.1312668E+00
        -11   -1    0    0    0    0  0.00000000000E+00  0.00000000000E+00  0.45593999997E+02  0.45594000000E+02  0.51100000000E-03 0. -1.
         11   -1    0    0    0    0 -0.00000000000E+00 -0.00000000000E+00 -0.45593999997E+02  0.45594000000E+02  0.51100000000E-03 0.  1.
    9900012    2    1    2    0    0  0.21414951831E+02  0.60371883546E+00  0.37744656574E+02  0.47787265694E+02  0.19999975607E+02 0.  0.
        -12    1    1    2    0    0 -0.21414951831E+02 -0.60371883546E+00 -0.37744656574E+02  0.43400734306E+02  0.00000000000E+00 0.  1.
         11    1    3    3    0    0 -0.13057568062E+01  0.15918195215E+01  0.36786384307E+01  0.42155985566E+01  0.51100000000E-03 0. -1.
        -11    1    3    3    0    0  0.45790540079E+01 -0.67259877461E+01  0.10442299071E+02  0.13238136460E+02  0.51100000000E-03 0.  1.
        -12    1    3    3    0    0  0.18141654629E+02  0.57378870600E+01  0.23623719072E+02  0.30333530678E+02  0.00000000000E+00 0.  1.
</event>
<event>
 7    1  0.4592673E-010  0.4778728E+02  0.7816164E-02  0.1312668E+00
        -11   -1    0    0    0    0  0.00000000000E+00  0.00000000000E+00  0.45593999997E+02  0.45594000000E+02  0.51100000000E-03 0.  1.
         11   -1    0    0    0    0 -0.00000000000E+00 -0.00000000000E+00 -0.45593999997E+02  0.45594000000E+02  0.51100000000E-03 0. -1.
    9900012    2    1    2    0    0  0.17184958252E+02  0.17454179602E+02 -0.35828078857E+02  0.47787280993E+02  0.20000045361E+02 0.  0.
        -12    1    1    2    0    0 -0.17184958252E+02 -0.17454179602E+02  0.35828078857E+02  0.43400719007E+02  0.00000000000E+00 0.  1.
         11    1    3    3    0    0  0.86890624730E+00  0.89009258645E+01 -0.53080999218E+01  0.10399875208E+02  0.51100000000E-03 0. -1.
        -11    1    3    3    0    0  0.61881821205E+01  0.21247617268E+00 -0.29583859424E+01  0.68622730728E+01  0.51100000000E-03 0.  1.
         12    1    3    3    0    0  0.10127869884E+02  0.83407775644E+01 -0.27561592993E+02  0.30525132712E+02  0.00000000000E+00 0. -1.
</event>
<event>
 7    1  0.4592673E-010  0.4778727E+02  0.7816164E-02  0.1312668E+00
        -11   -1    0    0    0    0  0.00000000000E+00  0.00000000000E+00  0.45593999997E+02  0.45594000000E+02  0.51100000000E-03 0.  1.
         11   -1    0    0    0    0 -0.00000000000E+00 -0.00000000000E+00 -0.45593999997E+02  0.45594000000E+02  0.51100000000E-03 0. -1.
    9900012    2    1    2    0    0 -0.13802238874E+02 -0.34901193579E+02 -0.21795142805E+02  0.47787270040E+02  0.19999995421E+02 0.  0.
        -12    1    1    2    0    0  0.13802238874E+02  0.34901193579E+02  0.21795142805E+02  0.43400729960E+02  0.00000000000E+00 0.  1.
         11    1    3    3    0    0  0.12384198508E+01 -0.65622306798E+01  0.61573321145E+00  0.67063911957E+01  0.51100000000E-03 0.  1.
        -11    1    3    3    0    0 -0.12672605110E+02 -0.29257851194E+02 -0.20937515327E+02  0.38144414075E+02  0.51100000000E-03 0. -1.
         12    1    3    3    0    0 -0.23680536146E+01  0.91888829540E+00 -0.14733606893E+01  0.29364647694E+01  0.00000000000E+00 0. -1.
</event>
<event>
 7    1  0.4592673E-010  0.4778726E+02  0.7816164E-02  0.1312668E+00
        -11   -1    0    0    0    0  0.00000000000E+00  0.00000000000E+00  0.45593999997E+02  0.45594000000E+02  0.51100000000E-03 0.  1.
         11   -1    0    0    0    0 -0.00000000000E+00 -0.00000000000E+00 -0.45593999997E+02  0.45594000000E+02  0.51100000000E-03 0. -1.
    9900012    2    1    2    0    0 -0.39362342281E+01 -0.38158731298E+02 -0.20298798412E+02  0.47787263472E+02  0.19999965474E+02 0.  0.
        -12    1    1    2    0    0  0.39362342281E+01  0.38158731298E+02  0.20298798412E+02  0.43400736528E+02  0.00000000000E+00 0.  1.
         11    1    3    3    0    0 -0.71199531948E+00 -0.34447997022E+01 -0.44761483571E+01  0.56929330489E+01  0.51100000000E-03 0. -1.
        -11    1    3    3    0    0  0.45820843506E+01 -0.20804167423E+01 -0.42925882364E+01  0.66143741085E+01  0.51100000000E-03 0.  1.
        -12    1    3    3    0    0 -0.78063232593E+01 -0.32633514854E+02 -0.11530061818E+02  0.35479956315E+02  0.00000000000E+00 0.  1.
</event>
<event>
 7    1  0.4592673E-010  0.4778728E+02  0.7816164E-02  0.1312668E+00
        -11   -1    0    0    0    0  0.00000000000E+00  0.00000000000E+00  0.45593999997E+02  0.45594000000E+02  0.51100000000E-03 0.  1.
         11   -1    0    0    0    0 -0.00000000000E+00 -0.00000000000E+00 -0.45593999997E+02  0.45594000000E+02  0.51100000000E-03 0. -1.
    9900012    2    1    2    0    0  0.28249743552E+02 -0.62269569289E+01 -0.32354284371E+02  0.47787277420E+02  0.20000029066E+02 0.  0.
        -12    1    1    2    0    0 -0.28249743552E+02  0.62269569289E+01  0.32354284371E+02  0.43400722580E+02  0.00000000000E+00 0.  1.
         11    1    3    3    0    0  0.17427900676E+02  0.19692310983E+01 -0.12999620788E+02  0.21831164283E+02  0.51100000000E-03 0. -1.
        -11    1    3    3    0    0  0.32712919570E+01  0.10662388861E+01 -0.28618512362E+00  0.34525524784E+01  0.51100000000E-03 0.  1.
         12    1    3    3    0    0  0.75505509192E+01 -0.92624269132E+01 -0.19068478460E+02  0.22503560658E+02  0.00000000000E+00 0. -1.
</event>
<event>
 7    1  0.4592673E-010  0.4778727E+02  0.7816164E-02  0.1312668E+00
        -11   -1    0    0    0    0  0.00000000000E+00  0.00000000000E+00  0.45593999997E+02  0.45594000000E+02  0.51100000000E-03 0.  1.
         11   -1    0    0    0    0 -0.00000000000E+00 -0.00000000000E+00 -0.45593999997E+02  0.45594000000E+02  0.51100000000E-03 0. -1.
    9900012    2    1    2    0    0 -0.26739045331E+02 -0.17793036861E+02 -0.29189981444E+02  0.47787265874E+02  0.19999976426E+02 0.  0.
        -12    1    1    2    0    0  0.26739045331E+02  0.17793036861E+02  0.29189981444E+02  0.43400734126E+02  0.00000000000E+00 0.  1.
         11    1    3    3    0    0  0.15834298994E+01 -0.86282766775E+00 -0.64848270221E+00  0.19163120588E+01  0.51100000000E-03 0.  1.
        -11    1    3    3    0    0 -0.11383098422E+02 -0.35260219101E+00 -0.49114618209E+01  0.12402488277E+02  0.51100000000E-03 0. -1.
         12    1    3    3    0    0 -0.16939376809E+02 -0.16577607002E+02 -0.23630036921E+02  0.33468465538E+02  0.00000000000E+00 0. -1.
</event>
<event>
 7    1  0.4592673E-010  0.4778727E+02  0.7816164E-02  0.1312668E+00
        -11   -1    0    0    0    0  0.00000000000E+00  0.00000000000E+00  0.45593999997E+02  0.45594000000E+02  0.51100000000E-03 0.  1.
         11   -1    0    0    0    0 -0.00000000000E+00 -0.00000000000E+00 -0.45593999997E+02  0.45594000000E+02  0.51100000000E-03 0. -1.
    9900012    2    1    2    0    0 -0.48938157265E+01  0.25341565759E+02 -0.34892389189E+02  0.47787271772E+02  0.20000003315E+02 0.  0.
        -12    1    1    2    0    0  0.48938157265E+01 -0.25341565759E+02  0.34892389189E+02  0.43400728228E+02  0.00000000000E+00 0.  1.
         11    1    3    3    0    0 -0.40203798859E+01  0.14258381279E+00 -0.38264601483E+01  0.55520790789E+01  0.51100000000E-03 0. -1.
        -11    1    3    3    0    0  0.62001280617E+00 -0.21209020796E+00  0.10605206203E+01  0.12466364279E+01  0.51100000000E-03 0.  1.
         12    1    3    3    0    0 -0.14934486468E+01  0.25411072154E+02 -0.32126449661E+02  0.40988556265E+02  0.00000000000E+00 0. -1.
</event>
<event>
 7    1  0.4592673E-010  0.4778727E+02  0.7816164E-02  0.1312668E+00
        -11   -1    0    0    0    0  0.00000000000E+00  0.00000000000E+00  0.45593999997E+02  0.45594000000E+02  0.51100000000E-03 0. -1.
         11   -1    0    0    0    0 -0.00000000000E+00 -0.00000000000E+00 -0.45593999997E+02  0.45594000000E+02  0.51100000000E-03 0.  1.
    9900012    2    1    2    0    0  0.43886205340E+01  0.43161395572E+02 -0.12070483663E+01  0.47787273927E+02  0.20000013144E+02 0.  0.
        -12    1    1    2    0    0 -0.43886205340E+01 -0.43161395572E+02  0.12070483663E+01  0.43400726073E+02  0.00000000000E+00 0.  1.
         11    1    3    3    0    0  0.39749813076E+01  0.14275756155E+02  0.32777740451E+01  0.15177005408E+02  0.51100000000E-03 0. -1.
        -11    1    3    3    0    0  0.35652200704E+01  0.93963187294E+01  0.43872985041E+01  0.10965855564E+02  0.51100000000E-03 0.  1.
        -12    1    3    3    0    0 -0.31515808441E+01  0.19489320687E+02 -0.88721209155E+01  0.21644412956E+02  0.00000000000E+00 0.  1.
</event>
<event>
 7    1  0.4592673E-010  0.4778727E+02  0.7816164E-02  0.1312668E+00
        -11   -1    0    0    0    0  0.00000000000E+00  0.00000000000E+00  0.45593999997E+02  0.45594000000E+02  0.51100000000E-03 0. -1.
         11   -1    0    0    0    0 -0.00000000000E+00 -0.00000000000E+00 -0.45593999997E+02  0.45594000000E+02  0.51100000000E-03 0.  1.
    9900012    2    1    2    0    0  0.19830762140E+02 -0.11999525610E+02  0.36692988081E+02  0.47787272861E+02  0.20000008280E+02 0.  0.
        -12    1    1    2    0    0 -0.19830762140E+02  0.11999525610E+02 -0.36692988081E+02  0.43400727139E+02  0.00000000000E+00 0.  1.
         11    1    3    3    0    0  0.12567398616E+01 -0.92842831214E+01  0.13419631180E+02  0.16366545434E+02  0.51100000000E-03 0.  1.
        -11    1    3    3    0    0 -0.21641052372E+00  0.16597833684E+01  0.98537051999E+00  0.19423361366E+01  0.51100000000E-03 0. -1.
        -12    1    3    3    0    0  0.18790432803E+02 -0.43750258567E+01  0.22287986381E+02  0.29478391290E+02  0.00000000000E+00 0.  1.
</event>
<event>
 7    1  0.4592673E-010  0.4778727E+02  0.7816164E-02  0.1312668E+00
        -11   -1    0    0    0    0  0.00000000000E+00  0.00000000000E+00  0.45593999997E+02  0.45594000000E+02  0.51100000000E-03 0.  1.
         11   -1    0    0    0    0 -0.00000000000E+00 -0.00000000000E+00 -0.45593999997E+02  0.45594000000E+02  0.51100000000E-03 0. -1.
    9900012    2    1    2    0    0  0.45157504820E+01 -0.18279304421E+02 -0.39103687763E+02  0.47787269946E+02  0.19999994992E+02 0.  0.
        -12    1    1    2    0    0 -0.45157504820E+01  0.18279304421E+02  0.39103687763E+02  0.43400730054E+02  0.00000000000E+00 0.  1.
         11    1    3    3    0    0 -0.39700329585E+01 -0.49156978233E+01 -0.38471308597E+01  0.73976795615E+01  0.51100000000E-03 0. -1.
        -11    1    3    3    0    0  0.35484825288E+01  0.11451493694E+01 -0.34350626834E+01  0.50697880859E+01  0.51100000000E-03 0.  1.
         12    1    3    3    0    0  0.49373009117E+01 -0.14508755967E+02 -0.31821494220E+02  0.35319802299E+02  0.00000000000E+00 0. -1.
</event>
<event>
 7    1  0.4592673E-010  0.4778727E+02  0.7816164E-02  0.1312668E+00
        -11   -1    0    0    0    0  0.00000000000E+00  0.00000000000E+00  0.45593999997E+02  0.45594000000E+02  0.51100000000E-03 0. -1.
         11   -1    0    0    0    0 -0.00000000000E+00 -0.00000000000E+00 -0.45593999997E+02  0.45594000000E+02  0.51100000000E-03 0.  1.
    9900012    2    1    2    0    0 -0.18695013855E+01 -0.24871830499E+02  0.35517885919E+02  0.47787271804E+02  0.20000003464E+02 0.  0.
        -12    1    1    2    0    0  0.18695013855E+01  0.24871830499E+02 -0.35517885919E+02  0.43400728196E+02  0.00000000000E+00 0.  1.
         11    1    3    3    0    0 -0.12242442168E+01  0.13449430009E+00  0.81136233925E+01  0.82065673357E+01  0.51100000000E-03 0. -1.
        -11    1    3    3    0    0  0.25509699761E+01  0.63715872051E+00  0.16945504114E+01  0.31280857424E+01  0.51100000000E-03 0.  1.
         12    1    3    3    0    0 -0.31962271447E+01 -0.25643483519E+02  0.25709712115E+02  0.36452618726E+02  0.00000000000E+00 0. -1.
</event>
<event>
 7    1  0.4592673E-010  0.4778727E+02  0.7816164E-02  0.1312668E+00
        -11   -1    0    0    0    0  0.00000000000E+00  0.00000000000E+00  0.45593999997E+02  0.45594000000E+02  0.51100000000E-03 0.  1.
         11   -1    0    0    0    0 -0.00000000000E+00 -0.00000000000E+00 -0.45593999997E+02  0.45594000000E+02  0.51100000000E-03 0. -1.
    9900012    2    1    2    0    0 -0.28558281314E+02  0.16846860998E+02  0.28004126347E+02  0.47787271324E+02  0.20000001276E+02 0.  0.
        -12    1    1    2    0    0  0.28558281314E+02 -0.16846860998E+02 -0.28004126347E+02  0.43400728676E+02  0.00000000000E+00 0.  1.
         11    1    3    3    0    0 -0.82709770082E+00  0.31443394053E+01 -0.40352285981E+00  0.32762466119E+01  0.51100000000E-03 0. -1.
        -11    1    3    3    0    0  0.16894028740E+01  0.13239191409E+01  0.31309614441E+01  0.37960194662E+01  0.51100000000E-03 0.  1.
         12    1    3    3    0    0 -0.29420586487E+02  0.12378602452E+02  0.25276687763E+02  0.40715005246E+02  0.00000000000E+00 0. -1.
</event>
<event>
 7    1  0.4592673E-010  0.4778727E+02  0.7816164E-02  0.1312668E+00
        -11   -1    0    0    0    0  0.00000000000E+00  0.00000000000E+00  0.45593999997E+02  0.45594000000E+02  0.51100000000E-03 0.  1.
         11   -1    0    0    0    0 -0.00000000000E+00 -0.00000000000E+00 -0.45593999997E+02  0.45594000000E+02  0.51100000000E-03 0. -1.
    9900012    2    1    2    0    0  0.91405982033E+01 -0.13129119169E+02 -0.40344752588E+02  0.47787269971E+02  0.19999995105E+02 0.  0.
        -12    1    1    2    0    0 -0.91405982033E+01  0.13129119169E+02  0.40344752588E+02  0.43400730029E+02  0.00000000000E+00 0.  1.
         11    1    3    3    0    0  0.68059195061E+01 -0.66499305598E+00 -0.70500976327E+01  0.98217428688E+01  0.51100000000E-03 0.  1.
        -11    1    3    3    0    0  0.78208449829E+01 -0.77571616582E+01 -0.20138256861E+02  0.22954053300E+02  0.51100000000E-03 0. -1.
         12    1    3    3    0    0 -0.54861662857E+01 -0.47069644550E+01 -0.13156398094E+02  0.15011473802E+02  0.00000000000E+00 0. -1.
</event>
<event>
 7    1  0.5504658E-010  0.4778727E+02  0.7816164E-02  0.1312668E+00
        -11   -1    0    0    0    0  0.00000000000E+00  0.00000000000E+00  0.45593999997E+02  0.45594000000E+02  0.51100000000E-03 0. -1.
         11   -1    0    0    0    0 -0.00000000000E+00 -0.00000000000E+00 -0.45593999997E+02  0.45594000000E+02  0.51100000000E-03 0.  1.
    9900012    2    1    2    0    0 -0.12363671827E+02 -0.38084031885E+02  0.16744231795E+02  0.47787272309E+02  0.20000005767E+02 0.  0.
        -12    1    1    2    0    0  0.12363671827E+02  0.38084031885E+02 -0.16744231795E+02  0.43400727691E+02  0.00000000000E+00 0.  1.
         11    1    3    3    0    0 -0.10010257914E+02 -0.15452728194E+02  0.81301792458E+01  0.20126894618E+02  0.51100000000E-03 0. -1.
        -11    1    3    3    0    0 -0.59518504540E+01 -0.20332952396E+02  0.43541479025E+01  0.21628963941E+02  0.51100000000E-03 0.  1.
        -12    1    3    3    0    0  0.35984365416E+01 -0.22983512960E+01  0.42599046467E+01  0.60314137499E+01  0.00000000000E+00 0.  1.
</event>
<event>
 7    1  0.4592673E-010  0.4778727E+02  0.7816164E-02  0.1312668E+00
        -11   -1    0    0    0    0  0.00000000000E+00  0.00000000000E+00  0.45593999997E+02  0.45594000000E+02  0.51100000000E-03 0.  1.
         11   -1    0    0    0    0 -0.00000000000E+00 -0.00000000000E+00 -0.45593999997E+02  0.45594000000E+02  0.51100000000E-03 0. -1.
    9900012    2    1    2    0    0  0.35954069371E+02  0.21104912143E+02 -0.12062784117E+02  0.47787272108E+02  0.20000004851E+02 0.  0.
        -12    1    1    2    0    0 -0.35954069371E+02 -0.21104912143E+02  0.12062784117E+02  0.43400727892E+02  0.00000000000E+00 0.  1.
         11    1    3    3    0    0  0.14016583743E+02  0.28665206711E+01 -0.73001036815E+01  0.16061540231E+02  0.51100000000E-03 0. -1.
        -11    1    3    3    0    0  0.13291347259E+02  0.76389881707E+01 -0.85224699389E+01  0.17539855939E+02  0.51100000000E-03 0.  1.
        -12    1    3    3    0    0  0.86461383684E+01  0.10599403301E+02  0.37597895034E+01  0.14185875938E+02  0.00000000000E+00 0.  1.
</event>
<event>
 7    1  0.4592673E-010  0.4778729E+02  0.7816164E-02  0.1312668E+00
        -11   -1    0    0    0    0  0.00000000000E+00  0.00000000000E+00  0.45593999997E+02  0.45594000000E+02  0.51100000000E-03 0.  1.
         11   -1    0    0    0    0 -0.00000000000E+00 -0.00000000000E+00 -0.45593999997E+02  0.45594000000E+02  0.51100000000E-03 0. -1.
    9900012    2    1    2    0    0 -0.27442190028E+02 -0.25811559010E+02 -0.21547883285E+02  0.47787289797E+02  0.20000085500E+02 0.  0.
        -12    1    1    2    0    0  0.27442190028E+02  0.25811559010E+02  0.21547883285E+02  0.43400710203E+02  0.00000000000E+00 0.  1.
         11    1    3    3    0    0 -0.10871380140E+02 -0.11596059210E+02 -0.14330510871E+02  0.21401379335E+02  0.51100000000E-03 0. -1.
        -11    1    3    3    0    0 -0.41726544737E+01 -0.34766249180E+01 -0.83318345902E+01  0.99457244119E+01  0.51100000000E-03 0.  1.
         12    1    3    3    0    0 -0.12398155414E+02 -0.10738874882E+02  0.11144621769E+01  0.16440186050E+02  0.00000000000E+00 0. -1.
</event>
<event>
 7    1  0.4592673E-010  0.4778727E+02  0.7816164E-02  0.1312668E+00
        -11   -1    0    0    0    0  0.00000000000E+00  0.00000000000E+00  0.45593999997E+02  0.45594000000E+02  0.51100000000E-03 0. -1.
         11   -1    0    0    0    0 -0.00000000000E+00 -0.00000000000E+00 -0.45593999997E+02  0.45594000000E+02  0.51100000000E-03 0.  1.
    9900012    2    1    2    0    0 -0.40844360186E+02 -0.14673747881E+02  0.20632551607E+00  0.47787271825E+02  0.20000003558E+02 0.  0.
        -12    1    1    2    0    0  0.40844360186E+02  0.14673747881E+02 -0.20632551607E+00  0.43400728175E+02  0.00000000000E+00 0.  1.
         11    1    3    3    0    0 -0.39122500516E+02 -0.17940159059E+02  0.19744783082E+01  0.43085008048E+02  0.51100000000E-03 0. -1.
        -11    1    3    3    0    0 -0.12555067984E+01  0.16774181532E+01  0.22914714291E+00  0.21077328236E+01  0.51100000000E-03 0.  1.
         12    1    3    3    0    0 -0.46635287230E+00  0.15889930251E+01 -0.19972999350E+01  0.25945309529E+01  0.00000000000E+00 0. -1.
</event>
<event>
 7    1  0.4592673E-010  0.4778728E+02  0.7816164E-02  0.1312668E+00
        -11   -1    0    0    0    0  0.00000000000E+00  0.00000000000E+00  0.45593999997E+02  0.45594000000E+02  0.51100000000E-03 0. -1.
         11   -1    0    0    0    0 -0.00000000000E+00 -0.00000000000E+00 -0.45593999997E+02  0.45594000000E+02  0.51100000000E-03 0.  1.
    9900012    2    1    2    0    0  0.11407723929E+02 -0.59850394976E+01  0.41444726872E+02  0.47787282857E+02  0.20000053860E+02 0.  0.
        -12    1    1    2    0    0 -0.11407723929E+02  0.59850394976E+01 -0.41444726872E+02  0.43400717143E+02  0.00000000000E+00 0.  1.
         11    1    3    3    0    0 -0.18452770467E+01  0.19173671921E+01  0.64880463429E+01  0.70125665728E+01  0.51100000000E-03 0. -1.
        -11    1    3    3    0    0 -0.84795422352E-02  0.11848310416E+01 -0.89417747644E+00  0.14844022771E+01  0.51100000000E-03 0.  1.
         12    1    3    3    0    0  0.13261480518E+02 -0.90872377313E+01  0.35850858005E+02  0.39290314008E+02  0.00000000000E+00 0. -1.
</event>
<event>
 7    1  0.4592673E-010  0.4778727E+02  0.7816164E-02  0.1312668E+00
        -11   -1    0    0    0    0  0.00000000000E+00  0.00000000000E+00  0.45593999997E+02  0.45594000000E+02  0.51100000000E-03 0.  1.
         11   -1    0    0    0    0 -0.00000000000E+00 -0.00000000000E+00 -0.45593999997E+02  0.45594000000E+02  0.51100000000E-03 0. -1.
    9900012    2    1    2    0    0 -0.18907989593E+02  0.11614138012E+02 -0.37299099761E+02  0.47787272873E+02  0.20000008336E+02 0.  0.
        -12    1    1    2    0    0  0.18907989593E+02 -0.11614138012E+02  0.37299099761E+02  0.43400727127E+02  0.00000000000E+00 0.  1.
         11    1    3    3    0    0 -0.12332958170E+02  0.29623841627E+01 -0.29561512219E+02  0.32167694696E+02  0.51100000000E-03 0. -1.
        -11    1    3    3    0    0 -0.61022217367E+01  0.71218690092E+01 -0.94229993047E+01  0.13294775081E+02  0.51100000000E-03 0.  1.
        -12    1    3    3    0    0 -0.47280968602E+00  0.15298848397E+01  0.16854117623E+01  0.23248030950E+01  0.00000000000E+00 0.  1.
</event>
<event>
 7    1  0.4592673E-010  0.4778727E+02  0.7816164E-02  0.1312668E+00
        -11   -1    0    0    0    0  0.00000000000E+00  0.00000000000E+00  0.45593999997E+02  0.45594000000E+02  0.51100000000E-03 0.  1.
         11   -1    0    0    0    0 -0.00000000000E+00 -0.00000000000E+00 -0.45593999997E+02  0.45594000000E+02  0.51100000000E-03 0. -1.
    9900012    2    1    2    0    0 -0.40010824888E+02  0.37033329614E+01 -0.16402514984E+02  0.47787270962E+02  0.19999999625E+02 0.  0.
        -12    1    1    2    0    0  0.40010824888E+02 -0.37033329614E+01  0.16402514984E+02  0.43400729038E+02  0.00000000000E+00 0.  1.
         11    1    3    3    0    0 -0.21889386416E+02  0.93986989508E+01 -0.28486655408E+01  0.23991575089E+02  0.51100000000E-03 0. -1.
        -11    1    3    3    0    0 -0.37553410024E+01 -0.11094592832E+01 -0.69417592830E+00  0.39768538351E+01  0.51100000000E-03 0.  1.
        -12    1    3    3    0    0 -0.14366097469E+02 -0.45859067062E+01 -0.12859673515E+02  0.19818842038E+02  0.00000000000E+00 0.  1.
</event>
<event>
 7    1  0.4592673E-010  0.4778727E+02  0.7816164E-02  0.1312668E+00
        -11   -1    0    0    0    0  0.00000000000E+00  0.00000000000E+00  0.45593999997E+02  0.45594000000E+02  0.51100000000E-03 0.  1.
         11   -1    0    0    0    0 -0.00000000000E+00 -0.00000000000E+00 -0.45593999997E+02  0.45594000000E+02  0.51100000000E-03 0. -1.
    9900012    2    1    2    0    0 -0.25142018936E+02  0.35105913311E+01 -0.35201959019E+02  0.47787270899E+02  0.19999999339E+02 0.  0.
        -12    1    1    2    0    0  0.25142018936E+02 -0.35105913311E+01  0.35201959019E+02  0.43400729101E+02  0.00000000000E+00 0.  1.
         11    1    3    3    0    0 -0.39995717075E+01 -0.46755131108E+01 -0.40344653006E+01  0.73575748189E+01  0.51100000000E-03 0. -1.
        -11    1    3    3    0    0  0.52079758755E+00 -0.42584839622E+00  0.68337763901E+00  0.95894850872E+00  0.51100000000E-03 0.  1.
         12    1    3    3    0    0 -0.21663244816E+02  0.86119528381E+01 -0.31850871358E+02  0.39470747572E+02  0.00000000000E+00 0. -1.
</event>
<event>
 7    1  0.4592673E-010  0.4778727E+02  0.7816164E-02  0.1312668E+00
        -11   -1    0    0    0    0  0.00000000000E+00  0.00000000000E+00  0.45593999997E+02  0.45594000000E+02  0.51100000000E-03 0. -1.
         11   -1    0    0    0    0 -0.00000000000E+00 -0.00000000000E+00 -0.45593999997E+02  0.45594000000E+02  0.51100000000E-03 0.  1.
    9900012    2    1    2    0    0 -0.42273130102E+02 -0.96326461832E+01  0.19539339507E+01  0.47787271216E+02  0.20000000782E+02 0.  0.
        -12    1    1    2    0    0  0.42273130102E+02  0.96326461832E+01 -0.19539339507E+01  0.43400728784E+02  0.00000000000E+00 0.  1.
         11    1    3    3    0    0 -0.10957421092E+02 -0.59465240591E+01 -0.61975643043E+01  0.13922500815E+02  0.51100000000E-03 0. -1.
        -11    1    3    3    0    0  0.23227281661E-01  0.54348098617E+00 -0.82874538916E+00  0.99132752918E+00  0.51100000000E-03 0.  1.
        -12    1    3    3    0    0 -0.31338936291E+02 -0.42296031102E+01  0.89802436441E+01  0.32873442872E+02  0.00000000000E+00 0.  1.
</event>
<event>
 7    1  0.4592673E-010  0.4778728E+02  0.7816164E-02  0.1312668E+00
        -11   -1    0    0    0    0  0.00000000000E+00  0.00000000000E+00  0.45593999997E+02  0.45594000000E+02  0.51100000000E-03 0. -1.
         11   -1    0    0    0    0 -0.00000000000E+00 -0.00000000000E+00 -0.45593999997E+02  0.45594000000E+02  0.51100000000E-03 0.  1.
    9900012    2    1    2    0    0  0.29923248373E+02  0.24801108277E+02  0.19316488222E+02  0.47787280165E+02  0.20000041585E+02 0.  0.
        -12    1    1    2    0    0 -0.29923248373E+02 -0.24801108277E+02 -0.19316488222E+02  0.43400719835E+02  0.00000000000E+00 0.  1.
         11    1    3    3    0    0  0.23887114711E+01  0.58692518232E+00  0.40327014120E+01  0.47236749043E+01  0.51100000000E-03 0. -1.
        -11    1    3    3    0    0  0.28173812242E+02  0.19332806931E+02  0.16570714282E+02  0.37975119383E+02  0.51100000000E-03 0.  1.
        -12    1    3    3    0    0 -0.63927534019E+00  0.48813761642E+01 -0.12869274719E+01  0.50884858784E+01  0.00000000000E+00 0.  1.
</event>
<event>
 7    1  0.4592673E-010  0.4778729E+02  0.7816164E-02  0.1312668E+00
        -11   -1    0    0    0    0  0.00000000000E+00  0.00000000000E+00  0.45593999997E+02  0.45594000000E+02  0.51100000000E-03 0.  1.
         11   -1    0    0    0    0 -0.00000000000E+00 -0.00000000000E+00 -0.45593999997E+02  0.45594000000E+02  0.51100000000E-03 0. -1.
    9900012    2    1    2    0    0  0.11312614294E+02 -0.68248040951E+01 -0.41340880272E+02  0.47787290619E+02  0.20000089250E+02 0.  0.
        -12    1    1    2    0    0 -0.11312614294E+02  0.68248040951E+01  0.41340880272E+02  0.43400709381E+02  0.00000000000E+00 0.  1.
         11    1    3    3    0    0  0.44977079959E+01 -0.28312406020E+01 -0.12851354829E+02  0.13906927114E+02  0.51100000000E-03 0. -1.
        -11    1    3    3    0    0  0.11084237278E+01 -0.47563180280E+01 -0.70742007633E-01  0.48842777395E+01  0.51100000000E-03 0.  1.
        -12    1    3    3    0    0  0.57064825706E+01  0.76275453487E+00 -0.28418783435E+02  0.28996085766E+02  0.00000000000E+00 0.  1.
</event>
<event>
 7    1  0.4592673E-010  0.4778728E+02  0.7816164E-02  0.1312668E+00
        -11   -1    0    0    0    0  0.00000000000E+00  0.00000000000E+00  0.45593999997E+02  0.45594000000E+02  0.51100000000E-03 0.  1.
         11   -1    0    0    0    0 -0.00000000000E+00 -0.00000000000E+00 -0.45593999997E+02  0.45594000000E+02  0.51100000000E-03 0. -1.
    9900012    2    1    2    0    0 -0.34749977212E+02  0.21298413019E+02 -0.14914389046E+02  0.47787282102E+02  0.20000050418E+02 0.  0.
        -12    1    1    2    0    0  0.34749977212E+02 -0.21298413019E+02  0.14914389046E+02  0.43400717898E+02  0.00000000000E+00 0.  1.
         11    1    3    3    0    0 -0.15029684371E+02  0.31866804438E+01 -0.72111168012E+01  0.16971934195E+02  0.51100000000E-03 0. -1.
        -11    1    3    3    0    0 -0.14547058113E+02  0.51893815131E+01 -0.13174723573E+01  0.15501042349E+02  0.51100000000E-03 0.  1.
        -12    1    3    3    0    0 -0.51732347290E+01  0.12922351063E+02 -0.63857998880E+01  0.15314305559E+02  0.00000000000E+00 0.  1.
</event>
<event>
 7    1  0.4592673E-010  0.4778730E+02  0.7816164E-02  0.1312668E+00
        -11   -1    0    0    0    0  0.00000000000E+00  0.00000000000E+00  0.45593999997E+02  0.45594000000E+02  0.51100000000E-03 0.  1.
         11   -1    0    0    0    0 -0.00000000000E+00 -0.00000000000E+00 -0.45593999997E+02  0.45594000000E+02  0.51100000000E-03 0. -1.
    9900012    2    1    2    0    0 -0.84865394541E+01  0.41845702157E+02 -0.77805318433E+01  0.47787299353E+02  0.20000129070E+02 0.  0.
        -12    1    1    2    0    0  0.84865394541E+01 -0.41845702157E+02  0.77805318433E+01  0.43400700647E+02  0.00000000000E+00 0.  1.
         11    1    3    3    0    0 -0.51657710108E+01  0.25492838958E+02 -0.62529402589E+01  0.26751996008E+02  0.51100000000E-03 0. -1.
        -11    1    3    3    0    0 -0.63378341828E+01  0.15241605828E+02 -0.39939056057E+01  0.16983108449E+02  0.51100000000E-03 0.  1.
        -12    1    3    3    0    0  0.30170657395E+01  0.11112573703E+01  0.24663140213E+01  0.40521948955E+01  0.00000000000E+00 0.  1.
</event>
<event>
 7    1  0.4592673E-010  0.4778728E+02  0.7816164E-02  0.1312668E+00
        -11   -1    0    0    0    0  0.00000000000E+00  0.00000000000E+00  0.45593999997E+02  0.45594000000E+02  0.51100000000E-03 0. -1.
         11   -1    0    0    0    0 -0.00000000000E+00 -0.00000000000E+00 -0.45593999997E+02  0.45594000000E+02  0.51100000000E-03 0.  1.
    9900012    2    1    2    0    0 -0.43051206214E+02 -0.46274436619E+01 -0.29669586044E+01  0.47787280713E+02  0.20000044082E+02 0.  0.
        -12    1    1    2    0    0  0.43051206214E+02  0.46274436619E+01  0.29669586044E+01  0.43400719287E+02  0.00000000000E+00 0.  1.
         11    1    3    3    0    0 -0.78412275267E+01  0.21808672527E+01 -0.25184479587E+01  0.85196016034E+01  0.51100000000E-03 0. -1.
        -11    1    3    3    0    0 -0.15354843448E+01  0.26899690331E+01 -0.28337362266E+01  0.41980598895E+01  0.51100000000E-03 0.  1.
        -12    1    3    3    0    0 -0.33674494342E+02 -0.94982799477E+01  0.23852255809E+01  0.35069619220E+02  0.00000000000E+00 0.  1.
</event>
<event>
 7    1  0.4592673E-010  0.4778727E+02  0.7816164E-02  0.1312668E+00
        -11   -1    0    0    0    0  0.00000000000E+00  0.00000000000E+00  0.45593999997E+02  0.45594000000E+02  0.51100000000E-03 0. -1.
         11   -1    0    0    0    0 -0.00000000000E+00 -0.00000000000E+00 -0.45593999997E+02  0.45594000000E+02  0.51100000000E-03 0.  1.
    9900012    2    1    2    0    0  0.34950277486E+01  0.33202981114E+02  0.27730313888E+02  0.47787268645E+02  0.19999989062E+02 0.  0.
        -12    1    1    2    0    0 -0.34950277486E+01 -0.33202981114E+02 -0.27730313888E+02  0.43400731355E+02  0.00000000000E+00 0.  1.
         11    1    3    3    0    0  0.19484248063E+01  0.10865386144E+02  0.68770942439E+01  0.13005668025E+02  0.51100000000E-03 0. -1.
        -11    1    3    3    0    0  0.41037914271E+00  0.10210358623E+02  0.20135603338E+02  0.22580131893E+02  0.51100000000E-03 0.  1.
         12    1    3    3    0    0  0.11362237996E+01  0.12127236347E+02  0.71761630539E+00  0.12201468727E+02  0.00000000000E+00 0. -1.
</event>
<event>
 7    1  0.4592673E-010  0.4778727E+02  0.7816164E-02  0.1312668E+00
        -11   -1    0    0    0    0  0.00000000000E+00  0.00000000000E+00  0.45593999997E+02  0.45594000000E+02  0.51100000000E-03 0.  1.
         11   -1    0    0    0    0 -0.00000000000E+00 -0.00000000000E+00 -0.45593999997E+02  0.45594000000E+02  0.51100000000E-03 0. -1.
    9900012    2    1    2    0    0 -0.11253136891E+02 -0.32411904397E+02 -0.26579290343E+02  0.47787270609E+02  0.19999998015E+02 0.  0.
        -12    1    1    2    0    0  0.11253136891E+02  0.32411904397E+02  0.26579290343E+02  0.43400729391E+02  0.00000000000E+00 0.  1.
         11    1    3    3    0    0 -0.21372449231E+01 -0.21089154306E+02 -0.11339335068E+02  0.24039566661E+02  0.51100000000E-03 0. -1.
        -11    1    3    3    0    0 -0.68891731293E+00 -0.85520520466E+01 -0.41050305044E+01  0.95112289940E+01  0.51100000000E-03 0.  1.
        -12    1    3    3    0    0 -0.84269746550E+01 -0.27706980452E+01 -0.11134924770E+02  0.14236474954E+02  0.00000000000E+00 0.  1.
</event>
<event>
 7    1  0.4592673E-010  0.4778727E+02  0.7816164E-02  0.1312668E+00
        -11   -1    0    0    0    0  0.00000000000E+00  0.00000000000E+00  0.45593999997E+02  0.45594000000E+02  0.51100000000E-03 0. -1.
         11   -1    0    0    0    0 -0.00000000000E+00 -0.00000000000E+00 -0.45593999997E+02  0.45594000000E+02  0.51100000000E-03 0.  1.
    9900012    2    1    2    0    0 -0.31359785038E+02  0.15324515254E+02  0.25794309164E+02  0.47787271081E+02  0.20000000169E+02 0.  0.
        -12    1    1    2    0    0  0.31359785038E+02 -0.15324515254E+02 -0.25794309164E+02  0.43400728919E+02  0.00000000000E+00 0.  1.
         11    1    3    3    0    0 -0.99485863347E+01 -0.98310605865E+00  0.10974168813E+02  0.14844973863E+02  0.51100000000E-03 0. -1.
        -11    1    3    3    0    0 -0.11969621351E+01 -0.18401981079E+01  0.16884574504E+01  0.27694649758E+01  0.51100000000E-03 0.  1.
         12    1    3    3    0    0 -0.20214236568E+02  0.18147819420E+02  0.13131682901E+02  0.30172832243E+02  0.00000000000E+00 0. -1.
</event>
<event>
 7    1  0.4592673E-010  0.4778727E+02  0.7816164E-02  0.1312668E+00
        -11   -1    0    0    0    0  0.00000000000E+00  0.00000000000E+00  0.45593999997E+02  0.45594000000E+02  0.51100000000E-03 0. -1.
         11   -1    0    0    0    0 -0.00000000000E+00 -0.00000000000E+00 -0.45593999997E+02  0.45594000000E+02  0.51100000000E-03 0.  1.
    9900012    2    1    2    0    0  0.28106460171E+02  0.30578563329E+01  0.32928707143E+02  0.47787270251E+02  0.19999996381E+02 0.  0.
        -12    1    1    2    0    0 -0.28106460171E+02 -0.30578563329E+01 -0.32928707143E+02  0.43400729749E+02  0.00000000000E+00 0.  1.
         11    1    3    3    0    0  0.16005855645E+02  0.68833394332E+01  0.22809122399E+02  0.28702331639E+02  0.51100000000E-03 0. -1.
        -11    1    3    3    0    0  0.51694359198E+01 -0.27302334208E+01  0.10542604273E+02  0.12055029961E+02  0.51100000000E-03 0.  1.
        -12    1    3    3    0    0  0.69311686062E+01 -0.10952496794E+01 -0.42301952860E+00  0.70299086501E+01  0.00000000000E+00 0.  1.
</event>
<event>
 7    1  0.4592673E-010  0.4778729E+02  0.7816164E-02  0.1312668E+00
        -11   -1    0    0    0    0  0.00000000000E+00  0.00000000000E+00  0.45593999997E+02  0.45594000000E+02  0.51100000000E-03 0.  1.
         11   -1    0    0    0    0 -0.00000000000E+00 -0.00000000000E+00 -0.45593999997E+02  0.45594000000E+02  0.51100000000E-03 0. -1.
    9900012    2    1    2    0    0 -0.30462937622E+02 -0.13578458969E+02 -0.27771511083E+02  0.47787286362E+02  0.20000069837E+02 0.  0.
        -12    1    1    2    0    0  0.30462937622E+02  0.13578458969E+02  0.27771511083E+02  0.43400713638E+02  0.00000000000E+00 0.  1.
         11    1    3    3    0    0 -0.47425415991E+01 -0.77161041809E+01 -0.12860914382E+02  0.15730005834E+02  0.51100000000E-03 0. -1.
        -11    1    3    3    0    0 -0.20559138884E+02 -0.72593371042E+01 -0.15391880449E+02  0.26688689568E+02  0.51100000000E-03 0.  1.
        -12    1    3    3    0    0 -0.51612571386E+01  0.13969823163E+01  0.48128374820E+00  0.53685909593E+01  0.00000000000E+00 0.  1.
</event>
<event>
 7    1  0.4592673E-010  0.4778727E+02  0.7816164E-02  0.1312668E+00
        -11   -1    0    0    0    0  0.00000000000E+00  0.00000000000E+00  0.45593999997E+02  0.45594000000E+02  0.51100000000E-03 0. -1.
         11   -1    0    0    0    0 -0.00000000000E+00 -0.00000000000E+00 -0.45593999997E+02  0.45594000000E+02  0.51100000000E-03 0.  1.
    9900012    2    1    2    0    0 -0.51389459671E+01 -0.43027344257E+02 -0.24211359929E+01  0.47787273981E+02  0.20000013391E+02 0.  0.
        -12    1    1    2    0    0  0.51389459671E+01  0.43027344257E+02  0.24211359929E+01  0.43400726019E+02  0.00000000000E+00 0.  1.
         11    1    3    3    0    0 -0.77588476248E+01 -0.12845326421E+02 -0.34707127814E+01  0.15402856059E+02  0.51100000000E-03 0. -1.
        -11    1    3    3    0    0  0.16754247784E+01 -0.11186573858E+00  0.15644821648E+01  0.22950309010E+01  0.51100000000E-03 0.  1.
         12    1    3    3    0    0  0.94447687926E+00 -0.30070152098E+02 -0.51490537629E+00  0.30089387021E+02  0.00000000000E+00 0. -1.
</event>
<event>
 7    1  0.4592673E-010  0.4778728E+02  0.7816164E-02  0.1312668E+00
        -11   -1    0    0    0    0  0.00000000000E+00  0.00000000000E+00  0.45593999997E+02  0.45594000000E+02  0.51100000000E-03 0.  1.
         11   -1    0    0    0    0 -0.00000000000E+00 -0.00000000000E+00 -0.45593999997E+02  0.45594000000E+02  0.51100000000E-03 0. -1.
    9900012    2    1    2    0    0 -0.58885004872E+01 -0.42762115812E+02 -0.45110405477E+01  0.47787280265E+02  0.20000042041E+02 0.  0.
        -12    1    1    2    0    0  0.58885004872E+01  0.42762115812E+02  0.45110405477E+01  0.43400719735E+02  0.00000000000E+00 0.  1.
         11    1    3    3    0    0 -0.17763362964E+01 -0.91453810872E+00  0.58552406270E-01  0.19987944455E+01  0.51100000000E-03 0. -1.
        -11    1    3    3    0    0  0.26839224749E+01 -0.37982839049E+01 -0.54017522774E+01  0.71280662455E+01  0.51100000000E-03 0.  1.
         12    1    3    3    0    0 -0.67960866657E+01 -0.38049293798E+02  0.83215932342E+00  0.38660419574E+02  0.00000000000E+00 0. -1.
</event>
<event>
 7    1  0.4592673E-010  0.4778727E+02  0.7816164E-02  0.1312668E+00
        -11   -1    0    0    0    0  0.00000000000E+00  0.00000000000E+00  0.45593999997E+02  0.45594000000E+02  0.51100000000E-03 0. -1.
         11   -1    0    0    0    0 -0.00000000000E+00 -0.00000000000E+00 -0.45593999997E+02  0.45594000000E+02  0.51100000000E-03 0.  1.
    9900012    2    1    2    0    0  0.56120945651E+01 -0.31905825976E+01  0.42917924399E+02  0.47787266625E+02  0.19999979851E+02 0.  0.
        -12    1    1    2    0    0 -0.56120945651E+01  0.31905825976E+01 -0.42917924399E+02  0.43400733375E+02  0.00000000000E+00 0.  1.
         11    1    3    3    0    0 -0.40328827127E+01  0.29252679166E+01  0.80195839932E+01  0.94411367453E+01  0.51100000000E-03 0. -1.
        -11    1    3    3    0    0 -0.22085100548E+00  0.37405782819E+00 -0.70908901032E+00  0.83156593914E+00  0.51100000000E-03 0.  1.
         12    1    3    3    0    0  0.98658282833E+01 -0.64899083424E+01  0.35607429417E+02  0.37514563941E+02  0.00000000000E+00 0. -1.
</event>
<event>
 7    1  0.4592673E-010  0.4778726E+02  0.7816164E-02  0.1312668E+00
        -11   -1    0    0    0    0  0.00000000000E+00  0.00000000000E+00  0.45593999997E+02  0.45594000000E+02  0.51100000000E-03 0.  1.
         11   -1    0    0    0    0 -0.00000000000E+00 -0.00000000000E+00 -0.45593999997E+02  0.45594000000E+02  0.51100000000E-03 0. -1.
    9900012    2    1    2    0    0 -0.11370417522E+02 -0.41637566325E+02 -0.45443064974E+01  0.47787262154E+02  0.19999959463E+02 0.  0.
        -12    1    1    2    0    0  0.11370417522E+02  0.41637566325E+02  0.45443064974E+01  0.43400737846E+02  0.00000000000E+00 0.  1.
         11    1    3    3    0    0  0.20908150861E+01 -0.11055974494E+02 -0.22181563861E+01  0.11468491520E+02  0.51100000000E-03 0. -1.
        -11    1    3    3    0    0 -0.10078603484E+02 -0.74752594850E+01  0.15606776314E+01  0.12644898872E+02  0.51100000000E-03 0.  1.
         12    1    3    3    0    0 -0.33826291244E+01 -0.23106332346E+02 -0.38868277427E+01  0.23673871761E+02  0.00000000000E+00 0. -1.
</event>
<event>
 7    1  0.4592673E-010  0.4778727E+02  0.7816164E-02  0.1312668E+00
        -11   -1    0    0    0    0  0.00000000000E+00  0.00000000000E+00  0.45593999997E+02  0.45594000000E+02  0.51100000000E-03 0. -1.
         11   -1    0    0    0    0 -0.00000000000E+00 -0.00000000000E+00 -0.45593999997E+02  0.45594000000E+02  0.51100000000E-03 0.  1.
    9900012    2    1    2    0    0 -0.30638615750E+02  0.27688512574E+02  0.13350824914E+02  0.47787273859E+02  0.20000012835E+02 0.  0.
        -12    1    1    2    0    0  0.30638615750E+02 -0.27688512574E+02 -0.13350824914E+02  0.43400726141E+02  0.00000000000E+00 0.  1.
         11    1    3    3    0    0  0.64514085575E+00  0.51193660977E+01 -0.25330507925E+01  0.57480833801E+01  0.51100000000E-03 0.  1.
        -11    1    3    3    0    0 -0.10379109846E+02  0.10087407470E+02  0.44613675136E+01  0.15145478237E+02  0.51100000000E-03 0. -1.
         12    1    3    3    0    0 -0.20904646760E+02  0.12481739006E+02  0.11422508193E+02  0.26893712242E+02  0.00000000000E+00 0. -1.
</event>
<event>
 7    1  0.4592673E-010  0.4778727E+02  0.7816164E-02  0.1312668E+00
        -11   -1    0    0    0    0  0.00000000000E+00  0.00000000000E+00  0.45593999997E+02  0.45594000000E+02  0.51100000000E-03 0.  1.
         11   -1    0    0    0    0 -0.00000000000E+00 -0.00000000000E+00 -0.45593999997E+02  0.45594000000E+02  0.51100000000E-03 0. -1.
    9900012    2    1    2    0    0  0.19632746047E+02 -0.17792169970E+02 -0.34374665789E+02  0.47787266392E+02  0.19999978787E+02 0.  0.
        -12    1    1    2    0    0 -0.19632746047E+02  0.17792169970E+02  0.34374665789E+02  0.43400733608E+02  0.00000000000E+00 0.  1.
         11    1    3    3    0    0  0.11590469812E+02 -0.48452410851E+01 -0.19351530088E+02  0.23071564071E+02  0.51100000000E-03 0. -1.
        -11    1    3    3    0    0 -0.10673818171E+00  0.16632155297E+01 -0.48684390108E+01  0.51458116562E+01  0.51100000000E-03 0.  1.
         12    1    3    3    0    0  0.81490144167E+01 -0.14610144414E+02 -0.10154696690E+02  0.19569890665E+02  0.00000000000E+00 0. -1.
</event>
<event>
 7    1  0.4592673E-010  0.4778728E+02  0.7816164E-02  0.1312668E+00
        -11   -1    0    0    0    0  0.00000000000E+00  0.00000000000E+00  0.45593999997E+02  0.45594000000E+02  0.51100000000E-03 0.  1.
         11   -1    0    0    0    0 -0.00000000000E+00 -0.00000000000E+00 -0.45593999997E+02  0.45594000000E+02  0.51100000000E-03 0. -1.
    9900012    2    1    2    0    0 -0.31336685122E+02  0.27620026562E+02  0.11780034713E+02  0.47787275126E+02  0.20000018611E+02 0.  0.
        -12    1    1    2    0    0  0.31336685122E+02 -0.27620026562E+02 -0.11780034713E+02  0.43400724874E+02  0.00000000000E+00 0.  1.
         11    1    3    3    0    0 -0.19465077360E+02  0.10204957567E+02  0.82430560805E+01  0.23472928437E+02  0.51100000000E-03 0. -1.
        -11    1    3    3    0    0 -0.70984630872E+01  0.90217288713E+01  0.76755195420E+01  0.13809177040E+02  0.51100000000E-03 0.  1.
        -12    1    3    3    0    0 -0.47731446749E+01  0.83933401230E+01 -0.41385409091E+01  0.10505169649E+02  0.00000000000E+00 0.  1.
</event>
<event>
 7    1  0.4592673E-010  0.4778727E+02  0.7816164E-02  0.1312668E+00
        -11   -1    0    0    0    0  0.00000000000E+00  0.00000000000E+00  0.45593999997E+02  0.45594000000E+02  0.51100000000E-03 0.  1.
         11   -1    0    0    0    0 -0.00000000000E+00 -0.00000000000E+00 -0.45593999997E+02  0.45594000000E+02  0.51100000000E-03 0. -1.
    9900012    2    1    2    0    0 -0.16123784707E+02  0.89386472982E+01 -0.39290554111E+02  0.47787268541E+02  0.19999988587E+02 0.  0.
        -12    1    1    2    0    0  0.16123784707E+02 -0.89386472982E+01  0.39290554111E+02  0.43400731459E+02  0.00000000000E+00 0.  1.
         11    1    3    3    0    0 -0.90401754577E+01  0.58160859441E+01 -0.15270515345E+02  0.18674588809E+02  0.51100000000E-03 0. -1.
        -11    1    3    3    0    0 -0.56191255022E+01 -0.26073250199E+01 -0.23095810655E+01  0.66111179182E+01  0.51100000000E-03 0.  1.
         12    1    3    3    0    0 -0.14644837472E+01  0.57298863740E+01 -0.21710457701E+02  0.22501561814E+02  0.00000000000E+00 0. -1.
</event>
<event>
 7    1  0.4592673E-010  0.4778727E+02  0.7816164E-02  0.1312668E+00
        -11   -1    0    0    0    0  0.00000000000E+00  0.00000000000E+00  0.45593999997E+02  0.45594000000E+02  0.51100000000E-03 0. -1.
         11   -1    0    0    0    0 -0.00000000000E+00 -0.00000000000E+00 -0.45593999997E+02  0.45594000000E+02  0.51100000000E-03 0.  1.
    9900012    2    1    2    0    0  0.40250266928E+02  0.16044865518E+02  0.24701062187E+01  0.47787272795E+02  0.20000007980E+02 0.  0.
        -12    1    1    2    0    0 -0.40250266928E+02 -0.16044865518E+02 -0.24701062187E+01  0.43400727205E+02  0.00000000000E+00 0.  1.
         11    1    3    3    0    0  0.21862371283E+02  0.12797794814E+02 -0.34494949693E+01  0.25566498509E+02  0.51100000000E-03 0. -1.
        -11    1    3    3    0    0  0.85895439514E+01  0.10275803789E-01 -0.24522225654E+01  0.89327356759E+01  0.51100000000E-03 0.  1.
        -12    1    3    3    0    0  0.97983516937E+01  0.32367948996E+01  0.83718237533E+01  0.13288038610E+02  0.00000000000E+00 0.  1.
</event>
<event>
 7    1  0.4592673E-010  0.4778727E+02  0.7816164E-02  0.1312668E+00
        -11   -1    0    0    0    0  0.00000000000E+00  0.00000000000E+00  0.45593999997E+02  0.45594000000E+02  0.51100000000E-03 0.  1.
         11   -1    0    0    0    0 -0.00000000000E+00 -0.00000000000E+00 -0.45593999997E+02  0.45594000000E+02  0.51100000000E-03 0. -1.
    9900012    2    1    2    0    0  0.10717560444E+01  0.11817722887E+02 -0.41747048011E+02  0.47787271286E+02  0.20000001102E+02 0.  0.
        -12    1    1    2    0    0 -0.10717560444E+01 -0.11817722887E+02  0.41747048011E+02  0.43400728714E+02  0.00000000000E+00 0.  1.
         11    1    3    3    0    0  0.51036914401E+01  0.11755903709E+01 -0.14809230511E+02  0.15708054865E+02  0.51100000000E-03 0. -1.
        -11    1    3    3    0    0  0.82582000684E+00  0.30339748268E+01 -0.21091562762E+02  0.21324657135E+02  0.51100000000E-03 0.  1.
        -12    1    3    3    0    0 -0.48577554025E+01  0.76081576897E+01 -0.58462547376E+01  0.10754559286E+02  0.00000000000E+00 0.  1.
</event>
<event>
 7    1  0.4592673E-010  0.4778727E+02  0.7816164E-02  0.1312668E+00
        -11   -1    0    0    0    0  0.00000000000E+00  0.00000000000E+00  0.45593999997E+02  0.45594000000E+02  0.51100000000E-03 0.  1.
         11   -1    0    0    0    0 -0.00000000000E+00 -0.00000000000E+00 -0.45593999997E+02  0.45594000000E+02  0.51100000000E-03 0. -1.
    9900012    2    1    2    0    0  0.23410350263E+02  0.27226352434E+02 -0.24378360897E+02  0.47787271362E+02  0.20000001447E+02 0.  0.
        -12    1    1    2    0    0 -0.23410350263E+02 -0.27226352434E+02  0.24378360897E+02  0.43400728638E+02  0.00000000000E+00 0.  1.
         11    1    3    3    0    0  0.78507318804E+01  0.10312881251E+02 -0.44548268763E+01  0.13705290712E+02  0.51100000000E-03 0. -1.
        -11    1    3    3    0    0 -0.19769061578E+01  0.57226634563E+00  0.97821199649E+00  0.22787158002E+01  0.51100000000E-03 0.  1.
         12    1    3    3    0    0  0.17536524540E+02  0.16341204838E+02 -0.20901746017E+02  0.31803264849E+02  0.00000000000E+00 0. -1.
</event>
<event>
 7    1  0.4592673E-010  0.4778727E+02  0.7816164E-02  0.1312668E+00
        -11   -1    0    0    0    0  0.00000000000E+00  0.00000000000E+00  0.45593999997E+02  0.45594000000E+02  0.51100000000E-03 0. -1.
         11   -1    0    0    0    0 -0.00000000000E+00 -0.00000000000E+00 -0.45593999997E+02  0.45594000000E+02  0.51100000000E-03 0.  1.
    9900012    2    1    2    0    0 -0.25789842717E+02 -0.26260602308E+02 -0.22997565468E+02  0.47787271453E+02  0.20000001864E+02 0.  0.
        -12    1    1    2    0    0  0.25789842717E+02  0.26260602308E+02  0.22997565468E+02  0.43400728547E+02  0.00000000000E+00 0.  1.
         11    1    3    3    0    0 -0.16781927013E+02 -0.10884313645E+02 -0.93226408286E+01  0.22068370807E+02  0.51100000000E-03 0. -1.
        -11    1    3    3    0    0 -0.11604432556E+02 -0.15253515498E+02 -0.11706646021E+02  0.22458364841E+02  0.51100000000E-03 0.  1.
        -12    1    3    3    0    0  0.25965168530E+01 -0.12277316542E+00 -0.19682786183E+01  0.32605358052E+01  0.00000000000E+00 0.  1.
</event>
<event>
 7    1  0.4592673E-010  0.4778727E+02  0.7816164E-02  0.1312668E+00
        -11   -1    0    0    0    0  0.00000000000E+00  0.00000000000E+00  0.45593999997E+02  0.45594000000E+02  0.51100000000E-03 0. -1.
         11   -1    0    0    0    0 -0.00000000000E+00 -0.00000000000E+00 -0.45593999997E+02  0.45594000000E+02  0.51100000000E-03 0.  1.
    9900012    2    1    2    0    0  0.81275432887E+01 -0.13096991619E+02  0.40571361859E+02  0.47787267835E+02  0.19999985367E+02 0.  0.
        -12    1    1    2    0    0 -0.81275432887E+01  0.13096991619E+02 -0.40571361859E+02  0.43400732165E+02  0.00000000000E+00 0.  1.
         11    1    3    3    0    0  0.69478917022E+01 -0.12892298305E+01  0.11822060701E+02  0.13773032787E+02  0.51100000000E-03 0. -1.
        -11    1    3    3    0    0  0.55353757214E+01 -0.79620037382E+01  0.25664998215E+02  0.27435852849E+02  0.51100000000E-03 0.  1.
        -12    1    3    3    0    0 -0.43557241350E+01 -0.38457580502E+01  0.30843029430E+01  0.65783821996E+01  0.00000000000E+00 0.  1.
</event>
<event>
 7    1  0.4592673E-010  0.4778727E+02  0.7816164E-02  0.1312668E+00
        -11   -1    0    0    0    0  0.00000000000E+00  0.00000000000E+00  0.45593999997E+02  0.45594000000E+02  0.51100000000E-03 0.  1.
         11   -1    0    0    0    0 -0.00000000000E+00 -0.00000000000E+00 -0.45593999997E+02  0.45594000000E+02  0.51100000000E-03 0. -1.
    9900012    2    1    2    0    0  0.25685713590E+01  0.41732481886E+02  0.11637253214E+02  0.47787271140E+02  0.20000000438E+02 0.  0.
        -12    1    1    2    0    0 -0.25685713590E+01 -0.41732481886E+02 -0.11637253214E+02  0.43400728860E+02  0.00000000000E+00 0.  1.
         11    1    3    3    0    0  0.27255475329E+01  0.26036164015E+02  0.96194109966E+01  0.27889846076E+02  0.51100000000E-03 0. -1.
        -11    1    3    3    0    0  0.22919661151E+01  0.15606512683E+02  0.45062169219E+01  0.16404948582E+02  0.51100000000E-03 0.  1.
        -12    1    3    3    0    0 -0.24489422890E+01  0.89805187931E-01 -0.24883747042E+01  0.34924764817E+01  0.00000000000E+00 0.  1.
</event>
<event>
 7    1  0.4592673E-010  0.4778727E+02  0.7816164E-02  0.1312668E+00
        -11   -1    0    0    0    0  0.00000000000E+00  0.00000000000E+00  0.45593999997E+02  0.45594000000E+02  0.51100000000E-03 0. -1.
         11   -1    0    0    0    0 -0.00000000000E+00 -0.00000000000E+00 -0.45593999997E+02  0.45594000000E+02  0.51100000000E-03 0.  1.
    9900012    2    1    2    0    0  0.29868041128E+02  0.11527654993E+02  0.29302501822E+02  0.47787270473E+02  0.19999997396E+02 0.  0.
        -12    1    1    2    0    0 -0.29868041128E+02 -0.11527654993E+02 -0.29302501822E+02  0.43400729527E+02  0.00000000000E+00 0.  1.
         11    1    3    3    0    0  0.12521020150E+02  0.65418466138E+01  0.36920578247E+01  0.14601472321E+02  0.51100000000E-03 0. -1.
        -11    1    3    3    0    0  0.69489307699E+01 -0.27360785492E+01  0.55379378134E+01  0.92974469700E+01  0.51100000000E-03 0.  1.
         12    1    3    3    0    0  0.10398090208E+02  0.77218869289E+01  0.20072506183E+02  0.23888351182E+02  0.00000000000E+00 0. -1.
</event>
<event>
 7    1  0.4592673E-010  0.4778728E+02  0.7816164E-02  0.1312668E+00
        -11   -1    0    0    0    0  0.00000000000E+00  0.00000000000E+00  0.45593999997E+02  0.45594000000E+02  0.51100000000E-03 0. -1.
         11   -1    0    0    0    0 -0.00000000000E+00 -0.00000000000E+00 -0.45593999997E+02  0.45594000000E+02  0.51100000000E-03 0.  1.
    9900012    2    1    2    0    0 -0.25420651259E+02  0.29204030658E+02  0.19609639119E+02  0.47787275772E+02  0.20000021556E+02 0.  0.
        -12    1    1    2    0    0  0.25420651259E+02 -0.29204030658E+02 -0.19609639119E+02  0.43400724228E+02  0.00000000000E+00 0.  1.
         11    1    3    3    0    0 -0.16924628945E+02  0.13531352931E+02  0.74295526907E+01  0.22907178581E+02  0.51100000000E-03 0. -1.
        -11    1    3    3    0    0 -0.10328327611E+02  0.10538276139E+02  0.44330552018E+01  0.15407192928E+02  0.51100000000E-03 0.  1.
         12    1    3    3    0    0  0.18323052974E+01  0.51344015881E+01  0.77470312267E+01  0.94729042642E+01  0.00000000000E+00 0. -1.
</event>
<event>
 7    1  0.4592673E-010  0.4778727E+02  0.7816164E-02  0.1312668E+00
        -11   -1    0    0    0    0  0.00000000000E+00  0.00000000000E+00  0.45593999997E+02  0.45594000000E+02  0.51100000000E-03 0.  1.
         11   -1    0    0    0    0 -0.00000000000E+00 -0.00000000000E+00 -0.45593999997E+02  0.45594000000E+02  0.51100000000E-03 0. -1.
    9900012    2    1    2    0    0 -0.15838718805E+02  0.54539088762E+01 -0.40037646941E+02  0.47787270651E+02  0.19999998207E+02 0.  0.
        -12    1    1    2    0    0  0.15838718805E+02 -0.54539088762E+01  0.40037646941E+02  0.43400729349E+02  0.00000000000E+00 0.  1.
         11    1    3    3    0    0 -0.82649838767E+00 -0.12280965935E+01  0.13290760593E+01  0.19894130442E+01  0.51100000000E-03 0. -1.
        -11    1    3    3    0    0 -0.89857609225E+00  0.47029511288E+01 -0.16008319987E+02  0.16709024430E+02  0.51100000000E-03 0.  1.
         12    1    3    3    0    0 -0.14113644325E+02  0.19790543408E+01 -0.25358403013E+02  0.29088833177E+02  0.00000000000E+00 0. -1.
</event>
<event>
 7    1  0.4592673E-010  0.4778727E+02  0.7816164E-02  0.1312668E+00
        -11   -1    0    0    0    0  0.00000000000E+00  0.00000000000E+00  0.45593999997E+02  0.45594000000E+02  0.51100000000E-03 0. -1.
         11   -1    0    0    0    0 -0.00000000000E+00 -0.00000000000E+00 -0.45593999997E+02  0.45594000000E+02  0.51100000000E-03 0.  1.
    9900012    2    1    2    0    0  0.14011903925E+02  0.26432119842E+02  0.31442536663E+02  0.47787268177E+02  0.19999986925E+02 0.  0.
        -12    1    1    2    0    0 -0.14011903925E+02 -0.26432119842E+02 -0.31442536663E+02  0.43400731823E+02  0.00000000000E+00 0.  1.
         11    1    3    3    0    0 -0.99391957291E+00 -0.18925044061E+00 -0.15237235132E+01  0.18290504237E+01  0.51100000000E-03 0.  1.
        -11    1    3    3    0    0  0.99218173985E+00  0.68600026818E+01  0.12284075629E+02  0.14104700483E+02  0.51100000000E-03 0. -1.
        -12    1    3    3    0    0  0.14013641758E+02  0.19761367601E+02  0.20682184547E+02  0.31853517270E+02  0.00000000000E+00 0.  1.
</event>
<event>
 7    1  0.4592673E-010  0.4778727E+02  0.7816164E-02  0.1312668E+00
        -11   -1    0    0    0    0  0.00000000000E+00  0.00000000000E+00  0.45593999997E+02  0.45594000000E+02  0.51100000000E-03 0.  1.
         11   -1    0    0    0    0 -0.00000000000E+00 -0.00000000000E+00 -0.45593999997E+02  0.45594000000E+02  0.51100000000E-03 0. -1.
    9900012    2    1    2    0    0  0.42626623667E+02 -0.65491689860E+01 -0.48685290999E+01  0.47787271489E+02  0.20000002029E+02 0.  0.
        -12    1    1    2    0    0 -0.42626623667E+02  0.65491689860E+01  0.48685290999E+01  0.43400728511E+02  0.00000000000E+00 0.  1.
         11    1    3    3    0    0  0.12069523168E+01 -0.28484149356E+01 -0.25110157726E+01  0.39843948112E+01  0.51100000000E-03 0.  1.
        -11    1    3    3    0    0  0.24570977171E+02 -0.57034020078E+01 -0.70644288436E+01  0.26194806141E+02  0.51100000000E-03 0. -1.
        -12    1    3    3    0    0  0.16848694179E+02  0.20026479573E+01  0.47069155162E+01  0.17608070537E+02  0.00000000000E+00 0.  1.
</event>
<event>
 7    1  0.4592673E-010  0.4778727E+02  0.7816164E-02  0.1312668E+00
        -11   -1    0    0    0    0  0.00000000000E+00  0.00000000000E+00  0.45593999997E+02  0.45594000000E+02  0.51100000000E-03 0. -1.
         11   -1    0    0    0    0 -0.00000000000E+00 -0.00000000000E+00 -0.45593999997E+02  0.45594000000E+02  0.51100000000E-03 0.  1.
    9900012    2    1    2    0    0  0.38934145305E+02 -0.12335068478E+02  0.14683377108E+02  0.47787272491E+02  0.20000006596E+02 0.  0.
        -12    1    1    2    0    0 -0.38934145305E+02  0.12335068478E+02 -0.14683377108E+02  0.43400727509E+02  0.00000000000E+00 0.  1.
         11    1    3    3    0    0  0.75589693374E+01 -0.30405808517E+01  0.70820728014E+01  0.10795318651E+02  0.51100000000E-03 0. -1.
        -11    1    3    3    0    0 -0.52420810199E+00 -0.17632067588E+01 -0.21176150434E+01  0.28049930377E+01  0.51100000000E-03 0.  1.
         12    1    3    3    0    0  0.31899384070E+02 -0.75312808673E+01  0.97189193496E+01  0.34186960802E+02  0.00000000000E+00 0. -1.
</event>
<event>
 7    1  0.4592673E-010  0.4778727E+02  0.7816164E-02  0.1312668E+00
        -11   -1    0    0    0    0  0.00000000000E+00  0.00000000000E+00  0.45593999997E+02  0.45594000000E+02  0.51100000000E-03 0.  1.
         11   -1    0    0    0    0 -0.00000000000E+00 -0.00000000000E+00 -0.45593999997E+02  0.45594000000E+02  0.51100000000E-03 0. -1.
    9900012    2    1    2    0    0 -0.88785638199E+01  0.13744187556E+01 -0.42460632773E+02  0.47787271228E+02  0.20000000838E+02 0.  0.
        -12    1    1    2    0    0  0.88785638199E+01 -0.13744187556E+01  0.42460632773E+02  0.43400728772E+02  0.00000000000E+00 0.  1.
         11    1    3    3    0    0 -0.32593177417E+01 -0.35127041332E+01 -0.56189478768E+01  0.73847693242E+01  0.51100000000E-03 0. -1.
        -11    1    3    3    0    0 -0.85482489498E+01 -0.17227326567E+01 -0.25526197946E+02  0.26974564867E+02  0.51100000000E-03 0.  1.
         12    1    3    3    0    0  0.29290028716E+01  0.66098555455E+01 -0.11315486950E+02  0.13427937037E+02  0.00000000000E+00 0. -1.
</event>
<event>
 7    1  0.4592673E-010  0.4778727E+02  0.7816164E-02  0.1312668E+00
        -11   -1    0    0    0    0  0.00000000000E+00  0.00000000000E+00  0.45593999997E+02  0.45594000000E+02  0.51100000000E-03 0. -1.
         11   -1    0    0    0    0 -0.00000000000E+00 -0.00000000000E+00 -0.45593999997E+02  0.45594000000E+02  0.51100000000E-03 0.  1.
    9900012    2    1    2    0    0  0.10523433555E+02 -0.34682437811E+02  0.23874859040E+02  0.47787273733E+02  0.20000012258E+02 0.  0.
        -12    1    1    2    0    0 -0.10523433555E+02  0.34682437811E+02 -0.23874859040E+02  0.43400726267E+02  0.00000000000E+00 0.  1.
         11    1    3    3    0    0  0.38044888119E+01 -0.11024664608E+01 -0.59295500450E-01  0.39614496885E+01  0.51100000000E-03 0. -1.
        -11    1    3    3    0    0 -0.36498276409E+01 -0.99074315112E+01  0.44386893786E+01  0.11453401443E+02  0.51100000000E-03 0.  1.
         12    1    3    3    0    0  0.10368772384E+02 -0.23672539839E+02  0.19495465162E+02  0.32372422601E+02  0.00000000000E+00 0. -1.
</event>
<event>
 7    1  0.4592673E-010  0.4778727E+02  0.7816164E-02  0.1312668E+00
        -11   -1    0    0    0    0  0.00000000000E+00  0.00000000000E+00  0.45593999997E+02  0.45594000000E+02  0.51100000000E-03 0. -1.
         11   -1    0    0    0    0 -0.00000000000E+00 -0.00000000000E+00 -0.45593999997E+02  0.45594000000E+02  0.51100000000E-03 0.  1.
    9900012    2    1    2    0    0 -0.26025817092E+02  0.28228240467E+02  0.20234796937E+02  0.47787265879E+02  0.19999976449E+02 0.  0.
        -12    1    1    2    0    0  0.26025817092E+02 -0.28228240467E+02 -0.20234796937E+02  0.43400734121E+02  0.00000000000E+00 0.  1.
         11    1    3    3    0    0 -0.15699296241E+02  0.17757805032E+02  0.13545087407E+02  0.27299760716E+02  0.51100000000E-03 0.  1.
        -11    1    3    3    0    0 -0.95114429900E+01  0.13037179251E+02  0.73217568521E+01  0.17721278572E+02  0.51100000000E-03 0. -1.
        -12    1    3    3    0    0 -0.81507786048E+00 -0.25667438157E+01 -0.63204732229E+00  0.27662265908E+01  0.00000000000E+00 0.  1.
</event>
<event>
 7    1  0.4592673E-010  0.4778727E+02  0.7816164E-02  0.1312668E+00
        -11   -1    0    0    0    0  0.00000000000E+00  0.00000000000E+00  0.45593999997E+02  0.45594000000E+02  0.51100000000E-03 0.  1.
         11   -1    0    0    0    0 -0.00000000000E+00 -0.00000000000E+00 -0.45593999997E+02  0.45594000000E+02  0.51100000000E-03 0. -1.
    9900012    2    1    2    0    0  0.54937309872E+01  0.24502660845E+02 -0.35398612306E+02  0.47787271643E+02  0.20000002731E+02 0.  0.
        -12    1    1    2    0    0 -0.54937309872E+01 -0.24502660845E+02  0.35398612306E+02  0.43400728357E+02  0.00000000000E+00 0.  1.
         11    1    3    3    0    0 -0.29476075054E+00  0.23193927178E+01 -0.12164170806E+02  0.12386828413E+02  0.51100000000E-03 0. -1.
        -11    1    3    3    0    0  0.67042389813E+01  0.13850898024E+02 -0.22117263494E+02  0.26943784833E+02  0.51100000000E-03 0.  1.
        -12    1    3    3    0    0 -0.91574724360E+00  0.83323701038E+01 -0.11171780068E+01  0.84566583980E+01  0.00000000000E+00 0.  1.
</event>
<event>
 7    1  0.4592673E-010  0.4778727E+02  0.7816164E-02  0.1312668E+00
        -11   -1    0    0    0    0  0.00000000000E+00  0.00000000000E+00  0.45593999997E+02  0.45594000000E+02  0.51100000000E-03 0. -1.
         11   -1    0    0    0    0 -0.00000000000E+00 -0.00000000000E+00 -0.45593999997E+02  0.45594000000E+02  0.51100000000E-03 0.  1.
    9900012    2    1    2    0    0 -0.15438496996E+02 -0.27427937932E+02  0.29882842504E+02  0.47787271379E+02  0.20000001526E+02 0.  0.
        -12    1    1    2    0    0  0.15438496996E+02  0.27427937932E+02 -0.29882842504E+02  0.43400728621E+02  0.00000000000E+00 0.  1.
         11    1    3    3    0    0 -0.51225944354E+01 -0.46007525588E+01  0.54163521723E+01  0.87604091783E+01  0.51100000000E-03 0. -1.
        -11    1    3    3    0    0 -0.12442074626E+01  0.24138158300E+01  0.56327395253E+01  0.62531843002E+01  0.51100000000E-03 0.  1.
         12    1    3    3    0    0 -0.90716950983E+01 -0.25241001203E+02  0.18833750806E+02  0.32773677901E+02  0.00000000000E+00 0. -1.
</event>
<event>
 7    1  0.4592673E-010  0.4778727E+02  0.7816164E-02  0.1312668E+00
        -11   -1    0    0    0    0  0.00000000000E+00  0.00000000000E+00  0.45593999997E+02  0.45594000000E+02  0.51100000000E-03 0. -1.
         11   -1    0    0    0    0 -0.00000000000E+00 -0.00000000000E+00 -0.45593999997E+02  0.45594000000E+02  0.51100000000E-03 0.  1.
    9900012    2    1    2    0    0 -0.99782631502E+01 -0.14778361518E+01  0.42212244045E+02  0.47787270945E+02  0.19999999546E+02 0.  0.
        -12    1    1    2    0    0  0.99782631502E+01  0.14778361518E+01 -0.42212244045E+02  0.43400729055E+02  0.00000000000E+00 0.  1.
         11    1    3    3    0    0 -0.54598971717E+00  0.27743482236E+01  0.78846801647E+00  0.29354377717E+01  0.51100000000E-03 0. -1.
        -11    1    3    3    0    0 -0.97504604263E+01  0.19240183180E+01  0.17335260574E+02  0.19982106606E+02  0.51100000000E-03 0.  1.
        -12    1    3    3    0    0  0.31818699324E+00 -0.61762026934E+01  0.24088515455E+02  0.24869726567E+02  0.00000000000E+00 0.  1.
</event>
<event>
 7    1  0.4592673E-010  0.4778726E+02  0.7816164E-02  0.1312668E+00
        -11   -1    0    0    0    0  0.00000000000E+00  0.00000000000E+00  0.45593999997E+02  0.45594000000E+02  0.51100000000E-03 0.  1.
         11   -1    0    0    0    0 -0.00000000000E+00 -0.00000000000E+00 -0.45593999997E+02  0.45594000000E+02  0.51100000000E-03 0. -1.
    9900012    2    1    2    0    0  0.24057588915E+02  0.13765575700E+02 -0.33397092895E+02  0.47787257235E+02  0.19999937035E+02 0.  0.
        -12    1    1    2    0    0 -0.24057588915E+02 -0.13765575700E+02  0.33397092895E+02  0.43400742765E+02  0.00000000000E+00 0.  1.
         11    1    3    3    0    0  0.10003886112E+01 -0.24155103162E+01  0.48198481893E-01  0.26149169807E+01  0.51100000000E-03 0. -1.
        -11    1    3    3    0    0 -0.14954972613E+00  0.41790286172E+01 -0.56003139435E+01  0.69892890790E+01  0.51100000000E-03 0.  1.
         12    1    3    3    0    0  0.23206750030E+02  0.12002057399E+02 -0.27844977433E+02  0.38183051175E+02  0.00000000000E+00 0. -1.
</event>
<event>
 7    1  0.4592673E-010  0.4778724E+02  0.7816164E-02  0.1312668E+00
        -11   -1    0    0    0    0  0.00000000000E+00  0.00000000000E+00  0.45593999997E+02  0.45594000000E+02  0.51100000000E-03 0.  1.
         11   -1    0    0    0    0 -0.00000000000E+00 -0.00000000000E+00 -0.45593999997E+02  0.45594000000E+02  0.51100000000E-03 0. -1.
    9900012    2    1    2    0    0  0.30546472965E+02  0.98371742096E+01 -0.29219318356E+02  0.47787244566E+02  0.19999879274E+02 0.  0.
        -12    1    1    2    0    0 -0.30546472965E+02 -0.98371742096E+01  0.29219318356E+02  0.43400755434E+02  0.00000000000E+00 0.  1.
         11    1    3    3    0    0  0.22988189422E+01  0.66575765275E+01 -0.34752854177E+01  0.78540118885E+01  0.51100000000E-03 0. -1.
        -11    1    3    3    0    0  0.14224742024E+02  0.68787158201E+01 -0.11003536685E+02  0.19254553665E+02  0.51100000000E-03 0.  1.
        -12    1    3    3    0    0  0.14022911999E+02 -0.36991181380E+01 -0.14740496253E+02  0.20678679013E+02  0.00000000000E+00 0.  1.
</event>
<event>
 7    1  0.4592673E-010  0.4778727E+02  0.7816164E-02  0.1312668E+00
        -11   -1    0    0    0    0  0.00000000000E+00  0.00000000000E+00  0.45593999997E+02  0.45594000000E+02  0.51100000000E-03 0. -1.
         11   -1    0    0    0    0 -0.00000000000E+00 -0.00000000000E+00 -0.45593999997E+02  0.45594000000E+02  0.51100000000E-03 0.  1.
    9900012    2    1    2    0    0 -0.23567778832E+02 -0.31929005794E+02  0.17570475857E+02  0.47787271528E+02  0.20000002204E+02 0.  0.
        -12    1    1    2    0    0  0.23567778832E+02  0.31929005794E+02 -0.17570475857E+02  0.43400728472E+02  0.00000000000E+00 0.  1.
         11    1    3    3    0    0 -0.11355676555E+02 -0.20887827073E+02  0.17658061643E+02  0.29615196286E+02  0.51100000000E-03 0. -1.
        -11    1    3    3    0    0 -0.30218915853E+01 -0.17566647225E+00  0.22219422351E+01  0.37549587242E+01  0.51100000000E-03 0.  1.
         12    1    3    3    0    0 -0.91902106921E+01 -0.10865512249E+02 -0.23095280203E+01  0.14417116517E+02  0.00000000000E+00 0. -1.
</event>
<event>
 7    1  0.4592673E-010  0.4778728E+02  0.7816164E-02  0.1312668E+00
        -11   -1    0    0    0    0  0.00000000000E+00  0.00000000000E+00  0.45593999997E+02  0.45594000000E+02  0.51100000000E-03 0.  1.
         11   -1    0    0    0    0 -0.00000000000E+00 -0.00000000000E+00 -0.45593999997E+02  0.45594000000E+02  0.51100000000E-03 0. -1.
    9900012    2    1    2    0    0 -0.11832793236E+02 -0.28040141043E+02 -0.30941203308E+02  0.47787279181E+02  0.20000037098E+02 0.  0.
        -12    1    1    2    0    0  0.11832793236E+02  0.28040141043E+02  0.30941203308E+02  0.43400720819E+02  0.00000000000E+00 0.  1.
         11    1    3    3    0    0  0.88141925035E-01 -0.37344900941E+01 -0.79126044900E+01  0.87500568763E+01  0.51100000000E-03 0. -1.
        -11    1    3    3    0    0 -0.15189393709E+02 -0.23713282994E+02 -0.21171227038E+02  0.35231496224E+02  0.51100000000E-03 0.  1.
        -12    1    3    3    0    0  0.32684585483E+01 -0.59236795467E+00 -0.18573717797E+01  0.38057260810E+01  0.00000000000E+00 0.  1.
</event>
<event>
 7    1  0.4592673E-010  0.4778727E+02  0.7816164E-02  0.1312668E+00
        -11   -1    0    0    0    0  0.00000000000E+00  0.00000000000E+00  0.45593999997E+02  0.45594000000E+02  0.51100000000E-03 0.  1.
         11   -1    0    0    0    0 -0.00000000000E+00 -0.00000000000E+00 -0.45593999997E+02  0.45594000000E+02  0.51100000000E-03 0. -1.
    9900012    2    1    2    0    0  0.10194757360E+02 -0.13747612420E+02 -0.39883496599E+02  0.47787271598E+02  0.20000002524E+02 0.  0.
        -12    1    1    2    0    0 -0.10194757360E+02  0.13747612420E+02  0.39883496599E+02  0.43400728402E+02  0.00000000000E+00 0.  1.
         11    1    3    3    0    0  0.89212646259E-01  0.14648377774E+01 -0.39828000546E+01  0.42445736118E+01  0.51100000000E-03 0. -1.
        -11    1    3    3    0    0  0.16002997075E+01 -0.68514939380E+01 -0.15832602756E+01  0.72118403821E+01  0.51100000000E-03 0.  1.
         12    1    3    3    0    0  0.85052450063E+01 -0.83609562592E+01 -0.34317436269E+02  0.36330857604E+02  0.00000000000E+00 0. -1.
</event>
<event>
 7    1  0.4592673E-010  0.4778728E+02  0.7816164E-02  0.1312668E+00
        -11   -1    0    0    0    0  0.00000000000E+00  0.00000000000E+00  0.45593999997E+02  0.45594000000E+02  0.51100000000E-03 0. -1.
         11   -1    0    0    0    0 -0.00000000000E+00 -0.00000000000E+00 -0.45593999997E+02  0.45594000000E+02  0.51100000000E-03 0.  1.
    9900012    2    1    2    0    0  0.13776185968E+02  0.10752042286E+02  0.39726981242E+02  0.47787277060E+02  0.20000027428E+02 0.  0.
        -12    1    1    2    0    0 -0.13776185968E+02 -0.10752042286E+02 -0.39726981242E+02  0.43400722940E+02  0.00000000000E+00 0.  1.
         11    1    3    3    0    0  0.73974214797E+00 -0.10597966491E+01 -0.73985768710E+00  0.14892202796E+01  0.51100000000E-03 0.  1.
        -11    1    3    3    0    0  0.83914491233E+01  0.14100891409E+02  0.35563737798E+02  0.39166707844E+02  0.51100000000E-03 0. -1.
         12    1    3    3    0    0  0.46449946966E+01 -0.22890524739E+01  0.49031011310E+01  0.71313489369E+01  0.00000000000E+00 0. -1.
</event>
<event>
 7    1  0.4592673E-010  0.4778728E+02  0.7816164E-02  0.1312668E+00
        -11   -1    0    0    0    0  0.00000000000E+00  0.00000000000E+00  0.45593999997E+02  0.45594000000E+02  0.51100000000E-03 0.  1.
         11   -1    0    0    0    0 -0.00000000000E+00 -0.00000000000E+00 -0.45593999997E+02  0.45594000000E+02  0.51100000000E-03 0. -1.
    9900012    2    1    2    0    0 -0.32595563577E+02 -0.24279154327E+02 -0.15220845511E+02  0.47787282981E+02  0.20000054423E+02 0.  0.
        -12    1    1    2    0    0  0.32595563577E+02  0.24279154327E+02  0.15220845511E+02  0.43400717019E+02  0.00000000000E+00 0.  1.
         11    1    3    3    0    0 -0.59483209257E+01 -0.21208559939E+01 -0.32601020035E+01  0.71069555589E+01  0.51100000000E-03 0. -1.
        -11    1    3    3    0    0 -0.23366091695E+02 -0.23447001121E+02 -0.58343587508E+01  0.33612138357E+02  0.51100000000E-03 0.  1.
        -12    1    3    3    0    0 -0.32811509559E+01  0.12887027875E+01 -0.61263847566E+01  0.70681890648E+01  0.00000000000E+00 0.  1.
</event>
<event>
 7    1  0.4592673E-010  0.4778727E+02  0.7816164E-02  0.1312668E+00
        -11   -1    0    0    0    0  0.00000000000E+00  0.00000000000E+00  0.45593999997E+02  0.45594000000E+02  0.51100000000E-03 0.  1.
         11   -1    0    0    0    0 -0.00000000000E+00 -0.00000000000E+00 -0.45593999997E+02  0.45594000000E+02  0.51100000000E-03 0. -1.
    9900012    2    1    2    0    0  0.39010583749E+02 -0.12973839983E+02  0.13909610796E+02  0.47787269121E+02  0.19999991228E+02 0.  0.
        -12    1    1    2    0    0 -0.39010583749E+02  0.12973839983E+02 -0.13909610796E+02  0.43400730879E+02  0.00000000000E+00 0.  1.
         11    1    3    3    0    0  0.61143315289E+01  0.20133105051E+01  0.49167640728E+01  0.81001875560E+01  0.51100000000E-03 0. -1.
        -11    1    3    3    0    0  0.61857182971E+00 -0.45317232126E+01  0.22398730567E+01  0.50927574020E+01  0.51100000000E-03 0.  1.
         12    1    3    3    0    0  0.32277680391E+02 -0.10455427275E+02  0.67529736663E+01  0.34594324163E+02  0.00000000000E+00 0. -1.
</event>
<event>
 7    1  0.4592673E-010  0.4778726E+02  0.7816164E-02  0.1312668E+00
        -11   -1    0    0    0    0  0.00000000000E+00  0.00000000000E+00  0.45593999997E+02  0.45594000000E+02  0.51100000000E-03 0.  1.
         11   -1    0    0    0    0 -0.00000000000E+00 -0.00000000000E+00 -0.45593999997E+02  0.45594000000E+02  0.51100000000E-03 0. -1.
    9900012    2    1    2    0    0  0.35116764800E+02  0.10283991067E+02 -0.23338314398E+02  0.47787256214E+02  0.19999932381E+02 0.  0.
        -12    1    1    2    0    0 -0.35116764800E+02 -0.10283991067E+02  0.23338314398E+02  0.43400743786E+02  0.00000000000E+00 0.  1.
         11    1    3    3    0    0  0.23332164134E+02  0.87103047293E+00 -0.16988219802E+02  0.28874698086E+02  0.51100000000E-03 0. -1.
        -11    1    3    3    0    0  0.31879453835E+01  0.24640507603E+00  0.20486244637E+01  0.37974430455E+01  0.51100000000E-03 0.  1.
        -12    1    3    3    0    0  0.85966552823E+01  0.91665555183E+01 -0.83987190589E+01  0.15115115082E+02  0.00000000000E+00 0.  1.
</event>
<event>
 7    1  0.4592673E-010  0.4778727E+02  0.7816164E-02  0.1312668E+00
        -11   -1    0    0    0    0  0.00000000000E+00  0.00000000000E+00  0.45593999997E+02  0.45594000000E+02  0.51100000000E-03 0.  1.
         11   -1    0    0    0    0 -0.00000000000E+00 -0.00000000000E+00 -0.45593999997E+02  0.45594000000E+02  0.51100000000E-03 0. -1.
    9900012    2    1    2    0    0  0.56635377628E+01 -0.38975850614E+02 -0.18232676425E+02  0.47787273270E+02  0.20000010145E+02 0.  0.
        -12    1    1    2    0    0 -0.56635377628E+01  0.38975850614E+02  0.18232676425E+02  0.43400726730E+02  0.00000000000E+00 0.  1.
         11    1    3    3    0    0 -0.18615233921E+01 -0.10679346462E+02 -0.29654968587E+01  0.11238677951E+02  0.51100000000E-03 0. -1.
        -11    1    3    3    0    0  0.51985933277E+01 -0.11603886865E+02  0.14652008388E+01  0.12799311573E+02  0.51100000000E-03 0.  1.
         12    1    3    3    0    0  0.23264678271E+01 -0.16692617287E+02 -0.16732380405E+02  0.23749283746E+02  0.00000000000E+00 0. -1.
</event>
<event>
 7    1  0.4592673E-010  0.4778728E+02  0.7816164E-02  0.1312668E+00
        -11   -1    0    0    0    0  0.00000000000E+00  0.00000000000E+00  0.45593999997E+02  0.45594000000E+02  0.51100000000E-03 0.  1.
         11   -1    0    0    0    0 -0.00000000000E+00 -0.00000000000E+00 -0.45593999997E+02  0.45594000000E+02  0.51100000000E-03 0. -1.
    9900012    2    1    2    0    0  0.37212185554E+02  0.14694368649E+02 -0.16821157158E+02  0.47787279363E+02  0.20000037926E+02 0.  0.
        -12    1    1    2    0    0 -0.37212185554E+02 -0.14694368649E+02  0.16821157158E+02  0.43400720637E+02  0.00000000000E+00 0.  1.
         11    1    3    3    0    0  0.96288408373E+01  0.74868931960E+01 -0.28351485034E+01  0.12522228751E+02  0.51100000000E-03 0. -1.
        -11    1    3    3    0    0  0.21197716619E+01  0.27586148979E+00  0.31446173930E+01  0.38023874434E+01  0.51100000000E-03 0.  1.
         12    1    3    3    0    0  0.25463573055E+02  0.69316139635E+01 -0.17130626048E+02  0.31462663168E+02  0.00000000000E+00 0. -1.
</event>
<event>
 7    1  0.4592673E-010  0.4778727E+02  0.7816164E-02  0.1312668E+00
        -11   -1    0    0    0    0  0.00000000000E+00  0.00000000000E+00  0.45593999997E+02  0.45594000000E+02  0.51100000000E-03 0.  1.
         11   -1    0    0    0    0 -0.00000000000E+00 -0.00000000000E+00 -0.45593999997E+02  0.45594000000E+02  0.51100000000E-03 0. -1.
    9900012    2    1    2    0    0  0.19647923590E+02 -0.38698016526E+02  0.21425492974E+00  0.47787270863E+02  0.19999999173E+02 0.  0.
        -12    1    1    2    0    0 -0.19647923590E+02  0.38698016526E+02 -0.21425492974E+00  0.43400729137E+02  0.00000000000E+00 0.  1.
         11    1    3    3    0    0  0.40706408544E+01 -0.12495394632E+02 -0.57313896511E+01  0.14337148655E+02  0.51100000000E-03 0. -1.
        -11    1    3    3    0    0  0.46982767769E+01 -0.16006551852E+02 -0.15651108650E+01  0.16755091141E+02  0.51100000000E-03 0.  1.
         12    1    3    3    0    0  0.10879005959E+02 -0.10196070042E+02  0.75107554458E+01  0.16695031066E+02  0.00000000000E+00 0. -1.
</event>
<event>
 7    1  0.4631775E-010  0.4778725E+02  0.7816164E-02  0.1312668E+00
        -11   -1    0    0    0    0  0.00000000000E+00  0.00000000000E+00  0.45593999997E+02  0.45594000000E+02  0.51100000000E-03 0. -1.
         11   -1    0    0    0    0 -0.00000000000E+00 -0.00000000000E+00 -0.45593999997E+02  0.45594000000E+02  0.51100000000E-03 0.  1.
    9900012    2    1    2    0    0  0.10073486594E+01 -0.25659756651E+02  0.34988386153E+02  0.47787250833E+02  0.19999907846E+02 0.  0.
        -12    1    1    2    0    0 -0.10073486594E+01  0.25659756651E+02 -0.34988386153E+02  0.43400749167E+02  0.00000000000E+00 0.  1.
         11    1    3    3    0    0 -0.15319476275E+01 -0.14233549729E+02  0.16794895955E+02  0.22068287923E+02  0.51100000000E-03 0. -1.
        -11    1    3    3    0    0 -0.40068914056E+01 -0.28700039466E+01  0.43457556450E+00  0.49478235187E+01  0.51100000000E-03 0.  1.
        -12    1    3    3    0    0  0.65461876925E+01 -0.85562029750E+01  0.17758914633E+02  0.20771139391E+02  0.00000000000E+00 0.  1.
</event>
<event>
 7    1  0.4592673E-010  0.4778727E+02  0.7816164E-02  0.1312668E+00
        -11   -1    0    0    0    0  0.00000000000E+00  0.00000000000E+00  0.45593999997E+02  0.45594000000E+02  0.51100000000E-03 0.  1.
         11   -1    0    0    0    0 -0.00000000000E+00 -0.00000000000E+00 -0.45593999997E+02  0.45594000000E+02  0.51100000000E-03 0. -1.
    9900012    2    1    2    0    0  0.70180860257E+01 -0.39828170042E+02  0.15750769475E+02  0.47787269598E+02  0.19999993404E+02 0.  0.
        -12    1    1    2    0    0 -0.70180860257E+01  0.39828170042E+02 -0.15750769475E+02  0.43400730402E+02  0.00000000000E+00 0.  1.
         11    1    3    3    0    0  0.10023472936E+02 -0.23610019681E+02  0.73719949821E+01  0.26688000100E+02  0.51100000000E-03 0. -1.
        -11    1    3    3    0    0  0.17531078486E+00 -0.14868340137E+02  0.92810399062E+01  0.17528148056E+02  0.51100000000E-03 0.  1.
        -12    1    3    3    0    0 -0.31806976956E+01 -0.13498102246E+01 -0.90226541325E+00  0.35711214414E+01  0.00000000000E+00 0.  1.
</event>
<event>
 7    1  0.4592673E-010  0.4778727E+02  0.7816164E-02  0.1312668E+00
        -11   -1    0    0    0    0  0.00000000000E+00  0.00000000000E+00  0.45593999997E+02  0.45594000000E+02  0.51100000000E-03 0.  1.
         11   -1    0    0    0    0 -0.00000000000E+00 -0.00000000000E+00 -0.45593999997E+02  0.45594000000E+02  0.51100000000E-03 0. -1.
    9900012    2    1    2    0    0  0.19540201943E+02  0.29992327377E+02 -0.24541076617E+02  0.47787266885E+02  0.19999981033E+02 0.  0.
        -12    1    1    2    0    0 -0.19540201943E+02 -0.29992327377E+02  0.24541076617E+02  0.43400733115E+02  0.00000000000E+00 0.  1.
         11    1    3    3    0    0  0.48700335768E+01  0.12080254480E+02 -0.16028753937E+02  0.20653588753E+02  0.51100000000E-03 0. -1.
        -11    1    3    3    0    0 -0.16335002384E+01  0.13111189942E+00 -0.48299953050E+00  0.17084502236E+01  0.51100000000E-03 0.  1.
         12    1    3    3    0    0  0.16303668604E+02  0.17780960997E+02 -0.80293231498E+01  0.25425227908E+02  0.00000000000E+00 0. -1.
</event>
<event>
 7    1  0.4592673E-010  0.4778727E+02  0.7816164E-02  0.1312668E+00
        -11   -1    0    0    0    0  0.00000000000E+00  0.00000000000E+00  0.45593999997E+02  0.45594000000E+02  0.51100000000E-03 0.  1.
         11   -1    0    0    0    0 -0.00000000000E+00 -0.00000000000E+00 -0.45593999997E+02  0.45594000000E+02  0.51100000000E-03 0. -1.
    9900012    2    1    2    0    0 -0.35667711679E+02  0.17952085592E+02 -0.17004713166E+02  0.47787270704E+02  0.19999998450E+02 0.  0.
        -12    1    1    2    0    0  0.35667711679E+02 -0.17952085592E+02  0.17004713166E+02  0.43400729296E+02  0.00000000000E+00 0.  1.
         11    1    3    3    0    0 -0.25538353824E+01 -0.18252600980E+01 -0.17639278143E+01  0.36007070390E+01  0.51100000000E-03 0. -1.
        -11    1    3    3    0    0 -0.16657765338E+01 -0.63380545222E+00 -0.50200610479E+01  0.53270567857E+01  0.51100000000E-03 0.  1.
         12    1    3    3    0    0 -0.31448099763E+02  0.20411151142E+02 -0.10220724304E+02  0.38859506880E+02  0.00000000000E+00 0. -1.
</event>
<event>
 7    1  0.4592673E-010  0.4778727E+02  0.7816164E-02  0.1312668E+00
        -11   -1    0    0    0    0  0.00000000000E+00  0.00000000000E+00  0.45593999997E+02  0.45594000000E+02  0.51100000000E-03 0.  1.
         11   -1    0    0    0    0 -0.00000000000E+00 -0.00000000000E+00 -0.45593999997E+02  0.45594000000E+02  0.51100000000E-03 0. -1.
    9900012    2    1    2    0    0 -0.12139233476E+02  0.11024870840E+02 -0.40183510812E+02  0.47787270656E+02  0.19999998231E+02 0.  0.
        -12    1    1    2    0    0  0.12139233476E+02 -0.11024870840E+02  0.40183510812E+02  0.43400729344E+02  0.00000000000E+00 0.  1.
         11    1    3    3    0    0  0.36393472616E+01  0.36933595005E+01 -0.95093573473E+01  0.10831141690E+02  0.51100000000E-03 0. -1.
        -11    1    3    3    0    0 -0.32121482267E+01  0.48326813295E+01 -0.31655932579E+01  0.66101199685E+01  0.51100000000E-03 0.  1.
        -12    1    3    3    0    0 -0.12566432511E+02  0.24988300098E+01 -0.27508560206E+02  0.30346008998E+02  0.00000000000E+00 0.  1.
</event>
<event>
 7    1  0.4592673E-010  0.4778728E+02  0.7816164E-02  0.1312668E+00
        -11   -1    0    0    0    0  0.00000000000E+00  0.00000000000E+00  0.45593999997E+02  0.45594000000E+02  0.51100000000E-03 0.  1.
         11   -1    0    0    0    0 -0.00000000000E+00 -0.00000000000E+00 -0.45593999997E+02  0.45594000000E+02  0.51100000000E-03 0. -1.
    9900012    2    1    2    0    0  0.43191134797E+02  0.83365119120E-01 -0.42592888459E+01  0.47787278621E+02  0.20000034544E+02 0.  0.
        -12    1    1    2    0    0 -0.43191134797E+02 -0.83365119120E-01  0.42592888459E+01  0.43400721379E+02  0.00000000000E+00 0.  1.
         11    1    3    3    0    0  0.59299274015E+01  0.11198996102E+01 -0.22268780486E+01  0.64325111915E+01  0.51100000000E-03 0. -1.
        -11    1    3    3    0    0  0.22577490956E+02  0.44177751974E+00  0.74897669557E+01  0.23791487438E+02  0.51100000000E-03 0.  1.
        -12    1    3    3    0    0  0.14683716439E+02 -0.14783120108E+01 -0.95221777530E+01  0.17563279991E+02  0.00000000000E+00 0.  1.
</event>
<event>
 7    1  0.4592673E-010  0.4778727E+02  0.7816164E-02  0.1312668E+00
        -11   -1    0    0    0    0  0.00000000000E+00  0.00000000000E+00  0.45593999997E+02  0.45594000000E+02  0.51100000000E-03 0.  1.
         11   -1    0    0    0    0 -0.00000000000E+00 -0.00000000000E+00 -0.45593999997E+02  0.45594000000E+02  0.51100000000E-03 0. -1.
    9900012    2    1    2    0    0  0.58013922134E+01 -0.21934028526E+02 -0.36998180755E+02  0.47787272608E+02  0.20000007128E+02 0.  0.
        -12    1    1    2    0    0 -0.58013922134E+01  0.21934028526E+02  0.36998180755E+02  0.43400727392E+02  0.00000000000E+00 0.  1.
         11    1    3    3    0    0  0.37171781032E+01 -0.15946942903E+02 -0.13361942699E+02  0.21134424855E+02  0.51100000000E-03 0. -1.
        -11    1    3    3    0    0 -0.15676179375E+01 -0.80581086480E+00  0.38936166852E+00  0.18050927726E+01  0.51100000000E-03 0.  1.
         12    1    3    3    0    0  0.36518320477E+01 -0.51812747580E+01 -0.24025599725E+02  0.24847754980E+02  0.00000000000E+00 0. -1.
</event>
<event>
 7    1  0.4592673E-010  0.4778727E+02  0.7816164E-02  0.1312668E+00
        -11   -1    0    0    0    0  0.00000000000E+00  0.00000000000E+00  0.45593999997E+02  0.45594000000E+02  0.51100000000E-03 0.  1.
         11   -1    0    0    0    0 -0.00000000000E+00 -0.00000000000E+00 -0.45593999997E+02  0.45594000000E+02  0.51100000000E-03 0. -1.
    9900012    2    1    2    0    0  0.36587010650E+02  0.21773188535E+02  0.84227331871E+01  0.47787268190E+02  0.19999986985E+02 0.  0.
        -12    1    1    2    0    0 -0.36587010650E+02 -0.21773188535E+02 -0.84227331871E+01  0.43400731810E+02  0.00000000000E+00 0.  1.
         11    1    3    3    0    0  0.20991455693E+02  0.13663512815E+02 -0.36468303703E+00  0.25049267226E+02  0.51100000000E-03 0. -1.
        -11    1    3    3    0    0  0.12001032063E+02  0.36317161173E+01  0.36428848539E+00  0.12543796829E+02  0.51100000000E-03 0.  1.
        -12    1    3    3    0    0  0.35945228938E+01  0.44779596028E+01  0.84231277388E+01  0.10194204135E+02  0.00000000000E+00 0.  1.
</event>
<event>
 7    1  0.4592673E-010  0.4778730E+02  0.7816164E-02  0.1312668E+00
        -11   -1    0    0    0    0  0.00000000000E+00  0.00000000000E+00  0.45593999997E+02  0.45594000000E+02  0.51100000000E-03 0.  1.
         11   -1    0    0    0    0 -0.00000000000E+00 -0.00000000000E+00 -0.45593999997E+02  0.45594000000E+02  0.51100000000E-03 0. -1.
    9900012    2    1    2    0    0  0.23292253545E+02  0.92372520389E+01 -0.35436769345E+02  0.47787302747E+02  0.20000144542E+02 0.  0.
        -12    1    1    2    0    0 -0.23292253545E+02 -0.92372520389E+01  0.35436769345E+02  0.43400697253E+02  0.00000000000E+00 0.  1.
         11    1    3    3    0    0  0.98763327221E+01  0.22513229605E+01 -0.13374043093E+02  0.16777229569E+02  0.51100000000E-03 0. -1.
        -11    1    3    3    0    0  0.14731061270E+02  0.24357774453E+01 -0.21590123245E+02  0.26250154283E+02  0.51100000000E-03 0.  1.
        -12    1    3    3    0    0 -0.13151404465E+01  0.45501516331E+01 -0.47260300793E+00  0.47599188944E+01  0.00000000000E+00 0.  1.
</event>
<event>
 7    1  0.4592673E-010  0.4778727E+02  0.7816164E-02  0.1312668E+00
        -11   -1    0    0    0    0  0.00000000000E+00  0.00000000000E+00  0.45593999997E+02  0.45594000000E+02  0.51100000000E-03 0. -1.
         11   -1    0    0    0    0 -0.00000000000E+00 -0.00000000000E+00 -0.45593999997E+02  0.45594000000E+02  0.51100000000E-03 0.  1.
    9900012    2    1    2    0    0  0.47508063166E+01  0.42323526459E+02  0.83529895174E+01  0.47787268595E+02  0.19999988832E+02 0.  0.
        -12    1    1    2    0    0 -0.47508063166E+01 -0.42323526459E+02 -0.83529895174E+01  0.43400731405E+02  0.00000000000E+00 0.  1.
         11    1    3    3    0    0 -0.21423678423E-01  0.33288012484E+01 -0.41410001371E+01  0.53131214104E+01  0.51100000000E-03 0. -1.
        -11    1    3    3    0    0  0.69765153084E+01  0.22663626165E+02  0.44130412150E+01  0.24120253934E+02  0.51100000000E-03 0.  1.
         12    1    3    3    0    0 -0.22042853134E+01  0.16331099046E+02  0.80809484394E+01  0.18353893251E+02  0.00000000000E+00 0. -1.
</event>
<event>
 7    1  0.4592673E-010  0.4778727E+02  0.7816164E-02  0.1312668E+00
        -11   -1    0    0    0    0  0.00000000000E+00  0.00000000000E+00  0.45593999997E+02  0.45594000000E+02  0.51100000000E-03 0. -1.
         11   -1    0    0    0    0 -0.00000000000E+00 -0.00000000000E+00 -0.45593999997E+02  0.45594000000E+02  0.51100000000E-03 0.  1.
    9900012    2    1    2    0    0  0.33940795219E+02  0.22682047870E+02  0.14736717202E+02  0.47787266025E+02  0.19999977112E+02 0.  0.
        -12    1    1    2    0    0 -0.33940795219E+02 -0.22682047870E+02 -0.14736717202E+02  0.43400733975E+02  0.00000000000E+00 0.  1.
         11    1    3    3    0    0  0.13289800106E+02  0.13204985556E+02  0.59672851092E+01  0.19662118966E+02  0.51100000000E-03 0. -1.
        -11    1    3    3    0    0  0.10334739991E+01  0.38898204941E+01  0.64409209772E+01  0.75950138433E+01  0.51100000000E-03 0.  1.
         12    1    3    3    0    0  0.19617521114E+02  0.55872418200E+01  0.23285111159E+01  0.20530133215E+02  0.00000000000E+00 0. -1.
</event>
<event>
 7    1  0.4592673E-010  0.4778727E+02  0.7816164E-02  0.1312668E+00
        -11   -1    0    0    0    0  0.00000000000E+00  0.00000000000E+00  0.45593999997E+02  0.45594000000E+02  0.51100000000E-03 0.  1.
         11   -1    0    0    0    0 -0.00000000000E+00 -0.00000000000E+00 -0.45593999997E+02  0.45594000000E+02  0.51100000000E-03 0. -1.
    9900012    2    1    2    0    0  0.33857942549E+02 -0.15512603304E+02 -0.22285020691E+02  0.47787270949E+02  0.19999999565E+02 0.  0.
        -12    1    1    2    0    0 -0.33857942549E+02  0.15512603304E+02  0.22285020691E+02  0.43400729051E+02  0.00000000000E+00 0.  1.
         11    1    3    3    0    0  0.15423282921E+02 -0.77098051105E+01 -0.26327542947E+01  0.17442767738E+02  0.51100000000E-03 0. -1.
        -11    1    3    3    0    0 -0.10498015595E+01  0.11251399253E+01 -0.54819464833E+00  0.16335668947E+01  0.51100000000E-03 0.  1.
         12    1    3    3    0    0  0.19484461188E+02 -0.89279381189E+01 -0.19104071748E+02  0.28710936317E+02  0.00000000000E+00 0. -1.
</event>
<event>
 7    1  0.4592673E-010  0.4778728E+02  0.7816164E-02  0.1312668E+00
        -11   -1    0    0    0    0  0.00000000000E+00  0.00000000000E+00  0.45593999997E+02  0.45594000000E+02  0.51100000000E-03 0. -1.
         11   -1    0    0    0    0 -0.00000000000E+00 -0.00000000000E+00 -0.45593999997E+02  0.45594000000E+02  0.51100000000E-03 0.  1.
    9900012    2    1    2    0    0  0.31464583379E+02  0.76134523823E+01  0.28907407676E+02  0.47787275548E+02  0.20000020535E+02 0.  0.
        -12    1    1    2    0    0 -0.31464583379E+02 -0.76134523823E+01 -0.28907407676E+02  0.43400724452E+02  0.00000000000E+00 0.  1.
         11    1    3    3    0    0  0.36402677351E+01  0.27042071944E+01  0.77493992453E+01  0.89787234426E+01  0.51100000000E-03 0. -1.
        -11    1    3    3    0    0  0.86729362073E+01 -0.41573211578E+01  0.11863042379E+01  0.96907409248E+01  0.51100000000E-03 0.  1.
        -12    1    3    3    0    0  0.19151379437E+02  0.90665663457E+01  0.19971704192E+02  0.29117811181E+02  0.00000000000E+00 0.  1.
</event>
<event>
 7    1  0.4592673E-010  0.4778732E+02  0.7816164E-02  0.1312668E+00
        -11   -1    0    0    0    0  0.00000000000E+00  0.00000000000E+00  0.45593999997E+02  0.45594000000E+02  0.51100000000E-03 0.  1.
         11   -1    0    0    0    0 -0.00000000000E+00 -0.00000000000E+00 -0.45593999997E+02  0.45594000000E+02  0.51100000000E-03 0. -1.
    9900012    2    1    2    0    0  0.26807244552E+02 -0.19241147605E+02 -0.28191646811E+02  0.47787319458E+02  0.20000220734E+02 0.  0.
        -12    1    1    2    0    0 -0.26807244552E+02  0.19241147605E+02  0.28191646811E+02  0.43400680542E+02  0.00000000000E+00 0.  1.
         11    1    3    3    0    0  0.80792015374E+01 -0.58548793559E+01 -0.10056681157E+02  0.14166507894E+02  0.51100000000E-03 0. -1.
        -11    1    3    3    0    0  0.10006621357E+02 -0.14525719772E+02 -0.59956526261E+01  0.18629998834E+02  0.51100000000E-03 0.  1.
        -12    1    3    3    0    0  0.87214216580E+01  0.11394515231E+01 -0.12139313028E+02  0.14990812730E+02  0.00000000000E+00 0.  1.
</event>
<event>
 7    1  0.4592673E-010  0.4778731E+02  0.7816164E-02  0.1312668E+00
        -11   -1    0    0    0    0  0.00000000000E+00  0.00000000000E+00  0.45593999997E+02  0.45594000000E+02  0.51100000000E-03 0.  1.
         11   -1    0    0    0    0 -0.00000000000E+00 -0.00000000000E+00 -0.45593999997E+02  0.45594000000E+02  0.51100000000E-03 0. -1.
    9900012    2    1    2    0    0  0.13580127760E+02  0.19036340128E+02 -0.36562520843E+02  0.47787308234E+02  0.20000169560E+02 0.  0.
        -12    1    1    2    0    0 -0.13580127760E+02 -0.19036340128E+02  0.36562520843E+02  0.43400691766E+02  0.00000000000E+00 0.  1.
         11    1    3    3    0    0  0.11661801696E+02  0.10769961935E+02 -0.25856958849E+02  0.30340929783E+02  0.51100000000E-03 0. -1.
        -11    1    3    3    0    0 -0.13329786953E+01  0.66437934843E-01 -0.81557729049E+01  0.82642530297E+01  0.51100000000E-03 0.  1.
         12    1    3    3    0    0  0.32513047591E+01  0.81999402572E+01 -0.25497890886E+01  0.91821254214E+01  0.00000000000E+00 0. -1.
</event>
<event>
 7    1  0.4592673E-010  0.4778727E+02  0.7816164E-02  0.1312668E+00
        -11   -1    0    0    0    0  0.00000000000E+00  0.00000000000E+00  0.45593999997E+02  0.45594000000E+02  0.51100000000E-03 0. -1.
         11   -1    0    0    0    0 -0.00000000000E+00 -0.00000000000E+00 -0.45593999997E+02  0.45594000000E+02  0.51100000000E-03 0.  1.
    9900012    2    1    2    0    0  0.10548443805E+02 -0.42066122425E+02  0.16718645999E+01  0.47787268971E+02  0.19999990548E+02 0.  0.
        -12    1    1    2    0    0 -0.10548443805E+02  0.42066122425E+02 -0.16718645999E+01  0.43400731029E+02  0.00000000000E+00 0.  1.
         11    1    3    3    0    0  0.44978510634E+01 -0.97503605896E+01  0.26470206544E+01  0.11059245653E+02  0.51100000000E-03 0. -1.
        -11    1    3    3    0    0  0.61173858690E+01 -0.29103557593E+02 -0.64025708847E+01  0.30420920246E+02  0.51100000000E-03 0.  1.
        -12    1    3    3    0    0 -0.66793127339E-01 -0.32122042427E+01  0.54274148302E+01  0.63071030717E+01  0.00000000000E+00 0.  1.
</event>
<event>
 7    1  0.4592673E-010  0.4778727E+02  0.7816164E-02  0.1312668E+00
        -11   -1    0    0    0    0  0.00000000000E+00  0.00000000000E+00  0.45593999997E+02  0.45594000000E+02  0.51100000000E-03 0.  1.
         11   -1    0    0    0    0 -0.00000000000E+00 -0.00000000000E+00 -0.45593999997E+02  0.45594000000E+02  0.51100000000E-03 0. -1.
    9900012    2    1    2    0    0  0.22112261811E+02  0.76023591283E+01 -0.36563304199E+02  0.47787271888E+02  0.20000003844E+02 0.  0.
        -12    1    1    2    0    0 -0.22112261811E+02 -0.76023591283E+01  0.36563304199E+02  0.43400728112E+02  0.00000000000E+00 0.  1.
         11    1    3    3    0    0  0.10723208339E+02 -0.14278574705E+01 -0.15725527925E+02  0.19087121386E+02  0.51100000000E-03 0. -1.
        -11    1    3    3    0    0  0.12532310730E+02  0.45296664324E+01 -0.92638295402E+01  0.16229455574E+02  0.51100000000E-03 0.  1.
        -12    1    3    3    0    0 -0.11432572578E+01  0.45005501664E+01 -0.11573946735E+02  0.12470694928E+02  0.00000000000E+00 0.  1.
</event>
<event>
 7    1  0.4592673E-010  0.4778728E+02  0.7816164E-02  0.1312668E+00
        -11   -1    0    0    0    0  0.00000000000E+00  0.00000000000E+00  0.45593999997E+02  0.45594000000E+02  0.51100000000E-03 0. -1.
         11   -1    0    0    0    0 -0.00000000000E+00 -0.00000000000E+00 -0.45593999997E+02  0.45594000000E+02  0.51100000000E-03 0.  1.
    9900012    2    1    2    0    0 -0.35523807216E+02 -0.24746765081E+02  0.30462388677E+01  0.47787276131E+02  0.20000023193E+02 0.  0.
        -12    1    1    2    0    0  0.35523807216E+02  0.24746765081E+02 -0.30462388677E+01  0.43400723869E+02  0.00000000000E+00 0.  1.
         11    1    3    3    0    0 -0.16542807726E+02 -0.16241504560E+02  0.15855719514E+01  0.23237146909E+02  0.51100000000E-03 0. -1.
        -11    1    3    3    0    0 -0.35971588067E+01 -0.36587033978E+01  0.59021589290E+01  0.78205589518E+01  0.51100000000E-03 0.  1.
        -12    1    3    3    0    0 -0.15383840683E+02 -0.48465571234E+01 -0.44414920128E+01  0.16729570270E+02  0.00000000000E+00 0.  1.
</event>
<event>
 7    1  0.4592673E-010  0.4778727E+02  0.7816164E-02  0.1312668E+00
        -11   -1    0    0    0    0  0.00000000000E+00  0.00000000000E+00  0.45593999997E+02  0.45594000000E+02  0.51100000000E-03 0.  1.
         11   -1    0    0    0    0 -0.00000000000E+00 -0.00000000000E+00 -0.45593999997E+02  0.45594000000E+02  0.51100000000E-03 0. -1.
    9900012    2    1    2    0    0 -0.70995628923E+01 -0.33660325588E+02 -0.26461328648E+02  0.47787271599E+02  0.20000002528E+02 0.  0.
        -12    1    1    2    0    0  0.70995628923E+01  0.33660325588E+02  0.26461328648E+02  0.43400728401E+02  0.00000000000E+00 0.  1.
         11    1    3    3    0    0  0.43347200892E+00 -0.11479508605E+00 -0.79174341075E+00  0.90990866788E+00  0.51100000000E-03 0. -1.
        -11    1    3    3    0    0  0.15831155498E+01 -0.86611799391E+01 -0.16735623703E+02  0.18910404379E+02  0.51100000000E-03 0.  1.
         12    1    3    3    0    0 -0.91161504511E+01 -0.24884350563E+02 -0.89339615340E+01  0.27966958552E+02  0.00000000000E+00 0. -1.
</event>
<event>
 7    1  0.4592673E-010  0.4778727E+02  0.7816164E-02  0.1312668E+00
        -11   -1    0    0    0    0  0.00000000000E+00  0.00000000000E+00  0.45593999997E+02  0.45594000000E+02  0.51100000000E-03 0. -1.
         11   -1    0    0    0    0 -0.00000000000E+00 -0.00000000000E+00 -0.45593999997E+02  0.45594000000E+02  0.51100000000E-03 0.  1.
    9900012    2    1    2    0    0  0.77268244175E+01  0.38159497749E+02  0.19177393446E+02  0.47787268400E+02  0.19999987941E+02 0.  0.
        -12    1    1    2    0    0 -0.77268244175E+01 -0.38159497749E+02 -0.19177393446E+02  0.43400731600E+02  0.00000000000E+00 0.  1.
         11    1    3    3    0    0 -0.42731965655E+01  0.68327252811E+01  0.44841710432E+00  0.80713952830E+01  0.51100000000E-03 0. -1.
        -11    1    3    3    0    0  0.33483313111E+01  0.11919028810E+01  0.97346668754E+00  0.36850498910E+01  0.51100000000E-03 0.  1.
         12    1    3    3    0    0  0.86516896719E+01  0.30134869587E+02  0.17755509655E+02  0.36030823226E+02  0.00000000000E+00 0. -1.
</event>
<event>
 7    1  0.4592673E-010  0.4778727E+02  0.7816164E-02  0.1312668E+00
        -11   -1    0    0    0    0  0.00000000000E+00  0.00000000000E+00  0.45593999997E+02  0.45594000000E+02  0.51100000000E-03 0.  1.
         11   -1    0    0    0    0 -0.00000000000E+00 -0.00000000000E+00 -0.45593999997E+02  0.45594000000E+02  0.51100000000E-03 0. -1.
    9900012    2    1    2    0    0 -0.33850866709E+01  0.42929339713E+02 -0.54070421352E+01  0.47787272764E+02  0.20000007839E+02 0.  0.
        -12    1    1    2    0    0  0.33850866709E+01 -0.42929339713E+02  0.54070421352E+01  0.43400727236E+02  0.00000000000E+00 0.  1.
         11    1    3    3    0    0 -0.77002492623E+01  0.22293361830E+02 -0.81963512020E+01  0.24969341074E+02  0.51100000000E-03 0. -1.
        -11    1    3    3    0    0  0.34890859468E+00  0.16185310530E+02 -0.10851156893E+00  0.16189434493E+02  0.51100000000E-03 0.  1.
         12    1    3    3    0    0  0.39662539967E+01  0.44506673524E+01  0.28978206357E+01  0.66284971966E+01  0.00000000000E+00 0. -1.
</event>
<event>
 7    1  0.6256580E-010  0.4778727E+02  0.7816164E-02  0.1312668E+00
        -11   -1    0    0    0    0  0.00000000000E+00  0.00000000000E+00  0.45593999997E+02  0.45594000000E+02  0.51100000000E-03 0. -1.
         11   -1    0    0    0    0 -0.00000000000E+00 -0.00000000000E+00 -0.45593999997E+02  0.45594000000E+02  0.51100000000E-03 0.  1.
    9900012    2    1    2    0    0  0.10920928894E+02 -0.19387117676E+02  0.37262530102E+02  0.47787272249E+02  0.20000005492E+02 0.  0.
        -12    1    1    2    0    0 -0.10920928894E+02  0.19387117676E+02 -0.37262530102E+02  0.43400727751E+02  0.00000000000E+00 0.  1.
         11    1    3    3    0    0  0.76876485906E+00 -0.12016558256E+02  0.24349029423E+02  0.27163650451E+02  0.51100000000E-03 0. -1.
        -11    1    3    3    0    0  0.72484332679E+01 -0.42999939740E+01  0.13926204955E+02  0.16277865884E+02  0.51100000000E-03 0.  1.
        -12    1    3    3    0    0  0.29037307668E+01 -0.30705654451E+01 -0.10127042751E+01  0.43457559145E+01  0.00000000000E+00 0.  1.
</event>
<event>
 7    1  0.4592673E-010  0.4778728E+02  0.7816164E-02  0.1312668E+00
        -11   -1    0    0    0    0  0.00000000000E+00  0.00000000000E+00  0.45593999997E+02  0.45594000000E+02  0.51100000000E-03 0.  1.
         11   -1    0    0    0    0 -0.00000000000E+00 -0.00000000000E+00 -0.45593999997E+02  0.45594000000E+02  0.51100000000E-03 0. -1.
    9900012    2    1    2    0    0  0.91301311080E+00  0.41067341599E+02  0.14009377697E+02  0.47787276476E+02  0.20000024764E+02 0.  0.
        -12    1    1    2    0    0 -0.91301311080E+00 -0.41067341599E+02 -0.14009377697E+02  0.43400723524E+02  0.00000000000E+00 0.  1.
         11    1    3    3    0    0 -0.21017305110E+01  0.39634929476E+01  0.18630598800E+01  0.48577299085E+01  0.51100000000E-03 0. -1.
        -11    1    3    3    0    0  0.50554111273E+01  0.15758534916E+01  0.33700969035E+01  0.62767865420E+01  0.51100000000E-03 0.  1.
         12    1    3    3    0    0 -0.20406675056E+01  0.35527995160E+02  0.87762209136E+01  0.36652760025E+02  0.00000000000E+00 0. -1.
</event>
<event>
 7    1  0.4592673E-010  0.4778727E+02  0.7816164E-02  0.1312668E+00
        -11   -1    0    0    0    0  0.00000000000E+00  0.00000000000E+00  0.45593999997E+02  0.45594000000E+02  0.51100000000E-03 0.  1.
         11   -1    0    0    0    0 -0.00000000000E+00 -0.00000000000E+00 -0.45593999997E+02  0.45594000000E+02  0.51100000000E-03 0. -1.
    9900012    2    1    2    0    0 -0.44863824686E+01  0.41322433704E+02 -0.12488073967E+02  0.47787272514E+02  0.20000006701E+02 0.  0.
        -12    1    1    2    0    0  0.44863824686E+01 -0.41322433704E+02  0.12488073967E+02  0.43400727486E+02  0.00000000000E+00 0.  1.
         11    1    3    3    0    0 -0.17027489322E+00  0.12265590493E+02  0.25053456954E+01  0.12520002436E+02  0.51100000000E-03 0. -1.
        -11    1    3    3    0    0 -0.80967222130E+01  0.17722670383E+02 -0.62525645429E+01  0.20463248024E+02  0.51100000000E-03 0.  1.
        -12    1    3    3    0    0  0.37806146376E+01  0.11334172828E+02 -0.87408551194E+01  0.14804022054E+02  0.00000000000E+00 0.  1.
</event>
<event>
 7    1  0.4592673E-010  0.4778727E+02  0.7816164E-02  0.1312668E+00
        -11   -1    0    0    0    0  0.00000000000E+00  0.00000000000E+00  0.45593999997E+02  0.45594000000E+02  0.51100000000E-03 0. -1.
         11   -1    0    0    0    0 -0.00000000000E+00 -0.00000000000E+00 -0.45593999997E+02  0.45594000000E+02  0.51100000000E-03 0.  1.
    9900012    2    1    2    0    0  0.32705210013E+01  0.24334686715E+02  0.35787570064E+02  0.47787268944E+02  0.19999990421E+02 0.  0.
        -12    1    1    2    0    0 -0.32705210013E+01 -0.24334686715E+02 -0.35787570064E+02  0.43400731056E+02  0.00000000000E+00 0.  1.
         11    1    3    3    0    0  0.59836303982E+01  0.71253886148E+01  0.93247889703E+01  0.13172952792E+02  0.51100000000E-03 0. -1.
        -11    1    3    3    0    0 -0.54691696821E+01  0.91828586371E+01  0.55457087493E+01  0.12041245598E+02  0.51100000000E-03 0.  1.
         12    1    3    3    0    0  0.27560602852E+01  0.80264394630E+01  0.20917072345E+02  0.22573070554E+02  0.00000000000E+00 0. -1.
</event>
<event>
 7    1  0.4592673E-010  0.4778726E+02  0.7816164E-02  0.1312668E+00
        -11   -1    0    0    0    0  0.00000000000E+00  0.00000000000E+00  0.45593999997E+02  0.45594000000E+02  0.51100000000E-03 0.  1.
         11   -1    0    0    0    0 -0.00000000000E+00 -0.00000000000E+00 -0.45593999997E+02  0.45594000000E+02  0.51100000000E-03 0. -1.
    9900012    2    1    2    0    0 -0.19270209204E+02  0.38332290626E+02 -0.65512279968E+01  0.47787262038E+02  0.19999958935E+02 0.  0.
        -12    1    1    2    0    0  0.19270209204E+02 -0.38332290626E+02  0.65512279968E+01  0.43400737962E+02  0.00000000000E+00 0.  1.
         11    1    3    3    0    0 -0.90752196987E+01  0.12850224883E+02 -0.43448248176E+01  0.16320704491E+02  0.51100000000E-03 0.  1.
        -11    1    3    3    0    0 -0.11402280456E+02  0.91575949116E+01 -0.35289310074E+01  0.15044164931E+02  0.51100000000E-03 0. -1.
         12    1    3    3    0    0  0.12072909508E+01  0.16324470831E+02  0.13225278283E+01  0.16422392615E+02  0.00000000000E+00 0. -1.
</event>
<event>
 7    1  0.4592673E-010  0.4778727E+02  0.7816164E-02  0.1312668E+00
        -11   -1    0    0    0    0  0.00000000000E+00  0.00000000000E+00  0.45593999997E+02  0.45594000000E+02  0.51100000000E-03 0. -1.
         11   -1    0    0    0    0 -0.00000000000E+00 -0.00000000000E+00 -0.45593999997E+02  0.45594000000E+02  0.51100000000E-03 0.  1.
    9900012    2    1    2    0    0  0.94651171469E+01  0.24923850218E+02  0.34246702689E+02  0.47787269622E+02  0.19999993515E+02 0.  0.
        -12    1    1    2    0    0 -0.94651171469E+01 -0.24923850218E+02 -0.34246702689E+02  0.43400730378E+02  0.00000000000E+00 0.  1.
         11    1    3    3    0    0  0.10355755259E+01  0.25636121209E+01  0.92753456499E+01  0.96786652469E+01  0.51100000000E-03 0. -1.
        -11    1    3    3    0    0  0.12909324104E+02  0.13689901707E+02  0.14198129058E+02  0.23572249077E+02  0.51100000000E-03 0.  1.
         12    1    3    3    0    0 -0.44797824827E+01  0.86703363903E+01  0.10773227982E+02  0.14536355298E+02  0.00000000000E+00 0. -1.
</event>
<event>
 7    1  0.4592673E-010  0.4778725E+02  0.7816164E-02  0.1312668E+00
        -11   -1    0    0    0    0  0.00000000000E+00  0.00000000000E+00  0.45593999997E+02  0.45594000000E+02  0.51100000000E-03 0.  1.
         11   -1    0    0    0    0 -0.00000000000E+00 -0.00000000000E+00 -0.45593999997E+02  0.45594000000E+02  0.51100000000E-03 0. -1.
    9900012    2    1    2    0    0  0.28264420976E+02  0.60108145605E+01 -0.32382366667E+02  0.47787250517E+02  0.19999906406E+02 0.  0.
        -12    1    1    2    0    0 -0.28264420976E+02 -0.60108145605E+01  0.32382366667E+02  0.43400749483E+02  0.00000000000E+00 0.  1.
         11    1    3    3    0    0  0.16949159734E+01 -0.91851655878E+00  0.81576757002E+00  0.20932963992E+01  0.51100000000E-03 0. -1.
        -11    1    3    3    0    0  0.73088182283E+01 -0.22195894790E+01 -0.19840376232E+01  0.78918823421E+01  0.51100000000E-03 0.  1.
         12    1    3    3    0    0  0.19260686774E+02  0.91489205982E+01 -0.31214096613E+02  0.37802071775E+02  0.00000000000E+00 0. -1.
</event>
<event>
 7    1  0.4592673E-010  0.4778722E+02  0.7816164E-02  0.1312668E+00
        -11   -1    0    0    0    0  0.00000000000E+00  0.00000000000E+00  0.45593999997E+02  0.45594000000E+02  0.51100000000E-03 0.  1.
         11   -1    0    0    0    0 -0.00000000000E+00 -0.00000000000E+00 -0.45593999997E+02  0.45594000000E+02  0.51100000000E-03 0. -1.
    9900012    2    1    2    0    0  0.38574281660E+02  0.17222569356E+01 -0.19816309531E+02  0.47787222381E+02  0.19999778124E+02 0.  0.
        -12    1    1    2    0    0 -0.38574281660E+02 -0.17222569356E+01  0.19816309531E+02  0.43400777619E+02  0.00000000000E+00 0.  1.
         11    1    3    3    0    0  0.33612048488E+02  0.71666496103E+01 -0.14994179716E+02  0.37496081073E+02  0.51100000000E-03 0. -1.
        -11    1    3    3    0    0 -0.87226581793E-01  0.32690810719E+00 -0.21409065259E+01  0.21674774280E+01  0.51100000000E-03 0.  1.
        -12    1    3    3    0    0  0.50494597529E+01 -0.57713007820E+01 -0.26812232883E+01  0.81236638799E+01  0.00000000000E+00 0.  1.
</event>
<event>
 7    1  0.4592673E-010  0.4778727E+02  0.7816164E-02  0.1312668E+00
        -11   -1    0    0    0    0  0.00000000000E+00  0.00000000000E+00  0.45593999997E+02  0.45594000000E+02  0.51100000000E-03 0.  1.
         11   -1    0    0    0    0 -0.00000000000E+00 -0.00000000000E+00 -0.45593999997E+02  0.45594000000E+02  0.51100000000E-03 0. -1.
    9900012    2    1    2    0    0  0.32822016821E+02  0.79101983229E+01 -0.27272101959E+02  0.47787267622E+02  0.19999984394E+02 0.  0.
        -12    1    1    2    0    0 -0.32822016821E+02 -0.79101983229E+01  0.27272101959E+02  0.43400732378E+02  0.00000000000E+00 0.  1.
         11    1    3    3    0    0  0.25555934053E+01 -0.37817012093E+00 -0.59989207397E+01  0.65315481010E+01  0.51100000000E-03 0. -1.
        -11    1    3    3    0    0  0.89246562020E+01  0.10163406915E+02 -0.52764796902E+01  0.14518456069E+02  0.51100000000E-03 0.  1.
        -12    1    3    3    0    0  0.21341767214E+02 -0.18750384711E+01 -0.15996701529E+02  0.26737263452E+02  0.00000000000E+00 0.  1.
</event>
<event>
 7    1  0.4592673E-010  0.4778728E+02  0.7816164E-02  0.1312668E+00
        -11   -1    0    0    0    0  0.00000000000E+00  0.00000000000E+00  0.45593999997E+02  0.45594000000E+02  0.51100000000E-03 0.  1.
         11   -1    0    0    0    0 -0.00000000000E+00 -0.00000000000E+00 -0.45593999997E+02  0.45594000000E+02  0.51100000000E-03 0. -1.
    9900012    2    1    2    0    0 -0.35502002532E+02  0.23856328488E+02 -0.73556808075E+01  0.47787278429E+02  0.20000033669E+02 0.  0.
        -12    1    1    2    0    0  0.35502002532E+02 -0.23856328488E+02  0.73556808075E+01  0.43400721571E+02  0.00000000000E+00 0.  1.
         11    1    3    3    0    0 -0.16547207123E+01  0.52585833302E+01 -0.40767645141E+01  0.68564428417E+01  0.51100000000E-03 0. -1.
        -11    1    3    3    0    0 -0.28681613507E+01  0.11087034037E+01 -0.43650141030E+01  0.53393746031E+01  0.51100000000E-03 0.  1.
        -12    1    3    3    0    0 -0.30979120469E+02  0.17489041755E+02  0.10860978096E+01  0.35591460984E+02  0.00000000000E+00 0.  1.
</event>
<event>
 7    1  0.4592673E-010  0.4778727E+02  0.7816164E-02  0.1312668E+00
        -11   -1    0    0    0    0  0.00000000000E+00  0.00000000000E+00  0.45593999997E+02  0.45594000000E+02  0.51100000000E-03 0.  1.
         11   -1    0    0    0    0 -0.00000000000E+00 -0.00000000000E+00 -0.45593999997E+02  0.45594000000E+02  0.51100000000E-03 0. -1.
    9900012    2    1    2    0    0  0.41720864433E+02 -0.99559297860E+01 -0.66236258939E+01  0.47787268590E+02  0.19999988808E+02 0.  0.
        -12    1    1    2    0    0 -0.41720864433E+02  0.99559297860E+01  0.66236258939E+01  0.43400731410E+02  0.00000000000E+00 0.  1.
         11    1    3    3    0    0 -0.63449197124E-01 -0.12489377814E+00  0.22490475130E+00  0.26496540286E+00  0.51100000000E-03 0. -1.
        -11    1    3    3    0    0  0.15543824742E+02 -0.10911042932E+02 -0.92990197557E+01  0.21145522320E+02  0.51100000000E-03 0.  1.
         12    1    3    3    0    0  0.26240488888E+02  0.10800069245E+01  0.24504891105E+01  0.26376780867E+02  0.00000000000E+00 0. -1.
</event>
<event>
 7    1  0.4592673E-010  0.4778727E+02  0.7816164E-02  0.1312668E+00
        -11   -1    0    0    0    0  0.00000000000E+00  0.00000000000E+00  0.45593999997E+02  0.45594000000E+02  0.51100000000E-03 0. -1.
         11   -1    0    0    0    0 -0.00000000000E+00 -0.00000000000E+00 -0.45593999997E+02  0.45594000000E+02  0.51100000000E-03 0.  1.
    9900012    2    1    2    0    0  0.60170022702E+01 -0.36228954824E+02  0.23127513572E+02  0.47787269961E+02  0.19999995058E+02 0.  0.
        -12    1    1    2    0    0 -0.60170022702E+01  0.36228954824E+02 -0.23127513572E+02  0.43400730039E+02  0.00000000000E+00 0.  1.
         11    1    3    3    0    0  0.81867001881E+01 -0.25719490983E+02  0.11081885044E+02  0.29177430537E+02  0.51100000000E-03 0. -1.
        -11    1    3    3    0    0  0.31848996536E+01 -0.40437994891E+01  0.20101816523E+01  0.55260049446E+01  0.51100000000E-03 0.  1.
        -12    1    3    3    0    0 -0.53545975715E+01 -0.64656643517E+01  0.10035446876E+02  0.13083834479E+02  0.00000000000E+00 0.  1.
</event>
<event>
 7    1  0.4592673E-010  0.4778727E+02  0.7816164E-02  0.1312668E+00
        -11   -1    0    0    0    0  0.00000000000E+00  0.00000000000E+00  0.45593999997E+02  0.45594000000E+02  0.51100000000E-03 0.  1.
         11   -1    0    0    0    0 -0.00000000000E+00 -0.00000000000E+00 -0.45593999997E+02  0.45594000000E+02  0.51100000000E-03 0. -1.
    9900012    2    1    2    0    0  0.40059534222E+02  0.16172907565E+02 -0.41585937565E+01  0.47787272780E+02  0.20000007914E+02 0.  0.
        -12    1    1    2    0    0 -0.40059534222E+02 -0.16172907565E+02  0.41585937565E+01  0.43400727220E+02  0.00000000000E+00 0.  1.
         11    1    3    3    0    0  0.57630197462E+01  0.45002654172E+01  0.26257083386E+01  0.77691138465E+01  0.51100000000E-03 0. -1.
        -11    1    3    3    0    0  0.14277936800E+02 -0.16380680482E+01  0.18165854737E+01  0.14485949373E+02  0.51100000000E-03 0.  1.
        -12    1    3    3    0    0  0.20018577676E+02  0.13310710196E+02 -0.86008875687E+01  0.25532209561E+02  0.00000000000E+00 0.  1.
</event>
<event>
 7    1  0.4592673E-010  0.4778727E+02  0.7816164E-02  0.1312668E+00
        -11   -1    0    0    0    0  0.00000000000E+00  0.00000000000E+00  0.45593999997E+02  0.45594000000E+02  0.51100000000E-03 0.  1.
         11   -1    0    0    0    0 -0.00000000000E+00 -0.00000000000E+00 -0.45593999997E+02  0.45594000000E+02  0.51100000000E-03 0. -1.
    9900012    2    1    2    0    0 -0.57427883483E+01 -0.86696483921E+01 -0.42136456208E+02  0.47787270017E+02  0.19999995316E+02 0.  0.
        -12    1    1    2    0    0  0.57427883483E+01  0.86696483921E+01  0.42136456208E+02  0.43400729983E+02  0.00000000000E+00 0.  1.
         11    1    3    3    0    0 -0.26863061335E+01 -0.32294539458E+01 -0.20622665435E+02  0.21046138442E+02  0.51100000000E-03 0. -1.
        -11    1    3    3    0    0  0.46311255008E+01  0.17433135978E+01 -0.99146733363E+01  0.11080939190E+02  0.51100000000E-03 0.  1.
         12    1    3    3    0    0 -0.76876077156E+01 -0.71835080442E+01 -0.11599117437E+02  0.15660192385E+02  0.00000000000E+00 0. -1.
</event>
<event>
 7    1  0.4592673E-010  0.4778727E+02  0.7816164E-02  0.1312668E+00
        -11   -1    0    0    0    0  0.00000000000E+00  0.00000000000E+00  0.45593999997E+02  0.45594000000E+02  0.51100000000E-03 0.  1.
         11   -1    0    0    0    0 -0.00000000000E+00 -0.00000000000E+00 -0.45593999997E+02  0.45594000000E+02  0.51100000000E-03 0. -1.
    9900012    2    1    2    0    0  0.13288830910E+02  0.16442017938E+02 -0.37903700300E+02  0.47787268701E+02  0.19999989317E+02 0.  0.
        -12    1    1    2    0    0 -0.13288830910E+02 -0.16442017938E+02  0.37903700300E+02  0.43400731299E+02  0.00000000000E+00 0.  1.
         11    1    3    3    0    0  0.21085412862E+01 -0.22344129848E+01 -0.32115283602E+01  0.44443742430E+01  0.51100000000E-03 0. -1.
        -11    1    3    3    0    0  0.34613877910E+01  0.47812246098E+01 -0.86290371803E+00  0.59653933061E+01  0.51100000000E-03 0.  1.
         12    1    3    3    0    0  0.77189018333E+01  0.13895206313E+02 -0.33829268221E+02  0.37377501152E+02  0.00000000000E+00 0. -1.
</event>
<event>
 7    1  0.4592673E-010  0.4778727E+02  0.7816164E-02  0.1312668E+00
        -11   -1    0    0    0    0  0.00000000000E+00  0.00000000000E+00  0.45593999997E+02  0.45594000000E+02  0.51100000000E-03 0.  1.
         11   -1    0    0    0    0 -0.00000000000E+00 -0.00000000000E+00 -0.45593999997E+02  0.45594000000E+02  0.51100000000E-03 0. -1.
    9900012    2    1    2    0    0  0.27072869366E+02  0.21037821922E+02 -0.26610014833E+02  0.47787273089E+02  0.20000009323E+02 0.  0.
        -12    1    1    2    0    0 -0.27072869366E+02 -0.21037821922E+02  0.26610014833E+02  0.43400726911E+02  0.00000000000E+00 0.  1.
         11    1    3    3    0    0  0.12341321584E+02  0.55552948625E+01 -0.61747083754E+01  0.14876039232E+02  0.51100000000E-03 0. -1.
        -11    1    3    3    0    0  0.16564025660E+02  0.92366241355E+01 -0.17364929736E+02  0.25714255899E+02  0.51100000000E-03 0.  1.
        -12    1    3    3    0    0 -0.18324778771E+01  0.62459029242E+01 -0.30703767223E+01  0.71969779578E+01  0.00000000000E+00 0.  1.
</event>
<event>
 7    1  0.4592673E-010  0.4778726E+02  0.7816164E-02  0.1312668E+00
        -11   -1    0    0    0    0  0.00000000000E+00  0.00000000000E+00  0.45593999997E+02  0.45594000000E+02  0.51100000000E-03 0. -1.
         11   -1    0    0    0    0 -0.00000000000E+00 -0.00000000000E+00 -0.45593999997E+02  0.45594000000E+02  0.51100000000E-03 0.  1.
    9900012    2    1    2    0    0  0.40721337094E+02  0.14828958972E+02 -0.23448967325E+01  0.47787264297E+02  0.19999969235E+02 0.  0.
        -12    1    1    2    0    0 -0.40721337094E+02 -0.14828958972E+02  0.23448967325E+01  0.43400735703E+02  0.00000000000E+00 0.  1.
         11    1    3    3    0    0  0.35388077314E+02  0.54570850304E+01 -0.14175338903E+01  0.35834413566E+02  0.51100000000E-03 0. -1.
        -11    1    3    3    0    0 -0.87443642682E+00  0.14728957479E+01  0.54867077237E+00  0.17986386036E+01  0.51100000000E-03 0.  1.
        -12    1    3    3    0    0  0.62076962062E+01  0.78989781934E+01 -0.14760336146E+01  0.10154212127E+02  0.00000000000E+00 0.  1.
</event>
<event>
 7    1  0.4592673E-010  0.4778727E+02  0.7816164E-02  0.1312668E+00
        -11   -1    0    0    0    0  0.00000000000E+00  0.00000000000E+00  0.45593999997E+02  0.45594000000E+02  0.51100000000E-03 0.  1.
         11   -1    0    0    0    0 -0.00000000000E+00 -0.00000000000E+00 -0.45593999997E+02  0.45594000000E+02  0.51100000000E-03 0. -1.
    9900012    2    1    2    0    0  0.36131094614E+02  0.21840564372E+02 -0.10057705961E+02  0.47787266144E+02  0.19999977656E+02 0.  0.
        -12    1    1    2    0    0 -0.36131094614E+02 -0.21840564372E+02  0.10057705961E+02  0.43400733856E+02  0.00000000000E+00 0.  1.
         11    1    3    3    0    0  0.22283355100E+02  0.16814147529E+02 -0.10936231357E+02  0.29981071165E+02  0.51100000000E-03 0. -1.
        -11    1    3    3    0    0  0.10588993836E+02  0.65757847181E+01 -0.26677466965E+01  0.12746945038E+02  0.51100000000E-03 0.  1.
        -12    1    3    3    0    0  0.32587456780E+01 -0.15493678751E+01  0.35462720927E+01  0.50592499406E+01  0.00000000000E+00 0.  1.
</event>
<event>
 7    1  0.4592673E-010  0.4778732E+02  0.7816164E-02  0.1312668E+00
        -11   -1    0    0    0    0  0.00000000000E+00  0.00000000000E+00  0.45593999997E+02  0.45594000000E+02  0.51100000000E-03 0.  1.
         11   -1    0    0    0    0 -0.00000000000E+00 -0.00000000000E+00 -0.45593999997E+02  0.45594000000E+02  0.51100000000E-03 0. -1.
    9900012    2    1    2    0    0 -0.15693066317E+02 -0.34545368739E+02 -0.21070465934E+02  0.47787316060E+02  0.20000205244E+02 0.  0.
        -12    1    1    2    0    0  0.15693066317E+02  0.34545368739E+02  0.21070465934E+02  0.43400683940E+02  0.00000000000E+00 0.  1.
         11    1    3    3    0    0 -0.56161704721E+01 -0.14875520363E+02 -0.14927584821E+01  0.15970310109E+02  0.51100000000E-03 0. -1.
        -11    1    3    3    0    0 -0.65073728338E+01 -0.17387952469E+01 -0.62855933752E+01  0.92129254012E+01  0.51100000000E-03 0.  1.
         12    1    3    3    0    0 -0.35695230110E+01 -0.17931053129E+02 -0.13292114077E+02  0.22604080549E+02  0.00000000000E+00 0. -1.
</event>
<event>
 7    1  0.4592673E-010  0.4778727E+02  0.7816164E-02  0.1312668E+00
        -11   -1    0    0    0    0  0.00000000000E+00  0.00000000000E+00  0.45593999997E+02  0.45594000000E+02  0.51100000000E-03 0. -1.
         11   -1    0    0    0    0 -0.00000000000E+00 -0.00000000000E+00 -0.45593999997E+02  0.45594000000E+02  0.51100000000E-03 0.  1.
    9900012    2    1    2    0    0 -0.31689734439E+02  0.29628282435E+02 -0.12446349901E+01  0.47787268381E+02  0.19999987856E+02 0.  0.
        -12    1    1    2    0    0  0.31689734439E+02 -0.29628282435E+02  0.12446349901E+01  0.43400731619E+02  0.00000000000E+00 0.  1.
         11    1    3    3    0    0 -0.18577700172E+02  0.74469901957E+01 -0.40736642134E+01  0.20425066635E+02  0.51100000000E-03 0. -1.
        -11    1    3    3    0    0 -0.36859360732E+01  0.76292588294E+01 -0.31238931067E+01  0.90305273060E+01  0.51100000000E-03 0.  1.
        -12    1    3    3    0    0 -0.94260981931E+01  0.14552033410E+02  0.59529223300E+01  0.18331674440E+02  0.00000000000E+00 0.  1.
</event>
<event>
 7    1  0.4592673E-010  0.4778727E+02  0.7816164E-02  0.1312668E+00
        -11   -1    0    0    0    0  0.00000000000E+00  0.00000000000E+00  0.45593999997E+02  0.45594000000E+02  0.51100000000E-03 0.  1.
         11   -1    0    0    0    0 -0.00000000000E+00 -0.00000000000E+00 -0.45593999997E+02  0.45594000000E+02  0.51100000000E-03 0. -1.
    9900012    2    1    2    0    0 -0.10051459433E+02  0.22999580558E+02 -0.35406367282E+02  0.47787269745E+02  0.19999994073E+02 0.  0.
        -12    1    1    2    0    0  0.10051459433E+02 -0.22999580558E+02  0.35406367282E+02  0.43400730255E+02  0.00000000000E+00 0.  1.
         11    1    3    3    0    0 -0.13353471071E+02  0.16787487388E+02 -0.22555835677E+02  0.31127168933E+02  0.51100000000E-03 0. -1.
        -11    1    3    3    0    0 -0.13940952444E+01  0.16445916157E+01 -0.85642540566E+01  0.88314568979E+01  0.51100000000E-03 0.  1.
        -12    1    3    3    0    0  0.46961068822E+01  0.45675015540E+01 -0.42862775486E+01  0.78286439131E+01  0.00000000000E+00 0.  1.
</event>
<event>
 7    1  0.4592673E-010  0.4778728E+02  0.7816164E-02  0.1312668E+00
        -11   -1    0    0    0    0  0.00000000000E+00  0.00000000000E+00  0.45593999997E+02  0.45594000000E+02  0.51100000000E-03 0.  1.
         11   -1    0    0    0    0 -0.00000000000E+00 -0.00000000000E+00 -0.45593999997E+02  0.45594000000E+02  0.51100000000E-03 0. -1.
    9900012    2    1    2    0    0 -0.17116022790E+02  0.12069461351E+02 -0.38013060624E+02  0.47787275219E+02  0.20000019035E+02 0.  0.
        -12    1    1    2    0    0  0.17116022790E+02 -0.12069461351E+02  0.38013060624E+02  0.43400724781E+02  0.00000000000E+00 0.  1.
         11    1    3    3    0    0 -0.11404282814E+02  0.87744174840E+01 -0.11827017201E+02  0.18625960507E+02  0.51100000000E-03 0. -1.
        -11    1    3    3    0    0 -0.25087006708E+00  0.60633211670E+01 -0.84882268709E+01  0.10434404393E+02  0.51100000000E-03 0.  1.
         12    1    3    3    0    0 -0.54608699082E+01 -0.27682772998E+01 -0.17697816553E+02  0.18726910319E+02  0.00000000000E+00 0. -1.
</event>
<event>
 7    1  0.4592673E-010  0.4778727E+02  0.7816164E-02  0.1312668E+00
        -11   -1    0    0    0    0  0.00000000000E+00  0.00000000000E+00  0.45593999997E+02  0.45594000000E+02  0.51100000000E-03 0. -1.
         11   -1    0    0    0    0 -0.00000000000E+00 -0.00000000000E+00 -0.45593999997E+02  0.45594000000E+02  0.51100000000E-03 0.  1.
    9900012    2    1    2    0    0 -0.25422154637E+02  0.34820543629E+02  0.49866649613E+01  0.47787273826E+02  0.20000012682E+02 0.  0.
        -12    1    1    2    0    0  0.25422154637E+02 -0.34820543629E+02 -0.49866649613E+01  0.43400726174E+02  0.00000000000E+00 0.  1.
         11    1    3    3    0    0 -0.12510677848E+02  0.75569826367E+01 -0.21576854886E+01  0.14774324137E+02  0.51100000000E-03 0. -1.
        -11    1    3    3    0    0 -0.23026633652E+01  0.75205389979E+01 -0.29914153257E+01  0.84148280615E+01  0.51100000000E-03 0.  1.
         12    1    3    3    0    0 -0.10608813424E+02  0.19743021994E+02  0.10135765776E+02  0.24598121627E+02  0.00000000000E+00 0. -1.
</event>
<event>
 7    1  0.4592673E-010  0.4778727E+02  0.7816164E-02  0.1312668E+00
        -11   -1    0    0    0    0  0.00000000000E+00  0.00000000000E+00  0.45593999997E+02  0.45594000000E+02  0.51100000000E-03 0. -1.
         11   -1    0    0    0    0 -0.00000000000E+00 -0.00000000000E+00 -0.45593999997E+02  0.45594000000E+02  0.51100000000E-03 0.  1.
    9900012    2    1    2    0    0  0.13163038357E+02 -0.39812068527E+02 -0.11196289668E+02  0.47787270956E+02  0.19999999597E+02 0.  0.
        -12    1    1    2    0    0 -0.13163038357E+02  0.39812068527E+02  0.11196289668E+02  0.43400729044E+02  0.00000000000E+00 0.  1.
         11    1    3    3    0    0  0.27654585657E+01 -0.10407217726E+02 -0.23556189521E+01  0.11023016047E+02  0.51100000000E-03 0. -1.
        -11    1    3    3    0    0  0.65249712380E+01 -0.26309266494E+02 -0.55908994946E+00  0.27112088354E+02  0.51100000000E-03 0.  1.
         12    1    3    3    0    0  0.38726085537E+01 -0.30955843082E+01 -0.82815807661E+01  0.96521665550E+01  0.00000000000E+00 0. -1.
</event>
<event>
 7    1  0.4592673E-010  0.4778727E+02  0.7816164E-02  0.1312668E+00
        -11   -1    0    0    0    0  0.00000000000E+00  0.00000000000E+00  0.45593999997E+02  0.45594000000E+02  0.51100000000E-03 0.  1.
         11   -1    0    0    0    0 -0.00000000000E+00 -0.00000000000E+00 -0.45593999997E+02  0.45594000000E+02  0.51100000000E-03 0. -1.
    9900012    2    1    2    0    0  0.39938973520E+02  0.16981759439E+02  0.34811990073E+00  0.47787274811E+02  0.20000017174E+02 0.  0.
        -12    1    1    2    0    0 -0.39938973520E+02 -0.16981759439E+02 -0.34811990073E+00  0.43400725189E+02  0.00000000000E+00 0.  1.
         11    1    3    3    0    0  0.91914134168E+01  0.12408498465E+01 -0.33089443560E+01  0.98473804615E+01  0.51100000000E-03 0. -1.
        -11    1    3    3    0    0  0.21113891720E+02  0.33777821612E+01  0.57125723045E+01  0.22132313898E+02  0.51100000000E-03 0.  1.
        -12    1    3    3    0    0  0.96336683828E+01  0.12363127431E+02 -0.20555080477E+01  0.15807580451E+02  0.00000000000E+00 0.  1.
</event>
<event>
 7    1  0.4592673E-010  0.4778727E+02  0.7816164E-02  0.1312668E+00
        -11   -1    0    0    0    0  0.00000000000E+00  0.00000000000E+00  0.45593999997E+02  0.45594000000E+02  0.51100000000E-03 0.  1.
         11   -1    0    0    0    0 -0.00000000000E+00 -0.00000000000E+00 -0.45593999997E+02  0.45594000000E+02  0.51100000000E-03 0. -1.
    9900012    2    1    2    0    0  0.81912089337E+00 -0.42610264137E+02  0.82047469564E+01  0.47787269113E+02  0.19999991194E+02 0.  0.
        -12    1    1    2    0    0 -0.81912089337E+00  0.42610264137E+02 -0.82047469564E+01  0.43400730887E+02  0.00000000000E+00 0.  1.
         11    1    3    3    0    0  0.28737790030E+01 -0.69825816768E+01  0.94750675488E+00  0.76100474337E+01  0.51100000000E-03 0. -1.
        -11    1    3    3    0    0 -0.85859078805E+01 -0.11998943554E+02  0.49117543985E+01  0.15550491699E+02  0.51100000000E-03 0.  1.
        -12    1    3    3    0    0  0.65312497708E+01 -0.23628738906E+02  0.23454858030E+01  0.24626729980E+02  0.00000000000E+00 0.  1.
</event>
<event>
 7    1  0.4592673E-010  0.4778727E+02  0.7816164E-02  0.1312668E+00
        -11   -1    0    0    0    0  0.00000000000E+00  0.00000000000E+00  0.45593999997E+02  0.45594000000E+02  0.51100000000E-03 0.  1.
         11   -1    0    0    0    0 -0.00000000000E+00 -0.00000000000E+00 -0.45593999997E+02  0.45594000000E+02  0.51100000000E-03 0. -1.
    9900012    2    1    2    0    0 -0.36107984803E+02 -0.23330841843E+02 -0.59589331061E+01  0.47787266925E+02  0.19999981219E+02 0.  0.
        -12    1    1    2    0    0  0.36107984803E+02  0.23330841843E+02  0.59589331061E+01  0.43400733075E+02  0.00000000000E+00 0.  1.
         11    1    3    3    0    0 -0.61636227591E+01 -0.12097560632E+02  0.75541213310E+00  0.13598230272E+02  0.51100000000E-03 0. -1.
        -11    1    3    3    0    0 -0.21335194629E+01 -0.95915677903E+00 -0.37145283802E+01  0.43897162065E+01  0.51100000000E-03 0.  1.
        -12    1    3    3    0    0 -0.27810842581E+02 -0.10274124431E+02 -0.29998168590E+01  0.29799320447E+02  0.00000000000E+00 0.  1.
</event>
<event>
 7    1  0.4592673E-010  0.4778727E+02  0.7816164E-02  0.1312668E+00
        -11   -1    0    0    0    0  0.00000000000E+00  0.00000000000E+00  0.45593999997E+02  0.45594000000E+02  0.51100000000E-03 0.  1.
         11   -1    0    0    0    0 -0.00000000000E+00 -0.00000000000E+00 -0.45593999997E+02  0.45594000000E+02  0.51100000000E-03 0. -1.
    9900012    2    1    2    0    0  0.36457761533E+01 -0.43031680760E+02 -0.43134677464E+01  0.47787271472E+02  0.20000001947E+02 0.  0.
        -12    1    1    2    0    0 -0.36457761533E+01  0.43031680760E+02  0.43134677464E+01  0.43400728528E+02  0.00000000000E+00 0.  1.
         11    1    3    3    0    0  0.56469253736E+01 -0.17418266453E+02 -0.88144967416E+01  0.20321887842E+02  0.51100000000E-03 0. -1.
        -11    1    3    3    0    0 -0.31428243892E+01 -0.10866615229E+02 -0.16778406231E+01  0.11435725648E+02  0.51100000000E-03 0.  1.
        -12    1    3    3    0    0  0.11416751689E+01 -0.14746799078E+02  0.61788696183E+01  0.16029657981E+02  0.00000000000E+00 0.  1.
</event>
<event>
 7    1  0.4592673E-010  0.4778727E+02  0.7816164E-02  0.1312668E+00
        -11   -1    0    0    0    0  0.00000000000E+00  0.00000000000E+00  0.45593999997E+02  0.45594000000E+02  0.51100000000E-03 0. -1.
         11   -1    0    0    0    0 -0.00000000000E+00 -0.00000000000E+00 -0.45593999997E+02  0.45594000000E+02  0.51100000000E-03 0.  1.
    9900012    2    1    2    0    0 -0.38840280554E+02 -0.14729939291E+02  0.12573180918E+02  0.47787269783E+02  0.19999994247E+02 0.  0.
        -12    1    1    2    0    0  0.38840280554E+02  0.14729939291E+02 -0.12573180918E+02  0.43400730217E+02  0.00000000000E+00 0.  1.
         11    1    3    3    0    0 -0.14948149020E+02 -0.55823310613E+01 -0.88551196981E+00  0.15981042235E+02  0.51100000000E-03 0. -1.
        -11    1    3    3    0    0 -0.57439872203E+01 -0.29488952915E+01 -0.24329836238E+01  0.68999117532E+01  0.51100000000E-03 0.  1.
         12    1    3    3    0    0 -0.18148144313E+02 -0.61987129385E+01  0.15891676511E+02  0.24906315794E+02  0.00000000000E+00 0. -1.
</event>
<event>
 7    1  0.4592673E-010  0.4778727E+02  0.7816164E-02  0.1312668E+00
        -11   -1    0    0    0    0  0.00000000000E+00  0.00000000000E+00  0.45593999997E+02  0.45594000000E+02  0.51100000000E-03 0. -1.
         11   -1    0    0    0    0 -0.00000000000E+00 -0.00000000000E+00 -0.45593999997E+02  0.45594000000E+02  0.51100000000E-03 0.  1.
    9900012    2    1    2    0    0  0.32004339021E+02 -0.31161220608E+01  0.29148505124E+02  0.47787270930E+02  0.19999999478E+02 0.  0.
        -12    1    1    2    0    0 -0.32004339021E+02  0.31161220608E+01 -0.29148505124E+02  0.43400729070E+02  0.00000000000E+00 0.  1.
         11    1    3    3    0    0 -0.10422921284E+01  0.92339213226E-01  0.52658234294E+01  0.53687797554E+01  0.51100000000E-03 0. -1.
        -11    1    3    3    0    0  0.15490685974E+02  0.17789613074E+01  0.16582658969E+02  0.22762043713E+02  0.51100000000E-03 0.  1.
         12    1    3    3    0    0  0.17555945175E+02 -0.49874225814E+01  0.73000227255E+01  0.19656447461E+02  0.00000000000E+00 0. -1.
</event>
<event>
 7    1  0.4592673E-010  0.4778727E+02  0.7816164E-02  0.1312668E+00
        -11   -1    0    0    0    0  0.00000000000E+00  0.00000000000E+00  0.45593999997E+02  0.45594000000E+02  0.51100000000E-03 0.  1.
         11   -1    0    0    0    0 -0.00000000000E+00 -0.00000000000E+00 -0.45593999997E+02  0.45594000000E+02  0.51100000000E-03 0. -1.
    9900012    2    1    2    0    0 -0.36020528285E+02  0.11873951940E+02 -0.21098672863E+02  0.47787272020E+02  0.20000004449E+02 0.  0.
        -12    1    1    2    0    0  0.36020528285E+02 -0.11873951940E+02  0.21098672863E+02  0.43400727980E+02  0.00000000000E+00 0.  1.
         11    1    3    3    0    0  0.30344502916E+00  0.19503860442E+01 -0.27060691725E+01  0.33494619321E+01  0.51100000000E-03 0. -1.
        -11    1    3    3    0    0 -0.83997260273E+01 -0.73530949051E+00  0.14582419192E+01  0.85570174206E+01  0.51100000000E-03 0.  1.
         12    1    3    3    0    0 -0.27924247287E+02  0.10658875386E+02 -0.19850845609E+02  0.35880792668E+02  0.00000000000E+00 0. -1.
</event>
<event>
 7    1  0.4592673E-010  0.4778727E+02  0.7816164E-02  0.1312668E+00
        -11   -1    0    0    0    0  0.00000000000E+00  0.00000000000E+00  0.45593999997E+02  0.45594000000E+02  0.51100000000E-03 0.  1.
         11   -1    0    0    0    0 -0.00000000000E+00 -0.00000000000E+00 -0.45593999997E+02  0.45594000000E+02  0.51100000000E-03 0. -1.
    9900012    2    1    2    0    0 -0.10490729314E+02 -0.39995760662E+02 -0.13187374416E+02  0.47787272858E+02  0.20000008267E+02 0.  0.
        -12    1    1    2    0    0  0.10490729314E+02  0.39995760662E+02  0.13187374416E+02  0.43400727142E+02  0.00000000000E+00 0.  1.
         11    1    3    3    0    0 -0.12799340483E+02 -0.31910302995E+02 -0.85256191875E+01  0.35422827905E+02  0.51100000000E-03 0. -1.
        -11    1    3    3    0    0 -0.25898197146E+01 -0.16813342442E+01 -0.26143174501E+01  0.40458258719E+01  0.51100000000E-03 0.  1.
         12    1    3    3    0    0  0.48984308841E+01 -0.64041234236E+01 -0.20474377781E+01  0.83186190805E+01  0.00000000000E+00 0. -1.
</event>
<event>
 7    1  0.4592673E-010  0.4778727E+02  0.7816164E-02  0.1312668E+00
        -11   -1    0    0    0    0  0.00000000000E+00  0.00000000000E+00  0.45593999997E+02  0.45594000000E+02  0.51100000000E-03 0. -1.
         11   -1    0    0    0    0 -0.00000000000E+00 -0.00000000000E+00 -0.45593999997E+02  0.45594000000E+02  0.51100000000E-03 0.  1.
    9900012    2    1    2    0    0  0.35198821289E+02 -0.19773101804E+02  0.15927671319E+02  0.47787270874E+02  0.19999999222E+02 0.  0.
        -12    1    1    2    0    0 -0.35198821289E+02  0.19773101804E+02 -0.15927671319E+02  0.43400729126E+02  0.00000000000E+00 0.  1.
         11    1    3    3    0    0  0.23371593772E+02 -0.77194150609E+01  0.13844062831E+02  0.28239667850E+02  0.51100000000E-03 0. -1.
        -11    1    3    3    0    0  0.75168588801E+01 -0.93994985551E+01  0.57093458101E+01  0.13321049897E+02  0.51100000000E-03 0.  1.
        -12    1    3    3    0    0  0.43103686363E+01 -0.26541881875E+01 -0.36257373225E+01  0.62265531273E+01  0.00000000000E+00 0.  1.
</event>
<event>
 7    1  0.4592673E-010  0.4778727E+02  0.7816164E-02  0.1312668E+00
        -11   -1    0    0    0    0  0.00000000000E+00  0.00000000000E+00  0.45593999997E+02  0.45594000000E+02  0.51100000000E-03 0.  1.
         11   -1    0    0    0    0 -0.00000000000E+00 -0.00000000000E+00 -0.45593999997E+02  0.45594000000E+02  0.51100000000E-03 0. -1.
    9900012    2    1    2    0    0  0.32055904043E+02  0.30444365602E+01 -0.29099376841E+02  0.47787270622E+02  0.19999998076E+02 0.  0.
        -12    1    1    2    0    0 -0.32055904043E+02 -0.30444365602E+01  0.29099376841E+02  0.43400729378E+02  0.00000000000E+00 0.  1.
         11    1    3    3    0    0  0.12604814016E+02  0.30091218869E+01 -0.19378437527E+02  0.23312228382E+02  0.51100000000E-03 0. -1.
        -11    1    3    3    0    0  0.96889062193E+01  0.46765880885E+01 -0.82679196981E+01  0.13568488356E+02  0.51100000000E-03 0.  1.
         12    1    3    3    0    0  0.97621838082E+01 -0.46412734153E+01 -0.14530196153E+01  0.10906553884E+02  0.00000000000E+00 0. -1.
</event>
<event>
 7    1  0.4592673E-010  0.4778727E+02  0.7816164E-02  0.1312668E+00
        -11   -1    0    0    0    0  0.00000000000E+00  0.00000000000E+00  0.45593999997E+02  0.45594000000E+02  0.51100000000E-03 0.  1.
         11   -1    0    0    0    0 -0.00000000000E+00 -0.00000000000E+00 -0.45593999997E+02  0.45594000000E+02  0.51100000000E-03 0. -1.
    9900012    2    1    2    0    0 -0.18616543803E+02  0.15927324772E+02 -0.35824121371E+02  0.47787273629E+02  0.20000011782E+02 0.  0.
        -12    1    1    2    0    0  0.18616543803E+02 -0.15927324772E+02  0.35824121371E+02  0.43400726371E+02  0.00000000000E+00 0.  1.
         11    1    3    3    0    0 -0.17576831256E+01  0.65912232572E+01 -0.16313843965E+02  0.17682623650E+02  0.51100000000E-03 0. -1.
        -11    1    3    3    0    0 -0.23796392856E+01  0.76524949975E+01 -0.94641135867E+01  0.12401322875E+02  0.51100000000E-03 0.  1.
        -12    1    3    3    0    0 -0.14479221392E+02  0.16836065177E+01 -0.10046163819E+02  0.17703327103E+02  0.00000000000E+00 0.  1.
</event>
<event>
 7    1  0.4592673E-010  0.4778728E+02  0.7816164E-02  0.1312668E+00
        -11   -1    0    0    0    0  0.00000000000E+00  0.00000000000E+00  0.45593999997E+02  0.45594000000E+02  0.51100000000E-03 0.  1.
         11   -1    0    0    0    0 -0.00000000000E+00 -0.00000000000E+00 -0.45593999997E+02  0.45594000000E+02  0.51100000000E-03 0. -1.
    9900012    2    1    2    0    0  0.47937207467E+01 -0.48835594215E+01 -0.42857834585E+02  0.47787275392E+02  0.20000019822E+02 0.  0.
        -12    1    1    2    0    0 -0.47937207467E+01  0.48835594215E+01  0.42857834585E+02  0.43400724608E+02  0.00000000000E+00 0.  1.
         11    1    3    3    0    0  0.44136080182E+01 -0.15470631718E+01 -0.24803957392E+02  0.25241030937E+02  0.51100000000E-03 0. -1.
        -11    1    3    3    0    0 -0.29289207322E+01  0.35149716053E+00 -0.17281550200E+02  0.17531517461E+02  0.51100000000E-03 0.  1.
        -12    1    3    3    0    0  0.33090334607E+01 -0.36879934102E+01 -0.77232699233E+00  0.50147269937E+01  0.00000000000E+00 0.  1.
</event>
<event>
 7    1  0.4592673E-010  0.4778727E+02  0.7816164E-02  0.1312668E+00
        -11   -1    0    0    0    0  0.00000000000E+00  0.00000000000E+00  0.45593999997E+02  0.45594000000E+02  0.51100000000E-03 0.  1.
         11   -1    0    0    0    0 -0.00000000000E+00 -0.00000000000E+00 -0.45593999997E+02  0.45594000000E+02  0.51100000000E-03 0. -1.
    9900012    2    1    2    0    0 -0.96052686884E+01 -0.37767973869E+01 -0.42155638143E+02  0.47787271753E+02  0.20000003232E+02 0.  0.
        -12    1    1    2    0    0  0.96052686884E+01  0.37767973869E+01  0.42155638143E+02  0.43400728247E+02  0.00000000000E+00 0.  1.
         11    1    3    3    0    0 -0.13369865315E+02 -0.28475716453E+01 -0.27728760074E+02  0.30915143511E+02  0.51100000000E-03 0. -1.
        -11    1    3    3    0    0 -0.16804051314E+01  0.44921613367E+00 -0.43210642426E+00  0.17922814409E+01  0.51100000000E-03 0.  1.
        -12    1    3    3    0    0  0.54450017579E+01 -0.13784418753E+01 -0.13994771645E+02  0.15079846801E+02  0.00000000000E+00 0.  1.
</event>
<event>
 7    1  0.4592673E-010  0.4778727E+02  0.7816164E-02  0.1312668E+00
        -11   -1    0    0    0    0  0.00000000000E+00  0.00000000000E+00  0.45593999997E+02  0.45594000000E+02  0.51100000000E-03 0. -1.
         11   -1    0    0    0    0 -0.00000000000E+00 -0.00000000000E+00 -0.45593999997E+02  0.45594000000E+02  0.51100000000E-03 0.  1.
    9900012    2    1    2    0    0  0.84000091799E+01  0.14127919361E+02  0.40167959753E+02  0.47787271315E+02  0.20000001232E+02 0.  0.
        -12    1    1    2    0    0 -0.84000091799E+01 -0.14127919361E+02 -0.40167959753E+02  0.43400728685E+02  0.00000000000E+00 0.  1.
         11    1    3    3    0    0  0.38813755526E+01  0.13806426562E+01  0.18494510754E+01  0.45157191970E+01  0.51100000000E-03 0.  1.
        -11    1    3    3    0    0  0.37808701180E+01 -0.19689678379E+01  0.36883663051E+01  0.56370080236E+01  0.51100000000E-03 0. -1.
         12    1    3    3    0    0  0.73776350923E+00  0.14716244543E+02  0.34630142372E+02  0.37634544094E+02  0.00000000000E+00 0. -1.
</event>
<event>
 7    1  0.4592673E-010  0.4778727E+02  0.7816164E-02  0.1312668E+00
        -11   -1    0    0    0    0  0.00000000000E+00  0.00000000000E+00  0.45593999997E+02  0.45594000000E+02  0.51100000000E-03 0.  1.
         11   -1    0    0    0    0 -0.00000000000E+00 -0.00000000000E+00 -0.45593999997E+02  0.45594000000E+02  0.51100000000E-03 0. -1.
    9900012    2    1    2    0    0 -0.40093082633E+02 -0.12373980044E+02 -0.11092906966E+02  0.47787271410E+02  0.20000001668E+02 0.  0.
        -12    1    1    2    0    0  0.40093082633E+02  0.12373980044E+02  0.11092906966E+02  0.43400728590E+02  0.00000000000E+00 0.  1.
         11    1    3    3    0    0 -0.12213402949E+02 -0.37314418777E-01 -0.17085675258E+01  0.12332388545E+02  0.51100000000E-03 0. -1.
        -11    1    3    3    0    0 -0.28976085077E+02 -0.11861852138E+02 -0.60184284642E+01  0.31883201282E+02  0.51100000000E-03 0.  1.
         12    1    3    3    0    0  0.10964053936E+01 -0.47481348739E+00 -0.33659109758E+01  0.35716815833E+01  0.00000000000E+00 0. -1.
</event>
<event>
 7    1  0.4592673E-010  0.4778727E+02  0.7816164E-02  0.1312668E+00
        -11   -1    0    0    0    0  0.00000000000E+00  0.00000000000E+00  0.45593999997E+02  0.45594000000E+02  0.51100000000E-03 0. -1.
         11   -1    0    0    0    0 -0.00000000000E+00 -0.00000000000E+00 -0.45593999997E+02  0.45594000000E+02  0.51100000000E-03 0.  1.
    9900012    2    1    2    0    0  0.39185897523E+02  0.54540053355E+00  0.18649164996E+02  0.47787269805E+02  0.19999994350E+02 0.  0.
        -12    1    1    2    0    0 -0.39185897523E+02 -0.54540053355E+00 -0.18649164996E+02  0.43400730195E+02  0.00000000000E+00 0.  1.
         11    1    3    3    0    0  0.27839724556E+02 -0.15569355656E+01  0.16397501190E+02  0.32347370175E+02  0.51100000000E-03 0. -1.
        -11    1    3    3    0    0  0.10918876218E+02  0.14123289969E+01  0.53472610586E+01  0.12239678596E+02  0.51100000000E-03 0.  1.
        -12    1    3    3    0    0  0.42729674947E+00  0.69000710233E+00 -0.30955972530E+01  0.32002210339E+01  0.00000000000E+00 0.  1.
</event>
<event>
 7    1  0.4592673E-010  0.4778728E+02  0.7816164E-02  0.1312668E+00
        -11   -1    0    0    0    0  0.00000000000E+00  0.00000000000E+00  0.45593999997E+02  0.45594000000E+02  0.51100000000E-03 0.  1.
         11   -1    0    0    0    0 -0.00000000000E+00 -0.00000000000E+00 -0.45593999997E+02  0.45594000000E+02  0.51100000000E-03 0. -1.
    9900012    2    1    2    0    0  0.19295999531E+01 -0.14964942505E+02 -0.40693366256E+02  0.47787275151E+02  0.20000018724E+02 0.  0.
        -12    1    1    2    0    0 -0.19295999531E+01  0.14964942505E+02  0.40693366256E+02  0.43400724849E+02  0.00000000000E+00 0.  1.
         11    1    3    3    0    0  0.21710262694E+01  0.34822381946E+00 -0.39420572102E+01  0.45138044043E+01  0.51100000000E-03 0. -1.
        -11    1    3    3    0    0  0.58265929192E+01 -0.26909098041E+01 -0.37736959640E+01  0.74451972512E+01  0.51100000000E-03 0.  1.
         12    1    3    3    0    0 -0.60680192354E+01 -0.12622256520E+02 -0.32977613082E+02  0.35828273496E+02  0.00000000000E+00 0. -1.
</event>
<event>
 7    1  0.4592673E-010  0.4778727E+02  0.7816164E-02  0.1312668E+00
        -11   -1    0    0    0    0  0.00000000000E+00  0.00000000000E+00  0.45593999997E+02  0.45594000000E+02  0.51100000000E-03 0.  1.
         11   -1    0    0    0    0 -0.00000000000E+00 -0.00000000000E+00 -0.45593999997E+02  0.45594000000E+02  0.51100000000E-03 0. -1.
    9900012    2    1    2    0    0  0.49742802993E+01 -0.37280528279E+02 -0.21657371699E+02  0.47787274175E+02  0.20000014273E+02 0.  0.
        -12    1    1    2    0    0 -0.49742802993E+01  0.37280528279E+02  0.21657371699E+02  0.43400725825E+02  0.00000000000E+00 0.  1.
         11    1    3    3    0    0 -0.32575708642E+01 -0.88153095924E+01 -0.24179218305E+01  0.97040093459E+01  0.51100000000E-03 0. -1.
        -11    1    3    3    0    0  0.24486790262E+01 -0.56144848122E+01  0.19084928539E+01  0.64156694050E+01  0.51100000000E-03 0.  1.
         12    1    3    3    0    0  0.57831721373E+01 -0.22850733874E+02 -0.21147942722E+02  0.31667595424E+02  0.00000000000E+00 0. -1.
</event>
<event>
 7    1  0.4592673E-010  0.4778727E+02  0.7816164E-02  0.1312668E+00
        -11   -1    0    0    0    0  0.00000000000E+00  0.00000000000E+00  0.45593999997E+02  0.45594000000E+02  0.51100000000E-03 0.  1.
         11   -1    0    0    0    0 -0.00000000000E+00 -0.00000000000E+00 -0.45593999997E+02  0.45594000000E+02  0.51100000000E-03 0. -1.
    9900012    2    1    2    0    0 -0.24420725002E+02  0.11695084306E+02 -0.33918677613E+02  0.47787268467E+02  0.19999988249E+02 0.  0.
        -12    1    1    2    0    0  0.24420725002E+02 -0.11695084306E+02  0.33918677613E+02  0.43400731533E+02  0.00000000000E+00 0.  1.
         11    1    3    3    0    0  0.28526934037E+01  0.31337241635E+01 -0.50582095534E+01  0.65987552565E+01  0.51100000000E-03 0. -1.
        -11    1    3    3    0    0 -0.13024468531E+02  0.55820660232E+01 -0.99074636307E+01  0.17290288530E+02  0.51100000000E-03 0.  1.
         12    1    3    3    0    0 -0.14248949875E+02  0.29792941192E+01 -0.18953004429E+02  0.23898224680E+02  0.00000000000E+00 0. -1.
</event>
<event>
 7    1  0.4592673E-010  0.4778727E+02  0.7816164E-02  0.1312668E+00
        -11   -1    0    0    0    0  0.00000000000E+00  0.00000000000E+00  0.45593999997E+02  0.45594000000E+02  0.51100000000E-03 0.  1.
         11   -1    0    0    0    0 -0.00000000000E+00 -0.00000000000E+00 -0.45593999997E+02  0.45594000000E+02  0.51100000000E-03 0. -1.
    9900012    2    1    2    0    0  0.80211088695E+01  0.85843995712E+01 -0.41780298104E+02  0.47787269440E+02  0.19999992685E+02 0.  0.
        -12    1    1    2    0    0 -0.80211088695E+01 -0.85843995712E+01  0.41780298104E+02  0.43400730560E+02  0.00000000000E+00 0.  1.
         11    1    3    3    0    0 -0.52400317562E+01  0.45604961897E+01 -0.79862204824E+01  0.10584695374E+02  0.51100000000E-03 0. -1.
        -11    1    3    3    0    0  0.19721280822E+01 -0.19571724988E+01 -0.62718722072E+01  0.68597517890E+01  0.51100000000E-03 0.  1.
         12    1    3    3    0    0  0.11289012544E+02  0.59810758803E+01 -0.27522205414E+02  0.30342822277E+02  0.00000000000E+00 0. -1.
</event>
<event>
 7    1  0.4592673E-010  0.4778727E+02  0.7816164E-02  0.1312668E+00
        -11   -1    0    0    0    0  0.00000000000E+00  0.00000000000E+00  0.45593999997E+02  0.45594000000E+02  0.51100000000E-03 0. -1.
         11   -1    0    0    0    0 -0.00000000000E+00 -0.00000000000E+00 -0.45593999997E+02  0.45594000000E+02  0.51100000000E-03 0.  1.
    9900012    2    1    2    0    0  0.12860984681E+02 -0.39440508192E+02  0.12754024840E+02  0.47787265409E+02  0.19999974308E+02 0.  0.
        -12    1    1    2    0    0 -0.12860984681E+02  0.39440508192E+02 -0.12754024840E+02  0.43400734591E+02  0.00000000000E+00 0.  1.
         11    1    3    3    0    0 -0.20579762139E+01 -0.20356844781E+02  0.78292615648E+01  0.21907389905E+02  0.51100000000E-03 0. -1.
        -11    1    3    3    0    0  0.44930869552E+01 -0.11962194236E+02  0.22827613041E+01  0.12980482300E+02  0.51100000000E-03 0.  1.
        -12    1    3    3    0    0  0.10425873940E+02 -0.71214691755E+01  0.26420019707E+01  0.12899393205E+02  0.00000000000E+00 0.  1.
</event>
<event>
 7    1  0.4592673E-010  0.4778727E+02  0.7816164E-02  0.1312668E+00
        -11   -1    0    0    0    0  0.00000000000E+00  0.00000000000E+00  0.45593999997E+02  0.45594000000E+02  0.51100000000E-03 0. -1.
         11   -1    0    0    0    0 -0.00000000000E+00 -0.00000000000E+00 -0.45593999997E+02  0.45594000000E+02  0.51100000000E-03 0.  1.
    9900012    2    1    2    0    0 -0.17053480719E+02  0.27936145877E+02  0.28502168657E+02  0.47787273402E+02  0.20000010749E+02 0.  0.
        -12    1    1    2    0    0  0.17053480719E+02 -0.27936145877E+02 -0.28502168657E+02  0.43400726598E+02  0.00000000000E+00 0.  1.
         11    1    3    3    0    0 -0.73682708818E+01  0.68008580494E+01  0.13372933961E+02  0.16714617823E+02  0.51100000000E-03 0. -1.
        -11    1    3    3    0    0 -0.56552589768E+01  0.14818819463E+02  0.17101697871E+02  0.23324824430E+02  0.51100000000E-03 0.  1.
         12    1    3    3    0    0 -0.40299508604E+01  0.63164683645E+01 -0.19724631746E+01  0.77478311489E+01  0.00000000000E+00 0. -1.
</event>
<event>
 7    1  0.4592673E-010  0.4778725E+02  0.7816164E-02  0.1312668E+00
        -11   -1    0    0    0    0  0.00000000000E+00  0.00000000000E+00  0.45593999997E+02  0.45594000000E+02  0.51100000000E-03 0. -1.
         11   -1    0    0    0    0 -0.00000000000E+00 -0.00000000000E+00 -0.45593999997E+02  0.45594000000E+02  0.51100000000E-03 0.  1.
    9900012    2    1    2    0    0  0.43928327015E+01  0.87119356355E+01  0.42289833948E+02  0.47787252806E+02  0.19999916845E+02 0.  0.
        -12    1    1    2    0    0 -0.43928327015E+01 -0.87119356355E+01 -0.42289833948E+02  0.43400747194E+02  0.00000000000E+00 0.  1.
         11    1    3    3    0    0 -0.15954737517E+01  0.58610138169E+01  0.13207676642E+02  0.14537528744E+02  0.51100000000E-03 0. -1.
        -11    1    3    3    0    0  0.81022973273E+01  0.55119545466E+01  0.28027601442E+02  0.29691333883E+02  0.51100000000E-03 0.  1.
         12    1    3    3    0    0 -0.21139908740E+01 -0.26610327279E+01  0.10545558634E+01  0.35583901787E+01  0.00000000000E+00 0. -1.
</event>
<event>
 7    1  0.4592673E-010  0.4778727E+02  0.7816164E-02  0.1312668E+00
        -11   -1    0    0    0    0  0.00000000000E+00  0.00000000000E+00  0.45593999997E+02  0.45594000000E+02  0.51100000000E-03 0. -1.
         11   -1    0    0    0    0 -0.00000000000E+00 -0.00000000000E+00 -0.45593999997E+02  0.45594000000E+02  0.51100000000E-03 0.  1.
    9900012    2    1    2    0    0  0.36356988153E+02  0.22960564129E+02  0.58826191452E+01  0.47787270736E+02  0.19999998594E+02 0.  0.
        -12    1    1    2    0    0 -0.36356988153E+02 -0.22960564129E+02 -0.58826191452E+01  0.43400729264E+02  0.00000000000E+00 0.  1.
         11    1    3    3    0    0 -0.21754804053E+00  0.26274860582E+01 -0.22078033880E+01  0.34388088340E+01  0.51100000000E-03 0. -1.
        -11    1    3    3    0    0  0.71483791369E+01 -0.46758029696E+00  0.36510839215E+01  0.80404209891E+01  0.51100000000E-03 0.  1.
         12    1    3    3    0    0  0.29426157056E+02  0.20800658367E+02  0.44393386117E+01  0.36308040913E+02  0.00000000000E+00 0. -1.
</event>
<event>
 7    1  0.4592673E-010  0.4778727E+02  0.7816164E-02  0.1312668E+00
        -11   -1    0    0    0    0  0.00000000000E+00  0.00000000000E+00  0.45593999997E+02  0.45594000000E+02  0.51100000000E-03 0.  1.
         11   -1    0    0    0    0 -0.00000000000E+00 -0.00000000000E+00 -0.45593999997E+02  0.45594000000E+02  0.51100000000E-03 0. -1.
    9900012    2    1    2    0    0 -0.29543284462E+02 -0.25347194137E+02 -0.19192109890E+02  0.47787274321E+02  0.20000014939E+02 0.  0.
        -12    1    1    2    0    0  0.29543284462E+02  0.25347194137E+02  0.19192109890E+02  0.43400725679E+02  0.00000000000E+00 0.  1.
         11    1    3    3    0    0 -0.30675896273E+01 -0.64860946395E+01 -0.51309936020E+01  0.88208063916E+01  0.51100000000E-03 0. -1.
        -11    1    3    3    0    0 -0.14605966242E+02 -0.18936640558E+01 -0.10166448492E+02  0.17896281419E+02  0.51100000000E-03 0.  1.
        -12    1    3    3    0    0 -0.11869728592E+02 -0.16967435442E+02 -0.38946677969E+01  0.21070186510E+02  0.00000000000E+00 0.  1.
</event>
<event>
 7    1  0.4592673E-010  0.4778727E+02  0.7816164E-02  0.1312668E+00
        -11   -1    0    0    0    0  0.00000000000E+00  0.00000000000E+00  0.45593999997E+02  0.45594000000E+02  0.51100000000E-03 0.  1.
         11   -1    0    0    0    0 -0.00000000000E+00 -0.00000000000E+00 -0.45593999997E+02  0.45594000000E+02  0.51100000000E-03 0. -1.
    9900012    2    1    2    0    0 -0.18354384239E+02 -0.35911036611E+02 -0.16035502237E+02  0.47787270705E+02  0.19999998455E+02 0.  0.
        -12    1    1    2    0    0  0.18354384239E+02  0.35911036611E+02  0.16035502237E+02  0.43400729295E+02  0.00000000000E+00 0.  1.
         11    1    3    3    0    0 -0.29992411862E+01 -0.26681619021E+01  0.13781249338E+01  0.42442625064E+01  0.51100000000E-03 0. -1.
        -11    1    3    3    0    0 -0.11744367997E+02 -0.20279399957E+02 -0.26777488401E+01  0.23587169847E+02  0.51100000000E-03 0.  1.
         12    1    3    3    0    0 -0.36107750557E+01 -0.12963474752E+02 -0.14735878331E+02  0.19955838352E+02  0.00000000000E+00 0. -1.
</event>
<event>
 7    1  0.4592673E-010  0.4778727E+02  0.7816164E-02  0.1312668E+00
        -11   -1    0    0    0    0  0.00000000000E+00  0.00000000000E+00  0.45593999997E+02  0.45594000000E+02  0.51100000000E-03 0.  1.
         11   -1    0    0    0    0 -0.00000000000E+00 -0.00000000000E+00 -0.45593999997E+02  0.45594000000E+02  0.51100000000E-03 0. -1.
    9900012    2    1    2    0    0  0.36154411658E+02  0.67540300876E+01 -0.23040508541E+02  0.47787269147E+02  0.19999991349E+02 0.  0.
        -12    1    1    2    0    0 -0.36154411658E+02 -0.67540300876E+01  0.23040508541E+02  0.43400730853E+02  0.00000000000E+00 0.  1.
         11    1    3    3    0    0  0.20982155881E+00  0.17466831313E+01 -0.19863322773E+01  0.26533833543E+01  0.51100000000E-03 0. -1.
        -11    1    3    3    0    0  0.21779400365E+02  0.11156006373E+02 -0.12419601112E+02  0.27441669965E+02  0.51100000000E-03 0.  1.
         12    1    3    3    0    0  0.14165189734E+02 -0.61486594168E+01 -0.86345751518E+01  0.17692215827E+02  0.00000000000E+00 0. -1.
</event>
<event>
 7    1  0.4592673E-010  0.4778727E+02  0.7816164E-02  0.1312668E+00
        -11   -1    0    0    0    0  0.00000000000E+00  0.00000000000E+00  0.45593999997E+02  0.45594000000E+02  0.51100000000E-03 0.  1.
         11   -1    0    0    0    0 -0.00000000000E+00 -0.00000000000E+00 -0.45593999997E+02  0.45594000000E+02  0.51100000000E-03 0. -1.
    9900012    2    1    2    0    0 -0.10958797454E+02 -0.41375523483E+02 -0.71829002003E+01  0.47787271430E+02  0.20000001757E+02 0.  0.
        -12    1    1    2    0    0  0.10958797454E+02  0.41375523483E+02  0.71829002003E+01  0.43400728570E+02  0.00000000000E+00 0.  1.
         11    1    3    3    0    0 -0.59967043399E+01 -0.13012068352E+02  0.43070601850E+01  0.14960787193E+02  0.51100000000E-03 0. -1.
        -11    1    3    3    0    0 -0.18950015603E+01 -0.69891309329E+00  0.10747082041E+01  0.22879048080E+01  0.51100000000E-03 0.  1.
         12    1    3    3    0    0 -0.30670915539E+01 -0.27664542038E+02 -0.12564668589E+02  0.30538579428E+02  0.00000000000E+00 0. -1.
</event>
<event>
 7    1  0.4592673E-010  0.4778727E+02  0.7816164E-02  0.1312668E+00
        -11   -1    0    0    0    0  0.00000000000E+00  0.00000000000E+00  0.45593999997E+02  0.45594000000E+02  0.51100000000E-03 0. -1.
         11   -1    0    0    0    0 -0.00000000000E+00 -0.00000000000E+00 -0.45593999997E+02  0.45594000000E+02  0.51100000000E-03 0.  1.
    9900012    2    1    2    0    0 -0.13109021036E+02  0.28041563926E+02  0.30421170517E+02  0.47787270104E+02  0.19999995711E+02 0.  0.
        -12    1    1    2    0    0  0.13109021036E+02 -0.28041563926E+02 -0.30421170517E+02  0.43400729896E+02  0.00000000000E+00 0.  1.
         11    1    3    3    0    0 -0.85077488126E+00  0.13927619906E+01  0.72108066538E-01  0.16336473596E+01  0.51100000000E-03 0.  1.
        -11    1    3    3    0    0 -0.47246416623E+01 -0.11892424453E+01  0.93639779648E+00  0.49611871084E+01  0.51100000000E-03 0. -1.
         12    1    3    3    0    0 -0.75336044921E+01  0.27838044380E+02  0.29412664654E+02  0.41192435636E+02  0.00000000000E+00 0. -1.
</event>
<event>
 7    1  0.4592673E-010  0.4778726E+02  0.7816164E-02  0.1312668E+00
        -11   -1    0    0    0    0  0.00000000000E+00  0.00000000000E+00  0.45593999997E+02  0.45594000000E+02  0.51100000000E-03 0.  1.
         11   -1    0    0    0    0 -0.00000000000E+00 -0.00000000000E+00 -0.45593999997E+02  0.45594000000E+02  0.51100000000E-03 0. -1.
    9900012    2    1    2    0    0  0.27008016520E+02 -0.20245816265E+02 -0.27281836959E+02  0.47787255070E+02  0.19999927166E+02 0.  0.
        -12    1    1    2    0    0 -0.27008016520E+02  0.20245816265E+02  0.27281836959E+02  0.43400744930E+02  0.00000000000E+00 0.  1.
         11    1    3    3    0    0  0.67548302400E+01 -0.73147051444E+01 -0.14703898874E+02  0.17757738743E+02  0.51100000000E-03 0. -1.
        -11    1    3    3    0    0  0.18856459687E+02 -0.11885547091E+02 -0.58018984296E+01  0.23032462466E+02  0.51100000000E-03 0.  1.
         12    1    3    3    0    0  0.13967265930E+01 -0.10455640297E+01 -0.67760396558E+01  0.69970538609E+01  0.00000000000E+00 0. -1.
</event>
<event>
 7    1  0.4592673E-010  0.4778727E+02  0.7816164E-02  0.1312668E+00
        -11   -1    0    0    0    0  0.00000000000E+00  0.00000000000E+00  0.45593999997E+02  0.45594000000E+02  0.51100000000E-03 0.  1.
         11   -1    0    0    0    0 -0.00000000000E+00 -0.00000000000E+00 -0.45593999997E+02  0.45594000000E+02  0.51100000000E-03 0. -1.
    9900012    2    1    2    0    0 -0.28002051774E+00 -0.47105196320E+01 -0.43143433663E+02  0.47787271032E+02  0.19999999944E+02 0.  0.
        -12    1    1    2    0    0  0.28002051774E+00  0.47105196320E+01  0.43143433663E+02  0.43400728968E+02  0.00000000000E+00 0.  1.
         11    1    3    3    0    0  0.12788741661E+01 -0.16491871943E+01 -0.41657572090E+01  0.46592779398E+01  0.51100000000E-03 0. -1.
        -11    1    3    3    0    0  0.80844469212E+00 -0.26415753009E+01  0.11035062068E+01  0.29747653857E+01  0.51100000000E-03 0.  1.
         12    1    3    3    0    0 -0.23673393760E+01 -0.41975713680E+00 -0.40081182661E+02  0.40153227707E+02  0.00000000000E+00 0. -1.
</event>
<event>
 7    1  0.4592673E-010  0.4778727E+02  0.7816164E-02  0.1312668E+00
        -11   -1    0    0    0    0  0.00000000000E+00  0.00000000000E+00  0.45593999997E+02  0.45594000000E+02  0.51100000000E-03 0. -1.
         11   -1    0    0    0    0 -0.00000000000E+00 -0.00000000000E+00 -0.45593999997E+02  0.45594000000E+02  0.51100000000E-03 0.  1.
    9900012    2    1    2    0    0  0.13030948710E+02  0.41070624680E+02  0.51982216932E+01  0.47787270229E+02  0.19999996282E+02 0.  0.
        -12    1    1    2    0    0 -0.13030948710E+02 -0.41070624680E+02 -0.51982216932E+01  0.43400729771E+02  0.00000000000E+00 0.  1.
         11    1    3    3    0    0  0.30850273348E+01  0.79506329792E+01  0.50514704532E+01  0.99119782298E+01  0.51100000000E-03 0. -1.
        -11    1    3    3    0    0  0.35623204728E+01  0.26797189903E+01  0.46580964694E+01  0.64473935817E+01  0.51100000000E-03 0.  1.
         12    1    3    3    0    0  0.63836009025E+01  0.30440272710E+02 -0.45113452295E+01  0.31427898418E+02  0.00000000000E+00 0. -1.
</event>
<event>
 7    1  0.4592673E-010  0.4778727E+02  0.7816164E-02  0.1312668E+00
        -11   -1    0    0    0    0  0.00000000000E+00  0.00000000000E+00  0.45593999997E+02  0.45594000000E+02  0.51100000000E-03 0.  1.
         11   -1    0    0    0    0 -0.00000000000E+00 -0.00000000000E+00 -0.45593999997E+02  0.45594000000E+02  0.51100000000E-03 0. -1.
    9900012    2    1    2    0    0 -0.13896669005E+02  0.32959170657E+02 -0.24580452150E+02  0.47787274571E+02  0.20000016080E+02 0.  0.
        -12    1    1    2    0    0  0.13896669005E+02 -0.32959170657E+02  0.24580452150E+02  0.43400725429E+02  0.00000000000E+00 0.  1.
         11    1    3    3    0    0 -0.77543896660E+01  0.17798076228E+02 -0.15505842091E+02  0.24846191171E+02  0.51100000000E-03 0. -1.
        -11    1    3    3    0    0 -0.64674141355E+01  0.15520991825E+02 -0.32865259806E+01  0.17132713915E+02  0.51100000000E-03 0.  1.
         12    1    3    3    0    0  0.32513479672E+00 -0.35989739522E+00 -0.57880840787E+01  0.58083694849E+01  0.00000000000E+00 0. -1.
</event>
<event>
 7    1  0.4592673E-010  0.4778727E+02  0.7816164E-02  0.1312668E+00
        -11   -1    0    0    0    0  0.00000000000E+00  0.00000000000E+00  0.45593999997E+02  0.45594000000E+02  0.51100000000E-03 0. -1.
         11   -1    0    0    0    0 -0.00000000000E+00 -0.00000000000E+00 -0.45593999997E+02  0.45594000000E+02  0.51100000000E-03 0.  1.
    9900012    2    1    2    0    0 -0.80591448804E+01 -0.33715954884E+02  0.26113364290E+02  0.47787271614E+02  0.20000002595E+02 0.  0.
        -12    1    1    2    0    0  0.80591448804E+01  0.33715954884E+02 -0.26113364290E+02  0.43400728386E+02  0.00000000000E+00 0.  1.
         11    1    3    3    0    0 -0.95512122718E+00 -0.13701804481E+02  0.72100098548E+01  0.15512444842E+02  0.51100000000E-03 0. -1.
        -11    1    3    3    0    0  0.42092460951E+01 -0.15386926132E+01  0.28501474290E+01  0.53111833216E+01  0.51100000000E-03 0.  1.
         12    1    3    3    0    0 -0.11313269748E+02 -0.18475457789E+02  0.16053207006E+02  0.26963643450E+02  0.00000000000E+00 0. -1.
</event>
<event>
 7    1  0.4592673E-010  0.4778727E+02  0.7816164E-02  0.1312668E+00
        -11   -1    0    0    0    0  0.00000000000E+00  0.00000000000E+00  0.45593999997E+02  0.45594000000E+02  0.51100000000E-03 0.  1.
         11   -1    0    0    0    0 -0.00000000000E+00 -0.00000000000E+00 -0.45593999997E+02  0.45594000000E+02  0.51100000000E-03 0. -1.
    9900012    2    1    2    0    0 -0.18449318988E+02  0.35719859424E+02 -0.16350464084E+02  0.47787269543E+02  0.19999993156E+02 0.  0.
        -12    1    1    2    0    0  0.18449318988E+02 -0.35719859424E+02  0.16350464084E+02  0.43400730457E+02  0.00000000000E+00 0.  1.
         11    1    3    3    0    0 -0.10411765470E+02  0.19184222164E+02 -0.24549555564E+01  0.21965109772E+02  0.51100000000E-03 0. -1.
        -11    1    3    3    0    0 -0.24482223718E+01  0.15468019401E+02 -0.78430091251E+01  0.17514742629E+02  0.51100000000E-03 0.  1.
        -12    1    3    3    0    0 -0.55893311455E+01  0.10676178589E+01 -0.60524994030E+01  0.83074171419E+01  0.00000000000E+00 0.  1.
</event>
<event>
 7    1  0.4592673E-010  0.4778727E+02  0.7816164E-02  0.1312668E+00
        -11   -1    0    0    0    0  0.00000000000E+00  0.00000000000E+00  0.45593999997E+02  0.45594000000E+02  0.51100000000E-03 0.  1.
         11   -1    0    0    0    0 -0.00000000000E+00 -0.00000000000E+00 -0.45593999997E+02  0.45594000000E+02  0.51100000000E-03 0. -1.
    9900012    2    1    2    0    0  0.15501994480E+02  0.27883668794E+02 -0.29424691882E+02  0.47787270621E+02  0.19999998072E+02 0.  0.
        -12    1    1    2    0    0 -0.15501994480E+02 -0.27883668794E+02  0.29424691882E+02  0.43400729379E+02  0.00000000000E+00 0.  1.
         11    1    3    3    0    0  0.21877923674E+01  0.13866503306E+02 -0.18666426029E+02  0.23355980184E+02  0.51100000000E-03 0. -1.
        -11    1    3    3    0    0 -0.11296558354E+01 -0.43016628993E+00 -0.16951802832E+01  0.20820186832E+01  0.51100000000E-03 0.  1.
        -12    1    3    3    0    0  0.14443857948E+02  0.14447331778E+02 -0.90630855689E+01  0.22349271754E+02  0.00000000000E+00 0.  1.
</event>
<event>
 7    1  0.4592673E-010  0.4778726E+02  0.7816164E-02  0.1312668E+00
        -11   -1    0    0    0    0  0.00000000000E+00  0.00000000000E+00  0.45593999997E+02  0.45594000000E+02  0.51100000000E-03 0. -1.
         11   -1    0    0    0    0 -0.00000000000E+00 -0.00000000000E+00 -0.45593999997E+02  0.45594000000E+02  0.51100000000E-03 0.  1.
    9900012    2    1    2    0    0  0.82649745950E+01  0.42038185567E+02  0.69357750856E+01  0.47787264673E+02  0.19999970952E+02 0.  0.
        -12    1    1    2    0    0 -0.82649745950E+01 -0.42038185567E+02 -0.69357750856E+01  0.43400735327E+02  0.00000000000E+00 0.  1.
         11    1    3    3    0    0  0.70323884275E+01  0.18115366783E+02  0.87337040210E+01  0.21304895842E+02  0.51100000000E-03 0. -1.
        -11    1    3    3    0    0 -0.18361361943E+01  0.13998872977E+01  0.24404339428E+01  0.33595831081E+01  0.51100000000E-03 0.  1.
         12    1    3    3    0    0  0.30687223618E+01  0.22522931487E+02 -0.42383628782E+01  0.23122785723E+02  0.00000000000E+00 0. -1.
</event>
<event>
 7    1  0.4592673E-010  0.4778726E+02  0.7816164E-02  0.1312668E+00
        -11   -1    0    0    0    0  0.00000000000E+00  0.00000000000E+00  0.45593999997E+02  0.45594000000E+02  0.51100000000E-03 0. -1.
         11   -1    0    0    0    0 -0.00000000000E+00 -0.00000000000E+00 -0.45593999997E+02  0.45594000000E+02  0.51100000000E-03 0.  1.
    9900012    2    1    2    0    0 -0.34415985928E+02  0.20394540564E+02  0.16829337646E+02  0.47787262935E+02  0.19999963024E+02 0.  0.
        -12    1    1    2    0    0  0.34415985928E+02 -0.20394540564E+02 -0.16829337646E+02  0.43400737065E+02  0.00000000000E+00 0.  1.
         11    1    3    3    0    0 -0.38908237108E+01  0.48339944308E+01  0.10316345122E+02  0.12038811745E+02  0.51100000000E-03 0. -1.
        -11    1    3    3    0    0 -0.10984038003E+02  0.35745958043E+01  0.55213621595E+01  0.12802822594E+02  0.51100000000E-03 0.  1.
        -12    1    3    3    0    0 -0.19541124214E+02  0.11985950329E+02  0.99163036448E+00  0.22945628595E+02  0.00000000000E+00 0.  1.
</event>
<event>
 7    1  0.4592673E-010  0.4778727E+02  0.7816164E-02  0.1312668E+00
        -11   -1    0    0    0    0  0.00000000000E+00  0.00000000000E+00  0.45593999997E+02  0.45594000000E+02  0.51100000000E-03 0.  1.
         11   -1    0    0    0    0 -0.00000000000E+00 -0.00000000000E+00 -0.45593999997E+02  0.45594000000E+02  0.51100000000E-03 0. -1.
    9900012    2    1    2    0    0 -0.99953301495E+01 -0.41720578612E+01 -0.42027498394E+02  0.47787270595E+02  0.19999997952E+02 0.  0.
        -12    1    1    2    0    0  0.99953301495E+01  0.41720578612E+01  0.42027498394E+02  0.43400729405E+02  0.00000000000E+00 0.  1.
         11    1    3    3    0    0 -0.71635917848E+01 -0.45166217207E+01 -0.28251438315E+02  0.29493400722E+02  0.51100000000E-03 0. -1.
        -11    1    3    3    0    0 -0.51144424568E+01 -0.41810265291E+01 -0.99500155203E+01  0.11943253895E+02  0.51100000000E-03 0.  1.
         12    1    3    3    0    0  0.22827040920E+01  0.45255903885E+01 -0.38260445585E+01  0.63506159780E+01  0.00000000000E+00 0. -1.
</event>
<event>
 7    1  0.4592673E-010  0.4778726E+02  0.7816164E-02  0.1312668E+00
        -11   -1    0    0    0    0  0.00000000000E+00  0.00000000000E+00  0.45593999997E+02  0.45594000000E+02  0.51100000000E-03 0.  1.
         11   -1    0    0    0    0 -0.00000000000E+00 -0.00000000000E+00 -0.45593999997E+02  0.45594000000E+02  0.51100000000E-03 0. -1.
    9900012    2    1    2    0    0  0.25105385169E+02  0.11597957802E+02 -0.33448932715E+02  0.47787261649E+02  0.19999957162E+02 0.  0.
        -12    1    1    2    0    0 -0.25105385169E+02 -0.11597957802E+02  0.33448932715E+02  0.43400738351E+02  0.00000000000E+00 0.  1.
         11    1    3    3    0    0  0.21927243895E+02  0.10656736187E+01 -0.22129683301E+02  0.31171502504E+02  0.51100000000E-03 0. -1.
        -11    1    3    3    0    0  0.37177307133E+01  0.37596090058E+01 -0.40059038173E+01  0.66335094172E+01  0.51100000000E-03 0.  1.
         12    1    3    3    0    0 -0.53958943899E+00  0.67726751773E+01 -0.73133455962E+01  0.99822497278E+01  0.00000000000E+00 0. -1.
</event>
<event>
 7    1  0.4592673E-010  0.4778727E+02  0.7816164E-02  0.1312668E+00
        -11   -1    0    0    0    0  0.00000000000E+00  0.00000000000E+00  0.45593999997E+02  0.45594000000E+02  0.51100000000E-03 0.  1.
         11   -1    0    0    0    0 -0.00000000000E+00 -0.00000000000E+00 -0.45593999997E+02  0.45594000000E+02  0.51100000000E-03 0. -1.
    9900012    2    1    2    0    0 -0.17765234759E+02  0.13713660031E+02 -0.37147749241E+02  0.47787270615E+02  0.19999998043E+02 0.  0.
        -12    1    1    2    0    0  0.17765234759E+02 -0.13713660031E+02  0.37147749241E+02  0.43400729385E+02  0.00000000000E+00 0.  1.
         11    1    3    3    0    0 -0.22403736601E+01  0.78293740647E+01 -0.54158804533E+01  0.97800886359E+01  0.51100000000E-03 0. -1.
        -11    1    3    3    0    0 -0.29451737774E+01  0.56837419368E+01 -0.39832399409E+01  0.75395737062E+01  0.51100000000E-03 0.  1.
        -12    1    3    3    0    0 -0.12579687321E+02  0.20054402903E+00 -0.27748628847E+02  0.30467608273E+02  0.00000000000E+00 0.  1.
</event>
<event>
 7    1  0.4592673E-010  0.4778727E+02  0.7816164E-02  0.1312668E+00
        -11   -1    0    0    0    0  0.00000000000E+00  0.00000000000E+00  0.45593999997E+02  0.45594000000E+02  0.51100000000E-03 0.  1.
         11   -1    0    0    0    0 -0.00000000000E+00 -0.00000000000E+00 -0.45593999997E+02  0.45594000000E+02  0.51100000000E-03 0. -1.
    9900012    2    1    2    0    0 -0.24971485964E+02 -0.67870754058E+01 -0.34842270252E+02  0.47787270742E+02  0.19999998619E+02 0.  0.
        -12    1    1    2    0    0  0.24971485964E+02  0.67870754058E+01  0.34842270252E+02  0.43400729258E+02  0.00000000000E+00 0.  1.
         11    1    3    3    0    0 -0.17136860344E+01 -0.75991169798E+00  0.86879168766E+00  0.20661521897E+01  0.51100000000E-03 0. -1.
        -11    1    3    3    0    0  0.23180475825E+01 -0.70863621049E+00 -0.28299996114E+01  0.37261787310E+01  0.51100000000E-03 0.  1.
         12    1    3    3    0    0 -0.25575847512E+02 -0.53185274973E+01 -0.32881062328E+02  0.41994939821E+02  0.00000000000E+00 0. -1.
</event>
<event>
 7    1  0.4592673E-010  0.4778727E+02  0.7816164E-02  0.1312668E+00
        -11   -1    0    0    0    0  0.00000000000E+00  0.00000000000E+00  0.45593999997E+02  0.45594000000E+02  0.51100000000E-03 0.  1.
         11   -1    0    0    0    0 -0.00000000000E+00 -0.00000000000E+00 -0.45593999997E+02  0.45594000000E+02  0.51100000000E-03 0. -1.
    9900012    2    1    2    0    0  0.14479430004E+02  0.23950142590E+02 -0.33171678938E+02  0.47787268361E+02  0.19999987763E+02 0.  0.
        -12    1    1    2    0    0 -0.14479430004E+02 -0.23950142590E+02  0.33171678938E+02  0.43400731639E+02  0.00000000000E+00 0.  1.
         11    1    3    3    0    0  0.64587310625E+00  0.69486006000E+00 -0.73804514612E+01  0.74411723945E+01  0.51100000000E-03 0. -1.
        -11    1    3    3    0    0  0.12717009651E+02  0.21068627251E+02 -0.27833457354E+02  0.37152533389E+02  0.51100000000E-03 0.  1.
        -12    1    3    3    0    0  0.11165472469E+01  0.21866552788E+01  0.20422298772E+01  0.31935625772E+01  0.00000000000E+00 0.  1.
</event>
<event>
 7    1  0.4592673E-010  0.4778727E+02  0.7816164E-02  0.1312668E+00
        -11   -1    0    0    0    0  0.00000000000E+00  0.00000000000E+00  0.45593999997E+02  0.45594000000E+02  0.51100000000E-03 0.  1.
         11   -1    0    0    0    0 -0.00000000000E+00 -0.00000000000E+00 -0.45593999997E+02  0.45594000000E+02  0.51100000000E-03 0. -1.
    9900012    2    1    2    0    0 -0.15053464812E+02 -0.18541902748E+02 -0.36238302634E+02  0.47787268000E+02  0.19999986117E+02 0.  0.
        -12    1    1    2    0    0  0.15053464812E+02  0.18541902748E+02  0.36238302634E+02  0.43400732000E+02  0.00000000000E+00 0.  1.
         11    1    3    3    0    0 -0.12923686948E+02 -0.61991914124E+01 -0.20407956683E+02  0.24938651823E+02  0.51100000000E-03 0. -1.
        -11    1    3    3    0    0 -0.61071474974E+01 -0.49641684427E+01 -0.57978785814E+01  0.97752552493E+01  0.51100000000E-03 0.  1.
        -12    1    3    3    0    0  0.39773696329E+01 -0.73785428925E+01 -0.10032467370E+02  0.13073360927E+02  0.00000000000E+00 0.  1.
</event>
<event>
 7    1  0.4592673E-010  0.4778727E+02  0.7816164E-02  0.1312668E+00
        -11   -1    0    0    0    0  0.00000000000E+00  0.00000000000E+00  0.45593999997E+02  0.45594000000E+02  0.51100000000E-03 0.  1.
         11   -1    0    0    0    0 -0.00000000000E+00 -0.00000000000E+00 -0.45593999997E+02  0.45594000000E+02  0.51100000000E-03 0. -1.
    9900012    2    1    2    0    0 -0.19058706209E+02 -0.25164571270E+02 -0.29784784598E+02  0.47787270477E+02  0.19999997415E+02 0.  0.
        -12    1    1    2    0    0  0.19058706209E+02  0.25164571270E+02  0.29784784598E+02  0.43400729523E+02  0.00000000000E+00 0.  1.
         11    1    3    3    0    0 -0.44909883560E+01 -0.16419875272E+01 -0.12293017043E+01  0.49372342860E+01  0.51100000000E-03 0. -1.
        -11    1    3    3    0    0 -0.99763016803E+00  0.10862489645E+01  0.12149253310E+01  0.19108235361E+01  0.51100000000E-03 0.  1.
         12    1    3    3    0    0 -0.13570087685E+02 -0.24608832707E+02 -0.29770408224E+02  0.40939212655E+02  0.00000000000E+00 0. -1.
</event>
<event>
 7    1  0.4592673E-010  0.4778727E+02  0.7816164E-02  0.1312668E+00
        -11   -1    0    0    0    0  0.00000000000E+00  0.00000000000E+00  0.45593999997E+02  0.45594000000E+02  0.51100000000E-03 0.  1.
         11   -1    0    0    0    0 -0.00000000000E+00 -0.00000000000E+00 -0.45593999997E+02  0.45594000000E+02  0.51100000000E-03 0. -1.
    9900012    2    1    2    0    0 -0.28735924047E+02 -0.73654560719E+01 -0.31679966697E+02  0.47787267703E+02  0.19999984764E+02 0.  0.
        -12    1    1    2    0    0  0.28735924047E+02  0.73654560719E+01  0.31679966697E+02  0.43400732297E+02  0.00000000000E+00 0.  1.
         11    1    3    3    0    0 -0.87369555408E+01 -0.83893081463E+01 -0.10846077947E+02  0.16258914182E+02  0.51100000000E-03 0.  1.
        -11    1    3    3    0    0 -0.71234220968E+01 -0.22120389489E+01 -0.15537067659E+02  0.17234753563E+02  0.51100000000E-03 0. -1.
        -12    1    3    3    0    0 -0.12875546410E+02  0.32358910233E+01 -0.52968210913E+01  0.14293599957E+02  0.00000000000E+00 0.  1.
</event>
<event>
 7    1  0.4592673E-010  0.4778727E+02  0.7816164E-02  0.1312668E+00
        -11   -1    0    0    0    0  0.00000000000E+00  0.00000000000E+00  0.45593999997E+02  0.45594000000E+02  0.51100000000E-03 0.  1.
         11   -1    0    0    0    0 -0.00000000000E+00 -0.00000000000E+00 -0.45593999997E+02  0.45594000000E+02  0.51100000000E-03 0. -1.
    9900012    2    1    2    0    0 -0.58318039350E+01 -0.11252083864E+02 -0.41509083871E+02  0.47787269911E+02  0.19999994832E+02 0.  0.
        -12    1    1    2    0    0  0.58318039350E+01  0.11252083864E+02  0.41509083871E+02  0.43400730089E+02  0.00000000000E+00 0.  1.
         11    1    3    3    0    0 -0.10416591346E+01 -0.71866145478E+01 -0.13320932079E+02  0.15171674730E+02  0.51100000000E-03 0. -1.
        -11    1    3    3    0    0 -0.10277494239E+02 -0.20314943592E+01 -0.19580149282E+02  0.22206667993E+02  0.51100000000E-03 0.  1.
        -12    1    3    3    0    0  0.54873494386E+01 -0.20339749570E+01 -0.86080025106E+01  0.10408927188E+02  0.00000000000E+00 0.  1.
</event>
<event>
 7    1  0.4592673E-010  0.4778727E+02  0.7816164E-02  0.1312668E+00
        -11   -1    0    0    0    0  0.00000000000E+00  0.00000000000E+00  0.45593999997E+02  0.45594000000E+02  0.51100000000E-03 0.  1.
         11   -1    0    0    0    0 -0.00000000000E+00 -0.00000000000E+00 -0.45593999997E+02  0.45594000000E+02  0.51100000000E-03 0. -1.
    9900012    2    1    2    0    0 -0.12309384738E+02  0.15823404959E+02 -0.38493150560E+02  0.47787265707E+02  0.19999975665E+02 0.  0.
        -12    1    1    2    0    0  0.12309384738E+02 -0.15823404959E+02  0.38493150560E+02  0.43400734293E+02  0.00000000000E+00 0.  1.
         11    1    3    3    0    0 -0.96071407023E+01  0.16268804738E+02 -0.26434904685E+02  0.32492696811E+02  0.51100000000E-03 0. -1.
        -11    1    3    3    0    0  0.21462086650E+01  0.23711295587E+01 -0.71888805430E+01  0.78681936135E+01  0.51100000000E-03 0.  1.
        -12    1    3    3    0    0 -0.48484527008E+01 -0.28165293378E+01 -0.48693653321E+01  0.74263752828E+01  0.00000000000E+00 0.  1.
</event>
<event>
 7    1  0.4592673E-010  0.4778729E+02  0.7816164E-02  0.1312668E+00
        -11   -1    0    0    0    0  0.00000000000E+00  0.00000000000E+00  0.45593999997E+02  0.45594000000E+02  0.51100000000E-03 0. -1.
         11   -1    0    0    0    0 -0.00000000000E+00 -0.00000000000E+00 -0.45593999997E+02  0.45594000000E+02  0.51100000000E-03 0.  1.
    9900012    2    1    2    0    0 -0.38415171888E+02  0.12756701448E+02  0.15657669944E+02  0.47787291583E+02  0.20000093642E+02 0.  0.
        -12    1    1    2    0    0  0.38415171888E+02 -0.12756701448E+02 -0.15657669944E+02  0.43400708417E+02  0.00000000000E+00 0.  1.
         11    1    3    3    0    0 -0.12043180222E+02  0.14453372801E+01  0.10855056354E+02  0.16277574709E+02  0.51100000000E-03 0. -1.
        -11    1    3    3    0    0 -0.16018785376E+02  0.23898252590E+01  0.70417399247E+01  0.17660658287E+02  0.51100000000E-03 0.  1.
        -12    1    3    3    0    0 -0.10353206291E+02  0.89215389086E+01 -0.22391263346E+01  0.13849058587E+02  0.00000000000E+00 0.  1.
</event>
<event>
 7    1  0.4592673E-010  0.4778727E+02  0.7816164E-02  0.1312668E+00
        -11   -1    0    0    0    0  0.00000000000E+00  0.00000000000E+00  0.45593999997E+02  0.45594000000E+02  0.51100000000E-03 0.  1.
         11   -1    0    0    0    0 -0.00000000000E+00 -0.00000000000E+00 -0.45593999997E+02  0.45594000000E+02  0.51100000000E-03 0. -1.
    9900012    2    1    2    0    0  0.11800122026E+02  0.37827116212E+02 -0.17705636457E+02  0.47787272321E+02  0.20000005821E+02 0.  0.
        -12    1    1    2    0    0 -0.11800122026E+02 -0.37827116212E+02  0.17705636457E+02  0.43400727679E+02  0.00000000000E+00 0.  1.
         11    1    3    3    0    0  0.13416254632E+02  0.26511562195E+02 -0.19442288894E+02  0.35508610450E+02  0.51100000000E-03 0. -1.
        -11    1    3    3    0    0 -0.34438166019E+00 -0.28755907866E+00  0.24485608188E+00  0.51112005786E+00  0.51100000000E-03 0.  1.
         12    1    3    3    0    0 -0.12717509459E+01  0.11603113095E+02  0.14917963553E+01  0.11767541814E+02  0.00000000000E+00 0. -1.
</event>
<event>
 7    1  0.4592673E-010  0.4778726E+02  0.7816164E-02  0.1312668E+00
        -11   -1    0    0    0    0  0.00000000000E+00  0.00000000000E+00  0.45593999997E+02  0.45594000000E+02  0.51100000000E-03 0.  1.
         11   -1    0    0    0    0 -0.00000000000E+00 -0.00000000000E+00 -0.45593999997E+02  0.45594000000E+02  0.51100000000E-03 0. -1.
    9900012    2    1    2    0    0  0.39060608144E+02  0.18716990374E+02 -0.27508856030E+01  0.47787260273E+02  0.19999950888E+02 0.  0.
        -12    1    1    2    0    0 -0.39060608144E+02 -0.18716990374E+02  0.27508856030E+01  0.43400739727E+02  0.00000000000E+00 0.  1.
         11    1    3    3    0    0  0.78488864780E+01  0.59162042751E+00  0.12097701247E+01  0.79635781964E+01  0.51100000000E-03 0. -1.
        -11    1    3    3    0    0  0.19325922631E+02  0.17787536331E+01 -0.15492221480E+01  0.19469343583E+02  0.51100000000E-03 0.  1.
        -12    1    3    3    0    0  0.11885799035E+02  0.16346616313E+02 -0.24114335796E+01  0.20354338494E+02  0.00000000000E+00 0.  1.
</event>
<event>
 7    1  0.4592673E-010  0.4778727E+02  0.7816164E-02  0.1312668E+00
        -11   -1    0    0    0    0  0.00000000000E+00  0.00000000000E+00  0.45593999997E+02  0.45594000000E+02  0.51100000000E-03 0.  1.
         11   -1    0    0    0    0 -0.00000000000E+00 -0.00000000000E+00 -0.45593999997E+02  0.45594000000E+02  0.51100000000E-03 0. -1.
    9900012    2    1    2    0    0  0.27128547531E+01  0.32840691522E+02 -0.28244512566E+02  0.47787273156E+02  0.20000009626E+02 0.  0.
        -12    1    1    2    0    0 -0.27128547531E+01 -0.32840691522E+02  0.28244512566E+02  0.43400726844E+02  0.00000000000E+00 0.  1.
         11    1    3    3    0    0  0.19900415217E+01  0.63933805046E+01 -0.20206963877E+01  0.69941971439E+01  0.51100000000E-03 0. -1.
        -11    1    3    3    0    0  0.38513897249E+01  0.27110198015E+01  0.70272860653E+00  0.47620015679E+01  0.51100000000E-03 0.  1.
         12    1    3    3    0    0 -0.31285764934E+01  0.23736291216E+02 -0.26926544784E+02  0.36031074444E+02  0.00000000000E+00 0. -1.
</event>
<event>
 7    1  0.4592673E-010  0.4778727E+02  0.7816164E-02  0.1312668E+00
        -11   -1    0    0    0    0  0.00000000000E+00  0.00000000000E+00  0.45593999997E+02  0.45594000000E+02  0.51100000000E-03 0.  1.
         11   -1    0    0    0    0 -0.00000000000E+00 -0.00000000000E+00 -0.45593999997E+02  0.45594000000E+02  0.51100000000E-03 0. -1.
    9900012    2    1    2    0    0 -0.30381261069E+02 -0.95750655473E+01 -0.29477456404E+02  0.47787270278E+02  0.19999996504E+02 0.  0.
        -12    1    1    2    0    0  0.30381261069E+02  0.95750655473E+01  0.29477456404E+02  0.43400729722E+02  0.00000000000E+00 0.  1.
         11    1    3    3    0    0 -0.27923429548E+02 -0.61129471925E+01 -0.20141665687E+02  0.34968167496E+02  0.51100000000E-03 0. -1.
        -11    1    3    3    0    0 -0.20453716247E+01  0.18918891070E+01 -0.11173882588E+01  0.30018904474E+01  0.51100000000E-03 0.  1.
        -12    1    3    3    0    0 -0.41245989668E+00 -0.53540074618E+01 -0.82184024577E+01  0.98172123347E+01  0.00000000000E+00 0.  1.
</event>
<event>
 7    1  0.4592673E-010  0.4778727E+02  0.7816164E-02  0.1312668E+00
        -11   -1    0    0    0    0  0.00000000000E+00  0.00000000000E+00  0.45593999997E+02  0.45594000000E+02  0.51100000000E-03 0.  1.
         11   -1    0    0    0    0 -0.00000000000E+00 -0.00000000000E+00 -0.45593999997E+02  0.45594000000E+02  0.51100000000E-03 0. -1.
    9900012    2    1    2    0    0  0.23818862152E+02  0.21028044371E+02 -0.29565289724E+02  0.47787271887E+02  0.20000003843E+02 0.  0.
        -12    1    1    2    0    0 -0.23818862152E+02 -0.21028044371E+02  0.29565289724E+02  0.43400728113E+02  0.00000000000E+00 0.  1.
         11    1    3    3    0    0  0.77180580500E+01  0.30906587307E+01 -0.10453633711E+02  0.13356610703E+02  0.51100000000E-03 0. -1.
        -11    1    3    3    0    0  0.13494865572E+02  0.99152440061E+01 -0.41456070830E+01  0.17251362811E+02  0.51100000000E-03 0.  1.
         12    1    3    3    0    0  0.26059385299E+01  0.80221416342E+01 -0.14966048929E+02  0.17179298373E+02  0.00000000000E+00 0. -1.
</event>
<event>
 7    1  0.4592673E-010  0.4778727E+02  0.7816164E-02  0.1312668E+00
        -11   -1    0    0    0    0  0.00000000000E+00  0.00000000000E+00  0.45593999997E+02  0.45594000000E+02  0.51100000000E-03 0.  1.
         11   -1    0    0    0    0 -0.00000000000E+00 -0.00000000000E+00 -0.45593999997E+02  0.45594000000E+02  0.51100000000E-03 0. -1.
    9900012    2    1    2    0    0  0.18693893571E+02 -0.45954606347E+01 -0.38897857461E+02  0.47787271546E+02  0.20000002288E+02 0.  0.
        -12    1    1    2    0    0 -0.18693893571E+02  0.45954606347E+01  0.38897857461E+02  0.43400728454E+02  0.00000000000E+00 0.  1.
         11    1    3    3    0    0  0.42927179300E+01 -0.25197703597E+01 -0.65383963607E+01  0.82174994447E+01  0.51100000000E-03 0. -1.
        -11    1    3    3    0    0  0.34312848935E+01 -0.35735307108E+01 -0.26661563041E+02  0.27117942064E+02  0.51100000000E-03 0.  1.
        -12    1    3    3    0    0  0.10969890748E+02  0.14978404358E+01 -0.56978980592E+01  0.12451830038E+02  0.00000000000E+00 0.  1.
</event>
<event>
 7    1  0.4592673E-010  0.4778727E+02  0.7816164E-02  0.1312668E+00
        -11   -1    0    0    0    0  0.00000000000E+00  0.00000000000E+00  0.45593999997E+02  0.45594000000E+02  0.51100000000E-03 0. -1.
         11   -1    0    0    0    0 -0.00000000000E+00 -0.00000000000E+00 -0.45593999997E+02  0.45594000000E+02  0.51100000000E-03 0.  1.
    9900012    2    1    2    0    0  0.29938634313E+02 -0.23778295980E+02  0.20540053036E+02  0.47787274626E+02  0.20000016330E+02 0.  0.
        -12    1    1    2    0    0 -0.29938634313E+02  0.23778295980E+02 -0.20540053036E+02  0.43400725374E+02  0.00000000000E+00 0.  1.
         11    1    3    3    0    0  0.16914356558E+02 -0.11327416709E+02  0.67326930613E+01  0.21441431463E+02  0.51100000000E-03 0. -1.
        -11    1    3    3    0    0  0.86012470468E+01  0.44130120955E+00  0.36819946716E+01  0.93666046431E+01  0.51100000000E-03 0.  1.
         12    1    3    3    0    0  0.44230307087E+01 -0.12892180481E+02  0.10125365303E+02  0.16979238520E+02  0.00000000000E+00 0. -1.
</event>
<event>
 7    1  0.4592673E-010  0.4778727E+02  0.7816164E-02  0.1312668E+00
        -11   -1    0    0    0    0  0.00000000000E+00  0.00000000000E+00  0.45593999997E+02  0.45594000000E+02  0.51100000000E-03 0.  1.
         11   -1    0    0    0    0 -0.00000000000E+00 -0.00000000000E+00 -0.45593999997E+02  0.45594000000E+02  0.51100000000E-03 0. -1.
    9900012    2    1    2    0    0  0.37997436292E+02 -0.20965944084E+02  0.49727373327E+00  0.47787271236E+02  0.20000000872E+02 0.  0.
        -12    1    1    2    0    0 -0.37997436292E+02  0.20965944084E+02 -0.49727373327E+00  0.43400728764E+02  0.00000000000E+00 0.  1.
         11    1    3    3    0    0  0.50208000202E+01 -0.34074899946E+01 -0.60719155746E+01  0.85841470113E+01  0.51100000000E-03 0. -1.
        -11    1    3    3    0    0  0.58694399350E+01  0.68752262699E+00  0.18226531557E+01  0.61842604489E+01  0.51100000000E-03 0.  1.
         12    1    3    3    0    0  0.27107196337E+02 -0.18245976716E+02  0.47465361522E+01  0.33018863776E+02  0.00000000000E+00 0. -1.
</event>
<event>
 7    1  0.4592673E-010  0.4778727E+02  0.7816164E-02  0.1312668E+00
        -11   -1    0    0    0    0  0.00000000000E+00  0.00000000000E+00  0.45593999997E+02  0.45594000000E+02  0.51100000000E-03 0.  1.
         11   -1    0    0    0    0 -0.00000000000E+00 -0.00000000000E+00 -0.45593999997E+02  0.45594000000E+02  0.51100000000E-03 0. -1.
    9900012    2    1    2    0    0 -0.22604336492E+01 -0.10070693889E+02 -0.42155602603E+02  0.47787271129E+02  0.20000000386E+02 0.  0.
        -12    1    1    2    0    0  0.22604336492E+01  0.10070693889E+02  0.42155602603E+02  0.43400728871E+02  0.00000000000E+00 0.  1.
         11    1    3    3    0    0 -0.18170994104E+01  0.20956860983E+01 -0.11944551981E+02  0.12262384465E+02  0.51100000000E-03 0. -1.
        -11    1    3    3    0    0 -0.15310887917E+01  0.27455579836E+01 -0.93112257830E+01  0.98275758645E+01  0.51100000000E-03 0.  1.
         12    1    3    3    0    0  0.10877545529E+01 -0.14911937971E+02 -0.20899824839E+02  0.25697310799E+02  0.00000000000E+00 0. -1.
</event>
<event>
 7    1  0.4592673E-010  0.4778727E+02  0.7816164E-02  0.1312668E+00
        -11   -1    0    0    0    0  0.00000000000E+00  0.00000000000E+00  0.45593999997E+02  0.45594000000E+02  0.51100000000E-03 0.  1.
         11   -1    0    0    0    0 -0.00000000000E+00 -0.00000000000E+00 -0.45593999997E+02  0.45594000000E+02  0.51100000000E-03 0. -1.
    9900012    2    1    2    0    0  0.20322129074E+02  0.43490570648E+01 -0.38101444139E+02  0.47787271055E+02  0.20000000050E+02 0.  0.
        -12    1    1    2    0    0 -0.20322129074E+02 -0.43490570648E+01  0.38101444139E+02  0.43400728945E+02  0.00000000000E+00 0.  1.
         11    1    3    3    0    0  0.43012102412E+01 -0.14061173761E+01 -0.29604834518E+01  0.54075907892E+01  0.51100000000E-03 0. -1.
        -11    1    3    3    0    0  0.91788572549E+01 -0.53583328381E+01 -0.15181356420E+02  0.18532046145E+02  0.51100000000E-03 0.  1.
         12    1    3    3    0    0  0.68420615775E+01  0.11113507279E+02 -0.19959604267E+02  0.23847634121E+02  0.00000000000E+00 0. -1.
</event>
<event>
 7    1  0.4592673E-010  0.4778728E+02  0.7816164E-02  0.1312668E+00
        -11   -1    0    0    0    0  0.00000000000E+00  0.00000000000E+00  0.45593999997E+02  0.45594000000E+02  0.51100000000E-03 0. -1.
         11   -1    0    0    0    0 -0.00000000000E+00 -0.00000000000E+00 -0.45593999997E+02  0.45594000000E+02  0.51100000000E-03 0.  1.
    9900012    2    1    2    0    0 -0.41157654723E+02 -0.21338835580E+01  0.13605767164E+02  0.47787275335E+02  0.20000019562E+02 0.  0.
        -12    1    1    2    0    0  0.41157654723E+02  0.21338835580E+01 -0.13605767164E+02  0.43400724665E+02  0.00000000000E+00 0.  1.
         11    1    3    3    0    0 -0.23300224307E+01  0.22550414973E+01  0.16972073119E+01  0.36598810913E+01  0.51100000000E-03 0.  1.
        -11    1    3    3    0    0 -0.23491013778E+02 -0.74269228422E+01  0.14026260258E+02  0.28350006849E+02  0.51100000000E-03 0. -1.
         12    1    3    3    0    0 -0.15336618514E+02  0.30379977868E+01 -0.21177004059E+01  0.15777387395E+02  0.00000000000E+00 0. -1.
</event>
<event>
 7    1  0.4592673E-010  0.4778727E+02  0.7816164E-02  0.1312668E+00
        -11   -1    0    0    0    0  0.00000000000E+00  0.00000000000E+00  0.45593999997E+02  0.45594000000E+02  0.51100000000E-03 0.  1.
         11   -1    0    0    0    0 -0.00000000000E+00 -0.00000000000E+00 -0.45593999997E+02  0.45594000000E+02  0.51100000000E-03 0. -1.
    9900012    2    1    2    0    0  0.13510831200E+02  0.37756241336E+02  0.16599607917E+02  0.47787270714E+02  0.19999998494E+02 0.  0.
        -12    1    1    2    0    0 -0.13510831200E+02 -0.37756241336E+02 -0.16599607917E+02  0.43400729286E+02  0.00000000000E+00 0.  1.
         11    1    3    3    0    0  0.13311723841E+01  0.15851241436E+02  0.56936347106E+00  0.15917224947E+02  0.51100000000E-03 0. -1.
        -11    1    3    3    0    0 -0.12425561816E+00  0.97469513200E+01  0.29520513413E+01  0.10184945109E+02  0.51100000000E-03 0.  1.
        -12    1    3    3    0    0  0.12303914434E+02  0.12158048580E+02  0.13078193104E+02  0.21685100658E+02  0.00000000000E+00 0.  1.
</event>
<event>
 7    1  0.4592673E-010  0.4778727E+02  0.7816164E-02  0.1312668E+00
        -11   -1    0    0    0    0  0.00000000000E+00  0.00000000000E+00  0.45593999997E+02  0.45594000000E+02  0.51100000000E-03 0.  1.
         11   -1    0    0    0    0 -0.00000000000E+00 -0.00000000000E+00 -0.45593999997E+02  0.45594000000E+02  0.51100000000E-03 0. -1.
    9900012    2    1    2    0    0 -0.41345246183E+02 -0.29898013354E-01 -0.13198234227E+02  0.47787266567E+02  0.19999979586E+02 0.  0.
        -12    1    1    2    0    0  0.41345246183E+02  0.29898013354E-01  0.13198234227E+02  0.43400733433E+02  0.00000000000E+00 0.  1.
         11    1    3    3    0    0 -0.23789208783E+02  0.36607890967E+01 -0.86057318610E+01  0.25561425086E+02  0.51100000000E-03 0. -1.
        -11    1    3    3    0    0 -0.77732337909E+01 -0.21925755684E+01 -0.83711819105E+01  0.11632163944E+02  0.51100000000E-03 0.  1.
         12    1    3    3    0    0 -0.97828036092E+01 -0.14981115416E+01  0.37786795442E+01  0.10593677536E+02  0.00000000000E+00 0. -1.
</event>
<event>
 7    1  0.4592673E-010  0.4778727E+02  0.7816164E-02  0.1312668E+00
        -11   -1    0    0    0    0  0.00000000000E+00  0.00000000000E+00  0.45593999997E+02  0.45594000000E+02  0.51100000000E-03 0. -1.
         11   -1    0    0    0    0 -0.00000000000E+00 -0.00000000000E+00 -0.45593999997E+02  0.45594000000E+02  0.51100000000E-03 0.  1.
    9900012    2    1    2    0    0  0.16495830587E+01  0.20194306607E+02  0.38380882304E+02  0.47787271089E+02  0.20000000202E+02 0.  0.
        -12    1    1    2    0    0 -0.16495830587E+01 -0.20194306607E+02 -0.38380882304E+02  0.43400728911E+02  0.00000000000E+00 0.  1.
         11    1    3    3    0    0 -0.19614354557E+01  0.13853282729E+02  0.23072579551E+02  0.26983413402E+02  0.51100000000E-03 0. -1.
        -11    1    3    3    0    0 -0.24573346628E+01  0.14078449382E+01  0.11970229871E+02  0.12300687967E+02  0.51100000000E-03 0.  1.
         12    1    3    3    0    0  0.60683531773E+01  0.49331789394E+01  0.33380728816E+01  0.85031697204E+01  0.00000000000E+00 0. -1.
</event>
<event>
 7    1  0.4592673E-010  0.4778727E+02  0.7816164E-02  0.1312668E+00
        -11   -1    0    0    0    0  0.00000000000E+00  0.00000000000E+00  0.45593999997E+02  0.45594000000E+02  0.51100000000E-03 0.  1.
         11   -1    0    0    0    0 -0.00000000000E+00 -0.00000000000E+00 -0.45593999997E+02  0.45594000000E+02  0.51100000000E-03 0. -1.
    9900012    2    1    2    0    0  0.13179972569E+01  0.35732552782E+02 -0.24598184443E+02  0.47787272783E+02  0.20000007927E+02 0.  0.
        -12    1    1    2    0    0 -0.13179972569E+01 -0.35732552782E+02  0.24598184443E+02  0.43400727217E+02  0.00000000000E+00 0.  1.
         11    1    3    3    0    0  0.53607563522E+01  0.96244978903E+01 -0.11154910965E+02  0.15678032632E+02  0.51100000000E-03 0. -1.
        -11    1    3    3    0    0  0.31212400258E+01  0.12744088964E+02 -0.23694449515E+01  0.13332974629E+02  0.51100000000E-03 0.  1.
        -12    1    3    3    0    0 -0.71639991211E+01  0.13363965928E+02 -0.11073828527E+02  0.18776265522E+02  0.00000000000E+00 0.  1.
</event>
<event>
 7    1  0.4592673E-010  0.4778727E+02  0.7816164E-02  0.1312668E+00
        -11   -1    0    0    0    0  0.00000000000E+00  0.00000000000E+00  0.45593999997E+02  0.45594000000E+02  0.51100000000E-03 0.  1.
         11   -1    0    0    0    0 -0.00000000000E+00 -0.00000000000E+00 -0.45593999997E+02  0.45594000000E+02  0.51100000000E-03 0. -1.
    9900012    2    1    2    0    0 -0.15308160217E+02  0.13023951218E+02 -0.38466348522E+02  0.47787273702E+02  0.20000012118E+02 0.  0.
        -12    1    1    2    0    0  0.15308160217E+02 -0.13023951218E+02  0.38466348522E+02  0.43400726298E+02  0.00000000000E+00 0.  1.
         11    1    3    3    0    0 -0.13640544981E+01  0.96339370294E+01 -0.16883399128E+02  0.19486471044E+02  0.51100000000E-03 0. -1.
        -11    1    3    3    0    0  0.11442939362E+01  0.27072325799E+01 -0.55096614067E+01  0.62445885318E+01  0.51100000000E-03 0.  1.
        -12    1    3    3    0    0 -0.15088399655E+02  0.68278160868E+00 -0.16073287988E+02  0.22056214127E+02  0.00000000000E+00 0.  1.
</event>
<event>
 7    1  0.4592673E-010  0.4778728E+02  0.7816164E-02  0.1312668E+00
        -11   -1    0    0    0    0  0.00000000000E+00  0.00000000000E+00  0.45593999997E+02  0.45594000000E+02  0.51100000000E-03 0.  1.
         11   -1    0    0    0    0 -0.00000000000E+00 -0.00000000000E+00 -0.45593999997E+02  0.45594000000E+02  0.51100000000E-03 0. -1.
    9900012    2    1    2    0    0 -0.24673486993E+02  0.16731364223E+02 -0.31542088310E+02  0.47787275995E+02  0.20000022573E+02 0.  0.
        -12    1    1    2    0    0  0.24673486993E+02 -0.16731364223E+02  0.31542088310E+02  0.43400724005E+02  0.00000000000E+00 0.  1.
         11    1    3    3    0    0 -0.89900376904E+01  0.13168772807E+01 -0.76760792604E+01  0.11894416191E+02  0.51100000000E-03 0. -1.
        -11    1    3    3    0    0 -0.32223922970E+01  0.30780331979E+00  0.17256429438E+01  0.36682964480E+01  0.51100000000E-03 0.  1.
         12    1    3    3    0    0 -0.12461057006E+02  0.15106683622E+02 -0.25591651994E+02  0.32224563357E+02  0.00000000000E+00 0. -1.
</event>
<event>
 7    1  0.4592673E-010  0.4778727E+02  0.7816164E-02  0.1312668E+00
        -11   -1    0    0    0    0  0.00000000000E+00  0.00000000000E+00  0.45593999997E+02  0.45594000000E+02  0.51100000000E-03 0.  1.
         11   -1    0    0    0    0 -0.00000000000E+00 -0.00000000000E+00 -0.45593999997E+02  0.45594000000E+02  0.51100000000E-03 0. -1.
    9900012    2    1    2    0    0  0.35206693844E+02 -0.22539245724E+02  0.11665944975E+02  0.47787272340E+02  0.20000005909E+02 0.  0.
        -12    1    1    2    0    0 -0.35206693844E+02  0.22539245724E+02 -0.11665944975E+02  0.43400727660E+02  0.00000000000E+00 0.  1.
         11    1    3    3    0    0  0.90885843724E+00 -0.33496892495E+01  0.71862340286E+01  0.79805013315E+01  0.51100000000E-03 0. -1.
        -11    1    3    3    0    0  0.90426326469E+01 -0.32324748606E+01  0.21594929892E+01  0.98428405018E+01  0.51100000000E-03 0.  1.
         12    1    3    3    0    0  0.25255202760E+02 -0.15957081614E+02  0.23202179573E+01  0.29963930507E+02  0.00000000000E+00 0. -1.
</event>
<event>
 7    1  0.4592673E-010  0.4778727E+02  0.7816164E-02  0.1312668E+00
        -11   -1    0    0    0    0  0.00000000000E+00  0.00000000000E+00  0.45593999997E+02  0.45594000000E+02  0.51100000000E-03 0. -1.
         11   -1    0    0    0    0 -0.00000000000E+00 -0.00000000000E+00 -0.45593999997E+02  0.45594000000E+02  0.51100000000E-03 0.  1.
    9900012    2    1    2    0    0  0.33563430183E+02 -0.26739697539E+02  0.64890634978E+01  0.47787271721E+02  0.20000003083E+02 0.  0.
        -12    1    1    2    0    0 -0.33563430183E+02  0.26739697539E+02 -0.64890634978E+01  0.43400728279E+02  0.00000000000E+00 0.  1.
         11    1    3    3    0    0  0.88589688199E+01 -0.73396594692E+01 -0.38156579508E+01  0.12120692040E+02  0.51100000000E-03 0. -1.
        -11    1    3    3    0    0 -0.16119215184E+01 -0.79420086994E+00  0.12516802957E+01  0.21899200504E+01  0.51100000000E-03 0.  1.
         12    1    3    3    0    0  0.26316382881E+02 -0.18605837200E+02  0.90530411529E+01  0.33476659630E+02  0.00000000000E+00 0. -1.
</event>
<event>
 7    1  0.4592673E-010  0.4778727E+02  0.7816164E-02  0.1312668E+00
        -11   -1    0    0    0    0  0.00000000000E+00  0.00000000000E+00  0.45593999997E+02  0.45594000000E+02  0.51100000000E-03 0. -1.
         11   -1    0    0    0    0 -0.00000000000E+00 -0.00000000000E+00 -0.45593999997E+02  0.45594000000E+02  0.51100000000E-03 0.  1.
    9900012    2    1    2    0    0  0.39295898549E+02  0.17357291056E+02  0.61790231614E+01  0.47787268177E+02  0.19999986926E+02 0.  0.
        -12    1    1    2    0    0 -0.39295898549E+02 -0.17357291056E+02 -0.61790231614E+01  0.43400731823E+02  0.00000000000E+00 0.  1.
         11    1    3    3    0    0 -0.98834881940E+00  0.15299208000E+01 -0.15588877295E+00  0.18280570598E+01  0.51100000000E-03 0. -1.
        -11    1    3    3    0    0  0.59292905085E+01  0.78066520486E+01 -0.12254746910E+01  0.98793770361E+01  0.51100000000E-03 0.  1.
         12    1    3    3    0    0  0.34354956859E+02  0.80207182077E+01  0.75603866254E+01  0.36079834081E+02  0.00000000000E+00 0. -1.
</event>
<event>
 7    1  0.4592673E-010  0.4778727E+02  0.7816164E-02  0.1312668E+00
        -11   -1    0    0    0    0  0.00000000000E+00  0.00000000000E+00  0.45593999997E+02  0.45594000000E+02  0.51100000000E-03 0.  1.
         11   -1    0    0    0    0 -0.00000000000E+00 -0.00000000000E+00 -0.45593999997E+02  0.45594000000E+02  0.51100000000E-03 0. -1.
    9900012    2    1    2    0    0 -0.25328984080E+02 -0.31592483720E+02 -0.15619897051E+02  0.47787266757E+02  0.19999980451E+02 0.  0.
        -12    1    1    2    0    0  0.25328984080E+02  0.31592483720E+02  0.15619897051E+02  0.43400733243E+02  0.00000000000E+00 0.  1.
         11    1    3    3    0    0 -0.21931657055E+02 -0.24436959748E+02 -0.16519790362E+02  0.36756850474E+02  0.51100000000E-03 0. -1.
        -11    1    3    3    0    0 -0.15285422553E+01 -0.59050922246E+01 -0.27914840772E+01  0.67081248663E+01  0.51100000000E-03 0.  1.
        -12    1    3    3    0    0 -0.18687847695E+01 -0.12504317476E+01  0.36913773877E+01  0.43222914164E+01  0.00000000000E+00 0.  1.
</event>
<event>
 7    1  0.4592673E-010  0.4778726E+02  0.7816164E-02  0.1312668E+00
        -11   -1    0    0    0    0  0.00000000000E+00  0.00000000000E+00  0.45593999997E+02  0.45594000000E+02  0.51100000000E-03 0. -1.
         11   -1    0    0    0    0 -0.00000000000E+00 -0.00000000000E+00 -0.45593999997E+02  0.45594000000E+02  0.51100000000E-03 0.  1.
    9900012    2    1    2    0    0  0.68713645083E+01 -0.42451982132E+02  0.58512830313E+01  0.47787263252E+02  0.19999964473E+02 0.  0.
        -12    1    1    2    0    0 -0.68713645083E+01  0.42451982132E+02 -0.58512830313E+01  0.43400736748E+02  0.00000000000E+00 0.  1.
         11    1    3    3    0    0 -0.17552033998E+01 -0.34909235838E+01 -0.45500684688E+01  0.59975336409E+01  0.51100000000E-03 0.  1.
        -11    1    3    3    0    0 -0.15778682063E-01 -0.13634551222E+02  0.22785316488E+01  0.13823637102E+02  0.51100000000E-03 0. -1.
        -12    1    3    3    0    0  0.86423465902E+01 -0.25326507326E+02  0.81228198512E+01  0.27966092510E+02  0.00000000000E+00 0.  1.
</event>
<event>
 7    1  0.4592673E-010  0.4778727E+02  0.7816164E-02  0.1312668E+00
        -11   -1    0    0    0    0  0.00000000000E+00  0.00000000000E+00  0.45593999997E+02  0.45594000000E+02  0.51100000000E-03 0.  1.
         11   -1    0    0    0    0 -0.00000000000E+00 -0.00000000000E+00 -0.45593999997E+02  0.45594000000E+02  0.51100000000E-03 0. -1.
    9900012    2    1    2    0    0  0.23367290432E+02  0.22213587750E+02 -0.29054248440E+02  0.47787273102E+02  0.20000009382E+02 0.  0.
        -12    1    1    2    0    0 -0.23367290432E+02 -0.22213587750E+02  0.29054248440E+02  0.43400726898E+02  0.00000000000E+00 0.  1.
         11    1    3    3    0    0  0.62190978726E+01  0.10177677889E+02 -0.12511768604E+02  0.17286024975E+02  0.51100000000E-03 0. -1.
        -11    1    3    3    0    0  0.10430171593E+02 -0.63053804492E+00 -0.32323096933E+01  0.10937727548E+02  0.51100000000E-03 0.  1.
        -12    1    3    3    0    0  0.67180209657E+01  0.12666447906E+02 -0.13310170143E+02  0.19563520580E+02  0.00000000000E+00 0.  1.
</event>
<event>
 7    1  0.4592673E-010  0.4778728E+02  0.7816164E-02  0.1312668E+00
        -11   -1    0    0    0    0  0.00000000000E+00  0.00000000000E+00  0.45593999997E+02  0.45594000000E+02  0.51100000000E-03 0.  1.
         11   -1    0    0    0    0 -0.00000000000E+00 -0.00000000000E+00 -0.45593999997E+02  0.45594000000E+02  0.51100000000E-03 0. -1.
    9900012    2    1    2    0    0 -0.25184754150E+02  0.20263759215E+02 -0.28960851671E+02  0.47787277556E+02  0.20000029690E+02 0.  0.
        -12    1    1    2    0    0  0.25184754150E+02 -0.20263759215E+02  0.28960851671E+02  0.43400722444E+02  0.00000000000E+00 0.  1.
         11    1    3    3    0    0 -0.70174907491E+00  0.70856923907E+01 -0.22787828995E+01  0.74761179889E+01  0.51100000000E-03 0.  1.
        -11    1    3    3    0    0 -0.85088282895E+01  0.66057314001E+01 -0.33499475685E+01  0.11280868546E+02  0.51100000000E-03 0. -1.
         12    1    3    3    0    0 -0.15974176786E+02  0.65723354242E+01 -0.23332121203E+02  0.29030291021E+02  0.00000000000E+00 0. -1.
</event>
<event>
 7    1  0.4592673E-010  0.4778727E+02  0.7816164E-02  0.1312668E+00
        -11   -1    0    0    0    0  0.00000000000E+00  0.00000000000E+00  0.45593999997E+02  0.45594000000E+02  0.51100000000E-03 0. -1.
         11   -1    0    0    0    0 -0.00000000000E+00 -0.00000000000E+00 -0.45593999997E+02  0.45594000000E+02  0.51100000000E-03 0.  1.
    9900012    2    1    2    0    0 -0.30727437330E+01  0.37242405536E+02  0.22072256662E+02  0.47787273759E+02  0.20000012375E+02 0.  0.
        -12    1    1    2    0    0  0.30727437330E+01 -0.37242405536E+02 -0.22072256662E+02  0.43400726241E+02  0.00000000000E+00 0.  1.
         11    1    3    3    0    0 -0.55141850127E+01  0.19316240571E+01  0.33609953516E+01  0.67404523489E+01  0.51100000000E-03 0. -1.
        -11    1    3    3    0    0 -0.13550888426E+01  0.44324838720E+01  0.56436267406E+01  0.73029926808E+01  0.51100000000E-03 0.  1.
        -12    1    3    3    0    0  0.37965301223E+01  0.30878297606E+02  0.13067634570E+02  0.33743828729E+02  0.00000000000E+00 0.  1.
</event>
<event>
 7    1  0.4592673E-010  0.4778724E+02  0.7816164E-02  0.1312668E+00
        -11   -1    0    0    0    0  0.00000000000E+00  0.00000000000E+00  0.45593999997E+02  0.45594000000E+02  0.51100000000E-03 0.  1.
         11   -1    0    0    0    0 -0.00000000000E+00 -0.00000000000E+00 -0.45593999997E+02  0.45594000000E+02  0.51100000000E-03 0. -1.
    9900012    2    1    2    0    0 -0.59232835733E+01  0.12126181419E+02 -0.41249195410E+02  0.47787243254E+02  0.19999873293E+02 0.  0.
        -12    1    1    2    0    0  0.59232835733E+01 -0.12126181419E+02  0.41249195410E+02  0.43400756746E+02  0.00000000000E+00 0.  1.
         11    1    3    3    0    0 -0.62919925954E+00  0.84795691866E+01 -0.11657605695E+02  0.14429094085E+02  0.51100000000E-03 0. -1.
        -11    1    3    3    0    0  0.29495233579E+01 -0.30158960266E+01 -0.13023890258E+02  0.13690034134E+02  0.51100000000E-03 0.  1.
        -12    1    3    3    0    0 -0.82436076716E+01  0.66625082589E+01 -0.16567699458E+02  0.19668115036E+02  0.00000000000E+00 0.  1.
</event>
<event>
 7    1  0.4592673E-010  0.4778727E+02  0.7816164E-02  0.1312668E+00
        -11   -1    0    0    0    0  0.00000000000E+00  0.00000000000E+00  0.45593999997E+02  0.45594000000E+02  0.51100000000E-03 0. -1.
         11   -1    0    0    0    0 -0.00000000000E+00 -0.00000000000E+00 -0.45593999997E+02  0.45594000000E+02  0.51100000000E-03 0.  1.
    9900012    2    1    2    0    0 -0.39718626215E+02  0.17462746946E+02 -0.10521324332E+01  0.47787265191E+02  0.19999973310E+02 0.  0.
        -12    1    1    2    0    0  0.39718626215E+02 -0.17462746946E+02  0.10521324332E+01  0.43400734809E+02  0.00000000000E+00 0.  1.
         11    1    3    3    0    0 -0.42321554914E+01 -0.35328540288E+01 -0.24750897467E+01  0.60430346025E+01  0.51100000000E-03 0. -1.
        -11    1    3    3    0    0 -0.20261345938E+00  0.74991457638E+00 -0.64835820371E+00  0.10118264215E+01  0.51100000000E-03 0.  1.
         12    1    3    3    0    0 -0.35283857265E+02  0.20245686398E+02  0.20713155172E+01  0.40732404167E+02  0.00000000000E+00 0. -1.
</event>
<event>
 7    1  0.4592673E-010  0.4778727E+02  0.7816164E-02  0.1312668E+00
        -11   -1    0    0    0    0  0.00000000000E+00  0.00000000000E+00  0.45593999997E+02  0.45594000000E+02  0.51100000000E-03 0.  1.
         11   -1    0    0    0    0 -0.00000000000E+00 -0.00000000000E+00 -0.45593999997E+02  0.45594000000E+02  0.51100000000E-03 0. -1.
    9900012    2    1    2    0    0  0.27284537643E+00  0.36929950261E+01 -0.43242469072E+02  0.47787265118E+02  0.19999972977E+02 0.  0.
        -12    1    1    2    0    0 -0.27284537643E+00 -0.36929950261E+01  0.43242469072E+02  0.43400734882E+02  0.00000000000E+00 0.  1.
         11    1    3    3    0    0 -0.44195763778E+01  0.37602115194E+01 -0.18359546723E+02  0.19254734539E+02  0.51100000000E-03 0. -1.
        -11    1    3    3    0    0 -0.14789282300E+01 -0.48547029046E+01 -0.48046617734E+01  0.69885723878E+01  0.51100000000E-03 0.  1.
        -12    1    3    3    0    0  0.61713499843E+01  0.47874864114E+01 -0.20078260576E+02  0.21543958191E+02  0.00000000000E+00 0.  1.
</event>
<event>
 7    1  0.4592673E-010  0.4778730E+02  0.7816164E-02  0.1312668E+00
        -11   -1    0    0    0    0  0.00000000000E+00  0.00000000000E+00  0.45593999997E+02  0.45594000000E+02  0.51100000000E-03 0. -1.
         11   -1    0    0    0    0 -0.00000000000E+00 -0.00000000000E+00 -0.45593999997E+02  0.45594000000E+02  0.51100000000E-03 0.  1.
    9900012    2    1    2    0    0  0.79778839848E+01 -0.24004100174E+02  0.35267230228E+02  0.47787297402E+02  0.20000120173E+02 0.  0.
        -12    1    1    2    0    0 -0.79778839848E+01  0.24004100174E+02 -0.35267230228E+02  0.43400702598E+02  0.00000000000E+00 0.  1.
         11    1    3    3    0    0 -0.43706601673E+01 -0.41179485874E+01  0.14914071428E+02  0.16077614801E+02  0.51100000000E-03 0. -1.
        -11    1    3    3    0    0  0.34270778660E+01 -0.21123346175E+01  0.14701671986E+01  0.42858152187E+01  0.51100000000E-03 0.  1.
         12    1    3    3    0    0  0.89214662861E+01 -0.17773816969E+02  0.18882991602E+02  0.27423867382E+02  0.00000000000E+00 0. -1.
</event>
<event>
 7    1  0.4592673E-010  0.4778727E+02  0.7816164E-02  0.1312668E+00
        -11   -1    0    0    0    0  0.00000000000E+00  0.00000000000E+00  0.45593999997E+02  0.45594000000E+02  0.51100000000E-03 0. -1.
         11   -1    0    0    0    0 -0.00000000000E+00 -0.00000000000E+00 -0.45593999997E+02  0.45594000000E+02  0.51100000000E-03 0.  1.
    9900012    2    1    2    0    0  0.12216371693E+02 -0.37489960356E+02 -0.18135238391E+02  0.47787265716E+02  0.19999975707E+02 0.  0.
        -12    1    1    2    0    0 -0.12216371693E+02  0.37489960356E+02  0.18135238391E+02  0.43400734284E+02  0.00000000000E+00 0.  1.
         11    1    3    3    0    0  0.19009016683E+01  0.84298953843E+00 -0.19606193363E+01  0.28579865216E+01  0.51100000000E-03 0. -1.
        -11    1    3    3    0    0  0.92754223148E-01  0.87956632152E+00 -0.16677062765E+01  0.18877194563E+01  0.51100000000E-03 0.  1.
         12    1    3    3    0    0  0.10222715801E+02 -0.39212516216E+02 -0.14506912779E+02  0.43041559738E+02  0.00000000000E+00 0. -1.
</event>
<event>
 7    1  0.4592673E-010  0.4778727E+02  0.7816164E-02  0.1312668E+00
        -11   -1    0    0    0    0  0.00000000000E+00  0.00000000000E+00  0.45593999997E+02  0.45594000000E+02  0.51100000000E-03 0. -1.
         11   -1    0    0    0    0 -0.00000000000E+00 -0.00000000000E+00 -0.45593999997E+02  0.45594000000E+02  0.51100000000E-03 0.  1.
    9900012    2    1    2    0    0  0.29833582313E+02  0.27875558901E+02  0.14715099182E+02  0.47787267730E+02  0.19999984887E+02 0.  0.
        -12    1    1    2    0    0 -0.29833582313E+02 -0.27875558901E+02 -0.14715099182E+02  0.43400732270E+02  0.00000000000E+00 0.  1.
         11    1    3    3    0    0  0.23539286382E+02  0.22185170888E+02  0.96525078261E+01  0.33755750892E+02  0.51100000000E-03 0. -1.
        -11    1    3    3    0    0  0.75954070138E+01  0.49234187184E+01  0.32321625812E+00  0.90573025009E+01  0.51100000000E-03 0.  1.
        -12    1    3    3    0    0 -0.13011110833E+01  0.76696929512E+00  0.47393750975E+01  0.49742143365E+01  0.00000000000E+00 0.  1.
</event>
<event>
 7    1  0.4592673E-010  0.4778727E+02  0.7816164E-02  0.1312668E+00
        -11   -1    0    0    0    0  0.00000000000E+00  0.00000000000E+00  0.45593999997E+02  0.45594000000E+02  0.51100000000E-03 0.  1.
         11   -1    0    0    0    0 -0.00000000000E+00 -0.00000000000E+00 -0.45593999997E+02  0.45594000000E+02  0.51100000000E-03 0. -1.
    9900012    2    1    2    0    0 -0.25606280065E+02 -0.12297149429E+02 -0.32813437815E+02  0.47787272309E+02  0.20000005766E+02 0.  0.
        -12    1    1    2    0    0  0.25606280065E+02  0.12297149429E+02  0.32813437815E+02  0.43400727691E+02  0.00000000000E+00 0.  1.
         11    1    3    3    0    0 -0.24720385276E+02 -0.10606395686E+02 -0.25296471971E+02  0.36925662784E+02  0.51100000000E-03 0. -1.
        -11    1    3    3    0    0 -0.24767503483E+01 -0.30145312967E+00 -0.82553559998E+01  0.86241561455E+01  0.51100000000E-03 0.  1.
         12    1    3    3    0    0  0.15908555593E+01 -0.13893006131E+01  0.73839015506E+00  0.22374533794E+01  0.00000000000E+00 0. -1.
</event>
<event>
 7    1  0.4592673E-010  0.4778727E+02  0.7816164E-02  0.1312668E+00
        -11   -1    0    0    0    0  0.00000000000E+00  0.00000000000E+00  0.45593999997E+02  0.45594000000E+02  0.51100000000E-03 0.  1.
         11   -1    0    0    0    0 -0.00000000000E+00 -0.00000000000E+00 -0.45593999997E+02  0.45594000000E+02  0.51100000000E-03 0. -1.
    9900012    2    1    2    0    0 -0.40921388989E+02 -0.93328973081E+01 -0.11043567404E+02  0.47787269246E+02  0.19999991801E+02 0.  0.
        -12    1    1    2    0    0  0.40921388989E+02  0.93328973081E+01  0.11043567404E+02  0.43400730754E+02  0.00000000000E+00 0.  1.
         11    1    3    3    0    0 -0.12977495151E+02 -0.83356720115E+00 -0.56632559710E+01  0.14183888153E+02  0.51100000000E-03 0. -1.
        -11    1    3    3    0    0 -0.13280570547E+01  0.34350423819E+01  0.84249003030E+00  0.37779678954E+01  0.51100000000E-03 0.  1.
        -12    1    3    3    0    0 -0.26615836783E+02 -0.11934372489E+02 -0.62228014633E+01  0.29825413198E+02  0.00000000000E+00 0.  1.
</event>
<event>
 7    1  0.4592673E-010  0.4778727E+02  0.7816164E-02  0.1312668E+00
        -11   -1    0    0    0    0  0.00000000000E+00  0.00000000000E+00  0.45593999997E+02  0.45594000000E+02  0.51100000000E-03 0.  1.
         11   -1    0    0    0    0 -0.00000000000E+00 -0.00000000000E+00 -0.45593999997E+02  0.45594000000E+02  0.51100000000E-03 0. -1.
    9900012    2    1    2    0    0 -0.31945332593E+02 -0.42046036680E+01 -0.29076461599E+02  0.47787267453E+02  0.19999983626E+02 0.  0.
        -12    1    1    2    0    0  0.31945332593E+02  0.42046036680E+01  0.29076461599E+02  0.43400732547E+02  0.00000000000E+00 0.  1.
         11    1    3    3    0    0 -0.12565296617E+02 -0.81373611984E+01 -0.91807146405E+01  0.17561003614E+02  0.51100000000E-03 0. -1.
        -11    1    3    3    0    0 -0.17554267234E+02  0.12903042581E+01 -0.10970069450E+02  0.20740289468E+02  0.51100000000E-03 0.  1.
         12    1    3    3    0    0 -0.18257687419E+01  0.26424532723E+01 -0.89256775083E+01  0.94859743715E+01  0.00000000000E+00 0. -1.
</event>
<event>
 7    1  0.4592673E-010  0.4778728E+02  0.7816164E-02  0.1312668E+00
        -11   -1    0    0    0    0  0.00000000000E+00  0.00000000000E+00  0.45593999997E+02  0.45594000000E+02  0.51100000000E-03 0.  1.
         11   -1    0    0    0    0 -0.00000000000E+00 -0.00000000000E+00 -0.45593999997E+02  0.45594000000E+02  0.51100000000E-03 0. -1.
    9900012    2    1    2    0    0  0.35027395877E+02 -0.18085308922E+02 -0.18155606056E+02  0.47787275444E+02  0.20000020061E+02 0.  0.
        -12    1    1    2    0    0 -0.35027395877E+02  0.18085308922E+02  0.18155606056E+02  0.43400724556E+02  0.00000000000E+00 0.  1.
         11    1    3    3    0    0  0.16285605982E+02 -0.11956323639E+02 -0.78157050580E+01  0.21662407137E+02  0.51100000000E-03 0. -1.
        -11    1    3    3    0    0  0.65531807756E+01 -0.92774963369E+01 -0.41125935638E+01  0.12080130076E+02  0.51100000000E-03 0.  1.
        -12    1    3    3    0    0  0.12188609119E+02  0.31485110544E+01 -0.62273074341E+01  0.14044738232E+02  0.00000000000E+00 0.  1.
</event>
<event>
 7    1  0.4592673E-010  0.4778726E+02  0.7816164E-02  0.1312668E+00
        -11   -1    0    0    0    0  0.00000000000E+00  0.00000000000E+00  0.45593999997E+02  0.45594000000E+02  0.51100000000E-03 0.  1.
         11   -1    0    0    0    0 -0.00000000000E+00 -0.00000000000E+00 -0.45593999997E+02  0.45594000000E+02  0.51100000000E-03 0. -1.
    9900012    2    1    2    0    0 -0.24749901985E+02 -0.49728866462E+01 -0.35303501920E+02  0.47787256945E+02  0.19999935715E+02 0.  0.
        -12    1    1    2    0    0  0.24749901985E+02  0.49728866462E+01  0.35303501920E+02  0.43400743055E+02  0.00000000000E+00 0.  1.
         11    1    3    3    0    0 -0.63784892217E+01 -0.57166700557E+01 -0.13825852935E+02  0.16264060099E+02  0.51100000000E-03 0. -1.
        -11    1    3    3    0    0 -0.16178577616E+02  0.26295694471E+01 -0.23009310682E+02  0.28250475880E+02  0.51100000000E-03 0.  1.
        -12    1    3    3    0    0 -0.21928351481E+01 -0.18857860376E+01  0.15316616964E+01  0.32727209656E+01  0.00000000000E+00 0.  1.
</event>
<event>
 7    1 -0.4592673E-010  0.4778728E+02  0.7816164E-02  0.1312668E+00
        -11   -1    0    0    0    0  0.00000000000E+00  0.00000000000E+00  0.45593999997E+02  0.45594000000E+02  0.51100000000E-03 0.  1.
         11   -1    0    0    0    0 -0.00000000000E+00 -0.00000000000E+00 -0.45593999997E+02  0.45594000000E+02  0.51100000000E-03 0. -1.
    9900012    2    1    2    0    0 -0.22415948539E+02 -0.16116378423E+02 -0.33487458585E+02  0.47787282439E+02  0.20000051952E+02 0.  0.
        -12    1    1    2    0    0  0.22415948539E+02  0.16116378423E+02  0.33487458585E+02  0.43400717561E+02  0.00000000000E+00 0.  1.
         11    1    3    3    0    0 -0.15907035968E+02 -0.10679894337E+02 -0.28905734682E+02  0.34679034504E+02  0.51100000000E-03 0. -1.
        -11    1    3    3    0    0 -0.22212823121E+01  0.16466162815E+01 -0.39268307182E+01  0.48026492729E+01  0.51100000000E-03 0.  1.
         12    1    3    3    0    0 -0.42876302583E+01 -0.70831003677E+01 -0.65489318407E+00  0.83055986620E+01  0.00000000000E+00 0. -1.
</event>
<event>
 7    1  0.4592673E-010  0.4778727E+02  0.7816164E-02  0.1312668E+00
        -11   -1    0    0    0    0  0.00000000000E+00  0.00000000000E+00  0.45593999997E+02  0.45594000000E+02  0.51100000000E-03 0. -1.
         11   -1    0    0    0    0 -0.00000000000E+00 -0.00000000000E+00 -0.45593999997E+02  0.45594000000E+02  0.51100000000E-03 0.  1.
    9900012    2    1    2    0    0  0.36055899598E+02  0.23279948660E+02  0.64528502576E+01  0.47787272104E+02  0.20000004831E+02 0.  0.
        -12    1    1    2    0    0 -0.36055899598E+02 -0.23279948660E+02 -0.64528502576E+01  0.43400727896E+02  0.00000000000E+00 0.  1.
         11    1    3    3    0    0  0.24912897391E+02  0.20978743369E+02  0.58697605988E+01  0.33094020903E+02  0.51100000000E-03 0.  1.
        -11    1    3    3    0    0  0.10713391858E+02  0.46484512553E+01  0.20999735988E+01  0.11865696505E+02  0.51100000000E-03 0. -1.
        -12    1    3    3    0    0  0.42961034929E+00 -0.23472459647E+01 -0.15168839400E+01  0.28275546959E+01  0.00000000000E+00 0.  1.
</event>
<event>
 7    1  0.4592673E-010  0.4778727E+02  0.7816164E-02  0.1312668E+00
        -11   -1    0    0    0    0  0.00000000000E+00  0.00000000000E+00  0.45593999997E+02  0.45594000000E+02  0.51100000000E-03 0. -1.
         11   -1    0    0    0    0 -0.00000000000E+00 -0.00000000000E+00 -0.45593999997E+02  0.45594000000E+02  0.51100000000E-03 0.  1.
    9900012    2    1    2    0    0 -0.30267271218E+02  0.24326771182E+02  0.19383596414E+02  0.47787270593E+02  0.19999997941E+02 0.  0.
        -12    1    1    2    0    0  0.30267271218E+02 -0.24326771182E+02 -0.19383596414E+02  0.43400729407E+02  0.00000000000E+00 0.  1.
         11    1    3    3    0    0  0.10926399109E+01  0.21624996662E+01  0.56300325631E+00  0.24874162717E+01  0.51100000000E-03 0. -1.
        -11    1    3    3    0    0  0.12922849254E+00  0.74118583825E+00 -0.18280844959E+01  0.19768534684E+01  0.51100000000E-03 0.  1.
         12    1    3    3    0    0 -0.31489139621E+02  0.21423085677E+02  0.20648677654E+02  0.43323000853E+02  0.00000000000E+00 0. -1.
</event>
<event>
 7    1  0.5955925E-010  0.4778727E+02  0.7816164E-02  0.1312668E+00
        -11   -1    0    0    0    0  0.00000000000E+00  0.00000000000E+00  0.45593999997E+02  0.45594000000E+02  0.51100000000E-03 0.  1.
         11   -1    0    0    0    0 -0.00000000000E+00 -0.00000000000E+00 -0.45593999997E+02  0.45594000000E+02  0.51100000000E-03 0. -1.
    9900012    2    1    2    0    0  0.20363873270E+02 -0.37840383078E+02  0.60861579628E+01  0.47787271380E+02  0.20000001528E+02 0.  0.
        -12    1    1    2    0    0 -0.20363873270E+02  0.37840383078E+02 -0.60861579628E+01  0.43400728620E+02  0.00000000000E+00 0.  1.
         11    1    3    3    0    0  0.10673117734E+02 -0.13964866379E+02  0.49986903177E+01  0.18273473679E+02  0.51100000000E-03 0. -1.
        -11    1    3    3    0    0  0.11736195913E+02 -0.14234555403E+02 -0.32725796684E+01  0.18736879142E+02  0.51100000000E-03 0.  1.
        -12    1    3    3    0    0 -0.20454403771E+01 -0.96409612960E+01  0.43600473135E+01  0.10776918559E+02  0.00000000000E+00 0.  1.
</event>
<event>
 7    1  0.4592673E-010  0.4778728E+02  0.7816164E-02  0.1312668E+00
        -11   -1    0    0    0    0  0.00000000000E+00  0.00000000000E+00  0.45593999997E+02  0.45594000000E+02  0.51100000000E-03 0.  1.
         11   -1    0    0    0    0 -0.00000000000E+00 -0.00000000000E+00 -0.45593999997E+02  0.45594000000E+02  0.51100000000E-03 0. -1.
    9900012    2    1    2    0    0  0.57684331333E+01 -0.60650647712E+01 -0.42585944510E+02  0.47787279945E+02  0.20000040583E+02 0.  0.
        -12    1    1    2    0    0 -0.57684331333E+01  0.60650647712E+01  0.42585944510E+02  0.43400720055E+02  0.00000000000E+00 0.  1.
         11    1    3    3    0    0 -0.12191917131E+01 -0.23806364090E+01 -0.10740928761E+01  0.28822792912E+01  0.51100000000E-03 0. -1.
        -11    1    3    3    0    0  0.10432559727E+01  0.23808578201E+01 -0.68337656720E-01  0.26002956141E+01  0.51100000000E-03 0.  1.
         12    1    3    3    0    0  0.59443688736E+01 -0.60652861823E+01 -0.41443513977E+02  0.42304705040E+02  0.00000000000E+00 0. -1.
</event>
<event>
 7    1  0.4592673E-010  0.4778727E+02  0.7816164E-02  0.1312668E+00
        -11   -1    0    0    0    0  0.00000000000E+00  0.00000000000E+00  0.45593999997E+02  0.45594000000E+02  0.51100000000E-03 0. -1.
         11   -1    0    0    0    0 -0.00000000000E+00 -0.00000000000E+00 -0.45593999997E+02  0.45594000000E+02  0.51100000000E-03 0.  1.
    9900012    2    1    2    0    0 -0.45453255297E+01  0.59146444634E+01  0.42754886401E+02  0.47787270577E+02  0.19999997868E+02 0.  0.
        -12    1    1    2    0    0  0.45453255297E+01 -0.59146444634E+01 -0.42754886401E+02  0.43400729423E+02  0.00000000000E+00 0.  1.
         11    1    3    3    0    0 -0.27049296609E+01  0.38301495342E+01  0.12009630934E+02  0.12892553097E+02  0.51100000000E-03 0. -1.
        -11    1    3    3    0    0 -0.42910947878E+01  0.85345916579E+01  0.19189223145E+02  0.21435462076E+02  0.51100000000E-03 0.  1.
        -12    1    3    3    0    0  0.24506989190E+01 -0.64500967287E+01  0.11556032321E+02  0.13459255403E+02  0.00000000000E+00 0.  1.
</event>
<event>
 7    1  0.4592673E-010  0.4778727E+02  0.7816164E-02  0.1312668E+00
        -11   -1    0    0    0    0  0.00000000000E+00  0.00000000000E+00  0.45593999997E+02  0.45594000000E+02  0.51100000000E-03 0. -1.
         11   -1    0    0    0    0 -0.00000000000E+00 -0.00000000000E+00 -0.45593999997E+02  0.45594000000E+02  0.51100000000E-03 0.  1.
    9900012    2    1    2    0    0 -0.28645384982E+02  0.23595307921E+01  0.32519188349E+02  0.47787273311E+02  0.20000010332E+02 0.  0.
        -12    1    1    2    0    0  0.28645384982E+02 -0.23595307921E+01 -0.32519188349E+02  0.43400726689E+02  0.00000000000E+00 0.  1.
         11    1    3    3    0    0 -0.39727601436E+01  0.17417209730E+01  0.57343647190E+01  0.71902262898E+01  0.51100000000E-03 0. -1.
        -11    1    3    3    0    0 -0.14825238635E+02 -0.87037394601E+00  0.34795012428E+01  0.15252940063E+02  0.51100000000E-03 0.  1.
        -12    1    3    3    0    0 -0.98473862030E+01  0.14881837651E+01  0.23305322387E+02  0.25344106958E+02  0.00000000000E+00 0.  1.
</event>
<event>
 7    1  0.4592673E-010  0.4778727E+02  0.7816164E-02  0.1312668E+00
        -11   -1    0    0    0    0  0.00000000000E+00  0.00000000000E+00  0.45593999997E+02  0.45594000000E+02  0.51100000000E-03 0.  1.
         11   -1    0    0    0    0 -0.00000000000E+00 -0.00000000000E+00 -0.45593999997E+02  0.45594000000E+02  0.51100000000E-03 0. -1.
    9900012    2    1    2    0    0 -0.27758671888E+02  0.15764491764E+02 -0.29403405137E+02  0.47787270753E+02  0.19999998671E+02 0.  0.
        -12    1    1    2    0    0  0.27758671888E+02 -0.15764491764E+02  0.29403405137E+02  0.43400729247E+02  0.00000000000E+00 0.  1.
         11    1    3    3    0    0 -0.51153641485E+01 -0.21067090242E+01 -0.18643864448E+01  0.58379029078E+01  0.51100000000E-03 0. -1.
        -11    1    3    3    0    0 -0.52168330222E+01  0.31156315617E+01 -0.14341013587E+02  0.15575210361E+02  0.51100000000E-03 0.  1.
         12    1    3    3    0    0 -0.17426474717E+02  0.14755569227E+02 -0.13198005104E+02  0.26374157484E+02  0.00000000000E+00 0. -1.
</event>
<event>
 7    1  0.4592673E-010  0.4778727E+02  0.7816164E-02  0.1312668E+00
        -11   -1    0    0    0    0  0.00000000000E+00  0.00000000000E+00  0.45593999997E+02  0.45594000000E+02  0.51100000000E-03 0.  1.
         11   -1    0    0    0    0 -0.00000000000E+00 -0.00000000000E+00 -0.45593999997E+02  0.45594000000E+02  0.51100000000E-03 0. -1.
    9900012    2    1    2    0    0 -0.29983278619E+02 -0.20889286366E+02 -0.23415042468E+02  0.47787268493E+02  0.19999988365E+02 0.  0.
        -12    1    1    2    0    0  0.29983278619E+02  0.20889286366E+02  0.23415042468E+02  0.43400731507E+02  0.00000000000E+00 0.  1.
         11    1    3    3    0    0 -0.41834149359E+01  0.78096886442E+00 -0.38554523385E+01  0.57424198635E+01  0.51100000000E-03 0. -1.
        -11    1    3    3    0    0  0.17801024589E+01  0.13721575885E+00  0.50285576180E-01  0.17860912152E+01  0.51100000000E-03 0.  1.
        -12    1    3    3    0    0 -0.27579966142E+02 -0.21807470989E+02 -0.19609875706E+02  0.40258757414E+02  0.00000000000E+00 0.  1.
</event>
<event>
 7    1  0.4592673E-010  0.4778729E+02  0.7816164E-02  0.1312668E+00
        -11   -1    0    0    0    0  0.00000000000E+00  0.00000000000E+00  0.45593999997E+02  0.45594000000E+02  0.51100000000E-03 0.  1.
         11   -1    0    0    0    0 -0.00000000000E+00 -0.00000000000E+00 -0.45593999997E+02  0.45594000000E+02  0.51100000000E-03 0. -1.
    9900012    2    1    2    0    0 -0.13983101626E+02 -0.35815619676E+02 -0.20132946140E+02  0.47787294197E+02  0.20000105563E+02 0.  0.
        -12    1    1    2    0    0  0.13983101626E+02  0.35815619676E+02  0.20132946140E+02  0.43400705803E+02  0.00000000000E+00 0.  1.
         11    1    3    3    0    0 -0.13204418863E+02 -0.26148206141E+02 -0.10340177679E+02  0.31064523763E+02  0.51100000000E-03 0. -1.
        -11    1    3    3    0    0 -0.84776747083E+00 -0.13590378879E+01  0.18323161964E+01  0.24337371613E+01  0.51100000000E-03 0.  1.
        -12    1    3    3    0    0  0.69084707624E-01 -0.83083756476E+01 -0.11625084657E+02  0.14289033273E+02  0.00000000000E+00 0.  1.
</event>
<event>
 7    1  0.4592673E-010  0.4778727E+02  0.7816164E-02  0.1312668E+00
        -11   -1    0    0    0    0  0.00000000000E+00  0.00000000000E+00  0.45593999997E+02  0.45594000000E+02  0.51100000000E-03 0.  1.
         11   -1    0    0    0    0 -0.00000000000E+00 -0.00000000000E+00 -0.45593999997E+02  0.45594000000E+02  0.51100000000E-03 0. -1.
    9900012    2    1    2    0    0  0.17181302158E+02 -0.38499552547E+02 -0.10305842722E+02  0.47787273228E+02  0.20000009956E+02 0.  0.
        -12    1    1    2    0    0 -0.17181302158E+02  0.38499552547E+02  0.10305842722E+02  0.43400726772E+02  0.00000000000E+00 0.  1.
         11    1    3    3    0    0  0.80195526288E+01 -0.17174075402E+02  0.16564928097E+01  0.19026456816E+02  0.51100000000E-03 0. -1.
        -11    1    3    3    0    0 -0.18099945340E+01 -0.32189571199E+01  0.11378173393E+01  0.38642455553E+01  0.51100000000E-03 0.  1.
         12    1    3    3    0    0  0.10971744063E+02 -0.18106520025E+02 -0.13100152871E+02  0.24896570857E+02  0.00000000000E+00 0. -1.
</event>
<event>
 7    1  0.4592673E-010  0.4778727E+02  0.7816164E-02  0.1312668E+00
        -11   -1    0    0    0    0  0.00000000000E+00  0.00000000000E+00  0.45593999997E+02  0.45594000000E+02  0.51100000000E-03 0. -1.
         11   -1    0    0    0    0 -0.00000000000E+00 -0.00000000000E+00 -0.45593999997E+02  0.45594000000E+02  0.51100000000E-03 0.  1.
    9900012    2    1    2    0    0  0.66991278395E+01 -0.13050930578E+02  0.40846279417E+02  0.47787266769E+02  0.19999980507E+02 0.  0.
        -12    1    1    2    0    0 -0.66991278395E+01  0.13050930578E+02 -0.40846279417E+02  0.43400733231E+02  0.00000000000E+00 0.  1.
         11    1    3    3    0    0 -0.24311921328E+01  0.81414784529E+00  0.53845413324E+01  0.59637922098E+01  0.51100000000E-03 0. -1.
        -11    1    3    3    0    0 -0.35857241732E+01 -0.56478646948E+01  0.76882447825E+01  0.10191413128E+02  0.51100000000E-03 0.  1.
         12    1    3    3    0    0  0.12716044146E+02 -0.82172137282E+01  0.27773493302E+02  0.31632061431E+02  0.00000000000E+00 0. -1.
</event>
<event>
 7    1  0.4592673E-010  0.4778727E+02  0.7816164E-02  0.1312668E+00
        -11   -1    0    0    0    0  0.00000000000E+00  0.00000000000E+00  0.45593999997E+02  0.45594000000E+02  0.51100000000E-03 0.  1.
         11   -1    0    0    0    0 -0.00000000000E+00 -0.00000000000E+00 -0.45593999997E+02  0.45594000000E+02  0.51100000000E-03 0. -1.
    9900012    2    1    2    0    0  0.84058167519E+01  0.37837121530E+02 -0.19527356602E+02  0.47787272162E+02  0.20000005097E+02 0.  0.
        -12    1    1    2    0    0 -0.84058167519E+01 -0.37837121530E+02  0.19527356602E+02  0.43400727838E+02  0.00000000000E+00 0.  1.
         11    1    3    3    0    0 -0.23981713139E+01  0.13624331786E+01 -0.27774544503E+01  0.39142947388E+01  0.51100000000E-03 0. -1.
        -11    1    3    3    0    0  0.13125083427E+01  0.77229774081E+01  0.22214283717E+01  0.81425918765E+01  0.51100000000E-03 0.  1.
         12    1    3    3    0    0  0.94914797232E+01  0.28751710944E+02 -0.18971330523E+02  0.35730385547E+02  0.00000000000E+00 0. -1.
</event>
<event>
 7    1  0.5124004E-010  0.4778727E+02  0.7816164E-02  0.1312668E+00
        -11   -1    0    0    0    0  0.00000000000E+00  0.00000000000E+00  0.45593999997E+02  0.45594000000E+02  0.51100000000E-03 0.  1.
         11   -1    0    0    0    0 -0.00000000000E+00 -0.00000000000E+00 -0.45593999997E+02  0.45594000000E+02  0.51100000000E-03 0. -1.
    9900012    2    1    2    0    0 -0.30828162842E+02  0.77639863687E+01 -0.29546035318E+02  0.47787270610E+02  0.19999998018E+02 0.  0.
        -12    1    1    2    0    0  0.30828162842E+02 -0.77639863687E+01  0.29546035318E+02  0.43400729390E+02  0.00000000000E+00 0.  1.
         11    1    3    3    0    0 -0.24498948862E+02  0.38287923792E+01 -0.21536291203E+02  0.32843111690E+02  0.51100000000E-03 0. -1.
        -11    1    3    3    0    0 -0.55993605770E+01 -0.83978662711E+00 -0.84216379138E-01  0.56626118629E+01  0.51100000000E-03 0.  1.
        -12    1    3    3    0    0 -0.72985340349E+00  0.47749806167E+01 -0.79255277359E+01  0.92815470571E+01  0.00000000000E+00 0.  1.
</event>
<event>
 7    1  0.4592673E-010  0.4778727E+02  0.7816164E-02  0.1312668E+00
        -11   -1    0    0    0    0  0.00000000000E+00  0.00000000000E+00  0.45593999997E+02  0.45594000000E+02  0.51100000000E-03 0. -1.
         11   -1    0    0    0    0 -0.00000000000E+00 -0.00000000000E+00 -0.45593999997E+02  0.45594000000E+02  0.51100000000E-03 0.  1.
    9900012    2    1    2    0    0  0.73740330035E+01 -0.40087218472E+02  0.14908438202E+02  0.47787274462E+02  0.20000015582E+02 0.  0.
        -12    1    1    2    0    0 -0.73740330035E+01  0.40087218472E+02 -0.14908438202E+02  0.43400725538E+02  0.00000000000E+00 0.  1.
         11    1    3    3    0    0  0.11451145837E+00  0.11027184281E+01  0.15735016313E+01  0.19248398507E+01  0.51100000000E-03 0. -1.
        -11    1    3    3    0    0  0.41158909864E+01 -0.35809968141E+01 -0.89534899545E+00  0.55286297470E+01  0.51100000000E-03 0.  1.
         12    1    3    3    0    0  0.31436305587E+01 -0.37608940086E+02  0.14230285567E+02  0.40333804864E+02  0.00000000000E+00 0. -1.
</event>
<event>
 7    1  0.4592673E-010  0.4778728E+02  0.7816164E-02  0.1312668E+00
        -11   -1    0    0    0    0  0.00000000000E+00  0.00000000000E+00  0.45593999997E+02  0.45594000000E+02  0.51100000000E-03 0. -1.
         11   -1    0    0    0    0 -0.00000000000E+00 -0.00000000000E+00 -0.45593999997E+02  0.45594000000E+02  0.51100000000E-03 0.  1.
    9900012    2    1    2    0    0 -0.22719932591E+02 -0.18290159023E+02  0.32138724911E+02  0.47787275433E+02  0.20000020010E+02 0.  0.
        -12    1    1    2    0    0  0.22719932591E+02  0.18290159023E+02 -0.32138724911E+02  0.43400724567E+02  0.00000000000E+00 0.  1.
         11    1    3    3    0    0 -0.44580186027E+01 -0.49459563285E+01  0.34418014927E+01  0.74954927550E+01  0.51100000000E-03 0. -1.
        -11    1    3    3    0    0  0.12930424961E+01 -0.35662025705E+01  0.12553989409E+02  0.13114587680E+02  0.51100000000E-03 0.  1.
        -12    1    3    3    0    0 -0.19554956485E+02 -0.97780001243E+01  0.16142934009E+02  0.27177194998E+02  0.00000000000E+00 0.  1.
</event>
<event>
 7    1  0.4592673E-010  0.4778727E+02  0.7816164E-02  0.1312668E+00
        -11   -1    0    0    0    0  0.00000000000E+00  0.00000000000E+00  0.45593999997E+02  0.45594000000E+02  0.51100000000E-03 0.  1.
         11   -1    0    0    0    0 -0.00000000000E+00 -0.00000000000E+00 -0.45593999997E+02  0.45594000000E+02  0.51100000000E-03 0. -1.
    9900012    2    1    2    0    0  0.30591044046E+02 -0.28252662143E+01 -0.30656635584E+02  0.47787269472E+02  0.19999992832E+02 0.  0.
        -12    1    1    2    0    0 -0.30591044046E+02  0.28252662143E+01  0.30656635584E+02  0.43400730528E+02  0.00000000000E+00 0.  1.
         11    1    3    3    0    0  0.64219839820E+01 -0.15737145852E+01 -0.71646184017E+01  0.97493698752E+01  0.51100000000E-03 0. -1.
        -11    1    3    3    0    0  0.20949990174E+02 -0.97936933334E+00 -0.83810555393E+01  0.22585467557E+02  0.51100000000E-03 0.  1.
        -12    1    3    3    0    0  0.32190698901E+01 -0.27218229575E+00 -0.15110961643E+02  0.15452432040E+02  0.00000000000E+00 0.  1.
</event>
<event>
 7    1  0.4592673E-010  0.4778727E+02  0.7816164E-02  0.1312668E+00
        -11   -1    0    0    0    0  0.00000000000E+00  0.00000000000E+00  0.45593999997E+02  0.45594000000E+02  0.51100000000E-03 0. -1.
         11   -1    0    0    0    0 -0.00000000000E+00 -0.00000000000E+00 -0.45593999997E+02  0.45594000000E+02  0.51100000000E-03 0.  1.
    9900012    2    1    2    0    0  0.14076778237E+02 -0.17595075129E+02  0.37092869080E+02  0.47787270849E+02  0.19999999107E+02 0.  0.
        -12    1    1    2    0    0 -0.14076778237E+02  0.17595075129E+02 -0.37092869080E+02  0.43400729151E+02  0.00000000000E+00 0.  1.
         11    1    3    3    0    0  0.12210487004E+02 -0.11958635310E+02  0.26873071584E+02  0.31847557645E+02  0.51100000000E-03 0. -1.
        -11    1    3    3    0    0  0.40838237728E+01  0.17663737107E+01  0.44743374759E+01  0.63101021230E+01  0.51100000000E-03 0.  1.
         12    1    3    3    0    0 -0.22175325398E+01 -0.74028135299E+01  0.57454600197E+01  0.96296110805E+01  0.00000000000E+00 0. -1.
</event>
<event>
 7    1  0.4592673E-010  0.4778727E+02  0.7816164E-02  0.1312668E+00
        -11   -1    0    0    0    0  0.00000000000E+00  0.00000000000E+00  0.45593999997E+02  0.45594000000E+02  0.51100000000E-03 0.  1.
         11   -1    0    0    0    0 -0.00000000000E+00 -0.00000000000E+00 -0.45593999997E+02  0.45594000000E+02  0.51100000000E-03 0. -1.
    9900012    2    1    2    0    0 -0.19468417518E+02 -0.20124799064E+02 -0.33160166328E+02  0.47787269028E+02  0.19999990804E+02 0.  0.
        -12    1    1    2    0    0  0.19468417518E+02  0.20124799064E+02  0.33160166328E+02  0.43400730972E+02  0.00000000000E+00 0.  1.
         11    1    3    3    0    0 -0.10930786813E+02 -0.13657801336E+02 -0.27095713971E+02  0.32252059679E+02  0.51100000000E-03 0. -1.
        -11    1    3    3    0    0 -0.12515970842E+01 -0.66767113142E+01 -0.42867559602E+01  0.80325118212E+01  0.51100000000E-03 0.  1.
        -12    1    3    3    0    0 -0.72860336206E+01  0.20971358561E+00 -0.17776963974E+01  0.75026975276E+01  0.00000000000E+00 0.  1.
</event>
<event>
 7    1  0.4592673E-010  0.4778726E+02  0.7816164E-02  0.1312668E+00
        -11   -1    0    0    0    0  0.00000000000E+00  0.00000000000E+00  0.45593999997E+02  0.45594000000E+02  0.51100000000E-03 0. -1.
         11   -1    0    0    0    0 -0.00000000000E+00 -0.00000000000E+00 -0.45593999997E+02  0.45594000000E+02  0.51100000000E-03 0.  1.
    9900012    2    1    2    0    0  0.23093693782E+02 -0.31217414522E+02 -0.19384998285E+02  0.47787264748E+02  0.19999971292E+02 0.  0.
        -12    1    1    2    0    0 -0.23093693782E+02  0.31217414522E+02  0.19384998285E+02  0.43400735252E+02  0.00000000000E+00 0.  1.
         11    1    3    3    0    0  0.11956027190E+02 -0.11826220823E+02 -0.51103370798E+01  0.17576166546E+02  0.51100000000E-03 0. -1.
        -11    1    3    3    0    0  0.31517562789E+01 -0.16324731161E+02 -0.45053292797E+01  0.17225806434E+02  0.51100000000E-03 0.  1.
        -12    1    3    3    0    0  0.79859103124E+01 -0.30664625372E+01 -0.97693319253E+01  0.12985291767E+02  0.00000000000E+00 0.  1.
</event>
<event>
 7    1  0.4592673E-010  0.4778726E+02  0.7816164E-02  0.1312668E+00
        -11   -1    0    0    0    0  0.00000000000E+00  0.00000000000E+00  0.45593999997E+02  0.45594000000E+02  0.51100000000E-03 0. -1.
         11   -1    0    0    0    0 -0.00000000000E+00 -0.00000000000E+00 -0.45593999997E+02  0.45594000000E+02  0.51100000000E-03 0.  1.
    9900012    2    1    2    0    0 -0.23507547575E+02  0.31524789503E+01  0.36346678661E+02  0.47787263069E+02  0.19999963636E+02 0.  0.
        -12    1    1    2    0    0  0.23507547575E+02 -0.31524789503E+01 -0.36346678661E+02  0.43400736931E+02  0.00000000000E+00 0.  1.
         11    1    3    3    0    0 -0.13899395846E+02 -0.15378432311E+01  0.24730124894E+02  0.28410160932E+02  0.51100000000E-03 0.  1.
        -11    1    3    3    0    0 -0.80354025837E+01  0.38259169793E+01  0.13880213645E+02  0.16488349417E+02  0.51100000000E-03 0. -1.
        -12    1    3    3    0    0 -0.15727491455E+01  0.86440520204E+00 -0.22636598782E+01  0.28887527191E+01  0.00000000000E+00 0.  1.
</event>
<event>
 7    1  0.4592673E-010  0.4778727E+02  0.7816164E-02  0.1312668E+00
        -11   -1    0    0    0    0  0.00000000000E+00  0.00000000000E+00  0.45593999997E+02  0.45594000000E+02  0.51100000000E-03 0.  1.
         11   -1    0    0    0    0 -0.00000000000E+00 -0.00000000000E+00 -0.45593999997E+02  0.45594000000E+02  0.51100000000E-03 0. -1.
    9900012    2    1    2    0    0  0.59624953852E+01  0.26216014597E+02 -0.34070401463E+02  0.47787273872E+02  0.20000012892E+02 0.  0.
        -12    1    1    2    0    0 -0.59624953852E+01 -0.26216014597E+02  0.34070401463E+02  0.43400726128E+02  0.00000000000E+00 0.  1.
         11    1    3    3    0    0  0.38363939812E+00  0.82650355389E+01 -0.24793382448E+02  0.26137517195E+02  0.51100000000E-03 0. -1.
        -11    1    3    3    0    0  0.17690401650E+01  0.17137233042E+01  0.19289389213E+00  0.24705381971E+01  0.51100000000E-03 0.  1.
         12    1    3    3    0    0  0.38098158221E+01  0.16237255754E+02 -0.94699129073E+01  0.19179218480E+02  0.00000000000E+00 0. -1.
</event>
<event>
 7    1  0.4592673E-010  0.4778727E+02  0.7816164E-02  0.1312668E+00
        -11   -1    0    0    0    0  0.00000000000E+00  0.00000000000E+00  0.45593999997E+02  0.45594000000E+02  0.51100000000E-03 0.  1.
         11   -1    0    0    0    0 -0.00000000000E+00 -0.00000000000E+00 -0.45593999997E+02  0.45594000000E+02  0.51100000000E-03 0. -1.
    9900012    2    1    2    0    0  0.40305540146E+02  0.95111557777E+01  0.12985572985E+02  0.47787265485E+02  0.19999974653E+02 0.  0.
        -12    1    1    2    0    0 -0.40305540146E+02 -0.95111557777E+01 -0.12985572985E+02  0.43400734515E+02  0.00000000000E+00 0.  1.
         11    1    3    3    0    0  0.22993530118E+02  0.73399707024E+01  0.13262030680E+01  0.24173051359E+02  0.51100000000E-03 0. -1.
        -11    1    3    3    0    0  0.15484406781E+02  0.43037153010E+01  0.57457996100E+01  0.17067601829E+02  0.51100000000E-03 0.  1.
        -12    1    3    3    0    0  0.18276032466E+01 -0.21325302257E+01  0.59135703072E+01  0.65466122972E+01  0.00000000000E+00 0.  1.
</event>
<event>
 7    1  0.4592673E-010  0.4778727E+02  0.7816164E-02  0.1312668E+00
        -11   -1    0    0    0    0  0.00000000000E+00  0.00000000000E+00  0.45593999997E+02  0.45594000000E+02  0.51100000000E-03 0. -1.
         11   -1    0    0    0    0 -0.00000000000E+00 -0.00000000000E+00 -0.45593999997E+02  0.45594000000E+02  0.51100000000E-03 0.  1.
    9900012    2    1    2    0    0  0.43103450774E+02 -0.49824504442E+01  0.94405070326E+00  0.47787268292E+02  0.19999987451E+02 0.  0.
        -12    1    1    2    0    0 -0.43103450774E+02  0.49824504442E+01 -0.94405070326E+00  0.43400731708E+02  0.00000000000E+00 0.  1.
         11    1    3    3    0    0  0.81739526443E+01 -0.22047857305E+01  0.20042060319E+01  0.87000818403E+01  0.51100000000E-03 0. -1.
        -11    1    3    3    0    0  0.24538051193E+02  0.17776747814E+00 -0.85006151183E+01  0.25969366864E+02  0.51100000000E-03 0.  1.
        -12    1    3    3    0    0  0.10391446936E+02 -0.29554321918E+01  0.74404597897E+01  0.13117819588E+02  0.00000000000E+00 0.  1.
</event>
<event>
 7    1  0.4592673E-010  0.4778727E+02  0.7816164E-02  0.1312668E+00
        -11   -1    0    0    0    0  0.00000000000E+00  0.00000000000E+00  0.45593999997E+02  0.45594000000E+02  0.51100000000E-03 0.  1.
         11   -1    0    0    0    0 -0.00000000000E+00 -0.00000000000E+00 -0.45593999997E+02  0.45594000000E+02  0.51100000000E-03 0. -1.
    9900012    2    1    2    0    0  0.10839608984E+02 -0.29847712172E+02 -0.29584458287E+02  0.47787271700E+02  0.20000002988E+02 0.  0.
        -12    1    1    2    0    0 -0.10839608984E+02  0.29847712172E+02  0.29584458287E+02  0.43400728300E+02  0.00000000000E+00 0.  1.
         11    1    3    3    0    0  0.91192817501E+00 -0.14029859856E+01  0.11402700146E+01  0.20248947231E+01  0.51100000000E-03 0. -1.
        -11    1    3    3    0    0  0.94010105149E+01 -0.56749068684E+01 -0.79797362310E+01  0.13574231368E+02  0.51100000000E-03 0.  1.
         12    1    3    3    0    0  0.52667029364E+00 -0.22769819319E+02 -0.22744992071E+02  0.32188145608E+02  0.00000000000E+00 0. -1.
</event>
<event>
 7    1  0.4592673E-010  0.4778727E+02  0.7816164E-02  0.1312668E+00
        -11   -1    0    0    0    0  0.00000000000E+00  0.00000000000E+00  0.45593999997E+02  0.45594000000E+02  0.51100000000E-03 0.  1.
         11   -1    0    0    0    0 -0.00000000000E+00 -0.00000000000E+00 -0.45593999997E+02  0.45594000000E+02  0.51100000000E-03 0. -1.
    9900012    2    1    2    0    0 -0.30196651555E+02  0.28861338081E+02 -0.11781706889E+02  0.47787271686E+02  0.20000002926E+02 0.  0.
        -12    1    1    2    0    0  0.30196651555E+02 -0.28861338081E+02  0.11781706889E+02  0.43400728314E+02  0.00000000000E+00 0.  1.
         11    1    3    3    0    0 -0.14708582004E+02  0.20857289434E+02 -0.13999982024E+02  0.29109592990E+02  0.51100000000E-03 0. -1.
        -11    1    3    3    0    0 -0.13934969706E+02  0.54932225868E+01 -0.10331410304E-01  0.14978617496E+02  0.51100000000E-03 0.  1.
        -12    1    3    3    0    0 -0.15530998449E+01  0.25108260605E+01  0.22286065452E+01  0.36990612008E+01  0.00000000000E+00 0.  1.
</event>
<event>
 7    1  0.4592673E-010  0.4778727E+02  0.7816164E-02  0.1312668E+00
        -11   -1    0    0    0    0  0.00000000000E+00  0.00000000000E+00  0.45593999997E+02  0.45594000000E+02  0.51100000000E-03 0.  1.
         11   -1    0    0    0    0 -0.00000000000E+00 -0.00000000000E+00 -0.45593999997E+02  0.45594000000E+02  0.51100000000E-03 0. -1.
    9900012    2    1    2    0    0 -0.71472428539E+01  0.21650118725E+02 -0.36929831758E+02  0.47787271954E+02  0.20000004149E+02 0.  0.
        -12    1    1    2    0    0  0.71472428539E+01 -0.21650118725E+02  0.36929831758E+02  0.43400728046E+02  0.00000000000E+00 0.  1.
         11    1    3    3    0    0 -0.57749878417E+01  0.74117079084E+01 -0.84351866715E+01  0.12626807718E+02  0.51100000000E-03 0. -1.
        -11    1    3    3    0    0  0.11180577697E+01 -0.12684233767E+01  0.83854716552E+00  0.18873559942E+01  0.51100000000E-03 0.  1.
         12    1    3    3    0    0 -0.24903127819E+01  0.15506834193E+02 -0.29333192252E+02  0.33273108243E+02  0.00000000000E+00 0. -1.
</event>
<event>
 7    1  0.4592673E-010  0.4778727E+02  0.7816164E-02  0.1312668E+00
        -11   -1    0    0    0    0  0.00000000000E+00  0.00000000000E+00  0.45593999997E+02  0.45594000000E+02  0.51100000000E-03 0.  1.
         11   -1    0    0    0    0 -0.00000000000E+00 -0.00000000000E+00 -0.45593999997E+02  0.45594000000E+02  0.51100000000E-03 0. -1.
    9900012    2    1    2    0    0 -0.24906553485E+02  0.18626450959E+02 -0.30271148904E+02  0.47787268004E+02  0.19999986138E+02 0.  0.
        -12    1    1    2    0    0  0.24906553485E+02 -0.18626450959E+02  0.30271148904E+02  0.43400731996E+02  0.00000000000E+00 0.  1.
         11    1    3    3    0    0 -0.11961306938E+01  0.57160916272E+00 -0.12419542911E+01  0.18165672005E+01  0.51100000000E-03 0. -1.
        -11    1    3    3    0    0 -0.15067433163E+02  0.43080555969E+01 -0.40646310064E+01  0.16189753260E+02  0.51100000000E-03 0.  1.
        -12    1    3    3    0    0 -0.86429896283E+01  0.13746786199E+02 -0.24964563606E+02  0.29780947543E+02  0.00000000000E+00 0.  1.
</event>
<event>
 7    1  0.4592673E-010  0.4778727E+02  0.7816164E-02  0.1312668E+00
        -11   -1    0    0    0    0  0.00000000000E+00  0.00000000000E+00  0.45593999997E+02  0.45594000000E+02  0.51100000000E-03 0.  1.
         11   -1    0    0    0    0 -0.00000000000E+00 -0.00000000000E+00 -0.45593999997E+02  0.45594000000E+02  0.51100000000E-03 0. -1.
    9900012    2    1    2    0    0 -0.11540267525E+02 -0.25706082316E+02 -0.33009733874E+02  0.47787274510E+02  0.20000015802E+02 0.  0.
        -12    1    1    2    0    0  0.11540267525E+02  0.25706082316E+02  0.33009733874E+02  0.43400725490E+02  0.00000000000E+00 0.  1.
         11    1    3    3    0    0 -0.38352336725E+00 -0.72215373849E+01 -0.13768771484E+02  0.15552387624E+02  0.51100000000E-03 0.  1.
        -11    1    3    3    0    0 -0.69047544198E+01 -0.80300994504E+00 -0.89736413398E+01  0.11351065929E+02  0.51100000000E-03 0. -1.
         12    1    3    3    0    0 -0.42519897384E+01 -0.17681534986E+02 -0.10267321050E+02  0.20883820957E+02  0.00000000000E+00 0. -1.
</event>
<event>
 7    1  0.4592673E-010  0.4778727E+02  0.7816164E-02  0.1312668E+00
        -11   -1    0    0    0    0  0.00000000000E+00  0.00000000000E+00  0.45593999997E+02  0.45594000000E+02  0.51100000000E-03 0. -1.
         11   -1    0    0    0    0 -0.00000000000E+00 -0.00000000000E+00 -0.45593999997E+02  0.45594000000E+02  0.51100000000E-03 0.  1.
    9900012    2    1    2    0    0  0.19723044788E+02  0.28655406544E+02  0.25951730707E+02  0.47787272510E+02  0.20000006682E+02 0.  0.
        -12    1    1    2    0    0 -0.19723044788E+02 -0.28655406544E+02 -0.25951730707E+02  0.43400727490E+02  0.00000000000E+00 0.  1.
         11    1    3    3    0    0  0.76156380324E+01  0.10987695109E+02  0.35492479452E+01  0.13832011700E+02  0.51100000000E-03 0. -1.
        -11    1    3    3    0    0  0.27368597089E+01 -0.16178787753E+01  0.35201052385E+00  0.31987254443E+01  0.51100000000E-03 0.  1.
         12    1    3    3    0    0  0.93705470471E+01  0.19285590211E+02  0.22050472238E+02  0.30756535365E+02  0.00000000000E+00 0. -1.
</event>
<event>
 7    1  0.4592673E-010  0.4778727E+02  0.7816164E-02  0.1312668E+00
        -11   -1    0    0    0    0  0.00000000000E+00  0.00000000000E+00  0.45593999997E+02  0.45594000000E+02  0.51100000000E-03 0. -1.
         11   -1    0    0    0    0 -0.00000000000E+00 -0.00000000000E+00 -0.45593999997E+02  0.45594000000E+02  0.51100000000E-03 0.  1.
    9900012    2    1    2    0    0 -0.41281025676E+02 -0.84839726293E+01  0.10369297775E+02  0.47787271794E+02  0.20000003419E+02 0.  0.
        -12    1    1    2    0    0  0.41281025676E+02  0.84839726293E+01 -0.10369297775E+02  0.43400728206E+02  0.00000000000E+00 0.  1.
         11    1    3    3    0    0  0.23508798009E+00 -0.34684954148E+00 -0.10433451387E+01  0.11243399407E+01  0.51100000000E-03 0.  1.
        -11    1    3    3    0    0 -0.25758655975E+02 -0.94641061774E+01  0.13722321458E+02  0.30681912748E+02  0.51100000000E-03 0. -1.
        -12    1    3    3    0    0 -0.15757457681E+02  0.13269830896E+01 -0.23096785450E+01  0.15981019106E+02  0.00000000000E+00 0.  1.
</event>
<event>
 7    1  0.4592673E-010  0.4778727E+02  0.7816164E-02  0.1312668E+00
        -11   -1    0    0    0    0  0.00000000000E+00  0.00000000000E+00  0.45593999997E+02  0.45594000000E+02  0.51100000000E-03 0.  1.
         11   -1    0    0    0    0 -0.00000000000E+00 -0.00000000000E+00 -0.45593999997E+02  0.45594000000E+02  0.51100000000E-03 0. -1.
    9900012    2    1    2    0    0 -0.26308038195E+02 -0.28734617423E+00 -0.34517067738E+02  0.47787269514E+02  0.19999993022E+02 0.  0.
        -12    1    1    2    0    0  0.26308038195E+02  0.28734617423E+00  0.34517067738E+02  0.43400730486E+02  0.00000000000E+00 0.  1.
         11    1    3    3    0    0 -0.61299665185E+01 -0.67935617186E+00 -0.13138826127E+02  0.14514364147E+02  0.51100000000E-03 0. -1.
        -11    1    3    3    0    0 -0.20884455669E+02  0.39904150283E+01 -0.15377058323E+02  0.26240004261E+02  0.51100000000E-03 0.  1.
        -12    1    3    3    0    0  0.70638399280E+00 -0.35984050307E+01 -0.60011832880E+01  0.70329011060E+01  0.00000000000E+00 0.  1.
</event>
<event>
 7    1  0.4592673E-010  0.4778727E+02  0.7816164E-02  0.1312668E+00
        -11   -1    0    0    0    0  0.00000000000E+00  0.00000000000E+00  0.45593999997E+02  0.45594000000E+02  0.51100000000E-03 0. -1.
         11   -1    0    0    0    0 -0.00000000000E+00 -0.00000000000E+00 -0.45593999997E+02  0.45594000000E+02  0.51100000000E-03 0.  1.
    9900012    2    1    2    0    0  0.15731421001E+02 -0.13588627989E+02 -0.38098489331E+02  0.47787270667E+02  0.19999998280E+02 0.  0.
        -12    1    1    2    0    0 -0.15731421001E+02  0.13588627989E+02  0.38098489331E+02  0.43400729333E+02  0.00000000000E+00 0.  1.
         11    1    3    3    0    0  0.59015476826E+01 -0.54153352372E+01 -0.14786449451E+02  0.16816456476E+02  0.51100000000E-03 0.  1.
        -11    1    3    3    0    0  0.12260758123E+02 -0.51482930976E+01 -0.87928113550E+01  0.15941914671E+02  0.51100000000E-03 0. -1.
         12    1    3    3    0    0 -0.24308848046E+01 -0.30249996541E+01 -0.14519228525E+02  0.15028899521E+02  0.00000000000E+00 0. -1.
</event>
<event>
 7    1  0.4592673E-010  0.4778729E+02  0.7816164E-02  0.1312668E+00
        -11   -1    0    0    0    0  0.00000000000E+00  0.00000000000E+00  0.45593999997E+02  0.45594000000E+02  0.51100000000E-03 0.  1.
         11   -1    0    0    0    0 -0.00000000000E+00 -0.00000000000E+00 -0.45593999997E+02  0.45594000000E+02  0.51100000000E-03 0. -1.
    9900012    2    1    2    0    0 -0.28421582898E+02  0.17490045906E+02  0.27747676201E+02  0.47787290159E+02  0.20000087149E+02 0.  0.
        -12    1    1    2    0    0  0.28421582898E+02 -0.17490045906E+02 -0.27747676201E+02  0.43400709841E+02  0.00000000000E+00 0.  1.
         11    1    3    3    0    0 -0.47161548685E+01  0.67319110438E+01  0.62015494904E+01  0.10296599409E+02  0.51100000000E-03 0. -1.
        -11    1    3    3    0    0 -0.72643247620E+01  0.10914390043E+02  0.14653251383E+02  0.19662454084E+02  0.51100000000E-03 0.  1.
        -12    1    3    3    0    0 -0.16441103267E+02 -0.15625518126E+00  0.68928753276E+01  0.17828236666E+02  0.00000000000E+00 0.  1.
</event>
<event>
 7    1  0.4592673E-010  0.4778729E+02  0.7816164E-02  0.1312668E+00
        -11   -1    0    0    0    0  0.00000000000E+00  0.00000000000E+00  0.45593999997E+02  0.45594000000E+02  0.51100000000E-03 0.  1.
         11   -1    0    0    0    0 -0.00000000000E+00 -0.00000000000E+00 -0.45593999997E+02  0.45594000000E+02  0.51100000000E-03 0. -1.
    9900012    2    1    2    0    0 -0.99034985453E+01  0.27271958242E+02 -0.32276664473E+02  0.47787285037E+02  0.20000063798E+02 0.  0.
        -12    1    1    2    0    0  0.99034985453E+01 -0.27271958242E+02  0.32276664473E+02  0.43400714963E+02  0.00000000000E+00 0.  1.
         11    1    3    3    0    0 -0.95202980503E+01  0.15841324610E+02 -0.11735686099E+02  0.21893148902E+02  0.51100000000E-03 0. -1.
        -11    1    3    3    0    0 -0.10251257811E+01  0.56024853376E+01 -0.13858177116E+01  0.58616734655E+01  0.51100000000E-03 0.  1.
         12    1    3    3    0    0  0.64192528608E+00  0.58281482945E+01 -0.19155160662E+02  0.20032462670E+02  0.00000000000E+00 0. -1.
</event>
<event>
 7    1  0.4592673E-010  0.4778727E+02  0.7816164E-02  0.1312668E+00
        -11   -1    0    0    0    0  0.00000000000E+00  0.00000000000E+00  0.45593999997E+02  0.45594000000E+02  0.51100000000E-03 0.  1.
         11   -1    0    0    0    0 -0.00000000000E+00 -0.00000000000E+00 -0.45593999997E+02  0.45594000000E+02  0.51100000000E-03 0. -1.
    9900012    2    1    2    0    0 -0.36870069782E+02  0.68889665309E+01 -0.21834916068E+02  0.47787268839E+02  0.19999989945E+02 0.  0.
        -12    1    1    2    0    0  0.36870069782E+02 -0.68889665309E+01  0.21834916068E+02  0.43400731161E+02  0.00000000000E+00 0.  1.
         11    1    3    3    0    0  0.16038136776E+00  0.23762837206E+00 -0.13098826640E+01  0.13408886162E+01  0.51100000000E-03 0.  1.
        -11    1    3    3    0    0 -0.34414473739E+02  0.27749645861E+01 -0.22667780359E+02  0.41302357050E+02  0.51100000000E-03 0. -1.
        -12    1    3    3    0    0 -0.26159774112E+01  0.38763735728E+01  0.21427469557E+01  0.51440231733E+01  0.00000000000E+00 0.  1.
</event>
<event>
 7    1  0.4592673E-010  0.4778727E+02  0.7816164E-02  0.1312668E+00
        -11   -1    0    0    0    0  0.00000000000E+00  0.00000000000E+00  0.45593999997E+02  0.45594000000E+02  0.51100000000E-03 0.  1.
         11   -1    0    0    0    0 -0.00000000000E+00 -0.00000000000E+00 -0.45593999997E+02  0.45594000000E+02  0.51100000000E-03 0. -1.
    9900012    2    1    2    0    0 -0.41205116532E+01 -0.35074793588E+01 -0.43062072560E+02  0.47787272807E+02  0.20000008035E+02 0.  0.
        -12    1    1    2    0    0  0.41205116532E+01  0.35074793588E+01  0.43062072560E+02  0.43400727193E+02  0.00000000000E+00 0.  1.
         11    1    3    3    0    0 -0.15051719308E+01 -0.78130891882E+01 -0.18091770859E+02  0.19764161461E+02  0.51100000000E-03 0. -1.
        -11    1    3    3    0    0  0.39741796392E+01  0.62600283536E+00 -0.37470788836E+01  0.54978708403E+01  0.51100000000E-03 0.  1.
        -12    1    3    3    0    0 -0.65895193616E+01  0.36796069940E+01 -0.21223222818E+02  0.22525240505E+02  0.00000000000E+00 0.  1.
</event>
<event>
 7    1  0.4592673E-010  0.4778726E+02  0.7816164E-02  0.1312668E+00
        -11   -1    0    0    0    0  0.00000000000E+00  0.00000000000E+00  0.45593999997E+02  0.45594000000E+02  0.51100000000E-03 0. -1.
         11   -1    0    0    0    0 -0.00000000000E+00 -0.00000000000E+00 -0.45593999997E+02  0.45594000000E+02  0.51100000000E-03 0.  1.
    9900012    2    1    2    0    0  0.22799115017E+02 -0.36640144662E+02 -0.46177957879E+01  0.47787264011E+02  0.19999967933E+02 0.  0.
        -12    1    1    2    0    0 -0.22799115017E+02  0.36640144662E+02  0.46177957879E+01  0.43400735989E+02  0.00000000000E+00 0.  1.
         11    1    3    3    0    0  0.81957649204E+01 -0.19700103658E+02 -0.11213546756E+02  0.24104113298E+02  0.51100000000E-03 0. -1.
        -11    1    3    3    0    0  0.64001179949E+01 -0.61406456397E+01  0.70567447507E+00  0.88975848379E+01  0.51100000000E-03 0.  1.
         12    1    3    3    0    0  0.82032321015E+01 -0.10799395365E+02  0.58900764934E+01  0.14785565875E+02  0.00000000000E+00 0. -1.
</event>
<event>
 7    1  0.4592673E-010  0.4778726E+02  0.7816164E-02  0.1312668E+00
        -11   -1    0    0    0    0  0.00000000000E+00  0.00000000000E+00  0.45593999997E+02  0.45594000000E+02  0.51100000000E-03 0.  1.
         11   -1    0    0    0    0 -0.00000000000E+00 -0.00000000000E+00 -0.45593999997E+02  0.45594000000E+02  0.51100000000E-03 0. -1.
    9900012    2    1    2    0    0 -0.25047041815E+02  0.99390280343E-01 -0.35443755744E+02  0.47787262641E+02  0.19999961684E+02 0.  0.
        -12    1    1    2    0    0  0.25047041815E+02 -0.99390280343E-01  0.35443755744E+02  0.43400737359E+02  0.00000000000E+00 0.  1.
         11    1    3    3    0    0  0.15593799952E+01  0.15331544683E+01 -0.13006163457E+01  0.25443725617E+01  0.51100000000E-03 0. -1.
        -11    1    3    3    0    0 -0.10621110750E+02 -0.62400903523E+01 -0.98737681831E+01  0.15787273975E+02  0.51100000000E-03 0.  1.
         12    1    3    3    0    0 -0.15985311060E+02  0.48063261644E+01 -0.24269371215E+02  0.29455616104E+02  0.00000000000E+00 0. -1.
</event>
<event>
 7    1  0.4592673E-010  0.4778726E+02  0.7816164E-02  0.1312668E+00
        -11   -1    0    0    0    0  0.00000000000E+00  0.00000000000E+00  0.45593999997E+02  0.45594000000E+02  0.51100000000E-03 0.  1.
         11   -1    0    0    0    0 -0.00000000000E+00 -0.00000000000E+00 -0.45593999997E+02  0.45594000000E+02  0.51100000000E-03 0. -1.
    9900012    2    1    2    0    0  0.20601055569E+02 -0.28863567803E+02 -0.25022286792E+02  0.47787264140E+02  0.19999968520E+02 0.  0.
        -12    1    1    2    0    0 -0.20601055569E+02  0.28863567803E+02  0.25022286792E+02  0.43400735860E+02  0.00000000000E+00 0.  1.
         11    1    3    3    0    0 -0.14171769642E+01 -0.85416553173E+00 -0.10490541593E+01  0.19592100943E+01  0.51100000000E-03 0. -1.
        -11    1    3    3    0    0  0.17526623180E+02 -0.14339847935E+02 -0.72739056614E+01  0.23784941932E+02  0.51100000000E-03 0.  1.
         12    1    3    3    0    0  0.44916093529E+01 -0.13669554336E+02 -0.16699326972E+02  0.22043112113E+02  0.00000000000E+00 0. -1.
</event>
<event>
 7    1  0.4592673E-010  0.4778727E+02  0.7816164E-02  0.1312668E+00
        -11   -1    0    0    0    0  0.00000000000E+00  0.00000000000E+00  0.45593999997E+02  0.45594000000E+02  0.51100000000E-03 0.  1.
         11   -1    0    0    0    0 -0.00000000000E+00 -0.00000000000E+00 -0.45593999997E+02  0.45594000000E+02  0.51100000000E-03 0. -1.
    9900012    2    1    2    0    0 -0.16038755900E+02 -0.69444254449E+01 -0.39726017150E+02  0.47787272193E+02  0.20000005236E+02 0.  0.
        -12    1    1    2    0    0  0.16038755900E+02  0.69444254449E+01  0.39726017150E+02  0.43400727807E+02  0.00000000000E+00 0.  1.
         11    1    3    3    0    0 -0.81370062622E+00  0.16102726455E+00 -0.50459691401E+01  0.51136917499E+01  0.51100000000E-03 0. -1.
        -11    1    3    3    0    0 -0.56533283199E+01 -0.75906441823E+01 -0.35613024434E+01  0.10112411955E+02  0.51100000000E-03 0.  1.
        -12    1    3    3    0    0 -0.95717269542E+01  0.48519147280E+00 -0.31118745567E+02  0.32561168488E+02  0.00000000000E+00 0.  1.
</event>
<event>
 7    1  0.4592673E-010  0.4778728E+02  0.7816164E-02  0.1312668E+00
        -11   -1    0    0    0    0  0.00000000000E+00  0.00000000000E+00  0.45593999997E+02  0.45594000000E+02  0.51100000000E-03 0. -1.
         11   -1    0    0    0    0 -0.00000000000E+00 -0.00000000000E+00 -0.45593999997E+02  0.45594000000E+02  0.51100000000E-03 0.  1.
    9900012    2    1    2    0    0  0.22027857366E+02 -0.49790148328E+01  0.37062188279E+02  0.47787275480E+02  0.20000020223E+02 0.  0.
        -12    1    1    2    0    0 -0.22027857366E+02  0.49790148328E+01 -0.37062188279E+02  0.43400724520E+02  0.00000000000E+00 0.  1.
         11    1    3    3    0    0  0.14611540332E+01 -0.38427519979E+01  0.57587510826E+01  0.70756574478E+01  0.51100000000E-03 0. -1.
        -11    1    3    3    0    0  0.14804438418E+02 -0.26817893127E+00  0.82852828886E+01  0.16967298831E+02  0.51100000000E-03 0.  1.
        -12    1    3    3    0    0  0.57622649154E+01 -0.86808390361E+00  0.23018154308E+02  0.23744319202E+02  0.00000000000E+00 0.  1.
</event>
<event>
 7    1  0.4592673E-010  0.4778727E+02  0.7816164E-02  0.1312668E+00
        -11   -1    0    0    0    0  0.00000000000E+00  0.00000000000E+00  0.45593999997E+02  0.45594000000E+02  0.51100000000E-03 0. -1.
         11   -1    0    0    0    0 -0.00000000000E+00 -0.00000000000E+00 -0.45593999997E+02  0.45594000000E+02  0.51100000000E-03 0.  1.
    9900012    2    1    2    0    0 -0.12505855453E+02 -0.39851478606E+02  0.11793515834E+02  0.47787265174E+02  0.19999973234E+02 0.  0.
        -12    1    1    2    0    0  0.12505855453E+02  0.39851478606E+02 -0.11793515834E+02  0.43400734826E+02  0.00000000000E+00 0.  1.
         11    1    3    3    0    0 -0.18638289680E+01 -0.10244579995E+02  0.95849395347E+01  0.14152609082E+02  0.51100000000E-03 0. -1.
        -11    1    3    3    0    0  0.25498218753E+01 -0.45666861487E+01  0.85472388842E+00  0.52996950066E+01  0.51100000000E-03 0.  1.
         12    1    3    3    0    0 -0.13191848360E+02 -0.25040212463E+02  0.13538524105E+01  0.28334961085E+02  0.00000000000E+00 0. -1.
</event>
<event>
 7    1  0.4592673E-010  0.4778726E+02  0.7816164E-02  0.1312668E+00
        -11   -1    0    0    0    0  0.00000000000E+00  0.00000000000E+00  0.45593999997E+02  0.45594000000E+02  0.51100000000E-03 0. -1.
         11   -1    0    0    0    0 -0.00000000000E+00 -0.00000000000E+00 -0.45593999997E+02  0.45594000000E+02  0.51100000000E-03 0.  1.
    9900012    2    1    2    0    0 -0.32198769609E+02  0.27297936600E+02  0.10083954665E+02  0.47787259815E+02  0.19999948800E+02 0.  0.
        -12    1    1    2    0    0  0.32198769609E+02 -0.27297936600E+02 -0.10083954665E+02  0.43400740185E+02  0.00000000000E+00 0.  1.
         11    1    3    3    0    0 -0.47326095712E+01  0.34734785035E+01  0.57608488597E+01  0.82249635935E+01  0.51100000000E-03 0. -1.
        -11    1    3    3    0    0 -0.25651660260E+01 -0.10772762705E+01 -0.24427631835E+01  0.37023901923E+01  0.51100000000E-03 0.  1.
         12    1    3    3    0    0 -0.24900994011E+02  0.24901734367E+02  0.67658689885E+01  0.35859906029E+02  0.00000000000E+00 0. -1.
</event>
<event>
 7    1  0.4592673E-010  0.4778730E+02  0.7816164E-02  0.1312668E+00
        -11   -1    0    0    0    0  0.00000000000E+00  0.00000000000E+00  0.45593999997E+02  0.45594000000E+02  0.51100000000E-03 0. -1.
         11   -1    0    0    0    0 -0.00000000000E+00 -0.00000000000E+00 -0.45593999997E+02  0.45594000000E+02  0.51100000000E-03 0.  1.
    9900012    2    1    2    0    0 -0.27052222576E+02  0.27427682580E+02  0.19988007716E+02  0.47787297581E+02  0.20000120990E+02 0.  0.
        -12    1    1    2    0    0  0.27052222576E+02 -0.27427682580E+02 -0.19988007716E+02  0.43400702419E+02  0.00000000000E+00 0.  1.
         11    1    3    3    0    0 -0.74016140695E+00 -0.80545145362E+00 -0.14651364283E+01  0.18284463260E+01  0.51100000000E-03 0. -1.
        -11    1    3    3    0    0  0.99027056711E+00  0.31785105617E+01  0.43624366777E+00  0.33576590038E+01  0.51100000000E-03 0.  1.
         12    1    3    3    0    0 -0.27302331736E+02  0.25054623472E+02  0.21016900476E+02  0.42601192251E+02  0.00000000000E+00 0. -1.
</event>
<event>
 7    1  0.4592673E-010  0.4778727E+02  0.7816164E-02  0.1312668E+00
        -11   -1    0    0    0    0  0.00000000000E+00  0.00000000000E+00  0.45593999997E+02  0.45594000000E+02  0.51100000000E-03 0.  1.
         11   -1    0    0    0    0 -0.00000000000E+00 -0.00000000000E+00 -0.45593999997E+02  0.45594000000E+02  0.51100000000E-03 0. -1.
    9900012    2    1    2    0    0 -0.32817879068E+02  0.26811638180E+02 -0.93672856804E+01  0.47787272248E+02  0.20000005486E+02 0.  0.
        -12    1    1    2    0    0  0.32817879068E+02 -0.26811638180E+02  0.93672856804E+01  0.43400727752E+02  0.00000000000E+00 0.  1.
         11    1    3    3    0    0 -0.73463549888E+01  0.63698441095E+01 -0.34584381806E+01  0.10320108551E+02  0.51100000000E-03 0. -1.
        -11    1    3    3    0    0 -0.75860752008E+01 -0.16900578763E+01 -0.44914293088E+01  0.89765121331E+01  0.51100000000E-03 0.  1.
        -12    1    3    3    0    0 -0.17885448878E+02  0.22131851947E+02 -0.14174181910E+01  0.28490651563E+02  0.00000000000E+00 0.  1.
</event>
<event>
 7    1  0.4592673E-010  0.4778727E+02  0.7816164E-02  0.1312668E+00
        -11   -1    0    0    0    0  0.00000000000E+00  0.00000000000E+00  0.45593999997E+02  0.45594000000E+02  0.51100000000E-03 0. -1.
         11   -1    0    0    0    0 -0.00000000000E+00 -0.00000000000E+00 -0.45593999997E+02  0.45594000000E+02  0.51100000000E-03 0.  1.
    9900012    2    1    2    0    0  0.31085939045E+02  0.30277240758E+02 -0.75916373694E+00  0.47787271391E+02  0.20000001579E+02 0.  0.
        -12    1    1    2    0    0 -0.31085939045E+02 -0.30277240758E+02  0.75916373694E+00  0.43400728609E+02  0.00000000000E+00 0.  1.
         11    1    3    3    0    0  0.29326243838E+01  0.33161220510E+01 -0.49159072467E+01  0.66153681343E+01  0.51100000000E-03 0. -1.
        -11    1    3    3    0    0  0.14628266559E+01 -0.64761849523E+00 -0.16916173817E+01  0.23282699946E+01  0.51100000000E-03 0.  1.
         12    1    3    3    0    0  0.26690488005E+02  0.27608737202E+02  0.58483608915E+01  0.38843633262E+02  0.00000000000E+00 0. -1.
</event>
<event>
 7    1  0.4592673E-010  0.4778727E+02  0.7816164E-02  0.1312668E+00
        -11   -1    0    0    0    0  0.00000000000E+00  0.00000000000E+00  0.45593999997E+02  0.45594000000E+02  0.51100000000E-03 0.  1.
         11   -1    0    0    0    0 -0.00000000000E+00 -0.00000000000E+00 -0.45593999997E+02  0.45594000000E+02  0.51100000000E-03 0. -1.
    9900012    2    1    2    0    0 -0.40653334971E+02  0.34300837650E+01 -0.14804184224E+02  0.47787274321E+02  0.20000014939E+02 0.  0.
        -12    1    1    2    0    0  0.40653334971E+02 -0.34300837650E+01  0.14804184224E+02  0.43400725679E+02  0.00000000000E+00 0.  1.
         11    1    3    3    0    0 -0.28082909075E+02  0.19221249865E+01 -0.65612534631E+01  0.28903190029E+02  0.51100000000E-03 0. -1.
        -11    1    3    3    0    0 -0.13153227439E+02  0.25892325648E+01 -0.10011034905E+02  0.16731178603E+02  0.51100000000E-03 0.  1.
         12    1    3    3    0    0  0.58280154265E+00 -0.10812737863E+01  0.17681041442E+01  0.21529056885E+01  0.00000000000E+00 0. -1.
</event>
<event>
 7    1  0.4592673E-010  0.4778728E+02  0.7816164E-02  0.1312668E+00
        -11   -1    0    0    0    0  0.00000000000E+00  0.00000000000E+00  0.45593999997E+02  0.45594000000E+02  0.51100000000E-03 0.  1.
         11   -1    0    0    0    0 -0.00000000000E+00 -0.00000000000E+00 -0.45593999997E+02  0.45594000000E+02  0.51100000000E-03 0. -1.
    9900012    2    1    2    0    0  0.32379455226E+02  0.17722476799E+01 -0.28845325978E+02  0.47787276350E+02  0.20000024188E+02 0.  0.
        -12    1    1    2    0    0 -0.32379455226E+02 -0.17722476799E+01  0.28845325978E+02  0.43400723650E+02  0.00000000000E+00 0.  1.
         11    1    3    3    0    0  0.12638457281E+02 -0.13539300313E+00 -0.12421317105E+02  0.17721118830E+02  0.51100000000E-03 0. -1.
        -11    1    3    3    0    0  0.12309429889E+02 -0.58648802510E+01 -0.12844804257E+02  0.18732535365E+02  0.51100000000E-03 0.  1.
        -12    1    3    3    0    0  0.74315680571E+01  0.77725209340E+01 -0.35792046157E+01  0.11333622154E+02  0.00000000000E+00 0.  1.
</event>
<event>
 7    1  0.4592673E-010  0.4778727E+02  0.7816164E-02  0.1312668E+00
        -11   -1    0    0    0    0  0.00000000000E+00  0.00000000000E+00  0.45593999997E+02  0.45594000000E+02  0.51100000000E-03 0. -1.
         11   -1    0    0    0    0 -0.00000000000E+00 -0.00000000000E+00 -0.45593999997E+02  0.45594000000E+02  0.51100000000E-03 0.  1.
    9900012    2    1    2    0    0 -0.41683933959E+02 -0.11472745626E+02 -0.38011743382E+01  0.47787272254E+02  0.20000005515E+02 0.  0.
        -12    1    1    2    0    0  0.41683933959E+02  0.11472745626E+02  0.38011743382E+01  0.43400727746E+02  0.00000000000E+00 0.  1.
         11    1    3    3    0    0 -0.33663258818E+02 -0.86383501411E+01 -0.34778657243E+01  0.34927519775E+02  0.51100000000E-03 0. -1.
        -11    1    3    3    0    0 -0.77635986295E+01  0.16215741305E+01  0.14397886661E+01  0.80607665891E+01  0.51100000000E-03 0.  1.
        -12    1    3    3    0    0 -0.25707651186E+00 -0.44559696156E+01 -0.17630972800E+01  0.47989858894E+01  0.00000000000E+00 0.  1.
</event>
<event>
 7    1  0.6599382E-010  0.4778727E+02  0.7816164E-02  0.1312668E+00
        -11   -1    0    0    0    0  0.00000000000E+00  0.00000000000E+00  0.45593999997E+02  0.45594000000E+02  0.51100000000E-03 0. -1.
         11   -1    0    0    0    0 -0.00000000000E+00 -0.00000000000E+00 -0.45593999997E+02  0.45594000000E+02  0.51100000000E-03 0.  1.
    9900012    2    1    2    0    0 -0.35219964056E+02 -0.47102935977E+00  0.25356567730E+02  0.47787271161E+02  0.20000000531E+02 0.  0.
        -12    1    1    2    0    0  0.35219964056E+02  0.47102935977E+00 -0.25356567730E+02  0.43400728839E+02  0.00000000000E+00 0.  1.
         11    1    3    3    0    0 -0.14418113475E+02  0.91750732190E+00  0.17386747729E+02  0.22605813693E+02  0.51100000000E-03 0. -1.
        -11    1    3    3    0    0  0.61044460431E+00  0.20567694899E+01  0.24635258639E+00  0.21595446760E+01  0.51100000000E-03 0.  1.
        -12    1    3    3    0    0 -0.21412295185E+02 -0.34453061716E+01  0.77234674145E+01  0.23021912792E+02  0.00000000000E+00 0.  1.
</event>
<event>
 7    1  0.4592673E-010  0.4778728E+02  0.7816164E-02  0.1312668E+00
        -11   -1    0    0    0    0  0.00000000000E+00  0.00000000000E+00  0.45593999997E+02  0.45594000000E+02  0.51100000000E-03 0.  1.
         11   -1    0    0    0    0 -0.00000000000E+00 -0.00000000000E+00 -0.45593999997E+02  0.45594000000E+02  0.51100000000E-03 0. -1.
    9900012    2    1    2    0    0  0.33402492517E+01 -0.37490991412E+02 -0.21607662999E+02  0.47787276476E+02  0.20000024764E+02 0.  0.
        -12    1    1    2    0    0 -0.33402492517E+01  0.37490991412E+02  0.21607662999E+02  0.43400723524E+02  0.00000000000E+00 0.  1.
         11    1    3    3    0    0  0.97487705299E+00  0.36620923886E-02  0.27283688732E+00  0.10123432756E+01  0.51100000000E-03 0. -1.
        -11    1    3    3    0    0 -0.18137438975E+01  0.74657528765E+00  0.79944929103E+00  0.21180559520E+01  0.51100000000E-03 0.  1.
         12    1    3    3    0    0  0.41791160962E+01 -0.38241228792E+02 -0.22679949178E+02  0.44656877248E+02  0.00000000000E+00 0. -1.
</event>
<event>
 7    1  0.4592673E-010  0.4778727E+02  0.7816164E-02  0.1312668E+00
        -11   -1    0    0    0    0  0.00000000000E+00  0.00000000000E+00  0.45593999997E+02  0.45594000000E+02  0.51100000000E-03 0. -1.
         11   -1    0    0    0    0 -0.00000000000E+00 -0.00000000000E+00 -0.45593999997E+02  0.45594000000E+02  0.51100000000E-03 0.  1.
    9900012    2    1    2    0    0 -0.22835345222E+02 -0.23377092229E+02  0.28560149534E+02  0.47787267588E+02  0.19999984241E+02 0.  0.
        -12    1    1    2    0    0  0.22835345222E+02  0.23377092229E+02 -0.28560149534E+02  0.43400732412E+02  0.00000000000E+00 0.  1.
         11    1    3    3    0    0 -0.40741928531E+01 -0.71449419973E+01  0.87307911805E+01  0.11994830488E+02  0.51100000000E-03 0. -1.
        -11    1    3    3    0    0 -0.36144129917E+01  0.27668765881E+01  0.20000680112E+00  0.45562693412E+01  0.51100000000E-03 0.  1.
        -12    1    3    3    0    0 -0.15146739378E+02 -0.18999026819E+02  0.19629351553E+02  0.31236167758E+02  0.00000000000E+00 0.  1.
</event>
<event>
 7    1  0.4592673E-010  0.4778727E+02  0.7816164E-02  0.1312668E+00
        -11   -1    0    0    0    0  0.00000000000E+00  0.00000000000E+00  0.45593999997E+02  0.45594000000E+02  0.51100000000E-03 0.  1.
         11   -1    0    0    0    0 -0.00000000000E+00 -0.00000000000E+00 -0.45593999997E+02  0.45594000000E+02  0.51100000000E-03 0. -1.
    9900012    2    1    2    0    0 -0.16380511884E+02  0.15936328843E+02 -0.36896282483E+02  0.47787269503E+02  0.19999992973E+02 0.  0.
        -12    1    1    2    0    0  0.16380511884E+02 -0.15936328843E+02  0.36896282483E+02  0.43400730497E+02  0.00000000000E+00 0.  1.
         11    1    3    3    0    0 -0.34965455724E+00  0.52302407167E+01 -0.14414819335E+02  0.15338340620E+02  0.51100000000E-03 0. -1.
        -11    1    3    3    0    0 -0.98049968480E+01  0.11726301812E+02 -0.20990528297E+02  0.25966254944E+02  0.51100000000E-03 0.  1.
        -12    1    3    3    0    0 -0.62258604790E+01 -0.10202136857E+01 -0.14909348516E+01  0.64826739390E+01  0.00000000000E+00 0.  1.
</event>
<event>
 7    1  0.4592673E-010  0.4778727E+02  0.7816164E-02  0.1312668E+00
        -11   -1    0    0    0    0  0.00000000000E+00  0.00000000000E+00  0.45593999997E+02  0.45594000000E+02  0.51100000000E-03 0.  1.
         11   -1    0    0    0    0 -0.00000000000E+00 -0.00000000000E+00 -0.45593999997E+02  0.45594000000E+02  0.51100000000E-03 0. -1.
    9900012    2    1    2    0    0 -0.38345500700E+02  0.13189432371E+02 -0.15468830203E+02  0.47787271226E+02  0.20000000830E+02 0.  0.
        -12    1    1    2    0    0  0.38345500700E+02 -0.13189432371E+02  0.15468830203E+02  0.43400728774E+02  0.00000000000E+00 0.  1.
         11    1    3    3    0    0 -0.90044255857E+01  0.10043329563E+02 -0.82461137481E+01  0.15809697690E+02  0.51100000000E-03 0. -1.
        -11    1    3    3    0    0  0.51458309816E+00  0.22319802131E+00 -0.12782133522E+01  0.13958663104E+01  0.51100000000E-03 0.  1.
         12    1    3    3    0    0 -0.29855658213E+02  0.29229047863E+01 -0.59445031026E+01  0.30581707226E+02  0.00000000000E+00 0. -1.
</event>
<event>
 7    1  0.4592673E-010  0.4778722E+02  0.7816164E-02  0.1312668E+00
        -11   -1    0    0    0    0  0.00000000000E+00  0.00000000000E+00  0.45593999997E+02  0.45594000000E+02  0.51100000000E-03 0.  1.
         11   -1    0    0    0    0 -0.00000000000E+00 -0.00000000000E+00 -0.45593999997E+02  0.45594000000E+02  0.51100000000E-03 0. -1.
    9900012    2    1    2    0    0  0.80885516549E+01 -0.14139213102E+02 -0.40227918222E+02  0.47787223285E+02  0.19999782243E+02 0.  0.
        -12    1    1    2    0    0 -0.80885516549E+01  0.14139213102E+02  0.40227918222E+02  0.43400776715E+02  0.00000000000E+00 0.  1.
         11    1    3    3    0    0  0.40420876623E+01  0.26909306014E+00 -0.14588789887E+02  0.15140795037E+02  0.51100000000E-03 0. -1.
        -11    1    3    3    0    0  0.11661332223E+00  0.17421421786E+01 -0.88519088520E+01  0.90224690979E+01  0.51100000000E-03 0.  1.
         12    1    3    3    0    0  0.39298506703E+01 -0.16150448341E+02 -0.16787219483E+02  0.23623959149E+02  0.00000000000E+00 0. -1.
</event>
<event>
 7    1  0.4592673E-010  0.4778726E+02  0.7816164E-02  0.1312668E+00
        -11   -1    0    0    0    0  0.00000000000E+00  0.00000000000E+00  0.45593999997E+02  0.45594000000E+02  0.51100000000E-03 0.  1.
         11   -1    0    0    0    0 -0.00000000000E+00 -0.00000000000E+00 -0.45593999997E+02  0.45594000000E+02  0.51100000000E-03 0. -1.
    9900012    2    1    2    0    0 -0.24806836157E+02  0.33582872114E+02 -0.11850549228E+02  0.47787263410E+02  0.19999965190E+02 0.  0.
        -12    1    1    2    0    0  0.24806836157E+02 -0.33582872114E+02  0.11850549228E+02  0.43400736590E+02  0.00000000000E+00 0.  1.
         11    1    3    3    0    0 -0.14129310853E+02  0.30498260042E+02 -0.11106402355E+02  0.35399625200E+02  0.51100000000E-03 0. -1.
        -11    1    3    3    0    0 -0.63522554906E+01  0.45206556267E+01 -0.72384728058E+00  0.78301617008E+01  0.51100000000E-03 0.  1.
         12    1    3    3    0    0 -0.43252698138E+01 -0.14360435548E+01 -0.20299592887E-01  0.45574765087E+01  0.00000000000E+00 0. -1.
</event>
<event>
 7    1  0.4592673E-010  0.4778725E+02  0.7816164E-02  0.1312668E+00
        -11   -1    0    0    0    0  0.00000000000E+00  0.00000000000E+00  0.45593999997E+02  0.45594000000E+02  0.51100000000E-03 0.  1.
         11   -1    0    0    0    0 -0.00000000000E+00 -0.00000000000E+00 -0.45593999997E+02  0.45594000000E+02  0.51100000000E-03 0. -1.
    9900012    2    1    2    0    0 -0.23951045410E+02  0.34564968125E+01 -0.36028118999E+02  0.47787247645E+02  0.19999893310E+02 0.  0.
        -12    1    1    2    0    0  0.23951045410E+02 -0.34564968125E+01  0.36028118999E+02  0.43400752355E+02  0.00000000000E+00 0.  1.
         11    1    3    3    0    0 -0.18303142854E+02  0.43052103405E+01 -0.22912711985E+02  0.29640044621E+02  0.51100000000E-03 0. -1.
        -11    1    3    3    0    0 -0.55895681293E+01 -0.55113249825E+01 -0.76181773337E+01  0.10938674558E+02  0.51100000000E-03 0.  1.
        -12    1    3    3    0    0 -0.58334427207E-01  0.46626114545E+01 -0.54972296800E+01  0.72085284654E+01  0.00000000000E+00 0.  1.
</event>
<event>
 7    1  0.4592673E-010  0.4778727E+02  0.7816164E-02  0.1312668E+00
        -11   -1    0    0    0    0  0.00000000000E+00  0.00000000000E+00  0.45593999997E+02  0.45594000000E+02  0.51100000000E-03 0.  1.
         11   -1    0    0    0    0 -0.00000000000E+00 -0.00000000000E+00 -0.45593999997E+02  0.45594000000E+02  0.51100000000E-03 0. -1.
    9900012    2    1    2    0    0 -0.15392309966E+02 -0.10227066967E+02 -0.39269669795E+02  0.47787273386E+02  0.20000010675E+02 0.  0.
        -12    1    1    2    0    0  0.15392309966E+02  0.10227066967E+02  0.39269669795E+02  0.43400726614E+02  0.00000000000E+00 0.  1.
         11    1    3    3    0    0 -0.71516497614E+01 -0.21546476501E+01 -0.21741805372E+02  0.22989012634E+02  0.51100000000E-03 0.  1.
        -11    1    3    3    0    0  0.21387115855E+01  0.16869621034E+01 -0.55608772200E+01  0.61921954185E+01  0.51100000000E-03 0. -1.
        -12    1    3    3    0    0 -0.10379371790E+02 -0.97593814202E+01 -0.11966987203E+02  0.18606065333E+02  0.00000000000E+00 0.  1.
</event>
<event>
 7    1  0.4592673E-010  0.4778727E+02  0.7816164E-02  0.1312668E+00
        -11   -1    0    0    0    0  0.00000000000E+00  0.00000000000E+00  0.45593999997E+02  0.45594000000E+02  0.51100000000E-03 0.  1.
         11   -1    0    0    0    0 -0.00000000000E+00 -0.00000000000E+00 -0.45593999997E+02  0.45594000000E+02  0.51100000000E-03 0. -1.
    9900012    2    1    2    0    0 -0.99458863750E+01  0.29778435716E+02 -0.29965769556E+02  0.47787271497E+02  0.20000002064E+02 0.  0.
        -12    1    1    2    0    0  0.99458863750E+01 -0.29778435716E+02  0.29965769556E+02  0.43400728503E+02  0.00000000000E+00 0.  1.
         11    1    3    3    0    0 -0.78538715182E+01  0.11013211018E+02 -0.18015836563E+02  0.22528747903E+02  0.51100000000E-03 0. -1.
        -11    1    3    3    0    0 -0.43241466098E+01  0.15638282540E+02 -0.13508616181E+02  0.21112480577E+02  0.51100000000E-03 0.  1.
        -12    1    3    3    0    0  0.22321317530E+01  0.31269421587E+01  0.15586831880E+01  0.41460430180E+01  0.00000000000E+00 0.  1.
</event>
<event>
 7    1  0.4592673E-010  0.4778727E+02  0.7816164E-02  0.1312668E+00
        -11   -1    0    0    0    0  0.00000000000E+00  0.00000000000E+00  0.45593999997E+02  0.45594000000E+02  0.51100000000E-03 0. -1.
         11   -1    0    0    0    0 -0.00000000000E+00 -0.00000000000E+00 -0.45593999997E+02  0.45594000000E+02  0.51100000000E-03 0.  1.
    9900012    2    1    2    0    0 -0.20997774022E+02  0.32671528849E+02  0.19372360569E+02  0.47787266536E+02  0.19999979444E+02 0.  0.
        -12    1    1    2    0    0  0.20997774022E+02 -0.32671528849E+02 -0.19372360569E+02  0.43400733464E+02  0.00000000000E+00 0.  1.
         11    1    3    3    0    0 -0.10266145681E+02  0.22605554500E+02  0.13345490262E+02  0.28186999698E+02  0.51100000000E-03 0. -1.
        -11    1    3    3    0    0 -0.11148379697E+02  0.11815701021E+02  0.37029748091E+01  0.16661608062E+02  0.51100000000E-03 0.  1.
        -12    1    3    3    0    0  0.41675135690E+00 -0.17497266716E+01  0.23238954979E+01  0.29386587764E+01  0.00000000000E+00 0.  1.
</event>
<event>
 7    1  0.4592673E-010  0.4778727E+02  0.7816164E-02  0.1312668E+00
        -11   -1    0    0    0    0  0.00000000000E+00  0.00000000000E+00  0.45593999997E+02  0.45594000000E+02  0.51100000000E-03 0.  1.
         11   -1    0    0    0    0 -0.00000000000E+00 -0.00000000000E+00 -0.45593999997E+02  0.45594000000E+02  0.51100000000E-03 0. -1.
    9900012    2    1    2    0    0 -0.17350823553E+02 -0.23520887452E+02 -0.32083330655E+02  0.47787270394E+02  0.19999997032E+02 0.  0.
        -12    1    1    2    0    0  0.17350823553E+02  0.23520887452E+02  0.32083330655E+02  0.43400729606E+02  0.00000000000E+00 0.  1.
         11    1    3    3    0    0 -0.72192984184E+01 -0.44297274646E+01 -0.13774423571E+02  0.16170204081E+02  0.51100000000E-03 0. -1.
        -11    1    3    3    0    0 -0.78114011096E+01 -0.29782218160E+01 -0.20465217717E+01  0.86067441058E+01  0.51100000000E-03 0.  1.
         12    1    3    3    0    0 -0.23201240246E+01 -0.16112938171E+02 -0.16262385312E+02  0.23010322206E+02  0.00000000000E+00 0. -1.
</event>
<event>
 7    1  0.4592673E-010  0.4778727E+02  0.7816164E-02  0.1312668E+00
        -11   -1    0    0    0    0  0.00000000000E+00  0.00000000000E+00  0.45593999997E+02  0.45594000000E+02  0.51100000000E-03 0.  1.
         11   -1    0    0    0    0 -0.00000000000E+00 -0.00000000000E+00 -0.45593999997E+02  0.45594000000E+02  0.51100000000E-03 0. -1.
    9900012    2    1    2    0    0  0.35918478810E+02  0.27159166450E+01 -0.24209705320E+02  0.47787272415E+02  0.20000006250E+02 0.  0.
        -12    1    1    2    0    0 -0.35918478810E+02 -0.27159166450E+01  0.24209705320E+02  0.43400727585E+02  0.00000000000E+00 0.  1.
         11    1    3    3    0    0  0.11991308138E+01  0.76888723207E+00 -0.32598241765E+01  0.35574648567E+01  0.51100000000E-03 0.  1.
        -11    1    3    3    0    0  0.27516845629E+02 -0.56430139496E+01 -0.12345132178E+02  0.30682612154E+02  0.51100000000E-03 0. -1.
        -12    1    3    3    0    0  0.72025023663E+01  0.75900433625E+01 -0.86047489649E+01  0.13547195405E+02  0.00000000000E+00 0.  1.
</event>
<event>
 7    1  0.4592673E-010  0.4778727E+02  0.7816164E-02  0.1312668E+00
        -11   -1    0    0    0    0  0.00000000000E+00  0.00000000000E+00  0.45593999997E+02  0.45594000000E+02  0.51100000000E-03 0.  1.
         11   -1    0    0    0    0 -0.00000000000E+00 -0.00000000000E+00 -0.45593999997E+02  0.45594000000E+02  0.51100000000E-03 0. -1.
    9900012    2    1    2    0    0 -0.10711494460E+02  0.61510398330E+01 -0.41605914957E+02  0.47787267702E+02  0.19999984762E+02 0.  0.
        -12    1    1    2    0    0  0.10711494460E+02 -0.61510398330E+01  0.41605914957E+02  0.43400732298E+02  0.00000000000E+00 0.  1.
         11    1    3    3    0    0 -0.85756634222E+00 -0.94781207873E+00  0.92447153237E+00  0.15774712813E+01  0.51100000000E-03 0. -1.
        -11    1    3    3    0    0 -0.38873657919E+01  0.66560859257E+01 -0.77936233884E+01  0.10961553650E+02  0.51100000000E-03 0.  1.
         12    1    3    3    0    0 -0.59665623255E+01  0.44276598598E+00 -0.34736763101E+02  0.35248242771E+02  0.00000000000E+00 0. -1.
</event>
<event>
 7    1  0.4592673E-010  0.4778725E+02  0.7816164E-02  0.1312668E+00
        -11   -1    0    0    0    0  0.00000000000E+00  0.00000000000E+00  0.45593999997E+02  0.45594000000E+02  0.51100000000E-03 0.  1.
         11   -1    0    0    0    0 -0.00000000000E+00 -0.00000000000E+00 -0.45593999997E+02  0.45594000000E+02  0.51100000000E-03 0. -1.
    9900012    2    1    2    0    0  0.20257779054E+02  0.16405652778E+02 -0.34700168592E+02  0.47787253974E+02  0.19999922168E+02 0.  0.
        -12    1    1    2    0    0 -0.20257779054E+02 -0.16405652778E+02  0.34700168592E+02  0.43400746026E+02  0.00000000000E+00 0.  1.
         11    1    3    3    0    0  0.13731239685E+02  0.19871833721E+02 -0.27080878577E+02  0.36287886456E+02  0.51100000000E-03 0. -1.
        -11    1    3    3    0    0  0.70339480903E+00 -0.11456271214E+01 -0.40907878735E+01  0.43060157275E+01  0.51100000000E-03 0.  1.
         12    1    3    3    0    0  0.58231445599E+01 -0.23205538218E+01 -0.35285021424E+01  0.71933517900E+01  0.00000000000E+00 0. -1.
</event>
<event>
 7    1  0.4592673E-010  0.4778727E+02  0.7816164E-02  0.1312668E+00
        -11   -1    0    0    0    0  0.00000000000E+00  0.00000000000E+00  0.45593999997E+02  0.45594000000E+02  0.51100000000E-03 0. -1.
         11   -1    0    0    0    0 -0.00000000000E+00 -0.00000000000E+00 -0.45593999997E+02  0.45594000000E+02  0.51100000000E-03 0.  1.
    9900012    2    1    2    0    0  0.75405646758E+01  0.30003306628E+02  0.30439529780E+02  0.47787268469E+02  0.19999988256E+02 0.  0.
        -12    1    1    2    0    0 -0.75405646758E+01 -0.30003306628E+02 -0.30439529780E+02  0.43400731531E+02  0.00000000000E+00 0.  1.
         11    1    3    3    0    0 -0.21851944716E+01  0.41738969939E+01  0.80887625011E+01  0.93607996483E+01  0.51100000000E-03 0. -1.
        -11    1    3    3    0    0 -0.28214153296E+01  0.12844452099E+02  0.83480530101E+01  0.15576595376E+02  0.51100000000E-03 0.  1.
         12    1    3    3    0    0  0.12547174477E+02  0.12984957534E+02  0.14002714269E+02  0.22849873444E+02  0.00000000000E+00 0. -1.
</event>
<event>
 7    1  0.4592673E-010  0.4778727E+02  0.7816164E-02  0.1312668E+00
        -11   -1    0    0    0    0  0.00000000000E+00  0.00000000000E+00  0.45593999997E+02  0.45594000000E+02  0.51100000000E-03 0.  1.
         11   -1    0    0    0    0 -0.00000000000E+00 -0.00000000000E+00 -0.45593999997E+02  0.45594000000E+02  0.51100000000E-03 0. -1.
    9900012    2    1    2    0    0 -0.15294832404E+02 -0.18433915145E+02 -0.36192289354E+02  0.47787274954E+02  0.20000017824E+02 0.  0.
        -12    1    1    2    0    0  0.15294832404E+02  0.18433915145E+02  0.36192289354E+02  0.43400725046E+02  0.00000000000E+00 0.  1.
         11    1    3    3    0    0 -0.47100369543E+00 -0.30975656213E+01 -0.86081001666E+01  0.91605756368E+01  0.51100000000E-03 0. -1.
        -11    1    3    3    0    0 -0.10753971971E+01 -0.28977514355E+01  0.20226569634E+01  0.36938575997E+01  0.51100000000E-03 0.  1.
         12    1    3    3    0    0 -0.13748431511E+02 -0.12438598088E+02 -0.29606846151E+02  0.34932841717E+02  0.00000000000E+00 0. -1.
</event>
<event>
 7    1  0.4592673E-010  0.4778727E+02  0.7816164E-02  0.1312668E+00
        -11   -1    0    0    0    0  0.00000000000E+00  0.00000000000E+00  0.45593999997E+02  0.45594000000E+02  0.51100000000E-03 0. -1.
         11   -1    0    0    0    0 -0.00000000000E+00 -0.00000000000E+00 -0.45593999997E+02  0.45594000000E+02  0.51100000000E-03 0.  1.
    9900012    2    1    2    0    0  0.16029678315E+02  0.36649101237E+02  0.16837944663E+02  0.47787267415E+02  0.19999983454E+02 0.  0.
        -12    1    1    2    0    0 -0.16029678315E+02 -0.36649101237E+02 -0.16837944663E+02  0.43400732585E+02  0.00000000000E+00 0.  1.
         11    1    3    3    0    0  0.22847746808E+01  0.26878102992E+02  0.13329637035E+02  0.30088732768E+02  0.51100000000E-03 0. -1.
        -11    1    3    3    0    0  0.88639777231E+00  0.11018639691E+01 -0.77149934068E+00  0.16109055562E+01  0.51100000000E-03 0.  1.
        -12    1    3    3    0    0  0.12858505862E+02  0.86691342758E+01  0.42798069687E+01  0.16087629092E+02  0.00000000000E+00 0.  1.
</event>
<event>
 7    1  0.4592673E-010  0.4778727E+02  0.7816164E-02  0.1312668E+00
        -11   -1    0    0    0    0  0.00000000000E+00  0.00000000000E+00  0.45593999997E+02  0.45594000000E+02  0.51100000000E-03 0.  1.
         11   -1    0    0    0    0 -0.00000000000E+00 -0.00000000000E+00 -0.45593999997E+02  0.45594000000E+02  0.51100000000E-03 0. -1.
    9900012    2    1    2    0    0 -0.35313544731E+02 -0.34305376437E+00 -0.25228139025E+02  0.47787272747E+02  0.20000007764E+02 0.  0.
        -12    1    1    2    0    0  0.35313544731E+02  0.34305376437E+00  0.25228139025E+02  0.43400727253E+02  0.00000000000E+00 0.  1.
         11    1    3    3    0    0 -0.56747627549E+01  0.79804722514E+00 -0.12530942555E+01  0.58660086236E+01  0.51100000000E-03 0. -1.
        -11    1    3    3    0    0  0.91363331058E+00  0.33566039593E+01 -0.29574078328E+01  0.45659366308E+01  0.51100000000E-03 0.  1.
         12    1    3    3    0    0 -0.30552415287E+02 -0.44977049488E+01 -0.21017636937E+02  0.37355327493E+02  0.00000000000E+00 0. -1.
</event>
<event>
 7    1  0.4592673E-010  0.4778727E+02  0.7816164E-02  0.1312668E+00
        -11   -1    0    0    0    0  0.00000000000E+00  0.00000000000E+00  0.45593999997E+02  0.45594000000E+02  0.51100000000E-03 0.  1.
         11   -1    0    0    0    0 -0.00000000000E+00 -0.00000000000E+00 -0.45593999997E+02  0.45594000000E+02  0.51100000000E-03 0. -1.
    9900012    2    1    2    0    0 -0.23127159019E+02 -0.22024529556E+02 -0.29388401084E+02  0.47787268385E+02  0.19999987875E+02 0.  0.
        -12    1    1    2    0    0  0.23127159019E+02  0.22024529556E+02  0.29388401084E+02  0.43400731615E+02  0.00000000000E+00 0.  1.
         11    1    3    3    0    0  0.29044328486E+00 -0.37672482347E+00 -0.55976015416E+01  0.56177773340E+01  0.51100000000E-03 0. -1.
        -11    1    3    3    0    0 -0.17901295588E+01 -0.88450487952E+01 -0.28729793395E+01  0.94706632594E+01  0.51100000000E-03 0.  1.
         12    1    3    3    0    0 -0.21627472745E+02 -0.12802755937E+02 -0.20917820202E+02  0.32698827792E+02  0.00000000000E+00 0. -1.
</event>
<event>
 7    1  0.4592673E-010  0.4778727E+02  0.7816164E-02  0.1312668E+00
        -11   -1    0    0    0    0  0.00000000000E+00  0.00000000000E+00  0.45593999997E+02  0.45594000000E+02  0.51100000000E-03 0. -1.
         11   -1    0    0    0    0 -0.00000000000E+00 -0.00000000000E+00 -0.45593999997E+02  0.45594000000E+02  0.51100000000E-03 0.  1.
    9900012    2    1    2    0    0  0.10727724293E+02  0.42053093815E+02  0.27634472043E+00  0.47787272652E+02  0.20000007328E+02 0.  0.
        -12    1    1    2    0    0 -0.10727724293E+02 -0.42053093815E+02 -0.27634472043E+00  0.43400727348E+02  0.00000000000E+00 0.  1.
         11    1    3    3    0    0  0.51409883507E+01  0.14757057613E+02  0.73914095177E+00  0.15644386860E+02  0.51100000000E-03 0. -1.
        -11    1    3    3    0    0 -0.40335111763E+01  0.81904196520E+01  0.45078475860E+01  0.10181987851E+02  0.51100000000E-03 0.  1.
        -12    1    3    3    0    0  0.96202471184E+01  0.19105616551E+02 -0.49706438173E+01  0.21960897941E+02  0.00000000000E+00 0.  1.
</event>
<event>
 7    1  0.4592673E-010  0.4778727E+02  0.7816164E-02  0.1312668E+00
        -11   -1    0    0    0    0  0.00000000000E+00  0.00000000000E+00  0.45593999997E+02  0.45594000000E+02  0.51100000000E-03 0. -1.
         11   -1    0    0    0    0 -0.00000000000E+00 -0.00000000000E+00 -0.45593999997E+02  0.45594000000E+02  0.51100000000E-03 0.  1.
    9900012    2    1    2    0    0 -0.39224459554E+02 -0.17226454448E+02  0.69508513631E+01  0.47787270803E+02  0.19999998899E+02 0.  0.
        -12    1    1    2    0    0  0.39224459554E+02  0.17226454448E+02 -0.69508513631E+01  0.43400729197E+02  0.00000000000E+00 0.  1.
         11    1    3    3    0    0 -0.67482664752E+01 -0.10239099698E+02  0.17080374871E+00  0.12264070989E+02  0.51100000000E-03 0. -1.
        -11    1    3    3    0    0 -0.48520320561E+00  0.16376581179E+01  0.24299285193E-01  0.17081969964E+01  0.51100000000E-03 0.  1.
        -12    1    3    3    0    0 -0.31990989873E+02 -0.86250128684E+01  0.67557483292E+01  0.33815002817E+02  0.00000000000E+00 0.  1.
</event>
<event>
 7    1  0.4592673E-010  0.4778727E+02  0.7816164E-02  0.1312668E+00
        -11   -1    0    0    0    0  0.00000000000E+00  0.00000000000E+00  0.45593999997E+02  0.45594000000E+02  0.51100000000E-03 0.  1.
         11   -1    0    0    0    0 -0.00000000000E+00 -0.00000000000E+00 -0.45593999997E+02  0.45594000000E+02  0.51100000000E-03 0. -1.
    9900012    2    1    2    0    0 -0.32829301370E+02  0.74800360076E+01 -0.27384473171E+02  0.47787270306E+02  0.19999996635E+02 0.  0.
        -12    1    1    2    0    0  0.32829301370E+02 -0.74800360076E+01  0.27384473171E+02  0.43400729694E+02  0.00000000000E+00 0.  1.
         11    1    3    3    0    0 -0.15518923650E+02  0.72318171631E+01 -0.16928769491E+02  0.24077362968E+02  0.51100000000E-03 0. -1.
        -11    1    3    3    0    0 -0.11090083054E+01  0.41623477663E+01 -0.38628046477E+01  0.57858705790E+01  0.51100000000E-03 0.  1.
        -12    1    3    3    0    0 -0.16201369415E+02 -0.39141289218E+01 -0.65928990319E+01  0.17924036760E+02  0.00000000000E+00 0.  1.
</event>
<event>
 7    1  0.4592673E-010  0.4778728E+02  0.7816164E-02  0.1312668E+00
        -11   -1    0    0    0    0  0.00000000000E+00  0.00000000000E+00  0.45593999997E+02  0.45594000000E+02  0.51100000000E-03 0.  1.
         11   -1    0    0    0    0 -0.00000000000E+00 -0.00000000000E+00 -0.45593999997E+02  0.45594000000E+02  0.51100000000E-03 0. -1.
    9900012    2    1    2    0    0 -0.28750842478E+02  0.11504482074E+02 -0.30408203111E+02  0.47787275727E+02  0.20000021349E+02 0.  0.
        -12    1    1    2    0    0  0.28750842478E+02 -0.11504482074E+02  0.30408203111E+02  0.43400724273E+02  0.00000000000E+00 0.  1.
         11    1    3    3    0    0  0.66929372468E+00 -0.10611221195E+00 -0.87580031530E+00  0.11073573700E+01  0.51100000000E-03 0. -1.
        -11    1    3    3    0    0 -0.15482148364E+02  0.84611474424E+01 -0.50828907437E+01  0.18360928968E+02  0.51100000000E-03 0.  1.
         12    1    3    3    0    0 -0.13937987839E+02  0.31494468438E+01 -0.24449512052E+02  0.28318989388E+02  0.00000000000E+00 0. -1.
</event>
<event>
 7    1  0.4592673E-010  0.4778727E+02  0.7816164E-02  0.1312668E+00
        -11   -1    0    0    0    0  0.00000000000E+00  0.00000000000E+00  0.45593999997E+02  0.45594000000E+02  0.51100000000E-03 0.  1.
         11   -1    0    0    0    0 -0.00000000000E+00 -0.00000000000E+00 -0.45593999997E+02  0.45594000000E+02  0.51100000000E-03 0. -1.
    9900012    2    1    2    0    0 -0.17625376821E+01  0.58715745146E+01 -0.42965584830E+02  0.47787269520E+02  0.19999993051E+02 0.  0.
        -12    1    1    2    0    0  0.17625376821E+01 -0.58715745146E+01  0.42965584830E+02  0.43400730480E+02  0.00000000000E+00 0.  1.
         11    1    3    3    0    0 -0.51803884091E+01  0.79369072599E+01 -0.29755734685E+02  0.31228747458E+02  0.51100000000E-03 0. -1.
        -11    1    3    3    0    0 -0.31402645448E+01 -0.84868791697E+00 -0.52187820763E+01  0.61495706527E+01  0.51100000000E-03 0.  1.
        -12    1    3    3    0    0  0.65581152718E+01 -0.12166448283E+01 -0.79910680692E+01  0.10408951409E+02  0.00000000000E+00 0.  1.
</event>
<event>
 7    1  0.4592673E-010  0.4778726E+02  0.7816164E-02  0.1312668E+00
        -11   -1    0    0    0    0  0.00000000000E+00  0.00000000000E+00  0.45593999997E+02  0.45594000000E+02  0.51100000000E-03 0. -1.
         11   -1    0    0    0    0 -0.00000000000E+00 -0.00000000000E+00 -0.45593999997E+02  0.45594000000E+02  0.51100000000E-03 0.  1.
    9900012    2    1    2    0    0 -0.16238113257E+02 -0.38694278643E+02  0.11077029562E+02  0.47787261460E+02  0.19999956302E+02 0.  0.
        -12    1    1    2    0    0  0.16238113257E+02  0.38694278643E+02 -0.11077029562E+02  0.43400738540E+02  0.00000000000E+00 0.  1.
         11    1    3    3    0    0 -0.79060789473E+01 -0.14979062520E+02  0.27170426588E+01  0.17154029246E+02  0.51100000000E-03 0. -1.
        -11    1    3    3    0    0  0.13500111158E+00  0.18319073175E+01 -0.10574118348E+01  0.21194880914E+01  0.51100000000E-03 0.  1.
         12    1    3    3    0    0 -0.84670354213E+01 -0.25547123441E+02  0.94173987382E+01  0.28513744123E+02  0.00000000000E+00 0. -1.
</event>
<event>
 7    1  0.4592673E-010  0.4778729E+02  0.7816164E-02  0.1312668E+00
        -11   -1    0    0    0    0  0.00000000000E+00  0.00000000000E+00  0.45593999997E+02  0.45594000000E+02  0.51100000000E-03 0.  1.
         11   -1    0    0    0    0 -0.00000000000E+00 -0.00000000000E+00 -0.45593999997E+02  0.45594000000E+02  0.51100000000E-03 0. -1.
    9900012    2    1    2    0    0 -0.37840196891E+02 -0.12945977780E+02 -0.16856530077E+02  0.47787292084E+02  0.20000095926E+02 0.  0.
        -12    1    1    2    0    0  0.37840196891E+02  0.12945977780E+02  0.16856530077E+02  0.43400707916E+02  0.00000000000E+00 0.  1.
         11    1    3    3    0    0 -0.23208048506E+02 -0.78434896595E+01 -0.11985671044E+02  0.27272516498E+02  0.51100000000E-03 0. -1.
        -11    1    3    3    0    0 -0.13267007810E+02 -0.87467727181E+01 -0.48796179413E+01  0.16623182629E+02  0.51100000000E-03 0.  1.
         12    1    3    3    0    0 -0.13651405751E+01  0.36442845980E+01  0.87589086121E-02  0.38915929566E+01  0.00000000000E+00 0. -1.
</event>
<event>
 7    1  0.4592673E-010  0.4778727E+02  0.7816164E-02  0.1312668E+00
        -11   -1    0    0    0    0  0.00000000000E+00  0.00000000000E+00  0.45593999997E+02  0.45594000000E+02  0.51100000000E-03 0. -1.
         11   -1    0    0    0    0 -0.00000000000E+00 -0.00000000000E+00 -0.45593999997E+02  0.45594000000E+02  0.51100000000E-03 0.  1.
    9900012    2    1    2    0    0 -0.12223146720E+02  0.41624233438E+02 -0.12811974781E+01  0.47787267380E+02  0.19999983290E+02 0.  0.
        -12    1    1    2    0    0  0.12223146720E+02 -0.41624233438E+02  0.12811974781E+01  0.43400732620E+02  0.00000000000E+00 0.  1.
         11    1    3    3    0    0 -0.20269171634E-01 -0.94261317596E+00  0.76301648456E+00  0.12128993592E+01  0.51100000000E-03 0.  1.
        -11    1    3    3    0    0 -0.73373143458E+00  0.16757252150E+02 -0.64867656851E+01  0.17983937020E+02  0.51100000000E-03 0. -1.
        -12    1    3    3    0    0 -0.11469146114E+02  0.25809594464E+02  0.44425517225E+01  0.28590431000E+02  0.00000000000E+00 0.  1.
</event>
<event>
 7    1  0.4592673E-010  0.4778727E+02  0.7816164E-02  0.1312668E+00
        -11   -1    0    0    0    0  0.00000000000E+00  0.00000000000E+00  0.45593999997E+02  0.45594000000E+02  0.51100000000E-03 0.  1.
         11   -1    0    0    0    0 -0.00000000000E+00 -0.00000000000E+00 -0.45593999997E+02  0.45594000000E+02  0.51100000000E-03 0. -1.
    9900012    2    1    2    0    0 -0.16906236754E+02  0.35331892953E+02 -0.18693852111E+02  0.47787267200E+02  0.19999982470E+02 0.  0.
        -12    1    1    2    0    0  0.16906236754E+02 -0.35331892953E+02  0.18693852111E+02  0.43400732800E+02  0.00000000000E+00 0.  1.
         11    1    3    3    0    0 -0.67754738731E+01  0.16393793548E+02 -0.94696934542E+01  0.20108172654E+02  0.51100000000E-03 0. -1.
        -11    1    3    3    0    0  0.24847553926E+01  0.65565965181E+01 -0.69232248866E+01  0.98536292986E+01  0.51100000000E-03 0.  1.
        -12    1    3    3    0    0 -0.12615518274E+02  0.12381502888E+02 -0.23009337702E+01  0.17825465248E+02  0.00000000000E+00 0.  1.
</event>
<event>
 7    1  0.4592673E-010  0.4778727E+02  0.7816164E-02  0.1312668E+00
        -11   -1    0    0    0    0  0.00000000000E+00  0.00000000000E+00  0.45593999997E+02  0.45594000000E+02  0.51100000000E-03 0.  1.
         11   -1    0    0    0    0 -0.00000000000E+00 -0.00000000000E+00 -0.45593999997E+02  0.45594000000E+02  0.51100000000E-03 0. -1.
    9900012    2    1    2    0    0 -0.26448088179E+02 -0.74872082459E+01 -0.33586657895E+02  0.47787271386E+02  0.20000001559E+02 0.  0.
        -12    1    1    2    0    0  0.26448088179E+02  0.74872082459E+01  0.33586657895E+02  0.43400728614E+02  0.00000000000E+00 0.  1.
         11    1    3    3    0    0 -0.14081390035E+02  0.35789900238E+01 -0.10140930771E+02  0.17718159952E+02  0.51100000000E-03 0. -1.
        -11    1    3    3    0    0  0.60187704025E+00 -0.35763946777E+01 -0.28947048016E+01  0.46402770404E+01  0.51100000000E-03 0.  1.
        -12    1    3    3    0    0 -0.12968575184E+02 -0.74898035920E+01 -0.20551022322E+02  0.25428834394E+02  0.00000000000E+00 0.  1.
</event>
<event>
 7    1  0.4592673E-010  0.4778728E+02  0.7816164E-02  0.1312668E+00
        -11   -1    0    0    0    0  0.00000000000E+00  0.00000000000E+00  0.45593999997E+02  0.45594000000E+02  0.51100000000E-03 0.  1.
         11   -1    0    0    0    0 -0.00000000000E+00 -0.00000000000E+00 -0.45593999997E+02  0.45594000000E+02  0.51100000000E-03 0. -1.
    9900012    2    1    2    0    0  0.26023380375E+02  0.58825554610E+01 -0.34231592466E+02  0.47787277567E+02  0.20000029741E+02 0.  0.
        -12    1    1    2    0    0 -0.26023380375E+02 -0.58825554610E+01  0.34231592466E+02  0.43400722433E+02  0.00000000000E+00 0.  1.
         11    1    3    3    0    0  0.16195040524E+02  0.12397443501E+02 -0.25556259936E+02  0.32697069672E+02  0.51100000000E-03 0. -1.
        -11    1    3    3    0    0  0.17426908534E+01  0.43467072741E-02 -0.34658914533E+00  0.17768271163E+01  0.51100000000E-03 0.  1.
        -12    1    3    3    0    0  0.80856489971E+01 -0.65192347474E+01 -0.83287433847E+01  0.13313380779E+02  0.00000000000E+00 0.  1.
</event>
<event>
 7    1  0.4592673E-010  0.4778727E+02  0.7816164E-02  0.1312668E+00
        -11   -1    0    0    0    0  0.00000000000E+00  0.00000000000E+00  0.45593999997E+02  0.45594000000E+02  0.51100000000E-03 0.  1.
         11   -1    0    0    0    0 -0.00000000000E+00 -0.00000000000E+00 -0.45593999997E+02  0.45594000000E+02  0.51100000000E-03 0. -1.
    9900012    2    1    2    0    0 -0.29140507357E+02 -0.93803926589E+01 -0.30764623658E+02  0.47787274150E+02  0.20000014161E+02 0.  0.
        -12    1    1    2    0    0  0.29140507357E+02  0.93803926589E+01  0.30764623658E+02  0.43400725850E+02  0.00000000000E+00 0.  1.
         11    1    3    3    0    0 -0.19382345542E+01 -0.51635629171E+00  0.10083111162E+01  0.22450097049E+01  0.51100000000E-03 0. -1.
        -11    1    3    3    0    0 -0.11321315401E+02  0.34117409830E+01 -0.16598854730E+02  0.20379748221E+02  0.51100000000E-03 0.  1.
         12    1    3    3    0    0 -0.15880957402E+02 -0.12275777350E+02 -0.15174080044E+02  0.25162516224E+02  0.00000000000E+00 0. -1.
</event>
<event>
 7    1  0.4592673E-010  0.4778727E+02  0.7816164E-02  0.1312668E+00
        -11   -1    0    0    0    0  0.00000000000E+00  0.00000000000E+00  0.45593999997E+02  0.45594000000E+02  0.51100000000E-03 0.  1.
         11   -1    0    0    0    0 -0.00000000000E+00 -0.00000000000E+00 -0.45593999997E+02  0.45594000000E+02  0.51100000000E-03 0. -1.
    9900012    2    1    2    0    0  0.19164264085E+02  0.54469261169E+01 -0.38557560613E+02  0.47787268410E+02  0.19999987990E+02 0.  0.
        -12    1    1    2    0    0 -0.19164264085E+02 -0.54469261169E+01  0.38557560613E+02  0.43400731590E+02  0.00000000000E+00 0.  1.
         11    1    3    3    0    0  0.41062355785E+01 -0.24814883709E+01 -0.10917445446E+02  0.11925165429E+02  0.51100000000E-03 0. -1.
        -11    1    3    3    0    0  0.94390126258E+01 -0.23032558752E+01 -0.64268104994E+01  0.11649199133E+02  0.51100000000E-03 0.  1.
        -12    1    3    3    0    0  0.56190158811E+01  0.10231670363E+02 -0.21213304668E+02  0.24212903849E+02  0.00000000000E+00 0.  1.
</event>
<event>
 7    1  0.4592673E-010  0.4778727E+02  0.7816164E-02  0.1312668E+00
        -11   -1    0    0    0    0  0.00000000000E+00  0.00000000000E+00  0.45593999997E+02  0.45594000000E+02  0.51100000000E-03 0. -1.
         11   -1    0    0    0    0 -0.00000000000E+00 -0.00000000000E+00 -0.45593999997E+02  0.45594000000E+02  0.51100000000E-03 0.  1.
    9900012    2    1    2    0    0 -0.30647808974E+02  0.30297721957E+02  0.51364412897E+01  0.47787272128E+02  0.20000004942E+02 0.  0.
        -12    1    1    2    0    0  0.30647808974E+02 -0.30297721957E+02 -0.51364412897E+01  0.43400727872E+02  0.00000000000E+00 0.  1.
         11    1    3    3    0    0 -0.56827187359E+01  0.16308784104E+02  0.34028422963E+01  0.17602530134E+02  0.51100000000E-03 0.  1.
        -11    1    3    3    0    0 -0.12150601301E+02  0.11327868345E+02  0.35044814765E+01  0.16977605953E+02  0.51100000000E-03 0. -1.
        -12    1    3    3    0    0 -0.12814488937E+02  0.26610695086E+01 -0.17708824831E+01  0.13207136041E+02  0.00000000000E+00 0.  1.
</event>
<event>
 7    1  0.4592673E-010  0.4778723E+02  0.7816164E-02  0.1312668E+00
        -11   -1    0    0    0    0  0.00000000000E+00  0.00000000000E+00  0.45593999997E+02  0.45594000000E+02  0.51100000000E-03 0. -1.
         11   -1    0    0    0    0 -0.00000000000E+00 -0.00000000000E+00 -0.45593999997E+02  0.45594000000E+02  0.51100000000E-03 0.  1.
    9900012    2    1    2    0    0  0.33854335371E+02 -0.46862156520E+01  0.26749778033E+02  0.47787225060E+02  0.19999790338E+02 0.  0.
        -12    1    1    2    0    0 -0.33854335371E+02  0.46862156520E+01 -0.26749778033E+02  0.43400774940E+02  0.00000000000E+00 0.  1.
         11    1    3    3    0    0  0.15098615655E+01  0.37238828686E+00  0.65592503173E+01  0.67410770630E+01  0.51100000000E-03 0. -1.
        -11    1    3    3    0    0  0.22211561245E+02 -0.51557811966E+01  0.20841602881E+02  0.30891875042E+02  0.51100000000E-03 0.  1.
        -12    1    3    3    0    0  0.10132912561E+02  0.97177257703E-01 -0.65107516524E+00  0.10154272955E+02  0.00000000000E+00 0.  1.
</event>
<event>
 7    1  0.4592673E-010  0.4778726E+02  0.7816164E-02  0.1312668E+00
        -11   -1    0    0    0    0  0.00000000000E+00  0.00000000000E+00  0.45593999997E+02  0.45594000000E+02  0.51100000000E-03 0. -1.
         11   -1    0    0    0    0 -0.00000000000E+00 -0.00000000000E+00 -0.45593999997E+02  0.45594000000E+02  0.51100000000E-03 0.  1.
    9900012    2    1    2    0    0 -0.31006174238E+02 -0.32302497719E+00  0.30366712506E+02  0.47787257905E+02  0.19999940090E+02 0.  0.
        -12    1    1    2    0    0  0.31006174238E+02  0.32302497719E+00 -0.30366712506E+02  0.43400742095E+02  0.00000000000E+00 0.  1.
         11    1    3    3    0    0 -0.49671919590E+01 -0.22590677739E+01  0.82393276666E+01  0.98824543421E+01  0.51100000000E-03 0. -1.
        -11    1    3    3    0    0 -0.14040124607E+02 -0.70327705851E+01  0.12790066991E+02  0.20252673280E+02  0.51100000000E-03 0.  1.
        -12    1    3    3    0    0 -0.11998857672E+02  0.89688133819E+01  0.93373178480E+01  0.17652130282E+02  0.00000000000E+00 0.  1.
</event>
<event>
 7    1  0.4592673E-010  0.4778727E+02  0.7816164E-02  0.1312668E+00
        -11   -1    0    0    0    0  0.00000000000E+00  0.00000000000E+00  0.45593999997E+02  0.45594000000E+02  0.51100000000E-03 0.  1.
         11   -1    0    0    0    0 -0.00000000000E+00 -0.00000000000E+00 -0.45593999997E+02  0.45594000000E+02  0.51100000000E-03 0. -1.
    9900012    2    1    2    0    0  0.23359800257E+01  0.29937572724E+02 -0.31335420288E+02  0.47787266966E+02  0.19999981403E+02 0.  0.
        -12    1    1    2    0    0 -0.23359800257E+01 -0.29937572724E+02  0.31335420288E+02  0.43400733034E+02  0.00000000000E+00 0.  1.
         11    1    3    3    0    0  0.60360737037E+01  0.27162073297E+02 -0.24056695447E+02  0.36782292038E+02  0.51100000000E-03 0. -1.
        -11    1    3    3    0    0 -0.80547701856E+00  0.26952579424E+01  0.35982945065E+00  0.28359629931E+01  0.51100000000E-03 0.  1.
         12    1    3    3    0    0 -0.28946166595E+01  0.80241484566E-01 -0.76385542925E+01  0.81690119341E+01  0.00000000000E+00 0. -1.
</event>
<event>
 7    1  0.4592673E-010  0.4778726E+02  0.7816164E-02  0.1312668E+00
        -11   -1    0    0    0    0  0.00000000000E+00  0.00000000000E+00  0.45593999997E+02  0.45594000000E+02  0.51100000000E-03 0.  1.
         11   -1    0    0    0    0 -0.00000000000E+00 -0.00000000000E+00 -0.45593999997E+02  0.45594000000E+02  0.51100000000E-03 0. -1.
    9900012    2    1    2    0    0  0.88529509198E+00  0.28654392852E+02 -0.32584749613E+02  0.47787264011E+02  0.19999967930E+02 0.  0.
        -12    1    1    2    0    0 -0.88529509198E+00 -0.28654392852E+02  0.32584749613E+02  0.43400735989E+02  0.00000000000E+00 0.  1.
         11    1    3    3    0    0  0.38830849406E+01  0.36243738564E+01 -0.77578336718E+01  0.94020432911E+01  0.51100000000E-03 0. -1.
        -11    1    3    3    0    0 -0.62155201176E+01  0.55608339654E+01 -0.12795010879E+02  0.15273109322E+02  0.51100000000E-03 0.  1.
         12    1    3    3    0    0  0.32177302690E+01  0.19469185030E+02 -0.12031905062E+02  0.23112111397E+02  0.00000000000E+00 0. -1.
</event>
<event>
 7    1  0.4592673E-010  0.4778727E+02  0.7816164E-02  0.1312668E+00
        -11   -1    0    0    0    0  0.00000000000E+00  0.00000000000E+00  0.45593999997E+02  0.45594000000E+02  0.51100000000E-03 0.  1.
         11   -1    0    0    0    0 -0.00000000000E+00 -0.00000000000E+00 -0.45593999997E+02  0.45594000000E+02  0.51100000000E-03 0. -1.
    9900012    2    1    2    0    0  0.42594275892E+02  0.32488652009E+01 -0.76678263548E+01  0.47787273913E+02  0.20000013079E+02 0.  0.
        -12    1    1    2    0    0 -0.42594275892E+02 -0.32488652009E+01  0.76678263548E+01  0.43400726087E+02  0.00000000000E+00 0.  1.
         11    1    3    3    0    0  0.34428078645E+02  0.38797347507E+01 -0.56774400919E+01  0.35108094041E+02  0.51100000000E-03 0. -1.
        -11    1    3    3    0    0  0.47383601256E+01  0.43129979837E+01 -0.18199437015E+01  0.66607960204E+01  0.51100000000E-03 0.  1.
        -12    1    3    3    0    0  0.34278371218E+01 -0.49438675334E+01 -0.17044256143E+00  0.60183838518E+01  0.00000000000E+00 0.  1.
</event>
<event>
 7    1  0.4750785E-010  0.4778727E+02  0.7816164E-02  0.1312668E+00
        -11   -1    0    0    0    0  0.00000000000E+00  0.00000000000E+00  0.45593999997E+02  0.45594000000E+02  0.51100000000E-03 0.  1.
         11   -1    0    0    0    0 -0.00000000000E+00 -0.00000000000E+00 -0.45593999997E+02  0.45594000000E+02  0.51100000000E-03 0. -1.
    9900012    2    1    2    0    0 -0.88344128493E+01  0.23357850790E+02 -0.35496302217E+02  0.47787268266E+02  0.19999987333E+02 0.  0.
        -12    1    1    2    0    0  0.88344128493E+01 -0.23357850790E+02  0.35496302217E+02  0.43400731734E+02  0.00000000000E+00 0.  1.
         11    1    3    3    0    0 -0.97082756248E+01  0.15219545889E+02 -0.17377635226E+02  0.25057282354E+02  0.51100000000E-03 0. -1.
        -11    1    3    3    0    0  0.18870550588E+01  0.92534936791E+01 -0.76504987839E+01  0.12153939854E+02  0.51100000000E-03 0.  1.
        -12    1    3    3    0    0 -0.10131922833E+01 -0.11151887775E+01 -0.10468168208E+02  0.10576046059E+02  0.00000000000E+00 0.  1.
</event>
<event>
 7    1  0.4592673E-010  0.4778727E+02  0.7816164E-02  0.1312668E+00
        -11   -1    0    0    0    0  0.00000000000E+00  0.00000000000E+00  0.45593999997E+02  0.45594000000E+02  0.51100000000E-03 0.  1.
         11   -1    0    0    0    0 -0.00000000000E+00 -0.00000000000E+00 -0.45593999997E+02  0.45594000000E+02  0.51100000000E-03 0. -1.
    9900012    2    1    2    0    0  0.16118865047E+02  0.40068165943E+02  0.42834155062E+01  0.47787269812E+02  0.19999994381E+02 0.  0.
        -12    1    1    2    0    0 -0.16118865047E+02 -0.40068165943E+02 -0.42834155062E+01  0.43400730188E+02  0.00000000000E+00 0.  1.
         11    1    3    3    0    0  0.13588720267E+02  0.19152215165E+02 -0.11075487484E+01  0.23509303024E+02  0.51100000000E-03 0. -1.
        -11    1    3    3    0    0  0.59439215569E+01  0.95740228399E+01  0.52514255020E+01  0.12432601774E+02  0.51100000000E-03 0.  1.
        -12    1    3    3    0    0 -0.34137767766E+01  0.11341927938E+02  0.13953875262E+00  0.11845365014E+02  0.00000000000E+00 0.  1.
</event>
<event>
 7    1  0.4592673E-010  0.4778725E+02  0.7816164E-02  0.1312668E+00
        -11   -1    0    0    0    0  0.00000000000E+00  0.00000000000E+00  0.45593999997E+02  0.45594000000E+02  0.51100000000E-03 0.  1.
         11   -1    0    0    0    0 -0.00000000000E+00 -0.00000000000E+00 -0.45593999997E+02  0.45594000000E+02  0.51100000000E-03 0. -1.
    9900012    2    1    2    0    0  0.13552559595E+02  0.65267980883E+01 -0.40710617857E+02  0.47787246882E+02  0.19999889835E+02 0.  0.
        -12    1    1    2    0    0 -0.13552559595E+02 -0.65267980883E+01  0.40710617857E+02  0.43400753118E+02  0.00000000000E+00 0.  1.
         11    1    3    3    0    0  0.41749090649E+01 -0.36689672934E+01 -0.19433270536E+02  0.20212451377E+02  0.51100000000E-03 0. -1.
        -11    1    3    3    0    0  0.73115658218E+01  0.25470539030E+01 -0.16742120618E+02  0.18445733420E+02  0.51100000000E-03 0.  1.
        -12    1    3    3    0    0  0.20660847079E+01  0.76487114787E+01 -0.45352267040E+01  0.91290620855E+01  0.00000000000E+00 0.  1.
</event>
<event>
 7    1  0.4592673E-010  0.4778727E+02  0.7816164E-02  0.1312668E+00
        -11   -1    0    0    0    0  0.00000000000E+00  0.00000000000E+00  0.45593999997E+02  0.45594000000E+02  0.51100000000E-03 0. -1.
         11   -1    0    0    0    0 -0.00000000000E+00 -0.00000000000E+00 -0.45593999997E+02  0.45594000000E+02  0.51100000000E-03 0.  1.
    9900012    2    1    2    0    0 -0.42197782535E+02  0.81654003495E+01  0.60246748207E+01  0.47787270508E+02  0.19999997554E+02 0.  0.
        -12    1    1    2    0    0  0.42197782535E+02 -0.81654003495E+01 -0.60246748207E+01  0.43400729492E+02  0.00000000000E+00 0.  1.
         11    1    3    3    0    0 -0.69523988186E+01  0.57422492107E+00 -0.34327700205E+01  0.77749272580E+01  0.51100000000E-03 0. -1.
        -11    1    3    3    0    0  0.86493734683E+00 -0.10497361019E+01 -0.68401280235E+00  0.15224770187E+01  0.51100000000E-03 0.  1.
         12    1    3    3    0    0 -0.36110321063E+02  0.86409115303E+01  0.10141457644E+02  0.38489866231E+02  0.00000000000E+00 0. -1.
</event>
<event>
 7    1  0.5188232E-010  0.4778727E+02  0.7816164E-02  0.1312668E+00
        -11   -1    0    0    0    0  0.00000000000E+00  0.00000000000E+00  0.45593999997E+02  0.45594000000E+02  0.51100000000E-03 0.  1.
         11   -1    0    0    0    0 -0.00000000000E+00 -0.00000000000E+00 -0.45593999997E+02  0.45594000000E+02  0.51100000000E-03 0. -1.
    9900012    2    1    2    0    0 -0.36101413945E+02  0.17951442729E+02  0.16064148993E+02  0.47787271115E+02  0.20000000320E+02 0.  0.
        -12    1    1    2    0    0  0.36101413945E+02 -0.17951442729E+02 -0.16064148993E+02  0.43400728885E+02  0.00000000000E+00 0.  1.
         11    1    3    3    0    0 -0.16619913095E+02  0.12171940285E+02  0.64448352970E+01  0.21585030550E+02  0.51100000000E-03 0.  1.
        -11    1    3    3    0    0 -0.72451735368E+00  0.26203966737E+01 -0.24626970049E+01  0.36682803767E+01  0.51100000000E-03 0. -1.
        -12    1    3    3    0    0 -0.18756983496E+02  0.31591057700E+01  0.12082010701E+02  0.22533960188E+02  0.00000000000E+00 0.  1.
</event>
<event>
 7    1  0.4592673E-010  0.4778725E+02  0.7816164E-02  0.1312668E+00
        -11   -1    0    0    0    0  0.00000000000E+00  0.00000000000E+00  0.45593999997E+02  0.45594000000E+02  0.51100000000E-03 0.  1.
         11   -1    0    0    0    0 -0.00000000000E+00 -0.00000000000E+00 -0.45593999997E+02  0.45594000000E+02  0.51100000000E-03 0. -1.
    9900012    2    1    2    0    0 -0.17222114768E+02 -0.94557082538E+01 -0.38699012358E+02  0.47787248703E+02  0.19999898135E+02 0.  0.
        -12    1    1    2    0    0  0.17222114768E+02  0.94557082538E+01  0.38699012358E+02  0.43400751297E+02  0.00000000000E+00 0.  1.
         11    1    3    3    0    0  0.76819832558E-01 -0.38222669641E+01 -0.98875979892E+01  0.10600953744E+02  0.51100000000E-03 0. -1.
        -11    1    3    3    0    0 -0.14413871587E+01 -0.54386017716E+01 -0.15472377245E+02  0.16463609691E+02  0.51100000000E-03 0.  1.
         12    1    3    3    0    0 -0.15857547442E+02 -0.19483951818E+00 -0.13339037124E+02  0.20722685268E+02  0.00000000000E+00 0. -1.
</event>
<event>
 7    1  0.4592673E-010  0.4778727E+02  0.7816164E-02  0.1312668E+00
        -11   -1    0    0    0    0  0.00000000000E+00  0.00000000000E+00  0.45593999997E+02  0.45594000000E+02  0.51100000000E-03 0. -1.
         11   -1    0    0    0    0 -0.00000000000E+00 -0.00000000000E+00 -0.45593999997E+02  0.45594000000E+02  0.51100000000E-03 0.  1.
    9900012    2    1    2    0    0  0.41003564994E+02 -0.95055446496E+01  0.10581854914E+02  0.47787269883E+02  0.19999994703E+02 0.  0.
        -12    1    1    2    0    0 -0.41003564994E+02  0.95055446496E+01 -0.10581854914E+02  0.43400730117E+02  0.00000000000E+00 0.  1.
         11    1    3    3    0    0  0.18988904963E+02 -0.65120845145E+01  0.21776109518E+01  0.20192269464E+02  0.51100000000E-03 0. -1.
        -11    1    3    3    0    0  0.15386799544E+02 -0.44093029586E+01 -0.96071267803E+00  0.16034915712E+02  0.51100000000E-03 0.  1.
         12    1    3    3    0    0  0.66278604874E+01  0.14158428236E+01  0.93649566401E+01  0.11560084706E+02  0.00000000000E+00 0. -1.
</event>
<event>
 7    1  0.4592673E-010  0.4778727E+02  0.7816164E-02  0.1312668E+00
        -11   -1    0    0    0    0  0.00000000000E+00  0.00000000000E+00  0.45593999997E+02  0.45594000000E+02  0.51100000000E-03 0. -1.
         11   -1    0    0    0    0 -0.00000000000E+00 -0.00000000000E+00 -0.45593999997E+02  0.45594000000E+02  0.51100000000E-03 0.  1.
    9900012    2    1    2    0    0 -0.11444833162E+02  0.34194645955E+02  0.24152953687E+02  0.47787272012E+02  0.20000004410E+02 0.  0.
        -12    1    1    2    0    0  0.11444833162E+02 -0.34194645955E+02 -0.24152953687E+02  0.43400727988E+02  0.00000000000E+00 0.  1.
         11    1    3    3    0    0 -0.28571019444E+01  0.23163260634E+02  0.10995942321E+02  0.25799426786E+02  0.51100000000E-03 0. -1.
        -11    1    3    3    0    0  0.18235798731E+00  0.61613203437E+01  0.10300167669E+01  0.62494845879E+01  0.51100000000E-03 0.  1.
        -12    1    3    3    0    0 -0.87700892051E+01  0.48700649778E+01  0.12126994599E+02  0.15738360638E+02  0.00000000000E+00 0.  1.
</event>
<event>
 7    1  0.4592673E-010  0.4778727E+02  0.7816164E-02  0.1312668E+00
        -11   -1    0    0    0    0  0.00000000000E+00  0.00000000000E+00  0.45593999997E+02  0.45594000000E+02  0.51100000000E-03 0. -1.
         11   -1    0    0    0    0 -0.00000000000E+00 -0.00000000000E+00 -0.45593999997E+02  0.45594000000E+02  0.51100000000E-03 0.  1.
    9900012    2    1    2    0    0 -0.29331929765E+02  0.16550441916E+02  0.27374148775E+02  0.47787271291E+02  0.20000001123E+02 0.  0.
        -12    1    1    2    0    0  0.29331929765E+02 -0.16550441916E+02 -0.27374148775E+02  0.43400728709E+02  0.00000000000E+00 0.  1.
         11    1    3    3    0    0 -0.42175290525E+01  0.69434513328E+01  0.64052618400E+01  0.10345358728E+02  0.51100000000E-03 0.  1.
        -11    1    3    3    0    0 -0.12830601145E+02  0.94982223766E+01  0.39367454120E+01  0.16441974296E+02  0.51100000000E-03 0. -1.
         12    1    3    3    0    0 -0.12283799568E+02  0.10876820623E+00  0.17032141523E+02  0.20999938266E+02  0.00000000000E+00 0. -1.
</event>
<event>
 7    1  0.4592673E-010  0.4778727E+02  0.7816164E-02  0.1312668E+00
        -11   -1    0    0    0    0  0.00000000000E+00  0.00000000000E+00  0.45593999997E+02  0.45594000000E+02  0.51100000000E-03 0.  1.
         11   -1    0    0    0    0 -0.00000000000E+00 -0.00000000000E+00 -0.45593999997E+02  0.45594000000E+02  0.51100000000E-03 0. -1.
    9900012    2    1    2    0    0 -0.69556312909E+01  0.20787914810E+02 -0.37458045231E+02  0.47787270037E+02  0.19999995407E+02 0.  0.
        -12    1    1    2    0    0  0.69556312909E+01 -0.20787914810E+02  0.37458045231E+02  0.43400729963E+02  0.00000000000E+00 0.  1.
         11    1    3    3    0    0 -0.68093011356E+01  0.10445055009E+02 -0.11447030873E+02  0.16926318920E+02  0.51100000000E-03 0. -1.
        -11    1    3    3    0    0 -0.65310769516E+01  0.57536791274E+01 -0.14745490182E+02  0.17122770530E+02  0.51100000000E-03 0.  1.
        -12    1    3    3    0    0  0.63847467963E+01  0.45891806731E+01 -0.11265524175E+02  0.13738180587E+02  0.00000000000E+00 0.  1.
</event>
<event>
 7    1  0.4592673E-010  0.4778727E+02  0.7816164E-02  0.1312668E+00
        -11   -1    0    0    0    0  0.00000000000E+00  0.00000000000E+00  0.45593999997E+02  0.45594000000E+02  0.51100000000E-03 0. -1.
         11   -1    0    0    0    0 -0.00000000000E+00 -0.00000000000E+00 -0.45593999997E+02  0.45594000000E+02  0.51100000000E-03 0.  1.
    9900012    2    1    2    0    0  0.38507401937E+02  0.76828055732E+01 -0.18487237240E+02  0.47787269059E+02  0.19999990949E+02 0.  0.
        -12    1    1    2    0    0 -0.38507401937E+02 -0.76828055732E+01  0.18487237240E+02  0.43400730941E+02  0.00000000000E+00 0.  1.
         11    1    3    3    0    0  0.76704384791E+01  0.19574495814E+01 -0.39632400156E+01  0.88529377614E+01  0.51100000000E-03 0. -1.
        -11    1    3    3    0    0 -0.16533038341E+00 -0.22116627317E+01 -0.51189852950E+01  0.55787809498E+01  0.51100000000E-03 0.  1.
        -12    1    3    3    0    0  0.31002293841E+02  0.79370187235E+01 -0.94050119298E+01  0.33355550348E+02  0.00000000000E+00 0.  1.
</event>
<event>
 7    1  0.4592673E-010  0.4778727E+02  0.7816164E-02  0.1312668E+00
        -11   -1    0    0    0    0  0.00000000000E+00  0.00000000000E+00  0.45593999997E+02  0.45594000000E+02  0.51100000000E-03 0.  1.
         11   -1    0    0    0    0 -0.00000000000E+00 -0.00000000000E+00 -0.45593999997E+02  0.45594000000E+02  0.51100000000E-03 0. -1.
    9900012    2    1    2    0    0  0.16788748568E+02  0.12584956248E+02 -0.37991841297E+02  0.47787271811E+02  0.20000003495E+02 0.  0.
        -12    1    1    2    0    0 -0.16788748568E+02 -0.12584956248E+02  0.37991841297E+02  0.43400728189E+02  0.00000000000E+00 0.  1.
         11    1    3    3    0    0  0.15930692526E+01  0.84802779290E+01 -0.63616789496E+01  0.10720258519E+02  0.51100000000E-03 0. -1.
        -11    1    3    3    0    0  0.93781805486E+00 -0.14996658728E+01  0.16210640439E+00  0.17761698065E+01  0.51100000000E-03 0.  1.
         12    1    3    3    0    0  0.14257861261E+02  0.56043441913E+01 -0.31792268751E+02  0.35290843485E+02  0.00000000000E+00 0. -1.
</event>
<event>
 7    1  0.4592673E-010  0.4778727E+02  0.7816164E-02  0.1312668E+00
        -11   -1    0    0    0    0  0.00000000000E+00  0.00000000000E+00  0.45593999997E+02  0.45594000000E+02  0.51100000000E-03 0.  1.
         11   -1    0    0    0    0 -0.00000000000E+00 -0.00000000000E+00 -0.45593999997E+02  0.45594000000E+02  0.51100000000E-03 0. -1.
    9900012    2    1    2    0    0 -0.25671419037E+02  0.11741668436E+02 -0.32965660523E+02  0.47787270666E+02  0.19999998273E+02 0.  0.
        -12    1    1    2    0    0  0.25671419037E+02 -0.11741668436E+02  0.32965660523E+02  0.43400729334E+02  0.00000000000E+00 0.  1.
         11    1    3    3    0    0 -0.53010525091E+01  0.56356505705E+01 -0.70768382558E+01  0.10485387690E+02  0.51100000000E-03 0. -1.
        -11    1    3    3    0    0  0.26843845153E+01  0.20072421042E+01 -0.43017784043E+01  0.54534611754E+01  0.51100000000E-03 0.  1.
         12    1    3    3    0    0 -0.23054751044E+02  0.40987757609E+01 -0.21587043863E+02  0.31848421800E+02  0.00000000000E+00 0. -1.
</event>
<event>
 7    1  0.4592673E-010  0.4778727E+02  0.7816164E-02  0.1312668E+00
        -11   -1    0    0    0    0  0.00000000000E+00  0.00000000000E+00  0.45593999997E+02  0.45594000000E+02  0.51100000000E-03 0. -1.
         11   -1    0    0    0    0 -0.00000000000E+00 -0.00000000000E+00 -0.45593999997E+02  0.45594000000E+02  0.51100000000E-03 0.  1.
    9900012    2    1    2    0    0 -0.18731781346E+02  0.31771578614E+02  0.22875981789E+02  0.47787269789E+02  0.19999994276E+02 0.  0.
        -12    1    1    2    0    0  0.18731781346E+02 -0.31771578614E+02 -0.22875981789E+02  0.43400730211E+02  0.00000000000E+00 0.  1.
         11    1    3    3    0    0 -0.10392070393E+02  0.16762460803E+02  0.12518931500E+02  0.23360198316E+02  0.51100000000E-03 0. -1.
        -11    1    3    3    0    0 -0.78355476537E+01  0.14279828244E+02  0.13503666571E+02  0.21157937348E+02  0.51100000000E-03 0.  1.
         12    1    3    3    0    0 -0.50416329875E+00  0.72928956659E+00 -0.31466162808E+01  0.32691341243E+01  0.00000000000E+00 0. -1.
</event>
<event>
 7    1  0.4592673E-010  0.4778727E+02  0.7816164E-02  0.1312668E+00
        -11   -1    0    0    0    0  0.00000000000E+00  0.00000000000E+00  0.45593999997E+02  0.45594000000E+02  0.51100000000E-03 0. -1.
         11   -1    0    0    0    0 -0.00000000000E+00 -0.00000000000E+00 -0.45593999997E+02  0.45594000000E+02  0.51100000000E-03 0.  1.
    9900012    2    1    2    0    0 -0.34953078034E+02 -0.16517219796E+02  0.19725294238E+02  0.47787269055E+02  0.19999990928E+02 0.  0.
        -12    1    1    2    0    0  0.34953078034E+02  0.16517219796E+02 -0.19725294238E+02  0.43400730945E+02  0.00000000000E+00 0.  1.
         11    1    3    3    0    0 -0.15287969961E+00 -0.15686094074E+01  0.19941199365E+01  0.25417360716E+01  0.51100000000E-03 0. -1.
        -11    1    3    3    0    0 -0.89959996893E+01 -0.11714524876E+02  0.21413149460E+01  0.14924588217E+02  0.51100000000E-03 0.  1.
         12    1    3    3    0    0 -0.25804198645E+02 -0.32340855128E+01  0.15589859355E+02  0.30320944766E+02  0.00000000000E+00 0. -1.
</event>
<event>
 7    1  0.4592673E-010  0.4778727E+02  0.7816164E-02  0.1312668E+00
        -11   -1    0    0    0    0  0.00000000000E+00  0.00000000000E+00  0.45593999997E+02  0.45594000000E+02  0.51100000000E-03 0.  1.
         11   -1    0    0    0    0 -0.00000000000E+00 -0.00000000000E+00 -0.45593999997E+02  0.45594000000E+02  0.51100000000E-03 0. -1.
    9900012    2    1    2    0    0  0.66386006420E+01  0.42838119248E+02  0.21090151565E+01  0.47787269314E+02  0.19999992109E+02 0.  0.
        -12    1    1    2    0    0 -0.66386006420E+01 -0.42838119248E+02 -0.21090151565E+01  0.43400730686E+02  0.00000000000E+00 0.  1.
         11    1    3    3    0    0  0.27352480658E+01  0.37499863067E+01 -0.35292396698E+01  0.58309100653E+01  0.51100000000E-03 0. -1.
        -11    1    3    3    0    0 -0.19699963203E+01  0.35008171274E+01 -0.28213694723E+01  0.49088422282E+01  0.51100000000E-03 0.  1.
        -12    1    3    3    0    0  0.58733488965E+01  0.35587315814E+02  0.84596242986E+01  0.37047517020E+02  0.00000000000E+00 0.  1.
</event>
<event>
 7    1  0.4592673E-010  0.4778727E+02  0.7816164E-02  0.1312668E+00
        -11   -1    0    0    0    0  0.00000000000E+00  0.00000000000E+00  0.45593999997E+02  0.45594000000E+02  0.51100000000E-03 0.  1.
         11   -1    0    0    0    0 -0.00000000000E+00 -0.00000000000E+00 -0.45593999997E+02  0.45594000000E+02  0.51100000000E-03 0. -1.
    9900012    2    1    2    0    0 -0.17014174638E+02 -0.39040831495E+02 -0.83639145533E+01  0.47787265800E+02  0.19999976089E+02 0.  0.
        -12    1    1    2    0    0  0.17014174638E+02  0.39040831495E+02  0.83639145533E+01  0.43400734200E+02  0.00000000000E+00 0.  1.
         11    1    3    3    0    0 -0.28647863192E+01 -0.11040552048E+02  0.73187704929E+00  0.11429629673E+02  0.51100000000E-03 0. -1.
        -11    1    3    3    0    0 -0.17661246064E+02 -0.24116263042E+02 -0.85646076218E+01  0.31094473136E+02  0.51100000000E-03 0.  1.
        -12    1    3    3    0    0  0.35118577444E+01 -0.38840164050E+01 -0.53118398080E+00  0.52631629913E+01  0.00000000000E+00 0.  1.
</event>
<event>
 7    1  0.4592673E-010  0.4778727E+02  0.7816164E-02  0.1312668E+00
        -11   -1    0    0    0    0  0.00000000000E+00  0.00000000000E+00  0.45593999997E+02  0.45594000000E+02  0.51100000000E-03 0.  1.
         11   -1    0    0    0    0 -0.00000000000E+00 -0.00000000000E+00 -0.45593999997E+02  0.45594000000E+02  0.51100000000E-03 0. -1.
    9900012    2    1    2    0    0 -0.72013129730E+01  0.96538658768E+01 -0.41696128168E+02  0.47787272597E+02  0.20000007080E+02 0.  0.
        -12    1    1    2    0    0  0.72013129730E+01 -0.96538658768E+01  0.41696128168E+02  0.43400727403E+02  0.00000000000E+00 0.  1.
         11    1    3    3    0    0 -0.31225009667E+01 -0.17842587252E+01 -0.87967750611E+01  0.95035174132E+01  0.51100000000E-03 0. -1.
        -11    1    3    3    0    0 -0.65980875250E+01  0.12222968266E+02 -0.32826242194E+02  0.35644044230E+02  0.51100000000E-03 0.  1.
        -12    1    3    3    0    0  0.25192755187E+01 -0.78484366422E+00 -0.73110912513E-01  0.26397109542E+01  0.00000000000E+00 0.  1.
</event>
<event>
 7    1  0.4592673E-010  0.4778726E+02  0.7816164E-02  0.1312668E+00
        -11   -1    0    0    0    0  0.00000000000E+00  0.00000000000E+00  0.45593999997E+02  0.45594000000E+02  0.51100000000E-03 0.  1.
         11   -1    0    0    0    0 -0.00000000000E+00 -0.00000000000E+00 -0.45593999997E+02  0.45594000000E+02  0.51100000000E-03 0. -1.
    9900012    2    1    2    0    0  0.57265187296E+01 -0.11653632658E+02 -0.41412852144E+02  0.47787256993E+02  0.19999935934E+02 0.  0.
        -12    1    1    2    0    0 -0.57265187296E+01  0.11653632658E+02  0.41412852144E+02  0.43400743007E+02  0.00000000000E+00 0.  1.
         11    1    3    3    0    0 -0.46502423934E+00 -0.60534319146E+01 -0.99072488334E+01  0.11619546686E+02  0.51100000000E-03 0. -1.
        -11    1    3    3    0    0 -0.28820991209E+01 -0.43830204785E+00  0.64994603892E-01  0.29159610058E+01  0.51100000000E-03 0.  1.
         12    1    3    3    0    0  0.90736420899E+01 -0.51618986955E+01 -0.31570597914E+02  0.33251749301E+02  0.00000000000E+00 0. -1.
</event>
<event>
 7    1  0.4592673E-010  0.4778728E+02  0.7816164E-02  0.1312668E+00
        -11   -1    0    0    0    0  0.00000000000E+00  0.00000000000E+00  0.45593999997E+02  0.45594000000E+02  0.51100000000E-03 0. -1.
         11   -1    0    0    0    0 -0.00000000000E+00 -0.00000000000E+00 -0.45593999997E+02  0.45594000000E+02  0.51100000000E-03 0.  1.
    9900012    2    1    2    0    0 -0.28669188071E+02  0.32317556687E+02  0.41564422451E+01  0.47787276192E+02  0.20000023472E+02 0.  0.
        -12    1    1    2    0    0  0.28669188071E+02 -0.32317556687E+02 -0.41564422451E+01  0.43400723808E+02  0.00000000000E+00 0.  1.
         11    1    3    3    0    0 -0.19621561443E+02  0.11532933754E+02  0.33912894267E+01  0.23011194638E+02  0.51100000000E-03 0. -1.
        -11    1    3    3    0    0 -0.48269273245E+01  0.35558819658E+01  0.33226569742E+01  0.68544564759E+01  0.51100000000E-03 0.  1.
        -12    1    3    3    0    0 -0.42206993032E+01  0.17228740968E+02 -0.25575041558E+01  0.17921625078E+02  0.00000000000E+00 0.  1.
</event>
<event>
 7    1  0.4592673E-010  0.4778728E+02  0.7816164E-02  0.1312668E+00
        -11   -1    0    0    0    0  0.00000000000E+00  0.00000000000E+00  0.45593999997E+02  0.45594000000E+02  0.51100000000E-03 0.  1.
         11   -1    0    0    0    0 -0.00000000000E+00 -0.00000000000E+00 -0.45593999997E+02  0.45594000000E+02  0.51100000000E-03 0. -1.
    9900012    2    1    2    0    0  0.31566373824E+01  0.12119027264E+02 -0.41554630789E+02  0.47787279713E+02  0.20000039524E+02 0.  0.
        -12    1    1    2    0    0 -0.31566373824E+01 -0.12119027264E+02  0.41554630789E+02  0.43400720287E+02  0.00000000000E+00 0.  1.
         11    1    3    3    0    0 -0.31878945889E+01 -0.20824069674E+01 -0.13883872261E+02  0.14396562087E+02  0.51100000000E-03 0. -1.
        -11    1    3    3    0    0  0.67549428689E+00 -0.90888652143E+00  0.23283374507E+00  0.11561051226E+01  0.51100000000E-03 0.  1.
         12    1    3    3    0    0  0.56690376844E+01  0.15110320753E+02 -0.27903592273E+02  0.32234612504E+02  0.00000000000E+00 0. -1.
</event>
<event>
 7    1  0.4592673E-010  0.4778727E+02  0.7816164E-02  0.1312668E+00
        -11   -1    0    0    0    0  0.00000000000E+00  0.00000000000E+00  0.45593999997E+02  0.45594000000E+02  0.51100000000E-03 0.  1.
         11   -1    0    0    0    0 -0.00000000000E+00 -0.00000000000E+00 -0.45593999997E+02  0.45594000000E+02  0.51100000000E-03 0. -1.
    9900012    2    1    2    0    0  0.24153382808E+02 -0.33118923973E+02 -0.14260935371E+02  0.47787270699E+02  0.19999998426E+02 0.  0.
        -12    1    1    2    0    0 -0.24153382808E+02  0.33118923973E+02  0.14260935371E+02  0.43400729301E+02  0.00000000000E+00 0.  1.
         11    1    3    3    0    0  0.13205808312E+02 -0.30348642966E+02 -0.14087387292E+02  0.35970654484E+02  0.51100000000E-03 0. -1.
        -11    1    3    3    0    0  0.24017987131E+01 -0.62860926953E+00 -0.15099033177E+01  0.29057864618E+01  0.51100000000E-03 0.  1.
         12    1    3    3    0    0  0.85457757830E+01 -0.21416717372E+01  0.13363552385E+01  0.89108297530E+01  0.00000000000E+00 0. -1.
</event>
<event>
 7    1  0.4592673E-010  0.4778727E+02  0.7816164E-02  0.1312668E+00
        -11   -1    0    0    0    0  0.00000000000E+00  0.00000000000E+00  0.45593999997E+02  0.45594000000E+02  0.51100000000E-03 0. -1.
         11   -1    0    0    0    0 -0.00000000000E+00 -0.00000000000E+00 -0.45593999997E+02  0.45594000000E+02  0.51100000000E-03 0.  1.
    9900012    2    1    2    0    0 -0.39331171493E+02  0.15976122177E+02  0.90247396312E+01  0.47787268944E+02  0.19999990421E+02 0.  0.
        -12    1    1    2    0    0  0.39331171493E+02 -0.15976122177E+02 -0.90247396312E+01  0.43400731056E+02  0.00000000000E+00 0.  1.
         11    1    3    3    0    0 -0.11018098770E+02 -0.12540526167E+01  0.44387902395E+01  0.11944622536E+02  0.51100000000E-03 0. -1.
        -11    1    3    3    0    0 -0.38870935473E+00  0.66321957329E+00  0.32569985408E+01  0.33464899403E+01  0.51100000000E-03 0.  1.
         12    1    3    3    0    0 -0.27924363368E+02  0.16566955220E+02  0.13289508510E+01  0.32496156467E+02  0.00000000000E+00 0. -1.
</event>
<event>
 7    1  0.4592673E-010  0.4778727E+02  0.7816164E-02  0.1312668E+00
        -11   -1    0    0    0    0  0.00000000000E+00  0.00000000000E+00  0.45593999997E+02  0.45594000000E+02  0.51100000000E-03 0.  1.
         11   -1    0    0    0    0 -0.00000000000E+00 -0.00000000000E+00 -0.45593999997E+02  0.45594000000E+02  0.51100000000E-03 0. -1.
    9900012    2    1    2    0    0 -0.13045978227E+02  0.36061217543E+02 -0.20322755390E+02  0.47787270222E+02  0.19999996251E+02 0.  0.
        -12    1    1    2    0    0  0.13045978227E+02 -0.36061217543E+02  0.20322755390E+02  0.43400729778E+02  0.00000000000E+00 0.  1.
         11    1    3    3    0    0 -0.40443156384E+01  0.69352428727E+01 -0.82535322080E+01  0.11514116417E+02  0.51100000000E-03 0. -1.
        -11    1    3    3    0    0 -0.10452103442E+02  0.13501977903E+02 -0.10651706415E+01  0.17108023335E+02  0.51100000000E-03 0.  1.
         12    1    3    3    0    0  0.14504408535E+01  0.15623996767E+02 -0.11004052541E+02  0.19165130471E+02  0.00000000000E+00 0. -1.
</event>
<event>
 7    1  0.4592673E-010  0.4778727E+02  0.7816164E-02  0.1312668E+00
        -11   -1    0    0    0    0  0.00000000000E+00  0.00000000000E+00  0.45593999997E+02  0.45594000000E+02  0.51100000000E-03 0.  1.
         11   -1    0    0    0    0 -0.00000000000E+00 -0.00000000000E+00 -0.45593999997E+02  0.45594000000E+02  0.51100000000E-03 0. -1.
    9900012    2    1    2    0    0  0.31803871346E+02 -0.28615548854E+02 -0.72998072321E+01  0.47787273573E+02  0.20000011527E+02 0.  0.
        -12    1    1    2    0    0 -0.31803871346E+02  0.28615548854E+02  0.72998072321E+01  0.43400726427E+02  0.00000000000E+00 0.  1.
         11    1    3    3    0    0  0.78476177855E+01 -0.13455382114E+02 -0.10932120582E+01  0.15614977605E+02  0.51100000000E-03 0. -1.
        -11    1    3    3    0    0  0.15631865863E+02 -0.16876577776E+02 -0.54401962223E+01  0.23638313032E+02  0.51100000000E-03 0.  1.
        -12    1    3    3    0    0  0.83243876977E+01  0.17164110367E+01 -0.76639895154E+00  0.85339829354E+01  0.00000000000E+00 0.  1.
</event>
<event>
 7    1  0.4592673E-010  0.4778727E+02  0.7816164E-02  0.1312668E+00
        -11   -1    0    0    0    0  0.00000000000E+00  0.00000000000E+00  0.45593999997E+02  0.45594000000E+02  0.51100000000E-03 0.  1.
         11   -1    0    0    0    0 -0.00000000000E+00 -0.00000000000E+00 -0.45593999997E+02  0.45594000000E+02  0.51100000000E-03 0. -1.
    9900012    2    1    2    0    0 -0.12734930733E+02 -0.19406876941E+02 -0.36671759049E+02  0.47787271376E+02  0.20000001510E+02 0.  0.
        -12    1    1    2    0    0  0.12734930733E+02  0.19406876941E+02  0.36671759049E+02  0.43400728624E+02  0.00000000000E+00 0.  1.
         11    1    3    3    0    0  0.30407963979E+01  0.18416631394E+00 -0.54676803030E+01  0.62590644766E+01  0.51100000000E-03 0. -1.
        -11    1    3    3    0    0 -0.16117799195E+01  0.77485661684E+00 -0.55962014117E+01  0.58750070457E+01  0.51100000000E-03 0.  1.
         12    1    3    3    0    0 -0.14163947212E+02 -0.20365899872E+02 -0.25607877334E+02  0.35653199853E+02  0.00000000000E+00 0. -1.
</event>
<event>
 7    1  0.4592673E-010  0.4778727E+02  0.7816164E-02  0.1312668E+00
        -11   -1    0    0    0    0  0.00000000000E+00  0.00000000000E+00  0.45593999997E+02  0.45594000000E+02  0.51100000000E-03 0.  1.
         11   -1    0    0    0    0 -0.00000000000E+00 -0.00000000000E+00 -0.45593999997E+02  0.45594000000E+02  0.51100000000E-03 0. -1.
    9900012    2    1    2    0    0 -0.18147812067E+02  0.13995778794E+01 -0.39399508746E+02  0.47787272006E+02  0.20000004382E+02 0.  0.
        -12    1    1    2    0    0  0.18147812067E+02 -0.13995778794E+01  0.39399508746E+02  0.43400727994E+02  0.00000000000E+00 0.  1.
         11    1    3    3    0    0 -0.25648552987E+01  0.32390551010E+01 -0.17656461421E+02  0.18133410898E+02  0.51100000000E-03 0. -1.
        -11    1    3    3    0    0  0.19584023216E+00 -0.41982158583E+01 -0.42159494808E+01  0.59529488554E+01  0.51100000000E-03 0.  1.
        -12    1    3    3    0    0 -0.15778797000E+02  0.23587386367E+01 -0.17527097844E+02  0.23700912252E+02  0.00000000000E+00 0.  1.
</event>
<event>
 7    1  0.4592673E-010  0.4778727E+02  0.7816164E-02  0.1312668E+00
        -11   -1    0    0    0    0  0.00000000000E+00  0.00000000000E+00  0.45593999997E+02  0.45594000000E+02  0.51100000000E-03 0.  1.
         11   -1    0    0    0    0 -0.00000000000E+00 -0.00000000000E+00 -0.45593999997E+02  0.45594000000E+02  0.51100000000E-03 0. -1.
    9900012    2    1    2    0    0 -0.18219778018E+02  0.56944569439E+01 -0.38977377395E+02  0.47787273053E+02  0.20000009159E+02 0.  0.
        -12    1    1    2    0    0  0.18219778018E+02 -0.56944569439E+01  0.38977377395E+02  0.43400726947E+02  0.00000000000E+00 0.  1.
         11    1    3    3    0    0 -0.34393932117E+00  0.36336958148E+01 -0.51336696322E+01  0.62989367107E+01  0.51100000000E-03 0.  1.
        -11    1    3    3    0    0 -0.18948214466E+01 -0.23650834224E+01  0.75313989584E+00  0.31226892054E+01  0.51100000000E-03 0. -1.
         12    1    3    3    0    0 -0.15981017250E+02  0.44258445514E+01 -0.34596847659E+02  0.38365647137E+02  0.00000000000E+00 0. -1.
</event>
<event>
 7    1  0.4592673E-010  0.4778727E+02  0.7816164E-02  0.1312668E+00
        -11   -1    0    0    0    0  0.00000000000E+00  0.00000000000E+00  0.45593999997E+02  0.45594000000E+02  0.51100000000E-03 0.  1.
         11   -1    0    0    0    0 -0.00000000000E+00 -0.00000000000E+00 -0.45593999997E+02  0.45594000000E+02  0.51100000000E-03 0. -1.
    9900012    2    1    2    0    0  0.37400172734E+02  0.22003959308E+02  0.82250083802E+00  0.47787266672E+02  0.19999980066E+02 0.  0.
        -12    1    1    2    0    0 -0.37400172734E+02 -0.22003959308E+02 -0.82250083802E+00  0.43400733328E+02  0.00000000000E+00 0.  1.
         11    1    3    3    0    0  0.94457469509E+01  0.38479880665E+01  0.74421031279E+00  0.10226582854E+02  0.51100000000E-03 0. -1.
        -11    1    3    3    0    0  0.25215870249E+01 -0.23460949816E+01  0.32552163596E+01  0.47390923811E+01  0.51100000000E-03 0.  1.
        -12    1    3    3    0    0  0.25432838758E+02  0.20502066223E+02 -0.31769258344E+01  0.32821591437E+02  0.00000000000E+00 0.  1.
</event>
<event>
 7    1  0.4592673E-010  0.4778727E+02  0.7816164E-02  0.1312668E+00
        -11   -1    0    0    0    0  0.00000000000E+00  0.00000000000E+00  0.45593999997E+02  0.45594000000E+02  0.51100000000E-03 0.  1.
         11   -1    0    0    0    0 -0.00000000000E+00 -0.00000000000E+00 -0.45593999997E+02  0.45594000000E+02  0.51100000000E-03 0. -1.
    9900012    2    1    2    0    0  0.94912182817E+01 -0.24079858605E+02 -0.34838206249E+02  0.47787269251E+02  0.19999991823E+02 0.  0.
        -12    1    1    2    0    0 -0.94912182817E+01  0.24079858605E+02  0.34838206249E+02  0.43400730749E+02  0.00000000000E+00 0.  1.
         11    1    3    3    0    0 -0.99998318439E+00 -0.84928330622E+01 -0.33795096704E+01  0.91950674639E+01  0.51100000000E-03 0. -1.
        -11    1    3    3    0    0 -0.22227173218E+01 -0.22908634199E+01 -0.90676894664E+01  0.96130910753E+01  0.51100000000E-03 0.  1.
        -12    1    3    3    0    0  0.12713918788E+02 -0.13296162123E+02 -0.22391007112E+02  0.28979110712E+02  0.00000000000E+00 0.  1.
</event>
<event>
 7    1  0.4592673E-010  0.4778727E+02  0.7816164E-02  0.1312668E+00
        -11   -1    0    0    0    0  0.00000000000E+00  0.00000000000E+00  0.45593999997E+02  0.45594000000E+02  0.51100000000E-03 0.  1.
         11   -1    0    0    0    0 -0.00000000000E+00 -0.00000000000E+00 -0.45593999997E+02  0.45594000000E+02  0.51100000000E-03 0. -1.
    9900012    2    1    2    0    0 -0.18264908268E+02  0.39363558733E+02 -0.72565335036E+00  0.47787271861E+02  0.20000003725E+02 0.  0.
        -12    1    1    2    0    0  0.18264908268E+02 -0.39363558733E+02  0.72565335036E+00  0.43400728139E+02  0.00000000000E+00 0.  1.
         11    1    3    3    0    0 -0.11378194763E+02  0.29049039083E+02 -0.45393592011E+00  0.31201218659E+02  0.51100000000E-03 0. -1.
        -11    1    3    3    0    0 -0.90181894401E+01  0.70608167109E+01  0.26076166855E+01  0.11746596888E+02  0.51100000000E-03 0.  1.
         12    1    3    3    0    0  0.21314759345E+01  0.32537029386E+01 -0.28793341157E+01  0.48394563147E+01  0.00000000000E+00 0. -1.
</event>
<event>
 7    1  0.4592673E-010  0.4778727E+02  0.7816164E-02  0.1312668E+00
        -11   -1    0    0    0    0  0.00000000000E+00  0.00000000000E+00  0.45593999997E+02  0.45594000000E+02  0.51100000000E-03 0.  1.
         11   -1    0    0    0    0 -0.00000000000E+00 -0.00000000000E+00 -0.45593999997E+02  0.45594000000E+02  0.51100000000E-03 0. -1.
    9900012    2    1    2    0    0  0.33715679749E+02 -0.15094246150E+02 -0.22782447298E+02  0.47787271519E+02  0.20000002165E+02 0.  0.
        -12    1    1    2    0    0 -0.33715679749E+02  0.15094246150E+02  0.22782447298E+02  0.43400728481E+02  0.00000000000E+00 0.  1.
         11    1    3    3    0    0  0.20478363009E+02 -0.14899449162E+02 -0.82309403796E+01  0.26629031463E+02  0.51100000000E-03 0. -1.
        -11    1    3    3    0    0  0.99271432596E+01 -0.15505733328E+01 -0.55644147650E+01  0.11485432639E+02  0.51100000000E-03 0.  1.
        -12    1    3    3    0    0  0.33101734803E+01  0.13557763455E+01 -0.89870921529E+01  0.96728074173E+01  0.00000000000E+00 0.  1.
</event>
<event>
 7    1  0.4592673E-010  0.4778727E+02  0.7816164E-02  0.1312668E+00
        -11   -1    0    0    0    0  0.00000000000E+00  0.00000000000E+00  0.45593999997E+02  0.45594000000E+02  0.51100000000E-03 0. -1.
         11   -1    0    0    0    0 -0.00000000000E+00 -0.00000000000E+00 -0.45593999997E+02  0.45594000000E+02  0.51100000000E-03 0.  1.
    9900012    2    1    2    0    0  0.22598036503E+02 -0.34582109613E+02  0.13305257680E+02  0.47787269119E+02  0.19999991222E+02 0.  0.
        -12    1    1    2    0    0 -0.22598036503E+02  0.34582109613E+02 -0.13305257680E+02  0.43400730881E+02  0.00000000000E+00 0.  1.
         11    1    3    3    0    0  0.21036373274E+02 -0.22712842025E+02  0.91213468048E+01  0.32273846396E+02  0.51100000000E-03 0. -1.
        -11    1    3    3    0    0  0.48714938645E+01 -0.10025334104E+02  0.29753481556E+01  0.11536527783E+02  0.51100000000E-03 0.  1.
        -12    1    3    3    0    0 -0.33098306352E+01 -0.18439334834E+01  0.12085627194E+01  0.39768949410E+01  0.00000000000E+00 0.  1.
</event>
<event>
 7    1  0.4592673E-010  0.4778727E+02  0.7816164E-02  0.1312668E+00
        -11   -1    0    0    0    0  0.00000000000E+00  0.00000000000E+00  0.45593999997E+02  0.45594000000E+02  0.51100000000E-03 0. -1.
         11   -1    0    0    0    0 -0.00000000000E+00 -0.00000000000E+00 -0.45593999997E+02  0.45594000000E+02  0.51100000000E-03 0.  1.
    9900012    2    1    2    0    0 -0.17183375894E+02  0.15954032136E+02  0.36521556547E+02  0.47787266813E+02  0.19999980709E+02 0.  0.
        -12    1    1    2    0    0  0.17183375894E+02 -0.15954032136E+02 -0.36521556547E+02  0.43400733187E+02  0.00000000000E+00 0.  1.
         11    1    3    3    0    0 -0.78194104838E+01  0.81674698267E+01  0.16444190352E+02  0.19956506214E+02  0.51100000000E-03 0. -1.
        -11    1    3    3    0    0 -0.12377083780E+02  0.83189477682E+01  0.19758061405E+02  0.24754354882E+02  0.51100000000E-03 0.  1.
        -12    1    3    3    0    0  0.30131183702E+01 -0.53238545888E+00  0.31930479064E+00  0.30764057175E+01  0.00000000000E+00 0.  1.
</event>
<event>
 7    1  0.4592673E-010  0.4778727E+02  0.7816164E-02  0.1312668E+00
        -11   -1    0    0    0    0  0.00000000000E+00  0.00000000000E+00  0.45593999997E+02  0.45594000000E+02  0.51100000000E-03 0.  1.
         11   -1    0    0    0    0 -0.00000000000E+00 -0.00000000000E+00 -0.45593999997E+02  0.45594000000E+02  0.51100000000E-03 0. -1.
    9900012    2    1    2    0    0  0.43052562629E+01  0.21034733639E+02 -0.37717742842E+02  0.47787269869E+02  0.19999994641E+02 0.  0.
        -12    1    1    2    0    0 -0.43052562629E+01 -0.21034733639E+02  0.37717742842E+02  0.43400730131E+02  0.00000000000E+00 0.  1.
         11    1    3    3    0    0 -0.20083394837E+01  0.47804653589E+01 -0.10874748354E+02  0.12047673160E+02  0.51100000000E-03 0. -1.
        -11    1    3    3    0    0  0.29674860831E+01  0.16394636389E+02 -0.12023533698E+02  0.20546421558E+02  0.51100000000E-03 0.  1.
        -12    1    3    3    0    0  0.33461096635E+01 -0.14036810837E+00 -0.14819460790E+02  0.15193175152E+02  0.00000000000E+00 0.  1.
</event>
<event>
 7    1  0.4592673E-010  0.4778727E+02  0.7816164E-02  0.1312668E+00
        -11   -1    0    0    0    0  0.00000000000E+00  0.00000000000E+00  0.45593999997E+02  0.45594000000E+02  0.51100000000E-03 0.  1.
         11   -1    0    0    0    0 -0.00000000000E+00 -0.00000000000E+00 -0.45593999997E+02  0.45594000000E+02  0.51100000000E-03 0. -1.
    9900012    2    1    2    0    0 -0.31814611931E+02  0.60150734651E+01 -0.28901080644E+02  0.47787273007E+02  0.20000008948E+02 0.  0.
        -12    1    1    2    0    0  0.31814611931E+02 -0.60150734651E+01  0.28901080644E+02  0.43400726993E+02  0.00000000000E+00 0.  1.
         11    1    3    3    0    0 -0.12636876704E+02  0.18969493069E+00 -0.13653740789E+02  0.18605141084E+02  0.51100000000E-03 0. -1.
        -11    1    3    3    0    0 -0.12165520915E+02  0.81782881370E+01 -0.16056501399E+02  0.21741562350E+02  0.51100000000E-03 0.  1.
         12    1    3    3    0    0 -0.70122143125E+01 -0.23529096026E+01  0.80916154299E+00  0.74405695727E+01  0.00000000000E+00 0. -1.
</event>
<event>
 7    1  0.4592673E-010  0.4778726E+02  0.7816164E-02  0.1312668E+00
        -11   -1    0    0    0    0  0.00000000000E+00  0.00000000000E+00  0.45593999997E+02  0.45594000000E+02  0.51100000000E-03 0.  1.
         11   -1    0    0    0    0 -0.00000000000E+00 -0.00000000000E+00 -0.45593999997E+02  0.45594000000E+02  0.51100000000E-03 0. -1.
    9900012    2    1    2    0    0 -0.22565209462E+02  0.51407701320E+01 -0.36715227635E+02  0.47787261114E+02  0.19999954721E+02 0.  0.
        -12    1    1    2    0    0  0.22565209462E+02 -0.51407701320E+01  0.36715227635E+02  0.43400738886E+02  0.00000000000E+00 0.  1.
         11    1    3    3    0    0 -0.37741240655E+01 -0.65350627970E+00 -0.13456528333E+02  0.13991041346E+02  0.51100000000E-03 0. -1.
        -11    1    3    3    0    0  0.34199973916E+00 -0.31479179943E+01 -0.47807789367E+01  0.57343002209E+01  0.51100000000E-03 0.  1.
        -12    1    3    3    0    0 -0.19133085136E+02  0.89421944060E+01 -0.18477920365E+02  0.28061919546E+02  0.00000000000E+00 0.  1.
</event>
<event>
 7    1  0.5357064E-010  0.4778727E+02  0.7816164E-02  0.1312668E+00
        -11   -1    0    0    0    0  0.00000000000E+00  0.00000000000E+00  0.45593999997E+02  0.45594000000E+02  0.51100000000E-03 0. -1.
         11   -1    0    0    0    0 -0.00000000000E+00 -0.00000000000E+00 -0.45593999997E+02  0.45594000000E+02  0.51100000000E-03 0.  1.
    9900012    2    1    2    0    0 -0.87286527086E+01 -0.12721942768E+01  0.42494889132E+02  0.47787268915E+02  0.19999990290E+02 0.  0.
        -12    1    1    2    0    0  0.87286527086E+01  0.12721942768E+01 -0.42494889132E+02  0.43400731085E+02  0.00000000000E+00 0.  1.
         11    1    3    3    0    0 -0.18541339449E+01  0.20338113612E+01  0.16434958372E+02  0.16663794834E+02  0.51100000000E-03 0. -1.
        -11    1    3    3    0    0  0.31582556915E+01 -0.42620531827E+01  0.16111011691E+02  0.16961850557E+02  0.51100000000E-03 0.  1.
        -12    1    3    3    0    0 -0.10032774455E+02  0.95604754471E+00  0.99489190697E+01  0.14161623524E+02  0.00000000000E+00 0.  1.
</event>
<event>
 7    1  0.4592673E-010  0.4778727E+02  0.7816164E-02  0.1312668E+00
        -11   -1    0    0    0    0  0.00000000000E+00  0.00000000000E+00  0.45593999997E+02  0.45594000000E+02  0.51100000000E-03 0.  1.
         11   -1    0    0    0    0 -0.00000000000E+00 -0.00000000000E+00 -0.45593999997E+02  0.45594000000E+02  0.51100000000E-03 0. -1.
    9900012    2    1    2    0    0 -0.30897026665E+02 -0.76510609463E+01 -0.29503532735E+02  0.47787269197E+02  0.19999991578E+02 0.  0.
        -12    1    1    2    0    0  0.30897026665E+02  0.76510609463E+01  0.29503532735E+02  0.43400730803E+02  0.00000000000E+00 0.  1.
         11    1    3    3    0    0 -0.24463368516E+01 -0.20258118959E+01 -0.57130354063E+01  0.65366085736E+01  0.51100000000E-03 0. -1.
        -11    1    3    3    0    0 -0.15170304084E+02 -0.11042683941E+02 -0.96110129008E+01  0.21081996202E+02  0.51100000000E-03 0.  1.
        -12    1    3    3    0    0 -0.13280385730E+02  0.54174348902E+01 -0.14179484428E+02  0.20168664422E+02  0.00000000000E+00 0.  1.
</event>
<event>
 7    1  0.4592673E-010  0.4778726E+02  0.7816164E-02  0.1312668E+00
        -11   -1    0    0    0    0  0.00000000000E+00  0.00000000000E+00  0.45593999997E+02  0.45594000000E+02  0.51100000000E-03 0.  1.
         11   -1    0    0    0    0 -0.00000000000E+00 -0.00000000000E+00 -0.45593999997E+02  0.45594000000E+02  0.51100000000E-03 0. -1.
    9900012    2    1    2    0    0  0.24425905655E+02  0.17826920212E+02 -0.31131976741E+02  0.47787263519E+02  0.19999965688E+02 0.  0.
        -12    1    1    2    0    0 -0.24425905655E+02 -0.17826920212E+02  0.31131976741E+02  0.43400736481E+02  0.00000000000E+00 0.  1.
         11    1    3    3    0    0  0.26649370773E+02  0.11173378979E+02 -0.26634350918E+02  0.39299134971E+02  0.51100000000E-03 0. -1.
        -11    1    3    3    0    0 -0.31596682946E+00  0.31720601206E+01 -0.15560505271E+01  0.35472657005E+01  0.51100000000E-03 0.  1.
        -12    1    3    3    0    0 -0.19074982883E+01  0.34814811120E+01 -0.29415752960E+01  0.49408628472E+01  0.00000000000E+00 0.  1.
</event>
<event>
 7    1  0.4592673E-010  0.4778725E+02  0.7816164E-02  0.1312668E+00
        -11   -1    0    0    0    0  0.00000000000E+00  0.00000000000E+00  0.45593999997E+02  0.45594000000E+02  0.51100000000E-03 0.  1.
         11   -1    0    0    0    0 -0.00000000000E+00 -0.00000000000E+00 -0.45593999997E+02  0.45594000000E+02  0.51100000000E-03 0. -1.
    9900012    2    1    2    0    0  0.12234344366E+02  0.17419581218E+00 -0.41640309620E+02  0.47787252178E+02  0.19999913982E+02 0.  0.
        -12    1    1    2    0    0 -0.12234344366E+02 -0.17419581218E+00  0.41640309620E+02  0.43400747822E+02  0.00000000000E+00 0.  1.
         11    1    3    3    0    0  0.11228274291E+02  0.42201988086E+01 -0.19740102363E+02  0.23098828176E+02  0.51100000000E-03 0. -1.
        -11    1    3    3    0    0 -0.11193899548E+01  0.24017986295E+01 -0.12103787546E+01  0.29131919811E+01  0.51100000000E-03 0.  1.
         12    1    3    3    0    0  0.21254600302E+01 -0.64478016260E+01 -0.20689828502E+02  0.21775232021E+02  0.00000000000E+00 0. -1.
</event>
<event>
 7    1  0.4592673E-010  0.4778727E+02  0.7816164E-02  0.1312668E+00
        -11   -1    0    0    0    0  0.00000000000E+00  0.00000000000E+00  0.45593999997E+02  0.45594000000E+02  0.51100000000E-03 0.  1.
         11   -1    0    0    0    0 -0.00000000000E+00 -0.00000000000E+00 -0.45593999997E+02  0.45594000000E+02  0.51100000000E-03 0. -1.
    9900012    2    1    2    0    0 -0.83426055227E+01 -0.27420074860E+02 -0.32590859208E+02  0.47787266410E+02  0.19999978870E+02 0.  0.
        -12    1    1    2    0    0  0.83426055227E+01  0.27420074860E+02  0.32590859208E+02  0.43400733590E+02  0.00000000000E+00 0.  1.
         11    1    3    3    0    0 -0.10858994562E+02 -0.64863041192E+01 -0.65562474899E+01  0.14246904416E+02  0.51100000000E-03 0. -1.
        -11    1    3    3    0    0  0.53890782115E+00 -0.43516268000E+01 -0.44192718807E+01  0.62255153732E+01  0.51100000000E-03 0.  1.
         12    1    3    3    0    0  0.19774812179E+01 -0.16582143941E+02 -0.21615339837E+02  0.27314846621E+02  0.00000000000E+00 0. -1.
</event>
<event>
 7    1  0.4592673E-010  0.4778728E+02  0.7816164E-02  0.1312668E+00
        -11   -1    0    0    0    0  0.00000000000E+00  0.00000000000E+00  0.45593999997E+02  0.45594000000E+02  0.51100000000E-03 0.  1.
         11   -1    0    0    0    0 -0.00000000000E+00 -0.00000000000E+00 -0.45593999997E+02  0.45594000000E+02  0.51100000000E-03 0. -1.
    9900012    2    1    2    0    0 -0.19386950830E+01 -0.42266265278E+02 -0.96657742679E+01  0.47787275221E+02  0.20000019041E+02 0.  0.
        -12    1    1    2    0    0  0.19386950830E+01  0.42266265278E+02  0.96657742679E+01  0.43400724779E+02  0.00000000000E+00 0.  1.
         11    1    3    3    0    0  0.29471747290E+01 -0.52016720615E+01 -0.57527202864E+01  0.82968079448E+01  0.51100000000E-03 0. -1.
        -11    1    3    3    0    0 -0.10098234908E+01 -0.35374059349E+00  0.18414343520E+01  0.21297315850E+01  0.51100000000E-03 0.  1.
         12    1    3    3    0    0 -0.38760463211E+01 -0.36710852623E+02 -0.57544883335E+01  0.37360735691E+02  0.00000000000E+00 0. -1.
</event>
<event>
 7    1  0.4592673E-010  0.4778727E+02  0.7816164E-02  0.1312668E+00
        -11   -1    0    0    0    0  0.00000000000E+00  0.00000000000E+00  0.45593999997E+02  0.45594000000E+02  0.51100000000E-03 0.  1.
         11   -1    0    0    0    0 -0.00000000000E+00 -0.00000000000E+00 -0.45593999997E+02  0.45594000000E+02  0.51100000000E-03 0. -1.
    9900012    2    1    2    0    0  0.27996754770E+02  0.31080597380E+02 -0.11567256897E+02  0.47787271397E+02  0.20000001608E+02 0.  0.
        -12    1    1    2    0    0 -0.27996754770E+02 -0.31080597380E+02  0.11567256897E+02  0.43400728603E+02  0.00000000000E+00 0.  1.
         11    1    3    3    0    0  0.98743355742E+01  0.15979420891E+02 -0.54976063600E+01  0.19572124846E+02  0.51100000000E-03 0. -1.
        -11    1    3    3    0    0  0.20175252022E+01  0.10657488474E+02 -0.25117388633E+01  0.11133790949E+02  0.51100000000E-03 0.  1.
         12    1    3    3    0    0  0.16104893994E+02  0.44436880143E+01 -0.35579116736E+01  0.17081355602E+02  0.00000000000E+00 0. -1.
</event>
<event>
 7    1  0.4592673E-010  0.4778726E+02  0.7816164E-02  0.1312668E+00
        -11   -1    0    0    0    0  0.00000000000E+00  0.00000000000E+00  0.45593999997E+02  0.45594000000E+02  0.51100000000E-03 0.  1.
         11   -1    0    0    0    0 -0.00000000000E+00 -0.00000000000E+00 -0.45593999997E+02  0.45594000000E+02  0.51100000000E-03 0. -1.
    9900012    2    1    2    0    0  0.16878051200E+02 -0.12609083522E+02 -0.37944251415E+02  0.47787264810E+02  0.19999971575E+02 0.  0.
        -12    1    1    2    0    0 -0.16878051200E+02  0.12609083522E+02  0.37944251415E+02  0.43400735190E+02  0.00000000000E+00 0.  1.
         11    1    3    3    0    0  0.43120085144E+01 -0.77295193755E+01 -0.17158496794E+02  0.19306809672E+02  0.51100000000E-03 0. -1.
        -11    1    3    3    0    0  0.47327282974E+01 -0.42906311802E+00 -0.18616781718E+02  0.19213728792E+02  0.51100000000E-03 0.  1.
        -12    1    3    3    0    0  0.78333143887E+01 -0.44505010289E+01 -0.21689729024E+01  0.92667263460E+01  0.00000000000E+00 0.  1.
</event>
<event>
 7    1  0.4592673E-010  0.4778727E+02  0.7816164E-02  0.1312668E+00
        -11   -1    0    0    0    0  0.00000000000E+00  0.00000000000E+00  0.45593999997E+02  0.45594000000E+02  0.51100000000E-03 0.  1.
         11   -1    0    0    0    0 -0.00000000000E+00 -0.00000000000E+00 -0.45593999997E+02  0.45594000000E+02  0.51100000000E-03 0. -1.
    9900012    2    1    2    0    0 -0.36068777672E+02  0.21790127194E+02 -0.10385428952E+02  0.47787268435E+02  0.19999988104E+02 0.  0.
        -12    1    1    2    0    0  0.36068777672E+02 -0.21790127194E+02  0.10385428952E+02  0.43400731565E+02  0.00000000000E+00 0.  1.
         11    1    3    3    0    0 -0.24144237509E+02  0.16551593070E+02 -0.86917976234E+01  0.30535991620E+02  0.51100000000E-03 0. -1.
        -11    1    3    3    0    0 -0.92162675162E+01  0.87300473167E+01 -0.65166928639E+00  0.12711332983E+02  0.51100000000E-03 0.  1.
         12    1    3    3    0    0 -0.27082726461E+01 -0.34915131928E+01 -0.10419620419E+01  0.45399438320E+01  0.00000000000E+00 0. -1.
</event>
<event>
 7    1  0.4592673E-010  0.4778727E+02  0.7816164E-02  0.1312668E+00
        -11   -1    0    0    0    0  0.00000000000E+00  0.00000000000E+00  0.45593999997E+02  0.45594000000E+02  0.51100000000E-03 0.  1.
         11   -1    0    0    0    0 -0.00000000000E+00 -0.00000000000E+00 -0.45593999997E+02  0.45594000000E+02  0.51100000000E-03 0. -1.
    9900012    2    1    2    0    0  0.40345208708E+02  0.10412037410E+02 -0.12144009824E+02  0.47787270014E+02  0.19999995300E+02 0.  0.
        -12    1    1    2    0    0 -0.40345208708E+02 -0.10412037410E+02  0.12144009824E+02  0.43400729986E+02  0.00000000000E+00 0.  1.
         11    1    3    3    0    0  0.34885215237E+02  0.10443193859E+02 -0.13210462352E+02  0.38736995959E+02  0.51100000000E-03 0. -1.
        -11    1    3    3    0    0  0.31780358043E+01  0.35340900669E+01  0.48561481522E+00  0.47776067423E+01  0.51100000000E-03 0.  1.
        -12    1    3    3    0    0  0.22819576672E+01 -0.35652465161E+01  0.58083771257E+00  0.42726673126E+01  0.00000000000E+00 0.  1.
</event>
<event>
 7    1  0.4592673E-010  0.4778727E+02  0.7816164E-02  0.1312668E+00
        -11   -1    0    0    0    0  0.00000000000E+00  0.00000000000E+00  0.45593999997E+02  0.45594000000E+02  0.51100000000E-03 0.  1.
         11   -1    0    0    0    0 -0.00000000000E+00 -0.00000000000E+00 -0.45593999997E+02  0.45594000000E+02  0.51100000000E-03 0. -1.
    9900012    2    1    2    0    0 -0.21420778551E+02 -0.41095247723E+01 -0.37521799178E+02  0.47787270040E+02  0.19999995418E+02 0.  0.
        -12    1    1    2    0    0  0.21420778551E+02  0.41095247723E+01  0.37521799178E+02  0.43400729960E+02  0.00000000000E+00 0.  1.
         11    1    3    3    0    0 -0.89009834130E+01  0.55394378089E+01 -0.22045079218E+02  0.24411030191E+02  0.51100000000E-03 0. -1.
        -11    1    3    3    0    0 -0.52407520826E+01 -0.27513553948E+00 -0.25736923430E+01  0.58450897764E+01  0.51100000000E-03 0.  1.
         12    1    3    3    0    0 -0.72790430551E+01 -0.93738270417E+01 -0.12903027616E+02  0.17531150073E+02  0.00000000000E+00 0. -1.
</event>
<event>
 7    1  0.4592673E-010  0.4778725E+02  0.7816164E-02  0.1312668E+00
        -11   -1    0    0    0    0  0.00000000000E+00  0.00000000000E+00  0.45593999997E+02  0.45594000000E+02  0.51100000000E-03 0. -1.
         11   -1    0    0    0    0 -0.00000000000E+00 -0.00000000000E+00 -0.45593999997E+02  0.45594000000E+02  0.51100000000E-03 0.  1.
    9900012    2    1    2    0    0  0.30491399185E+01  0.12896546964E+02  0.41328037749E+02  0.47787252518E+02  0.19999915530E+02 0.  0.
        -12    1    1    2    0    0 -0.30491399185E+01 -0.12896546964E+02 -0.41328037749E+02  0.43400747482E+02  0.00000000000E+00 0.  1.
         11    1    3    3    0    0  0.60718779321E+01 -0.12857926598E+01  0.13441969571E+02  0.14805658060E+02  0.51100000000E-03 0. -1.
        -11    1    3    3    0    0  0.24396863794E+00 -0.13485498556E+01  0.79580655637E+00  0.15847446941E+01  0.51100000000E-03 0.  1.
        -12    1    3    3    0    0 -0.32667066515E+01  0.15530889480E+02  0.27090261621E+02  0.31396849764E+02  0.00000000000E+00 0.  1.
</event>
<event>
 7    1  0.4592673E-010  0.4778727E+02  0.7816164E-02  0.1312668E+00
        -11   -1    0    0    0    0  0.00000000000E+00  0.00000000000E+00  0.45593999997E+02  0.45594000000E+02  0.51100000000E-03 0.  1.
         11   -1    0    0    0    0 -0.00000000000E+00 -0.00000000000E+00 -0.45593999997E+02  0.45594000000E+02  0.51100000000E-03 0. -1.
    9900012    2    1    2    0    0 -0.34318947092E+02  0.21402729211E+02 -0.15740281728E+02  0.47787269406E+02  0.19999992532E+02 0.  0.
        -12    1    1    2    0    0  0.34318947092E+02 -0.21402729211E+02  0.15740281728E+02  0.43400730594E+02  0.00000000000E+00 0.  1.
         11    1    3    3    0    0 -0.94817615693E+01  0.12274915878E+02 -0.85579387961E+01  0.17714843464E+02  0.51100000000E-03 0. -1.
        -11    1    3    3    0    0 -0.56441001075E+01  0.69753381335E+01  0.11348195123E+01  0.90442812698E+01  0.51100000000E-03 0.  1.
        -12    1    3    3    0    0 -0.19193085415E+02  0.21524751997E+01 -0.83171624447E+01  0.21028144672E+02  0.00000000000E+00 0.  1.
</event>
<event>
 7    1  0.4592673E-010  0.4778727E+02  0.7816164E-02  0.1312668E+00
        -11   -1    0    0    0    0  0.00000000000E+00  0.00000000000E+00  0.45593999997E+02  0.45594000000E+02  0.51100000000E-03 0.  1.
         11   -1    0    0    0    0 -0.00000000000E+00 -0.00000000000E+00 -0.45593999997E+02  0.45594000000E+02  0.51100000000E-03 0. -1.
    9900012    2    1    2    0    0  0.14264433452E+02  0.81043680012E+01 -0.40180451073E+02  0.47787268545E+02  0.19999988602E+02 0.  0.
        -12    1    1    2    0    0 -0.14264433452E+02 -0.81043680012E+01  0.40180451073E+02  0.43400731455E+02  0.00000000000E+00 0.  1.
         11    1    3    3    0    0  0.56293041316E+01  0.61615194924E+01 -0.99973917037E+01  0.13023103647E+02  0.51100000000E-03 0. -1.
        -11    1    3    3    0    0  0.71897709740E+01  0.80787051314E+01 -0.21068536646E+02  0.23682092812E+02  0.51100000000E-03 0.  1.
        -12    1    3    3    0    0  0.14453583463E+01 -0.61358566226E+01 -0.91145227233E+01  0.11082072086E+02  0.00000000000E+00 0.  1.
</event>
<event>
 7    1  0.4592673E-010  0.4778727E+02  0.7816164E-02  0.1312668E+00
        -11   -1    0    0    0    0  0.00000000000E+00  0.00000000000E+00  0.45593999997E+02  0.45594000000E+02  0.51100000000E-03 0.  1.
         11   -1    0    0    0    0 -0.00000000000E+00 -0.00000000000E+00 -0.45593999997E+02  0.45594000000E+02  0.51100000000E-03 0. -1.
    9900012    2    1    2    0    0  0.19620062077E+02 -0.33176444680E+02 -0.19949932135E+02  0.47787272936E+02  0.20000008623E+02 0.  0.
        -12    1    1    2    0    0 -0.19620062077E+02  0.33176444680E+02  0.19949932135E+02  0.43400727064E+02  0.00000000000E+00 0.  1.
         11    1    3    3    0    0  0.67421095152E+01 -0.25357213813E+02 -0.74361343398E+01  0.27271604780E+02  0.51100000000E-03 0. -1.
        -11    1    3    3    0    0 -0.40427358807E+00 -0.19916685717E+00  0.30616388152E+00  0.54483130828E+00  0.51100000000E-03 0.  1.
        -12    1    3    3    0    0  0.13282226149E+02 -0.76200640101E+01 -0.12819961677E+02  0.19970836848E+02  0.00000000000E+00 0.  1.
</event>
<event>
 7    1  0.4592673E-010  0.4778727E+02  0.7816164E-02  0.1312668E+00
        -11   -1    0    0    0    0  0.00000000000E+00  0.00000000000E+00  0.45593999997E+02  0.45594000000E+02  0.51100000000E-03 0.  1.
         11   -1    0    0    0    0 -0.00000000000E+00 -0.00000000000E+00 -0.45593999997E+02  0.45594000000E+02  0.51100000000E-03 0. -1.
    9900012    2    1    2    0    0  0.38475119315E+01 -0.12729725405E+02 -0.41313126350E+02  0.47787266530E+02  0.19999979416E+02 0.  0.
        -12    1    1    2    0    0 -0.38475119315E+01  0.12729725405E+02  0.41313126350E+02  0.43400733470E+02  0.00000000000E+00 0.  1.
         11    1    3    3    0    0 -0.42184092918E+01 -0.19132419244E+01 -0.28319723813E+01  0.54291380020E+01  0.51100000000E-03 0.  1.
        -11    1    3    3    0    0 -0.99180881454E+00 -0.12951114753E+01 -0.17669487252E+02  0.17744626749E+02  0.51100000000E-03 0. -1.
        -12    1    3    3    0    0  0.90577300378E+01 -0.95213720054E+01 -0.20811666717E+02  0.24613501779E+02  0.00000000000E+00 0.  1.
</event>
<event>
 7    1  0.4592673E-010  0.4778729E+02  0.7816164E-02  0.1312668E+00
        -11   -1    0    0    0    0  0.00000000000E+00  0.00000000000E+00  0.45593999997E+02  0.45594000000E+02  0.51100000000E-03 0.  1.
         11   -1    0    0    0    0 -0.00000000000E+00 -0.00000000000E+00 -0.45593999997E+02  0.45594000000E+02  0.51100000000E-03 0. -1.
    9900012    2    1    2    0    0  0.22882791662E+02 -0.88669594008E+00 -0.36867509305E+02  0.47787290025E+02  0.20000086540E+02 0.  0.
        -12    1    1    2    0    0 -0.22882791662E+02  0.88669594008E+00  0.36867509305E+02  0.43400709975E+02  0.00000000000E+00 0.  1.
         11    1    3    3    0    0  0.92314774181E+01  0.13922006151E+01 -0.89411071752E+01  0.12926785975E+02  0.51100000000E-03 0. -1.
        -11    1    3    3    0    0 -0.11674310071E+01 -0.15573617736E+00  0.14629496902E+01  0.18781296469E+01  0.51100000000E-03 0.  1.
        -12    1    3    3    0    0  0.14818745251E+02 -0.21231603778E+01 -0.29389351820E+02  0.32982374403E+02  0.00000000000E+00 0.  1.
</event>
<event>
 7    1  0.4592673E-010  0.4778727E+02  0.7816164E-02  0.1312668E+00
        -11   -1    0    0    0    0  0.00000000000E+00  0.00000000000E+00  0.45593999997E+02  0.45594000000E+02  0.51100000000E-03 0.  1.
         11   -1    0    0    0    0 -0.00000000000E+00 -0.00000000000E+00 -0.45593999997E+02  0.45594000000E+02  0.51100000000E-03 0. -1.
    9900012    2    1    2    0    0 -0.39297273126E+02 -0.97460136024E+01 -0.15632109564E+02  0.47787270678E+02  0.19999998328E+02 0.  0.
        -12    1    1    2    0    0  0.39297273126E+02  0.97460136024E+01  0.15632109564E+02  0.43400729322E+02  0.00000000000E+00 0.  1.
         11    1    3    3    0    0 -0.13809733105E+02 -0.41655012473E+01 -0.13572159081E+02  0.19805646454E+02  0.51100000000E-03 0. -1.
        -11    1    3    3    0    0 -0.12065257128E+02  0.78452159122E+00 -0.45516122696E+01  0.12919097423E+02  0.51100000000E-03 0.  1.
        -12    1    3    3    0    0 -0.13422282893E+02 -0.63650339463E+01  0.24916617865E+01  0.15062526801E+02  0.00000000000E+00 0.  1.
</event>
<event>
 7    1  0.4592673E-010  0.4778727E+02  0.7816164E-02  0.1312668E+00
        -11   -1    0    0    0    0  0.00000000000E+00  0.00000000000E+00  0.45593999997E+02  0.45594000000E+02  0.51100000000E-03 0.  1.
         11   -1    0    0    0    0 -0.00000000000E+00 -0.00000000000E+00 -0.45593999997E+02  0.45594000000E+02  0.51100000000E-03 0. -1.
    9900012    2    1    2    0    0 -0.33513750393E+02  0.27517374957E+02  0.18016725728E+01  0.47787269430E+02  0.19999992639E+02 0.  0.
        -12    1    1    2    0    0  0.33513750393E+02 -0.27517374957E+02 -0.18016725728E+01  0.43400730570E+02  0.00000000000E+00 0.  1.
         11    1    3    3    0    0 -0.84520792227E+01  0.12310910113E+01  0.14283610253E+01  0.86598755039E+01  0.51100000000E-03 0. -1.
        -11    1    3    3    0    0 -0.15635100231E+02  0.62814550177E+01  0.19203452069E+01  0.16958796017E+02  0.51100000000E-03 0.  1.
        -12    1    3    3    0    0 -0.94265709399E+01  0.20004828928E+02 -0.15470336593E+01  0.22168597909E+02  0.00000000000E+00 0.  1.
</event>
<event>
 7    1  0.4592673E-010  0.4778727E+02  0.7816164E-02  0.1312668E+00
        -11   -1    0    0    0    0  0.00000000000E+00  0.00000000000E+00  0.45593999997E+02  0.45594000000E+02  0.51100000000E-03 0.  1.
         11   -1    0    0    0    0 -0.00000000000E+00 -0.00000000000E+00 -0.45593999997E+02  0.45594000000E+02  0.51100000000E-03 0. -1.
    9900012    2    1    2    0    0  0.43188768868E+02  0.20196777016E+01 -0.37781188126E+01  0.47787273784E+02  0.20000012491E+02 0.  0.
        -12    1    1    2    0    0 -0.43188768868E+02 -0.20196777016E+01  0.37781188126E+01  0.43400726216E+02  0.00000000000E+00 0.  1.
         11    1    3    3    0    0  0.21725169682E+02  0.41900751247E+01 -0.16145827506E+01  0.22184377498E+02  0.51100000000E-03 0. -1.
        -11    1    3    3    0    0  0.17852569343E+02 -0.38214568636E+01  0.35955815477E+01  0.18607685821E+02  0.51100000000E-03 0.  1.
        -12    1    3    3    0    0  0.36110298430E+01  0.16510594405E+01 -0.57591176097E+01  0.69952104647E+01  0.00000000000E+00 0.  1.
</event>
<event>
 7    1  0.4592673E-010  0.4778726E+02  0.7816164E-02  0.1312668E+00
        -11   -1    0    0    0    0  0.00000000000E+00  0.00000000000E+00  0.45593999997E+02  0.45594000000E+02  0.51100000000E-03 0.  1.
         11   -1    0    0    0    0 -0.00000000000E+00 -0.00000000000E+00 -0.45593999997E+02  0.45594000000E+02  0.51100000000E-03 0. -1.
    9900012    2    1    2    0    0  0.24532829736E+02  0.64109698096E+01 -0.35223057923E+02  0.47787261778E+02  0.19999957751E+02 0.  0.
        -12    1    1    2    0    0 -0.24532829736E+02 -0.64109698096E+01  0.35223057923E+02  0.43400738222E+02  0.00000000000E+00 0.  1.
         11    1    3    3    0    0  0.28646205335E+01  0.21398160574E+01 -0.12524227912E+02  0.13024636218E+02  0.51100000000E-03 0. -1.
        -11    1    3    3    0    0 -0.20544479672E+01  0.11835628853E+01 -0.15567551105E+01  0.28363822536E+01  0.51100000000E-03 0.  1.
         12    1    3    3    0    0  0.23722657170E+02  0.30875908668E+01 -0.21142074900E+02  0.31926243306E+02  0.00000000000E+00 0. -1.
</event>
<event>
 7    1  0.4592673E-010  0.4778727E+02  0.7816164E-02  0.1312668E+00
        -11   -1    0    0    0    0  0.00000000000E+00  0.00000000000E+00  0.45593999997E+02  0.45594000000E+02  0.51100000000E-03 0.  1.
         11   -1    0    0    0    0 -0.00000000000E+00 -0.00000000000E+00 -0.45593999997E+02  0.45594000000E+02  0.51100000000E-03 0. -1.
    9900012    2    1    2    0    0  0.29892653692E+02  0.20942616354E+02 -0.23483167387E+02  0.47787273336E+02  0.20000010446E+02 0.  0.
        -12    1    1    2    0    0 -0.29892653692E+02 -0.20942616354E+02  0.23483167387E+02  0.43400726664E+02  0.00000000000E+00 0.  1.
         11    1    3    3    0    0  0.39612621067E+01 -0.29161040027E+00 -0.12675857313E+01  0.41693414289E+01  0.51100000000E-03 0. -1.
        -11    1    3    3    0    0  0.15921061226E+02  0.73284174159E+01 -0.19586297715E+02  0.26283244678E+02  0.51100000000E-03 0.  1.
         12    1    3    3    0    0  0.10010330359E+02  0.13905809338E+02 -0.26292839404E+01  0.17334687228E+02  0.00000000000E+00 0. -1.
</event>
<event>
 7    1  0.4592673E-010  0.4778728E+02  0.7816164E-02  0.1312668E+00
        -11   -1    0    0    0    0  0.00000000000E+00  0.00000000000E+00  0.45593999997E+02  0.45594000000E+02  0.51100000000E-03 0.  1.
         11   -1    0    0    0    0 -0.00000000000E+00 -0.00000000000E+00 -0.45593999997E+02  0.45594000000E+02  0.51100000000E-03 0. -1.
    9900012    2    1    2    0    0 -0.37037000552E+02 -0.22033201019E+02 -0.51401382061E+01  0.47787281367E+02  0.20000047067E+02 0.  0.
        -12    1    1    2    0    0  0.37037000552E+02  0.22033201019E+02  0.51401382061E+01  0.43400718633E+02  0.00000000000E+00 0.  1.
         11    1    3    3    0    0 -0.21021065867E+02 -0.36726193576E+01 -0.32443606138E+01  0.21584698728E+02  0.51100000000E-03 0. -1.
        -11    1    3    3    0    0 -0.19632907504E+01 -0.65601603086E+00  0.24263271729E+01  0.31893465497E+01  0.51100000000E-03 0.  1.
        -12    1    3    3    0    0 -0.14052643935E+02 -0.17704565630E+02 -0.43221047652E+01  0.23013236090E+02  0.00000000000E+00 0.  1.
</event>
<event>
 7    1  0.4592673E-010  0.4778727E+02  0.7816164E-02  0.1312668E+00
        -11   -1    0    0    0    0  0.00000000000E+00  0.00000000000E+00  0.45593999997E+02  0.45594000000E+02  0.51100000000E-03 0. -1.
         11   -1    0    0    0    0 -0.00000000000E+00 -0.00000000000E+00 -0.45593999997E+02  0.45594000000E+02  0.51100000000E-03 0.  1.
    9900012    2    1    2    0    0 -0.14209145730E+02  0.32991285016E+02  0.24357724635E+02  0.47787268914E+02  0.19999990289E+02 0.  0.
        -12    1    1    2    0    0  0.14209145730E+02 -0.32991285016E+02 -0.24357724635E+02  0.43400731086E+02  0.00000000000E+00 0.  1.
         11    1    3    3    0    0 -0.61422547160E+00  0.11521670218E+01 -0.11431336502E+01  0.17353721732E+01  0.51100000000E-03 0.  1.
        -11    1    3    3    0    0 -0.61256623681E+01  0.17513306076E+02  0.23240920413E+02  0.29738527386E+02  0.51100000000E-03 0. -1.
         12    1    3    3    0    0 -0.74692578905E+01  0.14325811918E+02  0.22599378718E+01  0.16313369355E+02  0.00000000000E+00 0. -1.
</event>
<event>
 7    1  0.4592673E-010  0.4778727E+02  0.7816164E-02  0.1312668E+00
        -11   -1    0    0    0    0  0.00000000000E+00  0.00000000000E+00  0.45593999997E+02  0.45594000000E+02  0.51100000000E-03 0.  1.
         11   -1    0    0    0    0 -0.00000000000E+00 -0.00000000000E+00 -0.45593999997E+02  0.45594000000E+02  0.51100000000E-03 0. -1.
    9900012    2    1    2    0    0 -0.44039702609E+01 -0.88427934038E+00 -0.43167652236E+02  0.47787273006E+02  0.20000008945E+02 0.  0.
        -12    1    1    2    0    0  0.44039702609E+01  0.88427934038E+00  0.43167652236E+02  0.43400726994E+02  0.00000000000E+00 0.  1.
         11    1    3    3    0    0 -0.65682204071E+01 -0.44090841296E+01 -0.19672863176E+02  0.21203846065E+02  0.51100000000E-03 0. -1.
        -11    1    3    3    0    0 -0.28045895996E+01 -0.12692100597E+01 -0.13038188609E+01  0.33431363838E+01  0.51100000000E-03 0.  1.
        -12    1    3    3    0    0  0.49688397458E+01  0.47940148489E+01 -0.22190970199E+02  0.23240290557E+02  0.00000000000E+00 0.  1.
</event>
<event>
 7    1  0.4592673E-010  0.4778727E+02  0.7816164E-02  0.1312668E+00
        -11   -1    0    0    0    0  0.00000000000E+00  0.00000000000E+00  0.45593999997E+02  0.45594000000E+02  0.51100000000E-03 0.  1.
         11   -1    0    0    0    0 -0.00000000000E+00 -0.00000000000E+00 -0.45593999997E+02  0.45594000000E+02  0.51100000000E-03 0. -1.
    9900012    2    1    2    0    0  0.16941344507E+02  0.37943724898E+02 -0.12525493010E+02  0.47787269730E+02  0.19999994006E+02 0.  0.
        -12    1    1    2    0    0 -0.16941344507E+02 -0.37943724898E+02  0.12525493010E+02  0.43400730270E+02  0.00000000000E+00 0.  1.
         11    1    3    3    0    0  0.68507270083E+01  0.29757162102E+02 -0.87195935087E+01  0.31756140636E+02  0.51100000000E-03 0. -1.
        -11    1    3    3    0    0  0.11802950728E+01  0.61316861095E+01 -0.34457694813E+00  0.62537512373E+01  0.51100000000E-03 0.  1.
        -12    1    3    3    0    0  0.89103224255E+01  0.20548766867E+01 -0.34613225535E+01  0.97773778562E+01  0.00000000000E+00 0.  1.
</event>
<event>
 7    1  0.4592673E-010  0.4778727E+02  0.7816164E-02  0.1312668E+00
        -11   -1    0    0    0    0  0.00000000000E+00  0.00000000000E+00  0.45593999997E+02  0.45594000000E+02  0.51100000000E-03 0.  1.
         11   -1    0    0    0    0 -0.00000000000E+00 -0.00000000000E+00 -0.45593999997E+02  0.45594000000E+02  0.51100000000E-03 0. -1.
    9900012    2    1    2    0    0  0.31149795088E+01 -0.36972546691E+02 -0.22515573270E+02  0.47787270215E+02  0.19999996218E+02 0.  0.
        -12    1    1    2    0    0 -0.31149795088E+01  0.36972546691E+02  0.22515573270E+02  0.43400729785E+02  0.00000000000E+00 0.  1.
         11    1    3    3    0    0 -0.19206275707E+01 -0.90585970600E+01 -0.60549592075E+01  0.11063883686E+02  0.51100000000E-03 0. -1.
        -11    1    3    3    0    0  0.46308502280E+01 -0.72087794571E+00  0.43437331139E+00  0.47067100274E+01  0.51100000000E-03 0.  1.
        -12    1    3    3    0    0  0.40475685140E+00 -0.27193071686E+02 -0.16894987374E+02  0.32016676501E+02  0.00000000000E+00 0.  1.
</event>
<event>
 7    1  0.4592673E-010  0.4778728E+02  0.7816164E-02  0.1312668E+00
        -11   -1    0    0    0    0  0.00000000000E+00  0.00000000000E+00  0.45593999997E+02  0.45594000000E+02  0.51100000000E-03 0. -1.
         11   -1    0    0    0    0 -0.00000000000E+00 -0.00000000000E+00 -0.45593999997E+02  0.45594000000E+02  0.51100000000E-03 0.  1.
    9900012    2    1    2    0    0 -0.25788431591E+02  0.34650010534E+02 -0.42374132501E+01  0.47787284511E+02  0.20000061398E+02 0.  0.
        -12    1    1    2    0    0  0.25788431591E+02 -0.34650010534E+02  0.42374132501E+01  0.43400715489E+02  0.00000000000E+00 0.  1.
         11    1    3    3    0    0 -0.35996646172E+00  0.33467939538E+01  0.62499517823E+00  0.34236274413E+01  0.51100000000E-03 0.  1.
        -11    1    3    3    0    0 -0.28970269094E+01 -0.20237242202E+01  0.10872516478E+01  0.36973424294E+01  0.51100000000E-03 0. -1.
         12    1    3    3    0    0 -0.22531438219E+02  0.33326940801E+02 -0.59496600762E+01  0.40666314640E+02  0.00000000000E+00 0. -1.
</event>
<event>
 7    1  0.4592673E-010  0.4778727E+02  0.7816164E-02  0.1312668E+00
        -11   -1    0    0    0    0  0.00000000000E+00  0.00000000000E+00  0.45593999997E+02  0.45594000000E+02  0.51100000000E-03 0. -1.
         11   -1    0    0    0    0 -0.00000000000E+00 -0.00000000000E+00 -0.45593999997E+02  0.45594000000E+02  0.51100000000E-03 0.  1.
    9900012    2    1    2    0    0 -0.35931051348E+02  0.23184361360E+02 -0.74207936163E+01  0.47787271429E+02  0.20000001752E+02 0.  0.
        -12    1    1    2    0    0  0.35931051348E+02 -0.23184361360E+02  0.74207936163E+01  0.43400728571E+02  0.00000000000E+00 0.  1.
         11    1    3    3    0    0 -0.13077878564E+02  0.70087124865E+01 -0.62463235933E+01  0.16098742719E+02  0.51100000000E-03 0. -1.
        -11    1    3    3    0    0 -0.78755022738E+01 -0.83739837125E+00 -0.39541666641E+01  0.88521300468E+01  0.51100000000E-03 0.  1.
        -12    1    3    3    0    0 -0.14977670510E+02  0.17013047245E+02  0.27796966411E+01  0.22836398662E+02  0.00000000000E+00 0.  1.
</event>
<event>
 7    1  0.4592673E-010  0.4778727E+02  0.7816164E-02  0.1312668E+00
        -11   -1    0    0    0    0  0.00000000000E+00  0.00000000000E+00  0.45593999997E+02  0.45594000000E+02  0.51100000000E-03 0. -1.
         11   -1    0    0    0    0 -0.00000000000E+00 -0.00000000000E+00 -0.45593999997E+02  0.45594000000E+02  0.51100000000E-03 0.  1.
    9900012    2    1    2    0    0  0.25044297884E+01 -0.31829023934E+02  0.29398375733E+02  0.47787269258E+02  0.19999991856E+02 0.  0.
        -12    1    1    2    0    0 -0.25044297884E+01  0.31829023934E+02 -0.29398375733E+02  0.43400730742E+02  0.00000000000E+00 0.  1.
         11    1    3    3    0    0 -0.24513529271E+00 -0.61445884805E+01  0.42762276006E+01  0.74901389613E+01  0.51100000000E-03 0. -1.
        -11    1    3    3    0    0 -0.56076290986E+01 -0.13447376596E+01  0.49218048839E+01  0.75814238146E+01  0.51100000000E-03 0.  1.
        -12    1    3    3    0    0  0.83571941797E+01 -0.24339697794E+02  0.20200343249E+02  0.32715706482E+02  0.00000000000E+00 0.  1.
</event>
<event>
 7    1  0.4592673E-010  0.4778727E+02  0.7816164E-02  0.1312668E+00
        -11   -1    0    0    0    0  0.00000000000E+00  0.00000000000E+00  0.45593999997E+02  0.45594000000E+02  0.51100000000E-03 0. -1.
         11   -1    0    0    0    0 -0.00000000000E+00 -0.00000000000E+00 -0.45593999997E+02  0.45594000000E+02  0.51100000000E-03 0.  1.
    9900012    2    1    2    0    0  0.24988372142E+02  0.28319743642E+02  0.21382158524E+02  0.47787270451E+02  0.19999997295E+02 0.  0.
        -12    1    1    2    0    0 -0.24988372142E+02 -0.28319743642E+02 -0.21382158524E+02  0.43400729549E+02  0.00000000000E+00 0.  1.
         11    1    3    3    0    0  0.12502537299E+02  0.98948395892E+01  0.12154007918E+01  0.15990574997E+02  0.51100000000E-03 0. -1.
        -11    1    3    3    0    0  0.10521662321E+02  0.63266798890E+01  0.90862789304E+01  0.15273922924E+02  0.51100000000E-03 0.  1.
        -12    1    3    3    0    0  0.19641725218E+01  0.12098224164E+02  0.11080478802E+02  0.16522772530E+02  0.00000000000E+00 0.  1.
</event>
<event>
 7    1  0.4592673E-010  0.4778727E+02  0.7816164E-02  0.1312668E+00
        -11   -1    0    0    0    0  0.00000000000E+00  0.00000000000E+00  0.45593999997E+02  0.45594000000E+02  0.51100000000E-03 0. -1.
         11   -1    0    0    0    0 -0.00000000000E+00 -0.00000000000E+00 -0.45593999997E+02  0.45594000000E+02  0.51100000000E-03 0.  1.
    9900012    2    1    2    0    0  0.27297605585E+02  0.33728689750E+02  0.91646990206E+00  0.47787266135E+02  0.19999977618E+02 0.  0.
        -12    1    1    2    0    0 -0.27297605585E+02 -0.33728689750E+02 -0.91646990206E+00  0.43400733865E+02  0.00000000000E+00 0.  1.
         11    1    3    3    0    0  0.11724069760E+02  0.23144530275E+02  0.21216292217E+01  0.26031219799E+02  0.51100000000E-03 0. -1.
        -11    1    3    3    0    0  0.48808200928E+00  0.80984033593E+00  0.31264369435E+01  0.32662935631E+01  0.51100000000E-03 0.  1.
        -12    1    3    3    0    0  0.15085453815E+02  0.97743191390E+01 -0.43315962631E+01  0.18489752774E+02  0.00000000000E+00 0.  1.
</event>
<event>
 7    1  0.4592673E-010  0.4778727E+02  0.7816164E-02  0.1312668E+00
        -11   -1    0    0    0    0  0.00000000000E+00  0.00000000000E+00  0.45593999997E+02  0.45594000000E+02  0.51100000000E-03 0. -1.
         11   -1    0    0    0    0 -0.00000000000E+00 -0.00000000000E+00 -0.45593999997E+02  0.45594000000E+02  0.51100000000E-03 0.  1.
    9900012    2    1    2    0    0 -0.19111711839E+02 -0.38966204500E+02 -0.25171415123E-01  0.47787271248E+02  0.20000000929E+02 0.  0.
        -12    1    1    2    0    0  0.19111711839E+02  0.38966204500E+02  0.25171415123E-01  0.43400728752E+02  0.00000000000E+00 0.  1.
         11    1    3    3    0    0 -0.32767607786E+01 -0.65379027069E+01 -0.43108048093E+01  0.84890736462E+01  0.51100000000E-03 0. -1.
        -11    1    3    3    0    0 -0.96900501886E+01 -0.11711685089E+02 -0.46777881627E+01  0.15904161174E+02  0.51100000000E-03 0.  1.
        -12    1    3    3    0    0 -0.61449008718E+01 -0.20716616705E+02  0.89634215569E+01  0.23394036428E+02  0.00000000000E+00 0.  1.
</event>
<event>
 7    1  0.4592673E-010  0.4778727E+02  0.7816164E-02  0.1312668E+00
        -11   -1    0    0    0    0  0.00000000000E+00  0.00000000000E+00  0.45593999997E+02  0.45594000000E+02  0.51100000000E-03 0. -1.
         11   -1    0    0    0    0 -0.00000000000E+00 -0.00000000000E+00 -0.45593999997E+02  0.45594000000E+02  0.51100000000E-03 0.  1.
    9900012    2    1    2    0    0  0.13801104466E+01 -0.42381083000E+02 -0.92499898451E+01  0.47787271743E+02  0.20000003183E+02 0.  0.
        -12    1    1    2    0    0 -0.13801104466E+01  0.42381083000E+02  0.92499898451E+01  0.43400728257E+02  0.00000000000E+00 0.  1.
         11    1    3    3    0    0  0.77272830295E+01 -0.19010515668E+02 -0.66481044710E+01  0.21570996785E+02  0.51100000000E-03 0.  1.
        -11    1    3    3    0    0 -0.50699180912E+00 -0.16690939852E+02  0.79002902339E+00  0.16717316171E+02  0.51100000000E-03 0. -1.
        -12    1    3    3    0    0 -0.58401807737E+01 -0.66796274797E+01 -0.33919143976E+01  0.94989587860E+01  0.00000000000E+00 0.  1.
</event>
<event>
 7    1  0.4592673E-010  0.4778727E+02  0.7816164E-02  0.1312668E+00
        -11   -1    0    0    0    0  0.00000000000E+00  0.00000000000E+00  0.45593999997E+02  0.45594000000E+02  0.51100000000E-03 0.  1.
         11   -1    0    0    0    0 -0.00000000000E+00 -0.00000000000E+00 -0.45593999997E+02  0.45594000000E+02  0.51100000000E-03 0. -1.
    9900012    2    1    2    0    0 -0.35467281342E+02 -0.22716800100E+02  0.10471004198E+02  0.47787274413E+02  0.20000015358E+02 0.  0.
        -12    1    1    2    0    0  0.35467281342E+02  0.22716800100E+02 -0.10471004198E+02  0.43400725587E+02  0.00000000000E+00 0.  1.
         11    1    3    3    0    0 -0.11622173746E+02 -0.12377393808E+02  0.82116958305E+00  0.16998503458E+02  0.51100000000E-03 0. -1.
        -11    1    3    3    0    0 -0.10127103120E+02 -0.41221280677E+01 -0.27562794154E+01  0.11275958225E+02  0.51100000000E-03 0.  1.
        -12    1    3    3    0    0 -0.13718004476E+02 -0.62172782240E+01  0.12406114030E+02  0.19512812730E+02  0.00000000000E+00 0.  1.
</event>
<event>
 7    1  0.4592673E-010  0.4778727E+02  0.7816164E-02  0.1312668E+00
        -11   -1    0    0    0    0  0.00000000000E+00  0.00000000000E+00  0.45593999997E+02  0.45594000000E+02  0.51100000000E-03 0.  1.
         11   -1    0    0    0    0 -0.00000000000E+00 -0.00000000000E+00 -0.45593999997E+02  0.45594000000E+02  0.51100000000E-03 0. -1.
    9900012    2    1    2    0    0  0.10841724247E+02 -0.32944757964E+02 -0.26090670347E+02  0.47787272574E+02  0.20000006975E+02 0.  0.
        -12    1    1    2    0    0 -0.10841724247E+02  0.32944757964E+02  0.26090670347E+02  0.43400727426E+02  0.00000000000E+00 0.  1.
         11    1    3    3    0    0 -0.39066310242E+00 -0.15661130810E+02 -0.76824998780E+01  0.17448336326E+02  0.51100000000E-03 0.  1.
        -11    1    3    3    0    0  0.81319290334E+01 -0.18364071785E+02 -0.12726169466E+02  0.23776517657E+02  0.51100000000E-03 0. -1.
         12    1    3    3    0    0  0.31004583160E+01  0.10804446318E+01 -0.56820010025E+01  0.65624185911E+01  0.00000000000E+00 0. -1.
</event>
<event>
 7    1  0.4592673E-010  0.4778726E+02  0.7816164E-02  0.1312668E+00
        -11   -1    0    0    0    0  0.00000000000E+00  0.00000000000E+00  0.45593999997E+02  0.45594000000E+02  0.51100000000E-03 0. -1.
         11   -1    0    0    0    0 -0.00000000000E+00 -0.00000000000E+00 -0.45593999997E+02  0.45594000000E+02  0.51100000000E-03 0.  1.
    9900012    2    1    2    0    0  0.10815996441E+02 -0.36133832712E+02  0.21470560090E+02  0.47787255813E+02  0.19999930552E+02 0.  0.
        -12    1    1    2    0    0 -0.10815996441E+02  0.36133832712E+02 -0.21470560090E+02  0.43400744187E+02  0.00000000000E+00 0.  1.
         11    1    3    3    0    0 -0.33797290084E+01 -0.83609273929E+01  0.66289202042E+01  0.11192419684E+02  0.51100000000E-03 0. -1.
        -11    1    3    3    0    0  0.19318807575E+01 -0.63692433673E+01  0.90879304966E+01  0.11264541948E+02  0.51100000000E-03 0.  1.
         12    1    3    3    0    0  0.12263844692E+02 -0.21403661951E+02  0.57537093891E+01  0.25330294181E+02  0.00000000000E+00 0. -1.
</event>
<event>
 7    1  0.4592673E-010  0.4778727E+02  0.7816164E-02  0.1312668E+00
        -11   -1    0    0    0    0  0.00000000000E+00  0.00000000000E+00  0.45593999997E+02  0.45594000000E+02  0.51100000000E-03 0. -1.
         11   -1    0    0    0    0 -0.00000000000E+00 -0.00000000000E+00 -0.45593999997E+02  0.45594000000E+02  0.51100000000E-03 0.  1.
    9900012    2    1    2    0    0  0.39419898824E+02 -0.41368191538E+01  0.17679978595E+02  0.47787270293E+02  0.19999996574E+02 0.  0.
        -12    1    1    2    0    0 -0.39419898824E+02  0.41368191538E+01 -0.17679978595E+02  0.43400729707E+02  0.00000000000E+00 0.  1.
         11    1    3    3    0    0  0.10126688362E+02  0.14740580756E+01  0.99933205078E+00  0.10282087784E+02  0.51100000000E-03 0. -1.
        -11    1    3    3    0    0  0.16950435059E+00  0.29071791156E+01  0.71239615830E-01  0.29129877238E+01  0.51100000000E-03 0.  1.
         12    1    3    3    0    0  0.29123706111E+02 -0.85180563451E+01  0.16609406928E+02  0.34592194785E+02  0.00000000000E+00 0. -1.
</event>
<event>
 7    1  0.4592673E-010  0.4778729E+02  0.7816164E-02  0.1312668E+00
        -11   -1    0    0    0    0  0.00000000000E+00  0.00000000000E+00  0.45593999997E+02  0.45594000000E+02  0.51100000000E-03 0.  1.
         11   -1    0    0    0    0 -0.00000000000E+00 -0.00000000000E+00 -0.45593999997E+02  0.45594000000E+02  0.51100000000E-03 0. -1.
    9900012    2    1    2    0    0 -0.40155387735E+02 -0.15320016610E+02 -0.60384965335E+01  0.47787291325E+02  0.20000092466E+02 0.  0.
        -12    1    1    2    0    0  0.40155387735E+02  0.15320016610E+02  0.60384965335E+01  0.43400708675E+02  0.00000000000E+00 0.  1.
         11    1    3    3    0    0 -0.39595429233E+02 -0.11249851983E+02 -0.69939417951E+01  0.41752513791E+02  0.51100000000E-03 0. -1.
        -11    1    3    3    0    0 -0.57459433806E+00 -0.22250333950E+01 -0.16593406241E+01  0.28344918116E+01  0.51100000000E-03 0.  1.
         12    1    3    3    0    0  0.14635835719E-01 -0.18451312329E+01  0.26147858857E+01  0.32002857219E+01  0.00000000000E+00 0. -1.
</event>
<event>
 7    1  0.4592673E-010  0.4778727E+02  0.7816164E-02  0.1312668E+00
        -11   -1    0    0    0    0  0.00000000000E+00  0.00000000000E+00  0.45593999997E+02  0.45594000000E+02  0.51100000000E-03 0.  1.
         11   -1    0    0    0    0 -0.00000000000E+00 -0.00000000000E+00 -0.45593999997E+02  0.45594000000E+02  0.51100000000E-03 0. -1.
    9900012    2    1    2    0    0  0.12663142896E+02 -0.34630299233E+02  0.22891276532E+02  0.47787270118E+02  0.19999995778E+02 0.  0.
        -12    1    1    2    0    0 -0.12663142896E+02  0.34630299233E+02 -0.22891276532E+02  0.43400729882E+02  0.00000000000E+00 0.  1.
         11    1    3    3    0    0  0.96826141083E+01 -0.11292774927E+02  0.28103309736E+01  0.15138617571E+02  0.51100000000E-03 0. -1.
        -11    1    3    3    0    0  0.28277582985E+01 -0.13163930410E+02  0.48081327930E+01  0.14296972479E+02  0.51100000000E-03 0.  1.
         12    1    3    3    0    0  0.15277048934E+00 -0.10173593897E+02  0.15272812765E+02  0.18351680069E+02  0.00000000000E+00 0. -1.
</event>
<event>
 7    1  0.4592673E-010  0.4778727E+02  0.7816164E-02  0.1312668E+00
        -11   -1    0    0    0    0  0.00000000000E+00  0.00000000000E+00  0.45593999997E+02  0.45594000000E+02  0.51100000000E-03 0.  1.
         11   -1    0    0    0    0 -0.00000000000E+00 -0.00000000000E+00 -0.45593999997E+02  0.45594000000E+02  0.51100000000E-03 0. -1.
    9900012    2    1    2    0    0  0.14362026926E+02 -0.35076341045E+02 -0.21142512063E+02  0.47787270342E+02  0.19999996796E+02 0.  0.
        -12    1    1    2    0    0 -0.14362026926E+02  0.35076341045E+02  0.21142512063E+02  0.43400729658E+02  0.00000000000E+00 0.  1.
         11    1    3    3    0    0  0.13496083255E+02 -0.30306666108E+02 -0.14993414352E+02  0.36406603083E+02  0.51100000000E-03 0. -1.
        -11    1    3    3    0    0  0.32644025828E+01 -0.24969327647E+00  0.13509309173E+00  0.32767241812E+01  0.51100000000E-03 0.  1.
        -12    1    3    3    0    0 -0.23984589120E+01 -0.45199816603E+01 -0.62841908029E+01  0.81039430779E+01  0.00000000000E+00 0.  1.
</event>
<event>
 7    1  0.4592673E-010  0.4778727E+02  0.7816164E-02  0.1312668E+00
        -11   -1    0    0    0    0  0.00000000000E+00  0.00000000000E+00  0.45593999997E+02  0.45594000000E+02  0.51100000000E-03 0.  1.
         11   -1    0    0    0    0 -0.00000000000E+00 -0.00000000000E+00 -0.45593999997E+02  0.45594000000E+02  0.51100000000E-03 0. -1.
    9900012    2    1    2    0    0 -0.24560365971E+01 -0.19650815405E+02 -0.38619118455E+02  0.47787274521E+02  0.20000015853E+02 0.  0.
        -12    1    1    2    0    0  0.24560365971E+01  0.19650815405E+02  0.38619118455E+02  0.43400725479E+02  0.00000000000E+00 0.  1.
         11    1    3    3    0    0 -0.57782691111E+01 -0.12874373951E+02 -0.22271643922E+02  0.26365963320E+02  0.51100000000E-03 0. -1.
        -11    1    3    3    0    0  0.19522209359E+01 -0.93839994439E+01 -0.77275601334E+01  0.12312018438E+02  0.51100000000E-03 0.  1.
         12    1    3    3    0    0  0.13700115781E+01  0.26075579894E+01 -0.86199143995E+01  0.91092927632E+01  0.00000000000E+00 0. -1.
</event>
<event>
 7    1  0.4592673E-010  0.4778728E+02  0.7816164E-02  0.1312668E+00
        -11   -1    0    0    0    0  0.00000000000E+00  0.00000000000E+00  0.45593999997E+02  0.45594000000E+02  0.51100000000E-03 0. -1.
         11   -1    0    0    0    0 -0.00000000000E+00 -0.00000000000E+00 -0.45593999997E+02  0.45594000000E+02  0.51100000000E-03 0.  1.
    9900012    2    1    2    0    0  0.13751939931E+02 -0.36869867273E+02  0.18306282084E+02  0.47787275026E+02  0.20000018152E+02 0.  0.
        -12    1    1    2    0    0 -0.13751939931E+02  0.36869867273E+02 -0.18306282084E+02  0.43400724974E+02  0.00000000000E+00 0.  1.
         11    1    3    3    0    0  0.89203549843E+01 -0.12374724377E+02  0.78796746082E+01  0.17169618768E+02  0.51100000000E-03 0.  1.
        -11    1    3    3    0    0  0.69303715140E+01 -0.20764564796E+02  0.13157280239E+02  0.25540384179E+02  0.51100000000E-03 0. -1.
        -12    1    3    3    0    0 -0.20987865677E+01 -0.37305781002E+01 -0.27306727633E+01  0.50772720784E+01  0.00000000000E+00 0.  1.
</event>
<event>
 7    1  0.4592673E-010  0.4778728E+02  0.7816164E-02  0.1312668E+00
        -11   -1    0    0    0    0  0.00000000000E+00  0.00000000000E+00  0.45593999997E+02  0.45594000000E+02  0.51100000000E-03 0. -1.
         11   -1    0    0    0    0 -0.00000000000E+00 -0.00000000000E+00 -0.45593999997E+02  0.45594000000E+02  0.51100000000E-03 0.  1.
    9900012    2    1    2    0    0 -0.33326063016E+02  0.25578642960E+02 -0.10896295560E+02  0.47787277554E+02  0.20000029681E+02 0.  0.
        -12    1    1    2    0    0  0.33326063016E+02 -0.25578642960E+02  0.10896295560E+02  0.43400722446E+02  0.00000000000E+00 0.  1.
         11    1    3    3    0    0 -0.13605833400E+02  0.78261073635E+01 -0.93060315124E+01  0.18247434936E+02  0.51100000000E-03 0.  1.
        -11    1    3    3    0    0 -0.14294981115E+02  0.64088847948E+01 -0.51169424655E+01  0.16480394105E+02  0.51100000000E-03 0. -1.
        -12    1    3    3    0    0 -0.54252485020E+01  0.11343650802E+02  0.35266784178E+01  0.13059448514E+02  0.00000000000E+00 0.  1.
</event>
<event>
 7    1  0.4592673E-010  0.4778727E+02  0.7816164E-02  0.1312668E+00
        -11   -1    0    0    0    0  0.00000000000E+00  0.00000000000E+00  0.45593999997E+02  0.45594000000E+02  0.51100000000E-03 0. -1.
         11   -1    0    0    0    0 -0.00000000000E+00 -0.00000000000E+00 -0.45593999997E+02  0.45594000000E+02  0.51100000000E-03 0.  1.
    9900012    2    1    2    0    0  0.27439057949E+02 -0.23788592221E+02  0.23766035177E+02  0.47787269027E+02  0.19999990801E+02 0.  0.
        -12    1    1    2    0    0 -0.27439057949E+02  0.23788592221E+02 -0.23766035177E+02  0.43400730973E+02  0.00000000000E+00 0.  1.
         11    1    3    3    0    0  0.74359434085E+01 -0.77418258385E+01  0.53374046081E+01  0.11988202947E+02  0.51100000000E-03 0. -1.
        -11    1    3    3    0    0 -0.72409679058E+00 -0.34730896934E+01  0.91978058701E+01  0.98583112785E+01  0.51100000000E-03 0.  1.
        -12    1    3    3    0    0  0.20727211331E+02 -0.12573676689E+02  0.92308246985E+01  0.25940754801E+02  0.00000000000E+00 0.  1.
</event>
<event>
 7    1  0.4592673E-010  0.4778727E+02  0.7816164E-02  0.1312668E+00
        -11   -1    0    0    0    0  0.00000000000E+00  0.00000000000E+00  0.45593999997E+02  0.45594000000E+02  0.51100000000E-03 0.  1.
         11   -1    0    0    0    0 -0.00000000000E+00 -0.00000000000E+00 -0.45593999997E+02  0.45594000000E+02  0.51100000000E-03 0. -1.
    9900012    2    1    2    0    0 -0.21261709415E-02  0.25792870123E+02 -0.34904889002E+02  0.47787269247E+02  0.19999991803E+02 0.  0.
        -12    1    1    2    0    0  0.21261709415E-02 -0.25792870123E+02  0.34904889002E+02  0.43400730753E+02  0.00000000000E+00 0.  1.
         11    1    3    3    0    0 -0.40924525759E+01  0.14792413981E+02 -0.19261328426E+02  0.24628488635E+02  0.51100000000E-03 0. -1.
        -11    1    3    3    0    0 -0.19429764736E+00  0.10480813488E+02 -0.48814283785E+01  0.11563457365E+02  0.51100000000E-03 0.  1.
        -12    1    3    3    0    0  0.42846240523E+01  0.51964265406E+00 -0.10762132197E+02  0.11595323246E+02  0.00000000000E+00 0.  1.
</event>
<event>
 7    1  0.4592673E-010  0.4778728E+02  0.7816164E-02  0.1312668E+00
        -11   -1    0    0    0    0  0.00000000000E+00  0.00000000000E+00  0.45593999997E+02  0.45594000000E+02  0.51100000000E-03 0.  1.
         11   -1    0    0    0    0 -0.00000000000E+00 -0.00000000000E+00 -0.45593999997E+02  0.45594000000E+02  0.51100000000E-03 0. -1.
    9900012    2    1    2    0    0 -0.22836615121E+02 -0.17943287152E+02 -0.32251359145E+02  0.47787277532E+02  0.20000029581E+02 0.  0.
        -12    1    1    2    0    0  0.22836615121E+02  0.17943287152E+02  0.32251359145E+02  0.43400722468E+02  0.00000000000E+00 0.  1.
         11    1    3    3    0    0 -0.90795303290E+01 -0.13518479852E+02 -0.69262313301E+01  0.17696323042E+02  0.51100000000E-03 0. -1.
        -11    1    3    3    0    0 -0.23704158128E+01 -0.42326230801E+01 -0.70481842526E+01  0.85563351257E+01  0.51100000000E-03 0.  1.
        -12    1    3    3    0    0 -0.11386668979E+02 -0.19218422033E+00 -0.18276943562E+02  0.21534619365E+02  0.00000000000E+00 0.  1.
</event>
<event>
 7    1  0.4592673E-010  0.4778727E+02  0.7816164E-02  0.1312668E+00
        -11   -1    0    0    0    0  0.00000000000E+00  0.00000000000E+00  0.45593999997E+02  0.45594000000E+02  0.51100000000E-03 0. -1.
         11   -1    0    0    0    0 -0.00000000000E+00 -0.00000000000E+00 -0.45593999997E+02  0.45594000000E+02  0.51100000000E-03 0.  1.
    9900012    2    1    2    0    0  0.78151175922E+01 -0.31907972955E+02  0.28362452657E+02  0.47787268188E+02  0.19999986977E+02 0.  0.
        -12    1    1    2    0    0 -0.78151175922E+01  0.31907972955E+02 -0.28362452657E+02  0.43400731812E+02  0.00000000000E+00 0.  1.
         11    1    3    3    0    0  0.30219445264E+01 -0.11552098988E+02  0.15226748440E+02  0.19350374882E+02  0.51100000000E-03 0. -1.
        -11    1    3    3    0    0 -0.35437984166E+01 -0.10819561862E+02  0.10523248479E+02  0.15503553944E+02  0.51100000000E-03 0.  1.
        -12    1    3    3    0    0  0.83369714823E+01 -0.95363121060E+01  0.26124557379E+01  0.12933339362E+02  0.00000000000E+00 0.  1.
</event>
<event>
 7    1  0.4592673E-010  0.4778727E+02  0.7816164E-02  0.1312668E+00
        -11   -1    0    0    0    0  0.00000000000E+00  0.00000000000E+00  0.45593999997E+02  0.45594000000E+02  0.51100000000E-03 0.  1.
         11   -1    0    0    0    0 -0.00000000000E+00 -0.00000000000E+00 -0.45593999997E+02  0.45594000000E+02  0.51100000000E-03 0. -1.
    9900012    2    1    2    0    0  0.30135996388E+02 -0.25031429058E+02 -0.18678126016E+02  0.47787272927E+02  0.20000008582E+02 0.  0.
        -12    1    1    2    0    0 -0.30135996388E+02  0.25031429058E+02  0.18678126016E+02  0.43400727073E+02  0.00000000000E+00 0.  1.
         11    1    3    3    0    0  0.25090058709E+02 -0.14654387646E+02 -0.11369853162E+02  0.31201533368E+02  0.51100000000E-03 0. -1.
        -11    1    3    3    0    0  0.55770084657E+01 -0.94365760484E+01 -0.19671398919E+01  0.11136499924E+02  0.51100000000E-03 0.  1.
        -12    1    3    3    0    0 -0.53107078671E+00 -0.94046536382E+00 -0.53411329617E+01  0.54492396347E+01  0.00000000000E+00 0.  1.
</event>
<event>
 7    1  0.4592673E-010  0.4778727E+02  0.7816164E-02  0.1312668E+00
        -11   -1    0    0    0    0  0.00000000000E+00  0.00000000000E+00  0.45593999997E+02  0.45594000000E+02  0.51100000000E-03 0.  1.
         11   -1    0    0    0    0 -0.00000000000E+00 -0.00000000000E+00 -0.45593999997E+02  0.45594000000E+02  0.51100000000E-03 0. -1.
    9900012    2    1    2    0    0  0.10154229986E+02  0.15708123771E+02 -0.39163376187E+02  0.47787267594E+02  0.19999984268E+02 0.  0.
        -12    1    1    2    0    0 -0.10154229986E+02 -0.15708123771E+02  0.39163376187E+02  0.43400732406E+02  0.00000000000E+00 0.  1.
         11    1    3    3    0    0  0.35932756277E+01  0.14972767495E+02 -0.27173763018E+02  0.31233136138E+02  0.51100000000E-03 0. -1.
        -11    1    3    3    0    0  0.50155855272E+00  0.43364234492E+01 -0.45200470690E+01  0.62838646611E+01  0.51100000000E-03 0.  1.
        -12    1    3    3    0    0  0.60593958052E+01 -0.36010671734E+01 -0.74695661001E+01  0.10270266795E+02  0.00000000000E+00 0.  1.
</event>
<event>
 7    1  0.6271010E-010  0.4778727E+02  0.7816164E-02  0.1312668E+00
        -11   -1    0    0    0    0  0.00000000000E+00  0.00000000000E+00  0.45593999997E+02  0.45594000000E+02  0.51100000000E-03 0.  1.
         11   -1    0    0    0    0 -0.00000000000E+00 -0.00000000000E+00 -0.45593999997E+02  0.45594000000E+02  0.51100000000E-03 0. -1.
    9900012    2    1    2    0    0 -0.38999150386E+02  0.14370386510E+02  0.12497256613E+02  0.47787272332E+02  0.20000005871E+02 0.  0.
        -12    1    1    2    0    0  0.38999150386E+02 -0.14370386510E+02 -0.12497256613E+02  0.43400727668E+02  0.00000000000E+00 0.  1.
         11    1    3    3    0    0 -0.22826233617E+02  0.57221239389E+01  0.12426919162E+01  0.23565311943E+02  0.51100000000E-03 0. -1.
        -11    1    3    3    0    0 -0.35394430014E+01  0.19274893593E+01 -0.21901913413E+01  0.45869173050E+01  0.51100000000E-03 0.  1.
        -12    1    3    3    0    0 -0.12633473767E+02  0.67207732118E+01  0.13444756038E+02  0.19635043084E+02  0.00000000000E+00 0.  1.
</event>
<event>
 7    1  0.4917187E-010  0.4778727E+02  0.7816164E-02  0.1312668E+00
        -11   -1    0    0    0    0  0.00000000000E+00  0.00000000000E+00  0.45593999997E+02  0.45594000000E+02  0.51100000000E-03 0.  1.
         11   -1    0    0    0    0 -0.00000000000E+00 -0.00000000000E+00 -0.45593999997E+02  0.45594000000E+02  0.51100000000E-03 0. -1.
    9900012    2    1    2    0    0  0.20375394863E+02  0.30291809017E+02 -0.23470681793E+02  0.47787270591E+02  0.19999997935E+02 0.  0.
        -12    1    1    2    0    0 -0.20375394863E+02 -0.30291809017E+02  0.23470681793E+02  0.43400729409E+02  0.00000000000E+00 0.  1.
         11    1    3    3    0    0  0.13144500900E+02  0.16325304553E+02 -0.17421345032E+02  0.27254297562E+02  0.51100000000E-03 0. -1.
        -11    1    3    3    0    0  0.10313169705E+02  0.85800425154E+01 -0.41203152726E+01  0.14034086972E+02  0.51100000000E-03 0.  1.
        -12    1    3    3    0    0 -0.30822757415E+01  0.53864619493E+01 -0.19290214880E+01  0.64988860568E+01  0.00000000000E+00 0.  1.
</event>
<event>
 7    1  0.4592673E-010  0.4778727E+02  0.7816164E-02  0.1312668E+00
        -11   -1    0    0    0    0  0.00000000000E+00  0.00000000000E+00  0.45593999997E+02  0.45594000000E+02  0.51100000000E-03 0. -1.
         11   -1    0    0    0    0 -0.00000000000E+00 -0.00000000000E+00 -0.45593999997E+02  0.45594000000E+02  0.51100000000E-03 0.  1.
    9900012    2    1    2    0    0 -0.38737588047E+02  0.10084247012E+02  0.16772903461E+02  0.47787273555E+02  0.20000011445E+02 0.  0.
        -12    1    1    2    0    0  0.38737588047E+02 -0.10084247012E+02 -0.16772903461E+02  0.43400726445E+02  0.00000000000E+00 0.  1.
         11    1    3    3    0    0 -0.19579170951E+02  0.32066048295E+01  0.77542888227E+01  0.21301531519E+02  0.51100000000E-03 0. -1.
        -11    1    3    3    0    0 -0.16950738389E+02  0.71554941842E+01  0.12912540207E+01  0.18444402028E+02  0.51100000000E-03 0.  1.
        -12    1    3    3    0    0 -0.22076787065E+01 -0.27785200135E+00  0.77273606172E+01  0.80413400073E+01  0.00000000000E+00 0.  1.
</event>
<event>
 7    1  0.4592673E-010  0.4778727E+02  0.7816164E-02  0.1312668E+00
        -11   -1    0    0    0    0  0.00000000000E+00  0.00000000000E+00  0.45593999997E+02  0.45594000000E+02  0.51100000000E-03 0.  1.
         11   -1    0    0    0    0 -0.00000000000E+00 -0.00000000000E+00 -0.45593999997E+02  0.45594000000E+02  0.51100000000E-03 0. -1.
    9900012    2    1    2    0    0  0.33867163610E+02 -0.23731264330E+02  0.13170636304E+02  0.47787270302E+02  0.19999996614E+02 0.  0.
        -12    1    1    2    0    0 -0.33867163610E+02  0.23731264330E+02 -0.13170636304E+02  0.43400729698E+02  0.00000000000E+00 0.  1.
         11    1    3    3    0    0  0.12324774261E+02 -0.43643256587E+01 -0.94413879677E+00  0.13108729815E+02  0.51100000000E-03 0. -1.
        -11    1    3    3    0    0  0.21593827548E+02 -0.18843276402E+02  0.15929623995E+02  0.32788952021E+02  0.51100000000E-03 0.  1.
        -12    1    3    3    0    0 -0.51438198900E-01 -0.52366226932E+00 -0.18148488943E+01  0.18895884657E+01  0.00000000000E+00 0.  1.
</event>
<event>
 7    1  0.4592673E-010  0.4778728E+02  0.7816164E-02  0.1312668E+00
        -11   -1    0    0    0    0  0.00000000000E+00  0.00000000000E+00  0.45593999997E+02  0.45594000000E+02  0.51100000000E-03 0.  1.
         11   -1    0    0    0    0 -0.00000000000E+00 -0.00000000000E+00 -0.45593999997E+02  0.45594000000E+02  0.51100000000E-03 0. -1.
    9900012    2    1    2    0    0 -0.57214659073E+01 -0.39848983381E+02 -0.16215602964E+02  0.47787280788E+02  0.20000044426E+02 0.  0.
        -12    1    1    2    0    0  0.57214659073E+01  0.39848983381E+02  0.16215602964E+02  0.43400719212E+02  0.00000000000E+00 0.  1.
         11    1    3    3    0    0  0.48951606411E+01 -0.23973081039E+02 -0.34372739593E+01  0.24708016204E+02  0.51100000000E-03 0. -1.
        -11    1    3    3    0    0 -0.19796607526E+01 -0.17129207080E+01 -0.14642116613E+01  0.29995116432E+01  0.51100000000E-03 0.  1.
         12    1    3    3    0    0 -0.86369657957E+01 -0.14162981634E+02 -0.11314117343E+02  0.20079752941E+02  0.00000000000E+00 0. -1.
</event>
<event>
 7    1  0.4592673E-010  0.4778726E+02  0.7816164E-02  0.1312668E+00
        -11   -1    0    0    0    0  0.00000000000E+00  0.00000000000E+00  0.45593999997E+02  0.45594000000E+02  0.51100000000E-03 0. -1.
         11   -1    0    0    0    0 -0.00000000000E+00 -0.00000000000E+00 -0.45593999997E+02  0.45594000000E+02  0.51100000000E-03 0.  1.
    9900012    2    1    2    0    0  0.14789873449E+01 -0.33125632967E+02  0.28002309011E+02  0.47787259534E+02  0.19999947519E+02 0.  0.
        -12    1    1    2    0    0 -0.14789873449E+01  0.33125632967E+02 -0.28002309011E+02  0.43400740466E+02  0.00000000000E+00 0.  1.
         11    1    3    3    0    0  0.16844504403E+00 -0.33465299490E+02  0.28621394740E+02  0.44035654654E+02  0.51100000000E-03 0. -1.
        -11    1    3    3    0    0  0.14532115456E+01 -0.11658789939E+00  0.11890827263E+01  0.18813119161E+01  0.51100000000E-03 0.  1.
         12    1    3    3    0    0 -0.14266924469E+00  0.45625442277E+00 -0.18081684544E+01  0.18702929640E+01  0.00000000000E+00 0. -1.
</event>
<event>
 7    1  0.4592673E-010  0.4778727E+02  0.7816164E-02  0.1312668E+00
        -11   -1    0    0    0    0  0.00000000000E+00  0.00000000000E+00  0.45593999997E+02  0.45594000000E+02  0.51100000000E-03 0. -1.
         11   -1    0    0    0    0 -0.00000000000E+00 -0.00000000000E+00 -0.45593999997E+02  0.45594000000E+02  0.51100000000E-03 0.  1.
    9900012    2    1    2    0    0 -0.35065216788E+02 -0.24485988446E+02  0.73817320418E+01  0.47787273894E+02  0.20000012992E+02 0.  0.
        -12    1    1    2    0    0  0.35065216788E+02  0.24485988446E+02 -0.73817320418E+01  0.43400726106E+02  0.00000000000E+00 0.  1.
         11    1    3    3    0    0 -0.18418454321E+02 -0.15184810517E+02  0.24378109907E+01  0.23995017247E+02  0.51100000000E-03 0. -1.
        -11    1    3    3    0    0 -0.12807169140E+02 -0.43033110971E+01 -0.28101061390E+01  0.13799955237E+02  0.51100000000E-03 0.  1.
         12    1    3    3    0    0 -0.38395933274E+01 -0.49978668325E+01  0.77540271902E+01  0.99923014096E+01  0.00000000000E+00 0. -1.
</event>
<event>
 7    1  0.4592673E-010  0.4778727E+02  0.7816164E-02  0.1312668E+00
        -11   -1    0    0    0    0  0.00000000000E+00  0.00000000000E+00  0.45593999997E+02  0.45594000000E+02  0.51100000000E-03 0. -1.
         11   -1    0    0    0    0 -0.00000000000E+00 -0.00000000000E+00 -0.45593999997E+02  0.45594000000E+02  0.51100000000E-03 0.  1.
    9900012    2    1    2    0    0 -0.45552560114E+01 -0.41539611347E+02  0.11718951397E+02  0.47787268554E+02  0.19999988644E+02 0.  0.
        -12    1    1    2    0    0  0.45552560114E+01  0.41539611347E+02 -0.11718951397E+02  0.43400731446E+02  0.00000000000E+00 0.  1.
         11    1    3    3    0    0  0.41830694297E+00 -0.20324650089E+01 -0.47274528545E+00  0.21282347326E+01  0.51100000000E-03 0.  1.
        -11    1    3    3    0    0 -0.11218087299E+02 -0.16100331760E+02  0.73502283582E+01  0.20954522724E+02  0.51100000000E-03 0. -1.
         12    1    3    3    0    0  0.62445243445E+01 -0.23406814578E+02  0.48414683246E+01  0.24704511097E+02  0.00000000000E+00 0. -1.
</event>
<event>
 7    1  0.4592673E-010  0.4778727E+02  0.7816164E-02  0.1312668E+00
        -11   -1    0    0    0    0  0.00000000000E+00  0.00000000000E+00  0.45593999997E+02  0.45594000000E+02  0.51100000000E-03 0. -1.
         11   -1    0    0    0    0 -0.00000000000E+00 -0.00000000000E+00 -0.45593999997E+02  0.45594000000E+02  0.51100000000E-03 0.  1.
    9900012    2    1    2    0    0  0.67886983581E+01 -0.27387177283E+02  0.32976956164E+02  0.47787267947E+02  0.19999985876E+02 0.  0.
        -12    1    1    2    0    0 -0.67886983581E+01  0.27387177283E+02 -0.32976956164E+02  0.43400732053E+02  0.00000000000E+00 0.  1.
         11    1    3    3    0    0  0.51190365466E+01  0.52211589325E+00  0.71285991757E+01  0.87917044218E+01  0.51100000000E-03 0. -1.
        -11    1    3    3    0    0  0.31078554536E+01 -0.43312495544E+01  0.68609628738E+01  0.86885729576E+01  0.51100000000E-03 0.  1.
        -12    1    3    3    0    0 -0.14381936420E+01 -0.23578043622E+02  0.18987394114E+02  0.30306990567E+02  0.00000000000E+00 0.  1.
</event>
<event>
 7    1  0.4592673E-010  0.4778726E+02  0.7816164E-02  0.1312668E+00
        -11   -1    0    0    0    0  0.00000000000E+00  0.00000000000E+00  0.45593999997E+02  0.45594000000E+02  0.51100000000E-03 0.  1.
         11   -1    0    0    0    0 -0.00000000000E+00 -0.00000000000E+00 -0.45593999997E+02  0.45594000000E+02  0.51100000000E-03 0. -1.
    9900012    2    1    2    0    0 -0.29982640205E+02 -0.31310063394E+02 -0.20844975249E+01  0.47787263677E+02  0.19999966411E+02 0.  0.
        -12    1    1    2    0    0  0.29982640205E+02  0.31310063394E+02  0.20844975249E+01  0.43400736323E+02  0.00000000000E+00 0.  1.
         11    1    3    3    0    0  0.41405565312E-01  0.41809328762E+00  0.38422492511E+00  0.56933774878E+00  0.51100000000E-03 0. -1.
        -11    1    3    3    0    0 -0.14041244490E+02 -0.31218914501E+01 -0.88176496389E+00  0.14411115945E+02  0.51100000000E-03 0.  1.
         12    1    3    3    0    0 -0.15982801280E+02 -0.28606265231E+02 -0.15869574861E+01  0.32806809984E+02  0.00000000000E+00 0. -1.
</event>
<event>
 7    1  0.4592673E-010  0.4778727E+02  0.7816164E-02  0.1312668E+00
        -11   -1    0    0    0    0  0.00000000000E+00  0.00000000000E+00  0.45593999997E+02  0.45594000000E+02  0.51100000000E-03 0.  1.
         11   -1    0    0    0    0 -0.00000000000E+00 -0.00000000000E+00 -0.45593999997E+02  0.45594000000E+02  0.51100000000E-03 0. -1.
    9900012    2    1    2    0    0 -0.42269123242E+02  0.98055528331E+01  0.89194464739E+00  0.47787271766E+02  0.20000003289E+02 0.  0.
        -12    1    1    2    0    0  0.42269123242E+02 -0.98055528331E+01 -0.89194464739E+00  0.43400728234E+02  0.00000000000E+00 0.  1.
         11    1    3    3    0    0 -0.20076832556E+02  0.73403118426E+01 -0.44419358304E+01  0.21833235619E+02  0.51100000000E-03 0. -1.
        -11    1    3    3    0    0 -0.10200435563E+02  0.67758854263E+01  0.29079172867E+00  0.12249329332E+02  0.51100000000E-03 0.  1.
        -12    1    3    3    0    0 -0.11991855123E+02 -0.43106444359E+01  0.50430887492E+01  0.13704706815E+02  0.00000000000E+00 0.  1.
</event>
<event>
 7    1  0.4592673E-010  0.4778728E+02  0.7816164E-02  0.1312668E+00
        -11   -1    0    0    0    0  0.00000000000E+00  0.00000000000E+00  0.45593999997E+02  0.45594000000E+02  0.51100000000E-03 0.  1.
         11   -1    0    0    0    0 -0.00000000000E+00 -0.00000000000E+00 -0.45593999997E+02  0.45594000000E+02  0.51100000000E-03 0. -1.
    9900012    2    1    2    0    0 -0.39212037761E+02  0.10023614170E+02 -0.15670548771E+02  0.47787275983E+02  0.20000022518E+02 0.  0.
        -12    1    1    2    0    0  0.39212037761E+02 -0.10023614170E+02  0.15670548771E+02  0.43400724017E+02  0.00000000000E+00 0.  1.
         11    1    3    3    0    0 -0.12046778452E+02  0.64837508911E+01 -0.43077806525E+01  0.14342972882E+02  0.51100000000E-03 0. -1.
        -11    1    3    3    0    0 -0.16224791816E+01  0.38025431809E+01  0.20260699585E+01  0.46039909943E+01  0.51100000000E-03 0.  1.
        -12    1    3    3    0    0 -0.25542780128E+02 -0.26267990197E+00 -0.13388838076E+02  0.28840312107E+02  0.00000000000E+00 0.  1.
</event>
<event>
 7    1  0.4592673E-010  0.4778723E+02  0.7816164E-02  0.1312668E+00
        -11   -1    0    0    0    0  0.00000000000E+00  0.00000000000E+00  0.45593999997E+02  0.45594000000E+02  0.51100000000E-03 0.  1.
         11   -1    0    0    0    0 -0.00000000000E+00 -0.00000000000E+00 -0.45593999997E+02  0.45594000000E+02  0.51100000000E-03 0. -1.
    9900012    2    1    2    0    0 -0.11862404562E+01 -0.42434934521E+02  0.90275017482E+01  0.47787232472E+02  0.19999824133E+02 0.  0.
        -12    1    1    2    0    0  0.11862404562E+01  0.42434934521E+02 -0.90275017482E+01  0.43400767528E+02  0.00000000000E+00 0.  1.
         11    1    3    3    0    0  0.27444321214E+01 -0.26546254795E+02  0.37281976594E+01  0.26946892388E+02  0.51100000000E-03 0. -1.
        -11    1    3    3    0    0  0.25056136868E+01 -0.68771522167E+01  0.63853864891E+01  0.97132117981E+01  0.51100000000E-03 0.  1.
        -12    1    3    3    0    0 -0.64362862644E+01 -0.90115275090E+01 -0.10860824003E+01  0.11127128286E+02  0.00000000000E+00 0.  1.
</event>
<event>
 7    1  0.4592673E-010  0.4778725E+02  0.7816164E-02  0.1312668E+00
        -11   -1    0    0    0    0  0.00000000000E+00  0.00000000000E+00  0.45593999997E+02  0.45594000000E+02  0.51100000000E-03 0.  1.
         11   -1    0    0    0    0 -0.00000000000E+00 -0.00000000000E+00 -0.45593999997E+02  0.45594000000E+02  0.51100000000E-03 0. -1.
    9900012    2    1    2    0    0 -0.39821433916E+02 -0.16056754146E+01 -0.17184295486E+02  0.47787253416E+02  0.19999919627E+02 0.  0.
        -12    1    1    2    0    0  0.39821433916E+02  0.16056754146E+01  0.17184295486E+02  0.43400746584E+02  0.00000000000E+00 0.  1.
         11    1    3    3    0    0 -0.88558438387E+01  0.30984671014E+01  0.10829091426E+01  0.94445307425E+01  0.51100000000E-03 0. -1.
        -11    1    3    3    0    0  0.11394570797E+01  0.29624488246E+00 -0.10149787126E+01  0.15544470126E+01  0.51100000000E-03 0.  1.
         12    1    3    3    0    0 -0.32105047157E+02 -0.50003873985E+01 -0.17252225916E+02  0.36788275661E+02  0.00000000000E+00 0. -1.
</event>
<event>
 7    1  0.4592673E-010  0.4778727E+02  0.7816164E-02  0.1312668E+00
        -11   -1    0    0    0    0  0.00000000000E+00  0.00000000000E+00  0.45593999997E+02  0.45594000000E+02  0.51100000000E-03 0.  1.
         11   -1    0    0    0    0 -0.00000000000E+00 -0.00000000000E+00 -0.45593999997E+02  0.45594000000E+02  0.51100000000E-03 0. -1.
    9900012    2    1    2    0    0  0.38098299251E+02  0.16240876211E+02 -0.12976017053E+02  0.47787268618E+02  0.19999988938E+02 0.  0.
        -12    1    1    2    0    0 -0.38098299251E+02 -0.16240876211E+02  0.12976017053E+02  0.43400731382E+02  0.00000000000E+00 0.  1.
         11    1    3    3    0    0 -0.56343766505E+00 -0.10250459107E+01 -0.13953659640E+01  0.18207766354E+01  0.51100000000E-03 0. -1.
        -11    1    3    3    0    0  0.19646103158E+02  0.23878286739E+01 -0.88120659667E+01  0.21663877814E+02  0.51100000000E-03 0.  1.
         12    1    3    3    0    0  0.19015633757E+02  0.14878093448E+02 -0.27685851222E+01  0.24302614169E+02  0.00000000000E+00 0. -1.
</event>
<event>
 7    1  0.4592673E-010  0.4778727E+02  0.7816164E-02  0.1312668E+00
        -11   -1    0    0    0    0  0.00000000000E+00  0.00000000000E+00  0.45593999997E+02  0.45594000000E+02  0.51100000000E-03 0.  1.
         11   -1    0    0    0    0 -0.00000000000E+00 -0.00000000000E+00 -0.45593999997E+02  0.45594000000E+02  0.51100000000E-03 0. -1.
    9900012    2    1    2    0    0 -0.65708093154E+01  0.21354342818E+02 -0.37208060189E+02  0.47787271489E+02  0.20000002028E+02 0.  0.
        -12    1    1    2    0    0  0.65708093154E+01 -0.21354342818E+02  0.37208060189E+02  0.43400728511E+02  0.00000000000E+00 0.  1.
         11    1    3    3    0    0  0.10878818084E+01 -0.19119330373E+01 -0.24796435728E+01  0.33147559906E+01  0.51100000000E-03 0.  1.
        -11    1    3    3    0    0  0.35387875955E+01  0.57785685641E+01 -0.11208451229E+02  0.13097490275E+02  0.51100000000E-03 0. -1.
         12    1    3    3    0    0 -0.11197478719E+02  0.17487707291E+02 -0.23519965387E+02  0.31375025224E+02  0.00000000000E+00 0. -1.
</event>
<event>
 7    1  0.4592673E-010  0.4778727E+02  0.7816164E-02  0.1312668E+00
        -11   -1    0    0    0    0  0.00000000000E+00  0.00000000000E+00  0.45593999997E+02  0.45594000000E+02  0.51100000000E-03 0.  1.
         11   -1    0    0    0    0 -0.00000000000E+00 -0.00000000000E+00 -0.45593999997E+02  0.45594000000E+02  0.51100000000E-03 0. -1.
    9900012    2    1    2    0    0  0.26815037663E+01  0.12750573432E+02 -0.41398740258E+02  0.47787270971E+02  0.19999999664E+02 0.  0.
        -12    1    1    2    0    0 -0.26815037663E+01 -0.12750573432E+02  0.41398740258E+02  0.43400729029E+02  0.00000000000E+00 0.  1.
         11    1    3    3    0    0  0.59767476630E+01  0.45971472609E+01 -0.10485043447E+02  0.12914774946E+02  0.51100000000E-03 0. -1.
        -11    1    3    3    0    0  0.33793179884E+01  0.73407743889E+01 -0.97354592319E+01  0.12652506685E+02  0.51100000000E-03 0.  1.
         12    1    3    3    0    0 -0.66745618851E+01  0.81265178227E+00 -0.21178237580E+02  0.22219989340E+02  0.00000000000E+00 0. -1.
</event>
<event>
 7    1  0.4592673E-010  0.4778727E+02  0.7816164E-02  0.1312668E+00
        -11   -1    0    0    0    0  0.00000000000E+00  0.00000000000E+00  0.45593999997E+02  0.45594000000E+02  0.51100000000E-03 0.  1.
         11   -1    0    0    0    0 -0.00000000000E+00 -0.00000000000E+00 -0.45593999997E+02  0.45594000000E+02  0.51100000000E-03 0. -1.
    9900012    2    1    2    0    0  0.24090550649E+02  0.34285787311E+02 -0.11302808255E+02  0.47787270553E+02  0.19999997758E+02 0.  0.
        -12    1    1    2    0    0 -0.24090550649E+02 -0.34285787311E+02  0.11302808255E+02  0.43400729447E+02  0.00000000000E+00 0.  1.
         11    1    3    3    0    0  0.13969863617E+02  0.29430554077E+02 -0.11063027847E+02  0.34405016904E+02  0.51100000000E-03 0. -1.
        -11    1    3    3    0    0  0.55377803573E+00  0.35674078005E+01 -0.85319963089E+00  0.37095846667E+01  0.51100000000E-03 0.  1.
        -12    1    3    3    0    0  0.95669089960E+01  0.12878254334E+01  0.61341922307E+00  0.96726689816E+01  0.00000000000E+00 0.  1.
</event>
<event>
 7    1  0.4592673E-010  0.4778727E+02  0.7816164E-02  0.1312668E+00
        -11   -1    0    0    0    0  0.00000000000E+00  0.00000000000E+00  0.45593999997E+02  0.45594000000E+02  0.51100000000E-03 0.  1.
         11   -1    0    0    0    0 -0.00000000000E+00 -0.00000000000E+00 -0.45593999997E+02  0.45594000000E+02  0.51100000000E-03 0. -1.
    9900012    2    1    2    0    0 -0.42969861876E+02  0.58493185264E+01 -0.17319590640E+01  0.47787271445E+02  0.20000001828E+02 0.  0.
        -12    1    1    2    0    0  0.42969861876E+02 -0.58493185264E+01  0.17319590640E+01  0.43400728555E+02  0.00000000000E+00 0.  1.
         11    1    3    3    0    0 -0.26227636425E+01  0.18517828668E+01 -0.34449278995E+00  0.32290346009E+01  0.51100000000E-03 0. -1.
        -11    1    3    3    0    0 -0.20440488368E+02  0.83862791445E+01  0.59701925626E+01  0.22886381149E+02  0.51100000000E-03 0.  1.
         12    1    3    3    0    0 -0.19906609866E+02 -0.43887434849E+01 -0.73576588366E+01  0.21671855695E+02  0.00000000000E+00 0. -1.
</event>
<event>
 7    1  0.4592673E-010  0.4778727E+02  0.7816164E-02  0.1312668E+00
        -11   -1    0    0    0    0  0.00000000000E+00  0.00000000000E+00  0.45593999997E+02  0.45594000000E+02  0.51100000000E-03 0.  1.
         11   -1    0    0    0    0 -0.00000000000E+00 -0.00000000000E+00 -0.45593999997E+02  0.45594000000E+02  0.51100000000E-03 0. -1.
    9900012    2    1    2    0    0  0.27152715076E+02 -0.33233948851E+02  0.64697757847E+01  0.47787270848E+02  0.19999999104E+02 0.  0.
        -12    1    1    2    0    0 -0.27152715076E+02  0.33233948851E+02 -0.64697757847E+01  0.43400729152E+02  0.00000000000E+00 0.  1.
         11    1    3    3    0    0 -0.26205056165E+00 -0.62350219569E+01 -0.80870024707E+00  0.62927073387E+01  0.51100000000E-03 0. -1.
        -11    1    3    3    0    0  0.51815836543E+01 -0.14008722530E+02  0.44760554424E+01  0.15592568380E+02  0.51100000000E-03 0.  1.
         12    1    3    3    0    0  0.22233181984E+02 -0.12990204363E+02  0.28024205894E+01  0.25901995129E+02  0.00000000000E+00 0. -1.
</event>
<event>
 7    1  0.4592673E-010  0.4778727E+02  0.7816164E-02  0.1312668E+00
        -11   -1    0    0    0    0  0.00000000000E+00  0.00000000000E+00  0.45593999997E+02  0.45594000000E+02  0.51100000000E-03 0.  1.
         11   -1    0    0    0    0 -0.00000000000E+00 -0.00000000000E+00 -0.45593999997E+02  0.45594000000E+02  0.51100000000E-03 0. -1.
    9900012    2    1    2    0    0 -0.16466734698E+01  0.30174280145E+02 -0.31151642458E+02  0.47787267936E+02  0.19999985830E+02 0.  0.
        -12    1    1    2    0    0  0.16466734698E+01 -0.30174280145E+02  0.31151642458E+02  0.43400732064E+02  0.00000000000E+00 0.  1.
         11    1    3    3    0    0 -0.46927283347E+01  0.75452667568E+00 -0.24710185102E+01  0.53569527221E+01  0.51100000000E-03 0. -1.
        -11    1    3    3    0    0  0.36819418819E+01  0.29020236370E+01 -0.52482817656E+01  0.70372508101E+01  0.51100000000E-03 0.  1.
         12    1    3    3    0    0 -0.63588701696E+00  0.26517729833E+02 -0.23432342182E+02  0.35393064404E+02  0.00000000000E+00 0. -1.
</event>
<event>
 7    1  0.4592673E-010  0.4778727E+02  0.7816164E-02  0.1312668E+00
        -11   -1    0    0    0    0  0.00000000000E+00  0.00000000000E+00  0.45593999997E+02  0.45594000000E+02  0.51100000000E-03 0.  1.
         11   -1    0    0    0    0 -0.00000000000E+00 -0.00000000000E+00 -0.45593999997E+02  0.45594000000E+02  0.51100000000E-03 0. -1.
    9900012    2    1    2    0    0  0.11938784257E+02 -0.31633029611E+02 -0.27211030301E+02  0.47787270721E+02  0.19999998527E+02 0.  0.
        -12    1    1    2    0    0 -0.11938784257E+02  0.31633029611E+02  0.27211030301E+02  0.43400729279E+02  0.00000000000E+00 0.  1.
         11    1    3    3    0    0 -0.53162756339E+00 -0.14365345906E+01 -0.35852247567E+01  0.38987300898E+01  0.51100000000E-03 0. -1.
        -11    1    3    3    0    0  0.53437745102E+01 -0.88789005751E+01 -0.17916273804E+02  0.20697431452E+02  0.51100000000E-03 0.  1.
         12    1    3    3    0    0  0.71266373103E+01 -0.21317594445E+02 -0.57095317403E+01  0.23191109179E+02  0.00000000000E+00 0. -1.
</event>
<event>
 7    1  0.4592673E-010  0.4778727E+02  0.7816164E-02  0.1312668E+00
        -11   -1    0    0    0    0  0.00000000000E+00  0.00000000000E+00  0.45593999997E+02  0.45594000000E+02  0.51100000000E-03 0.  1.
         11   -1    0    0    0    0 -0.00000000000E+00 -0.00000000000E+00 -0.45593999997E+02  0.45594000000E+02  0.51100000000E-03 0. -1.
    9900012    2    1    2    0    0 -0.63857241700E+01 -0.25818336548E+02 -0.34296644219E+02  0.47787265214E+02  0.19999973419E+02 0.  0.
        -12    1    1    2    0    0  0.63857241700E+01  0.25818336548E+02  0.34296644219E+02  0.43400734786E+02  0.00000000000E+00 0.  1.
         11    1    3    3    0    0  0.31836449034E+01 -0.68165602344E+01 -0.31829024795E+01  0.81689630159E+01  0.51100000000E-03 0. -1.
        -11    1    3    3    0    0 -0.61982343774E+01 -0.66547819656E+01 -0.46321497721E+01  0.10205931813E+02  0.51100000000E-03 0.  1.
         12    1    3    3    0    0 -0.33711346960E+01 -0.12346994348E+02 -0.26481591967E+02  0.29412370385E+02  0.00000000000E+00 0. -1.
</event>
<event>
 7    1  0.4592673E-010  0.4778727E+02  0.7816164E-02  0.1312668E+00
        -11   -1    0    0    0    0  0.00000000000E+00  0.00000000000E+00  0.45593999997E+02  0.45594000000E+02  0.51100000000E-03 0.  1.
         11   -1    0    0    0    0 -0.00000000000E+00 -0.00000000000E+00 -0.45593999997E+02  0.45594000000E+02  0.51100000000E-03 0. -1.
    9900012    2    1    2    0    0 -0.41347545966E+02  0.17131304296E+01 -0.13079322597E+02  0.47787273591E+02  0.20000011609E+02 0.  0.
        -12    1    1    2    0    0  0.41347545966E+02 -0.17131304296E+01  0.13079322597E+02  0.43400726409E+02  0.00000000000E+00 0.  1.
         11    1    3    3    0    0 -0.26289171141E+02  0.27535569519E+01 -0.16702541256E+02  0.31267834589E+02  0.51100000000E-03 0. -1.
        -11    1    3    3    0    0 -0.30071751981E+01 -0.22300859296E+01 -0.38492094021E+00  0.37635821124E+01  0.51100000000E-03 0.  1.
         12    1    3    3    0    0 -0.12051199626E+02  0.11896594073E+01  0.40081395993E+01  0.12755856889E+02  0.00000000000E+00 0. -1.
</event>
<event>
 7    1  0.4592673E-010  0.4778727E+02  0.7816164E-02  0.1312668E+00
        -11   -1    0    0    0    0  0.00000000000E+00  0.00000000000E+00  0.45593999997E+02  0.45594000000E+02  0.51100000000E-03 0.  1.
         11   -1    0    0    0    0 -0.00000000000E+00 -0.00000000000E+00 -0.45593999997E+02  0.45594000000E+02  0.51100000000E-03 0. -1.
    9900012    2    1    2    0    0  0.21188804858E+01  0.19467277725E+01 -0.43305239961E+02  0.47787271762E+02  0.20000003270E+02 0.  0.
        -12    1    1    2    0    0 -0.21188804858E+01 -0.19467277725E+01  0.43305239961E+02  0.43400728238E+02  0.00000000000E+00 0.  1.
         11    1    3    3    0    0  0.44496752888E+01  0.59639575974E+01 -0.21601169701E+02  0.22846858277E+02  0.51100000000E-03 0. -1.
        -11    1    3    3    0    0 -0.25506078452E+01  0.52452346735E+00 -0.19865928688E+02  0.20035864048E+02  0.51100000000E-03 0.  1.
        -12    1    3    3    0    0  0.21981304215E+00 -0.45417532923E+01 -0.18381415722E+01  0.49045494371E+01  0.00000000000E+00 0.  1.
</event>
<event>
 7    1  0.4592673E-010  0.4778729E+02  0.7816164E-02  0.1312668E+00
        -11   -1    0    0    0    0  0.00000000000E+00  0.00000000000E+00  0.45593999997E+02  0.45594000000E+02  0.51100000000E-03 0.  1.
         11   -1    0    0    0    0 -0.00000000000E+00 -0.00000000000E+00 -0.45593999997E+02  0.45594000000E+02  0.51100000000E-03 0. -1.
    9900012    2    1    2    0    0  0.11375865039E+02 -0.20745889923E+01 -0.41831899073E+02  0.47787285663E+02  0.20000066653E+02 0.  0.
        -12    1    1    2    0    0 -0.11375865039E+02  0.20745889923E+01  0.41831899073E+02  0.43400714337E+02  0.00000000000E+00 0.  1.
         11    1    3    3    0    0  0.25643128892E+01 -0.21251395079E+00 -0.10632106842E+02  0.10939038301E+02  0.51100000000E-03 0. -1.
        -11    1    3    3    0    0  0.42833628379E+01  0.47734975585E+01 -0.27062459203E+02  0.27812050886E+02  0.51100000000E-03 0.  1.
         12    1    3    3    0    0  0.45281893115E+01 -0.66355726000E+01 -0.41373330281E+01  0.90361964762E+01  0.00000000000E+00 0. -1.
</event>
<event>
 7    1  0.4592673E-010  0.4778727E+02  0.7816164E-02  0.1312668E+00
        -11   -1    0    0    0    0  0.00000000000E+00  0.00000000000E+00  0.45593999997E+02  0.45594000000E+02  0.51100000000E-03 0.  1.
         11   -1    0    0    0    0 -0.00000000000E+00 -0.00000000000E+00 -0.45593999997E+02  0.45594000000E+02  0.51100000000E-03 0. -1.
    9900012    2    1    2    0    0  0.25190508227E+02 -0.16064214745E+02 -0.31480192429E+02  0.47787271718E+02  0.20000003070E+02 0.  0.
        -12    1    1    2    0    0 -0.25190508227E+02  0.16064214745E+02  0.31480192429E+02  0.43400728282E+02  0.00000000000E+00 0.  1.
         11    1    3    3    0    0  0.12158400842E+02 -0.12956404861E+02 -0.14894986774E+02  0.23185248958E+02  0.51100000000E-03 0. -1.
        -11    1    3    3    0    0  0.16708488051E+01 -0.28543335853E+01 -0.11829161641E+02  0.12282834418E+02  0.51100000000E-03 0.  1.
        -12    1    3    3    0    0  0.11361258580E+02 -0.25347629825E+00 -0.47560440132E+01  0.12319188342E+02  0.00000000000E+00 0.  1.
</event>
<event>
 7    1  0.4592673E-010  0.4778727E+02  0.7816164E-02  0.1312668E+00
        -11   -1    0    0    0    0  0.00000000000E+00  0.00000000000E+00  0.45593999997E+02  0.45594000000E+02  0.51100000000E-03 0. -1.
         11   -1    0    0    0    0 -0.00000000000E+00 -0.00000000000E+00 -0.45593999997E+02  0.45594000000E+02  0.51100000000E-03 0.  1.
    9900012    2    1    2    0    0  0.42787345710E+02 -0.63865300643E+01 -0.34754016774E+01  0.47787272633E+02  0.20000007244E+02 0.  0.
        -12    1    1    2    0    0 -0.42787345710E+02  0.63865300643E+01  0.34754016774E+01  0.43400727367E+02  0.00000000000E+00 0.  1.
         11    1    3    3    0    0  0.21026915232E+02 -0.10566227495E+02 -0.43860476011E+01  0.23937705434E+02  0.51100000000E-03 0. -1.
        -11    1    3    3    0    0 -0.45565797691E+00  0.10884731902E+01 -0.68211674511E+00  0.13629679353E+01  0.51100000000E-03 0.  1.
        -12    1    3    3    0    0  0.22216088455E+02  0.30912242402E+01  0.15927626688E+01  0.22486599264E+02  0.00000000000E+00 0.  1.
</event>
<event>
 7    1  0.4592673E-010  0.4778727E+02  0.7816164E-02  0.1312668E+00
        -11   -1    0    0    0    0  0.00000000000E+00  0.00000000000E+00  0.45593999997E+02  0.45594000000E+02  0.51100000000E-03 0.  1.
         11   -1    0    0    0    0 -0.00000000000E+00 -0.00000000000E+00 -0.45593999997E+02  0.45594000000E+02  0.51100000000E-03 0. -1.
    9900012    2    1    2    0    0 -0.39934671739E+02 -0.59257714660E+01 -0.15928913632E+02  0.47787273464E+02  0.20000011032E+02 0.  0.
        -12    1    1    2    0    0  0.39934671739E+02  0.59257714660E+01  0.15928913632E+02  0.43400726536E+02  0.00000000000E+00 0.  1.
         11    1    3    3    0    0 -0.31748364112E+02 -0.67603869525E+01 -0.91775626235E+01  0.33732611988E+02  0.51100000000E-03 0. -1.
        -11    1    3    3    0    0 -0.10024868360E+02  0.18151749714E+01 -0.50838438337E+01  0.11385882232E+02  0.51100000000E-03 0.  1.
        -12    1    3    3    0    0  0.18385607338E+01 -0.98055948486E+00 -0.16675071748E+01  0.26687792440E+01  0.00000000000E+00 0.  1.
</event>
<event>
 7    1  0.4592673E-010  0.4778726E+02  0.7816164E-02  0.1312668E+00
        -11   -1    0    0    0    0  0.00000000000E+00  0.00000000000E+00  0.45593999997E+02  0.45594000000E+02  0.51100000000E-03 0.  1.
         11   -1    0    0    0    0 -0.00000000000E+00 -0.00000000000E+00 -0.45593999997E+02  0.45594000000E+02  0.51100000000E-03 0. -1.
    9900012    2    1    2    0    0 -0.33941033153E+02 -0.25721148754E+02  0.83697704047E+01  0.47787259438E+02  0.19999947082E+02 0.  0.
        -12    1    1    2    0    0  0.33941033153E+02  0.25721148754E+02 -0.83697704047E+01  0.43400740562E+02  0.00000000000E+00 0.  1.
         11    1    3    3    0    0 -0.93885024623E+01 -0.75505983047E+00 -0.18598772820E+01  0.96006894335E+01  0.51100000000E-03 0. -1.
        -11    1    3    3    0    0 -0.32123991151E+01  0.72816970135E+00  0.17343094600E+01  0.37225755537E+01  0.51100000000E-03 0.  1.
        -12    1    3    3    0    0 -0.21340131575E+02 -0.25694258625E+02  0.84953382267E+01  0.34463994451E+02  0.00000000000E+00 0.  1.
</event>
<event>
 7    1  0.4592673E-010  0.4778728E+02  0.7816164E-02  0.1312668E+00
        -11   -1    0    0    0    0  0.00000000000E+00  0.00000000000E+00  0.45593999997E+02  0.45594000000E+02  0.51100000000E-03 0. -1.
         11   -1    0    0    0    0 -0.00000000000E+00 -0.00000000000E+00 -0.45593999997E+02  0.45594000000E+02  0.51100000000E-03 0.  1.
    9900012    2    1    2    0    0  0.14734980238E+01 -0.39388864862E+02  0.18165043539E+02  0.47787277906E+02  0.20000031283E+02 0.  0.
        -12    1    1    2    0    0 -0.14734980238E+01  0.39388864862E+02 -0.18165043539E+02  0.43400722094E+02  0.00000000000E+00 0.  1.
         11    1    3    3    0    0 -0.33426254880E+01 -0.11604070983E+02  0.34945060268E+01  0.12571363537E+02  0.51100000000E-03 0. -1.
        -11    1    3    3    0    0 -0.56873491663E+00 -0.23196155073E+02  0.15771839882E+02  0.28055944167E+02  0.51100000000E-03 0.  1.
        -12    1    3    3    0    0  0.53848584284E+01 -0.45886388055E+01 -0.11013023699E+01  0.71599702019E+01  0.00000000000E+00 0.  1.
</event>
<event>
 7    1  0.4592673E-010  0.4778727E+02  0.7816164E-02  0.1312668E+00
        -11   -1    0    0    0    0  0.00000000000E+00  0.00000000000E+00  0.45593999997E+02  0.45594000000E+02  0.51100000000E-03 0. -1.
         11   -1    0    0    0    0 -0.00000000000E+00 -0.00000000000E+00 -0.45593999997E+02  0.45594000000E+02  0.51100000000E-03 0.  1.
    9900012    2    1    2    0    0 -0.29065843444E+02  0.26391793425E+02 -0.18500626137E+02  0.47787272094E+02  0.20000004787E+02 0.  0.
        -12    1    1    2    0    0  0.29065843444E+02 -0.26391793425E+02  0.18500626137E+02  0.43400727906E+02  0.00000000000E+00 0.  1.
         11    1    3    3    0    0 -0.31595419776E+01 -0.51933777724E+00 -0.11891732213E+01  0.34156332424E+01  0.51100000000E-03 0. -1.
        -11    1    3    3    0    0 -0.18296162971E+02  0.23777189127E+02 -0.63533926006E+01  0.30667081700E+02  0.51100000000E-03 0.  1.
        -12    1    3    3    0    0 -0.76101384954E+01  0.31339420752E+01 -0.10958060315E+02  0.13704557152E+02  0.00000000000E+00 0.  1.
</event>
<event>
 7    1  0.4592673E-010  0.4778728E+02  0.7816164E-02  0.1312668E+00
        -11   -1    0    0    0    0  0.00000000000E+00  0.00000000000E+00  0.45593999997E+02  0.45594000000E+02  0.51100000000E-03 0.  1.
         11   -1    0    0    0    0 -0.00000000000E+00 -0.00000000000E+00 -0.45593999997E+02  0.45594000000E+02  0.51100000000E-03 0. -1.
    9900012    2    1    2    0    0 -0.37411627965E+02  0.21017335079E+01  0.21899212624E+02  0.47787277606E+02  0.20000029917E+02 0.  0.
        -12    1    1    2    0    0  0.37411627965E+02 -0.21017335079E+01 -0.21899212624E+02  0.43400722394E+02  0.00000000000E+00 0.  1.
         11    1    3    3    0    0 -0.31723435025E+01  0.16492830958E+01 -0.47096451342E+00  0.36063424493E+01  0.51100000000E-03 0.  1.
        -11    1    3    3    0    0 -0.24499428824E+02  0.19813497913E+01  0.63772001411E+01  0.25393236138E+02  0.51100000000E-03 0. -1.
        -12    1    3    3    0    0 -0.97398556390E+01 -0.15288993792E+01  0.15992976997E+02  0.18787699018E+02  0.00000000000E+00 0.  1.
</event>
<event>
 7    1  0.4592673E-010  0.4778727E+02  0.7816164E-02  0.1312668E+00
        -11   -1    0    0    0    0  0.00000000000E+00  0.00000000000E+00  0.45593999997E+02  0.45594000000E+02  0.51100000000E-03 0.  1.
         11   -1    0    0    0    0 -0.00000000000E+00 -0.00000000000E+00 -0.45593999997E+02  0.45594000000E+02  0.51100000000E-03 0. -1.
    9900012    2    1    2    0    0  0.25660537635E+02  0.14688400822E+01 -0.34971449323E+02  0.47787274768E+02  0.20000016976E+02 0.  0.
        -12    1    1    2    0    0 -0.25660537635E+02 -0.14688400822E+01  0.34971449323E+02  0.43400725232E+02  0.00000000000E+00 0.  1.
         11    1    3    3    0    0  0.71460198559E+01 -0.77814934341E+01 -0.11268518358E+02  0.15446577164E+02  0.51100000000E-03 0. -1.
        -11    1    3    3    0    0  0.31711415414E+01 -0.55970592179E+00 -0.13079615720E+01  0.34756543455E+01  0.51100000000E-03 0.  1.
        -12    1    3    3    0    0  0.15343376238E+02  0.98100394380E+01 -0.22394969394E+02  0.28865043258E+02  0.00000000000E+00 0.  1.
</event>
<event>
 7    1  0.4592673E-010  0.4778724E+02  0.7816164E-02  0.1312668E+00
        -11   -1    0    0    0    0  0.00000000000E+00  0.00000000000E+00  0.45593999997E+02  0.45594000000E+02  0.51100000000E-03 0. -1.
         11   -1    0    0    0    0 -0.00000000000E+00 -0.00000000000E+00 -0.45593999997E+02  0.45594000000E+02  0.51100000000E-03 0.  1.
    9900012    2    1    2    0    0 -0.24298582088E+02 -0.35931418995E+02 -0.14621399952E+01  0.47787241760E+02  0.19999866480E+02 0.  0.
        -12    1    1    2    0    0  0.24298582088E+02  0.35931418995E+02  0.14621399952E+01  0.43400758240E+02  0.00000000000E+00 0.  1.
         11    1    3    3    0    0 -0.47690437176E+01 -0.87627922104E+01  0.65885973540E+01  0.11955748436E+02  0.51100000000E-03 0. -1.
        -11    1    3    3    0    0 -0.46109078337E+01 -0.14900969675E+02 -0.33834758363E+01  0.15960804407E+02  0.51100000000E-03 0.  1.
         12    1    3    3    0    0 -0.14918630536E+02 -0.12267657109E+02 -0.46672615129E+01  0.19870688917E+02  0.00000000000E+00 0. -1.
</event>
<event>
 7    1  0.4592673E-010  0.4778727E+02  0.7816164E-02  0.1312668E+00
        -11   -1    0    0    0    0  0.00000000000E+00  0.00000000000E+00  0.45593999997E+02  0.45594000000E+02  0.51100000000E-03 0.  1.
         11   -1    0    0    0    0 -0.00000000000E+00 -0.00000000000E+00 -0.45593999997E+02  0.45594000000E+02  0.51100000000E-03 0. -1.
    9900012    2    1    2    0    0  0.95831324017E+01 -0.38549372317E+02 -0.17485225651E+02  0.47787266726E+02  0.19999980310E+02 0.  0.
        -12    1    1    2    0    0 -0.95831324017E+01  0.38549372317E+02  0.17485225651E+02  0.43400733274E+02  0.00000000000E+00 0.  1.
         11    1    3    3    0    0 -0.29415615059E+01 -0.11246781974E+02 -0.79052848768E+01  0.14058322023E+02  0.51100000000E-03 0. -1.
        -11    1    3    3    0    0 -0.12748880821E+01 -0.19255596681E+01  0.15404557427E+01  0.27759906004E+01  0.51100000000E-03 0.  1.
        -12    1    3    3    0    0  0.13799581990E+02 -0.25377030675E+02 -0.11120396517E+02  0.30952954103E+02  0.00000000000E+00 0.  1.
</event>
<event>
 7    1  0.4592673E-010  0.4778727E+02  0.7816164E-02  0.1312668E+00
        -11   -1    0    0    0    0  0.00000000000E+00  0.00000000000E+00  0.45593999997E+02  0.45594000000E+02  0.51100000000E-03 0.  1.
         11   -1    0    0    0    0 -0.00000000000E+00 -0.00000000000E+00 -0.45593999997E+02  0.45594000000E+02  0.51100000000E-03 0. -1.
    9900012    2    1    2    0    0 -0.24282906487E+02 -0.31980748318E+02 -0.16468007539E+02  0.47787273246E+02  0.20000010039E+02 0.  0.
        -12    1    1    2    0    0  0.24282906487E+02  0.31980748318E+02  0.16468007539E+02  0.43400726754E+02  0.00000000000E+00 0.  1.
         11    1    3    3    0    0 -0.10989498815E+02 -0.18224196356E+02 -0.63550962549E+01  0.22209855148E+02  0.51100000000E-03 0. -1.
        -11    1    3    3    0    0 -0.36661997811E+01 -0.12885022552E+02 -0.82499105853E+01  0.15732954330E+02  0.51100000000E-03 0.  1.
        -12    1    3    3    0    0 -0.96272078912E+01 -0.87152941011E+00 -0.18630006987E+01  0.98444637688E+01  0.00000000000E+00 0.  1.
</event>
<event>
 7    1  0.4592673E-010  0.4778727E+02  0.7816164E-02  0.1312668E+00
        -11   -1    0    0    0    0  0.00000000000E+00  0.00000000000E+00  0.45593999997E+02  0.45594000000E+02  0.51100000000E-03 0.  1.
         11   -1    0    0    0    0 -0.00000000000E+00 -0.00000000000E+00 -0.45593999997E+02  0.45594000000E+02  0.51100000000E-03 0. -1.
    9900012    2    1    2    0    0 -0.91080591053E+01 -0.38765661103E+02 -0.17259498368E+02  0.47787268378E+02  0.19999987842E+02 0.  0.
        -12    1    1    2    0    0  0.91080591053E+01  0.38765661103E+02  0.17259498368E+02  0.43400731622E+02  0.00000000000E+00 0.  1.
         11    1    3    3    0    0  0.33569174995E+01 -0.43546517820E+01  0.10670139716E+01  0.56009290584E+01  0.51100000000E-03 0.  1.
        -11    1    3    3    0    0 -0.11070610457E+01 -0.16534126813E+02 -0.10441229830E+02  0.19586276171E+02  0.51100000000E-03 0. -1.
        -12    1    3    3    0    0 -0.11357915559E+02 -0.17876882507E+02 -0.78852825100E+01  0.22600063148E+02  0.00000000000E+00 0.  1.
</event>
<event>
 7    1  0.4592673E-010  0.4778728E+02  0.7816164E-02  0.1312668E+00
        -11   -1    0    0    0    0  0.00000000000E+00  0.00000000000E+00  0.45593999997E+02  0.45594000000E+02  0.51100000000E-03 0.  1.
         11   -1    0    0    0    0 -0.00000000000E+00 -0.00000000000E+00 -0.45593999997E+02  0.45594000000E+02  0.51100000000E-03 0. -1.
    9900012    2    1    2    0    0  0.10293633641E+02 -0.13562084721E+01 -0.42140530320E+02  0.47787280068E+02  0.20000041143E+02 0.  0.
        -12    1    1    2    0    0 -0.10293633641E+02  0.13562084721E+01  0.42140530320E+02  0.43400719932E+02  0.00000000000E+00 0.  1.
         11    1    3    3    0    0  0.31613923996E+01  0.73579244517E+01 -0.18337946906E+02  0.20010341105E+02  0.51100000000E-03 0. -1.
        -11    1    3    3    0    0  0.20004287817E+00 -0.17071347151E+01  0.29271346874E+00  0.17435617352E+01  0.51100000000E-03 0.  1.
        -12    1    3    3    0    0  0.69321983634E+01 -0.70069982087E+01 -0.24095296882E+02  0.26033377228E+02  0.00000000000E+00 0.  1.
</event>
<event>
 7    1  0.4592673E-010  0.4778728E+02  0.7816164E-02  0.1312668E+00
        -11   -1    0    0    0    0  0.00000000000E+00  0.00000000000E+00  0.45593999997E+02  0.45594000000E+02  0.51100000000E-03 0. -1.
         11   -1    0    0    0    0 -0.00000000000E+00 -0.00000000000E+00 -0.45593999997E+02  0.45594000000E+02  0.51100000000E-03 0.  1.
    9900012    2    1    2    0    0 -0.28007424516E+02  0.21766131303E+02  0.25008848606E+02  0.47787276406E+02  0.20000024444E+02 0.  0.
        -12    1    1    2    0    0  0.28007424516E+02 -0.21766131303E+02 -0.25008848606E+02  0.43400723594E+02  0.00000000000E+00 0.  1.
         11    1    3    3    0    0 -0.63389086898E+01  0.39562241226E+01  0.74987719524E+01  0.10586078298E+02  0.51100000000E-03 0. -1.
        -11    1    3    3    0    0 -0.30042836324E+01  0.12003538452E+02  0.11121103159E+02  0.16636994658E+02  0.51100000000E-03 0.  1.
         12    1    3    3    0    0 -0.18664232194E+02  0.58063687288E+01  0.63889734945E+01  0.20564203450E+02  0.00000000000E+00 0. -1.
</event>
<event>
 7    1  0.4592673E-010  0.4778727E+02  0.7816164E-02  0.1312668E+00
        -11   -1    0    0    0    0  0.00000000000E+00  0.00000000000E+00  0.45593999997E+02  0.45594000000E+02  0.51100000000E-03 0.  1.
         11   -1    0    0    0    0 -0.00000000000E+00 -0.00000000000E+00 -0.45593999997E+02  0.45594000000E+02  0.51100000000E-03 0. -1.
    9900012    2    1    2    0    0 -0.33532369491E+02  0.84390828029E+01 -0.26229475885E+02  0.47787270427E+02  0.19999997187E+02 0.  0.
        -12    1    1    2    0    0  0.33532369491E+02 -0.84390828029E+01  0.26229475885E+02  0.43400729573E+02  0.00000000000E+00 0.  1.
         11    1    3    3    0    0  0.14551004829E+01 -0.15019627121E+00  0.22500147101E+00  0.14800345464E+01  0.51100000000E-03 0.  1.
        -11    1    3    3    0    0 -0.14293165114E+02  0.80907978984E+01 -0.68451590204E+01  0.17793588224E+02  0.51100000000E-03 0. -1.
         12    1    3    3    0    0 -0.20694304860E+02  0.49848117566E+00 -0.19609318336E+02  0.28513647657E+02  0.00000000000E+00 0. -1.
</event>
<event>
 7    1  0.4592673E-010  0.4778727E+02  0.7816164E-02  0.1312668E+00
        -11   -1    0    0    0    0  0.00000000000E+00  0.00000000000E+00  0.45593999997E+02  0.45594000000E+02  0.51100000000E-03 0. -1.
         11   -1    0    0    0    0 -0.00000000000E+00 -0.00000000000E+00 -0.45593999997E+02  0.45594000000E+02  0.51100000000E-03 0.  1.
    9900012    2    1    2    0    0  0.73034760140E+01 -0.39042768851E+02  0.17491270651E+02  0.47787272928E+02  0.20000008586E+02 0.  0.
        -12    1    1    2    0    0 -0.73034760140E+01  0.39042768851E+02 -0.17491270651E+02  0.43400727072E+02  0.00000000000E+00 0.  1.
         11    1    3    3    0    0  0.62898865864E+01 -0.66926363291E+01  0.26540213778E+01  0.95602240580E+01  0.51100000000E-03 0. -1.
        -11    1    3    3    0    0  0.67562987346E+01 -0.10015126080E+02  0.63927611568E+01  0.13668127833E+02  0.51100000000E-03 0.  1.
        -12    1    3    3    0    0 -0.57427093070E+01 -0.22335006442E+02  0.84444881160E+01  0.24558921037E+02  0.00000000000E+00 0.  1.
</event>
<event>
 7    1  0.4592673E-010  0.4778727E+02  0.7816164E-02  0.1312668E+00
        -11   -1    0    0    0    0  0.00000000000E+00  0.00000000000E+00  0.45593999997E+02  0.45594000000E+02  0.51100000000E-03 0.  1.
         11   -1    0    0    0    0 -0.00000000000E+00 -0.00000000000E+00 -0.45593999997E+02  0.45594000000E+02  0.51100000000E-03 0. -1.
    9900012    2    1    2    0    0 -0.35571461438E+02 -0.78161564069E+01 -0.23605134654E+02  0.47787267842E+02  0.19999985399E+02 0.  0.
        -12    1    1    2    0    0  0.35571461438E+02  0.78161564069E+01  0.23605134654E+02  0.43400732158E+02  0.00000000000E+00 0.  1.
         11    1    3    3    0    0 -0.11862772119E+01 -0.16534268807E+01 -0.60109949724E+01  0.63461117933E+01  0.51100000000E-03 0. -1.
        -11    1    3    3    0    0  0.51365835047E+00 -0.13638630737E+01 -0.29518937799E+01  0.32920577962E+01  0.51100000000E-03 0.  1.
         12    1    3    3    0    0 -0.34898842577E+02 -0.47988664526E+01 -0.14642245901E+02  0.38149098252E+02  0.00000000000E+00 0. -1.
</event>
<event>
 7    1  0.4592673E-010  0.4778727E+02  0.7816164E-02  0.1312668E+00
        -11   -1    0    0    0    0  0.00000000000E+00  0.00000000000E+00  0.45593999997E+02  0.45594000000E+02  0.51100000000E-03 0.  1.
         11   -1    0    0    0    0 -0.00000000000E+00 -0.00000000000E+00 -0.45593999997E+02  0.45594000000E+02  0.51100000000E-03 0. -1.
    9900012    2    1    2    0    0  0.23563595356E+02 -0.66293251757E+00 -0.36440920199E+02  0.47787272234E+02  0.20000005424E+02 0.  0.
        -12    1    1    2    0    0 -0.23563595356E+02  0.66293251757E+00  0.36440920199E+02  0.43400727766E+02  0.00000000000E+00 0.  1.
         11    1    3    3    0    0  0.15129681907E+02 -0.16947555865E+01 -0.35441643219E+02  0.38573171317E+02  0.51100000000E-03 0. -1.
        -11    1    3    3    0    0  0.33979322535E+00  0.10039756040E+01 -0.21997107411E+00  0.10825035723E+01  0.51100000000E-03 0.  1.
        -12    1    3    3    0    0  0.80941202243E+01  0.27847464917E-01 -0.77930590592E+00  0.81315973450E+01  0.00000000000E+00 0.  1.
</event>
<event>
 7    1  0.4592673E-010  0.4778728E+02  0.7816164E-02  0.1312668E+00
        -11   -1    0    0    0    0  0.00000000000E+00  0.00000000000E+00  0.45593999997E+02  0.45594000000E+02  0.51100000000E-03 0.  1.
         11   -1    0    0    0    0 -0.00000000000E+00 -0.00000000000E+00 -0.45593999997E+02  0.45594000000E+02  0.51100000000E-03 0. -1.
    9900012    2    1    2    0    0  0.31256228410E+02 -0.83124570059E+00 -0.30099500917E+02  0.47787277203E+02  0.20000028080E+02 0.  0.
        -12    1    1    2    0    0 -0.31256228410E+02  0.83124570059E+00  0.30099500917E+02  0.43400722797E+02  0.00000000000E+00 0.  1.
         11    1    3    3    0    0  0.27224804018E+01 -0.17984562681E+01 -0.97203511729E+01  0.10253368796E+02  0.51100000000E-03 0. -1.
        -11    1    3    3    0    0  0.12727407372E+00  0.30343881651E+01 -0.20498626154E+01  0.36641025135E+01  0.51100000000E-03 0.  1.
         12    1    3    3    0    0  0.28406473935E+02 -0.20671775976E+01 -0.18329287128E+02  0.33869805893E+02  0.00000000000E+00 0. -1.
</event>
<event>
 7    1  0.4592673E-010  0.4778727E+02  0.7816164E-02  0.1312668E+00
        -11   -1    0    0    0    0  0.00000000000E+00  0.00000000000E+00  0.45593999997E+02  0.45594000000E+02  0.51100000000E-03 0.  1.
         11   -1    0    0    0    0 -0.00000000000E+00 -0.00000000000E+00 -0.45593999997E+02  0.45594000000E+02  0.51100000000E-03 0. -1.
    9900012    2    1    2    0    0 -0.23098071814E+02  0.18719328454E+02 -0.31617856631E+02  0.47787273771E+02  0.20000012432E+02 0.  0.
        -12    1    1    2    0    0  0.23098071814E+02 -0.18719328454E+02  0.31617856631E+02  0.43400726229E+02  0.00000000000E+00 0.  1.
         11    1    3    3    0    0 -0.66271758385E+01  0.12116211649E+02 -0.15527588904E+02  0.20780473088E+02  0.51100000000E-03 0. -1.
        -11    1    3    3    0    0 -0.15915852576E+02  0.95693365704E+01 -0.12877534175E+02  0.22599058660E+02  0.51100000000E-03 0.  1.
         12    1    3    3    0    0 -0.55504339904E+00 -0.29662197655E+01 -0.32127335511E+01  0.44077420231E+01  0.00000000000E+00 0. -1.
</event>
<event>
 7    1  0.4592673E-010  0.4778727E+02  0.7816164E-02  0.1312668E+00
        -11   -1    0    0    0    0  0.00000000000E+00  0.00000000000E+00  0.45593999997E+02  0.45594000000E+02  0.51100000000E-03 0. -1.
         11   -1    0    0    0    0 -0.00000000000E+00 -0.00000000000E+00 -0.45593999997E+02  0.45594000000E+02  0.51100000000E-03 0.  1.
    9900012    2    1    2    0    0 -0.30216781034E+02 -0.18688341014E+02 -0.24926195370E+02  0.47787272339E+02  0.20000005901E+02 0.  0.
        -12    1    1    2    0    0  0.30216781034E+02  0.18688341014E+02  0.24926195370E+02  0.43400727661E+02  0.00000000000E+00 0.  1.
         11    1    3    3    0    0 -0.90292602036E+01 -0.51518024157E+01 -0.66229344008E+00  0.10416680892E+02  0.51100000000E-03 0. -1.
        -11    1    3    3    0    0 -0.11090461427E+02  0.37819825841E+00 -0.77777241189E+01  0.13551175643E+02  0.51100000000E-03 0.  1.
         12    1    3    3    0    0 -0.10097059404E+02 -0.13914736857E+02 -0.16486177811E+02  0.23819415803E+02  0.00000000000E+00 0. -1.
</event>
<event>
 7    1  0.4592673E-010  0.4778727E+02  0.7816164E-02  0.1312668E+00
        -11   -1    0    0    0    0  0.00000000000E+00  0.00000000000E+00  0.45593999997E+02  0.45594000000E+02  0.51100000000E-03 0.  1.
         11   -1    0    0    0    0 -0.00000000000E+00 -0.00000000000E+00 -0.45593999997E+02  0.45594000000E+02  0.51100000000E-03 0. -1.
    9900012    2    1    2    0    0 -0.31195199355E+02  0.81855581821E+01 -0.29042721364E+02  0.47787268557E+02  0.19999988659E+02 0.  0.
        -12    1    1    2    0    0  0.31195199355E+02 -0.81855581821E+01  0.29042721364E+02  0.43400731443E+02  0.00000000000E+00 0.  1.
         11    1    3    3    0    0 -0.10801038559E+02  0.74574556244E+01 -0.12065876026E+02  0.17828669128E+02  0.51100000000E-03 0. -1.
        -11    1    3    3    0    0 -0.15669932400E+02 -0.24236052314E+00 -0.19085088241E+02  0.24695062532E+02  0.51100000000E-03 0.  1.
         12    1    3    3    0    0 -0.47242283951E+01  0.97046308083E+00  0.21082429030E+01  0.52635368963E+01  0.00000000000E+00 0. -1.
</event>
<event>
 7    1  0.4592673E-010  0.4778727E+02  0.7816164E-02  0.1312668E+00
        -11   -1    0    0    0    0  0.00000000000E+00  0.00000000000E+00  0.45593999997E+02  0.45594000000E+02  0.51100000000E-03 0.  1.
         11   -1    0    0    0    0 -0.00000000000E+00 -0.00000000000E+00 -0.45593999997E+02  0.45594000000E+02  0.51100000000E-03 0. -1.
    9900012    2    1    2    0    0  0.77373820863E+01 -0.42510000294E+02 -0.40812042366E+01  0.47787269193E+02  0.19999991560E+02 0.  0.
        -12    1    1    2    0    0 -0.77373820863E+01  0.42510000294E+02  0.40812042366E+01  0.43400730807E+02  0.00000000000E+00 0.  1.
         11    1    3    3    0    0 -0.29519736126E+01 -0.29941125804E+01  0.16871943458E+01  0.45305058631E+01  0.51100000000E-03 0. -1.
        -11    1    3    3    0    0 -0.11809365250E+01 -0.18277255228E+02 -0.46695566095E+01  0.18901254693E+02  0.51100000000E-03 0.  1.
        -12    1    3    3    0    0  0.11870292224E+02 -0.21238632485E+02 -0.10988419729E+01  0.24355508638E+02  0.00000000000E+00 0.  1.
</event>
<event>
 7    1  0.4592673E-010  0.4778727E+02  0.7816164E-02  0.1312668E+00
        -11   -1    0    0    0    0  0.00000000000E+00  0.00000000000E+00  0.45593999997E+02  0.45594000000E+02  0.51100000000E-03 0.  1.
         11   -1    0    0    0    0 -0.00000000000E+00 -0.00000000000E+00 -0.45593999997E+02  0.45594000000E+02  0.51100000000E-03 0. -1.
    9900012    2    1    2    0    0 -0.42807333691E+02 -0.47830684506E+01  0.53176967994E+01  0.47787268891E+02  0.19999990184E+02 0.  0.
        -12    1    1    2    0    0  0.42807333691E+02  0.47830684506E+01 -0.53176967994E+01  0.43400731109E+02  0.00000000000E+00 0.  1.
         11    1    3    3    0    0 -0.59434057046E+01  0.66965570896E-01  0.35905020863E+01  0.69440810227E+01  0.51100000000E-03 0. -1.
        -11    1    3    3    0    0 -0.32749119578E+02 -0.18478201417E+01 -0.41536261494E+01  0.33063149923E+02  0.51100000000E-03 0.  1.
        -12    1    3    3    0    0 -0.41148084083E+01 -0.30022138798E+01  0.58808208626E+01  0.77800379456E+01  0.00000000000E+00 0.  1.
</event>
<event>
 7    1  0.4592673E-010  0.4778727E+02  0.7816164E-02  0.1312668E+00
        -11   -1    0    0    0    0  0.00000000000E+00  0.00000000000E+00  0.45593999997E+02  0.45594000000E+02  0.51100000000E-03 0.  1.
         11   -1    0    0    0    0 -0.00000000000E+00 -0.00000000000E+00 -0.45593999997E+02  0.45594000000E+02  0.51100000000E-03 0. -1.
    9900012    2    1    2    0    0  0.18793208005E+02  0.71902215885E+01 -0.38454382810E+02  0.47787268314E+02  0.19999987550E+02 0.  0.
        -12    1    1    2    0    0 -0.18793208005E+02 -0.71902215885E+01  0.38454382810E+02  0.43400731686E+02  0.00000000000E+00 0.  1.
         11    1    3    3    0    0  0.43079007645E+01  0.86030298938E+01 -0.26458686754E+02  0.28153725106E+02  0.51100000000E-03 0. -1.
        -11    1    3    3    0    0  0.49976221490E+00  0.51450455915E+00  0.42157221041E+00  0.83198593891E+00  0.51100000000E-03 0.  1.
        -12    1    3    3    0    0  0.13985545025E+02 -0.19273128644E+01 -0.12417268267E+02  0.18801557269E+02  0.00000000000E+00 0.  1.
</event>
<event>
 7    1  0.4592673E-010  0.4778726E+02  0.7816164E-02  0.1312668E+00
        -11   -1    0    0    0    0  0.00000000000E+00  0.00000000000E+00  0.45593999997E+02  0.45594000000E+02  0.51100000000E-03 0.  1.
         11   -1    0    0    0    0 -0.00000000000E+00 -0.00000000000E+00 -0.45593999997E+02  0.45594000000E+02  0.51100000000E-03 0. -1.
    9900012    2    1    2    0    0  0.21838825868E-01 -0.15265906026E+02 -0.40627284968E+02  0.47787255218E+02  0.19999927843E+02 0.  0.
        -12    1    1    2    0    0 -0.21838825868E-01  0.15265906026E+02  0.40627284968E+02  0.43400744782E+02  0.00000000000E+00 0.  1.
         11    1    3    3    0    0  0.60939651932E+01 -0.26558609461E+01 -0.94106326932E+01  0.11521719363E+02  0.51100000000E-03 0. -1.
        -11    1    3    3    0    0 -0.14528450376E+01 -0.44847989518E+01 -0.12529079303E+01  0.48779051738E+01  0.51100000000E-03 0.  1.
         12    1    3    3    0    0 -0.46192813297E+01 -0.81252461284E+01 -0.29963744344E+02  0.31387630681E+02  0.00000000000E+00 0. -1.
</event>
<event>
 7    1  0.4592673E-010  0.4778727E+02  0.7816164E-02  0.1312668E+00
        -11   -1    0    0    0    0  0.00000000000E+00  0.00000000000E+00  0.45593999997E+02  0.45594000000E+02  0.51100000000E-03 0. -1.
         11   -1    0    0    0    0 -0.00000000000E+00 -0.00000000000E+00 -0.45593999997E+02  0.45594000000E+02  0.51100000000E-03 0.  1.
    9900012    2    1    2    0    0  0.18802009294E+02 -0.21932866636E+02  0.32389148411E+02  0.47787272735E+02  0.20000007706E+02 0.  0.
        -12    1    1    2    0    0 -0.18802009294E+02  0.21932866636E+02 -0.32389148411E+02  0.43400727265E+02  0.00000000000E+00 0.  1.
         11    1    3    3    0    0  0.80431427723E+01 -0.15674826094E+02  0.17758095724E+02  0.25014841249E+02  0.51100000000E-03 0. -1.
        -11    1    3    3    0    0  0.10165768802E+02 -0.41281987134E+01  0.36382219623E+01  0.11559478330E+02  0.51100000000E-03 0.  1.
         12    1    3    3    0    0  0.59309772045E+00 -0.21298418284E+01  0.10992830725E+02  0.11212953156E+02  0.00000000000E+00 0. -1.
</event>
<event>
 7    1  0.4592673E-010  0.4778727E+02  0.7816164E-02  0.1312668E+00
        -11   -1    0    0    0    0  0.00000000000E+00  0.00000000000E+00  0.45593999997E+02  0.45594000000E+02  0.51100000000E-03 0.  1.
         11   -1    0    0    0    0 -0.00000000000E+00 -0.00000000000E+00 -0.45593999997E+02  0.45594000000E+02  0.51100000000E-03 0. -1.
    9900012    2    1    2    0    0  0.22398773718E+02 -0.26488430118E+02 -0.26082201223E+02  0.47787271725E+02  0.20000003102E+02 0.  0.
        -12    1    1    2    0    0 -0.22398773718E+02  0.26488430118E+02  0.26082201223E+02  0.43400728275E+02  0.00000000000E+00 0.  1.
         11    1    3    3    0    0 -0.82016109876E+00 -0.31998630358E-01  0.80680018508E-01  0.82474096950E+00  0.51100000000E-03 0. -1.
        -11    1    3    3    0    0  0.46694134340E+01 -0.11904007476E+02 -0.17862078360E+02  0.21967308880E+02  0.51100000000E-03 0.  1.
         12    1    3    3    0    0  0.18549521382E+02 -0.14552424011E+02 -0.83008028815E+01  0.24995221875E+02  0.00000000000E+00 0. -1.
</event>
<event>
 7    1  0.4592673E-010  0.4778726E+02  0.7816164E-02  0.1312668E+00
        -11   -1    0    0    0    0  0.00000000000E+00  0.00000000000E+00  0.45593999997E+02  0.45594000000E+02  0.51100000000E-03 0.  1.
         11   -1    0    0    0    0 -0.00000000000E+00 -0.00000000000E+00 -0.45593999997E+02  0.45594000000E+02  0.51100000000E-03 0. -1.
    9900012    2    1    2    0    0 -0.18011813567E+02  0.23851269225E+02 -0.31469277514E+02  0.47787263844E+02  0.19999967171E+02 0.  0.
        -12    1    1    2    0    0  0.18011813567E+02 -0.23851269225E+02  0.31469277514E+02  0.43400736156E+02  0.00000000000E+00 0.  1.
         11    1    3    3    0    0 -0.65033284879E+00  0.21179774644E+01 -0.31578810987E+01  0.38575866352E+01  0.51100000000E-03 0. -1.
        -11    1    3    3    0    0 -0.14554017676E+02  0.24115882165E+02 -0.19162353750E+02  0.34067447874E+02  0.51100000000E-03 0.  1.
        -12    1    3    3    0    0 -0.28074630423E+01 -0.23825904048E+01 -0.91490426651E+01  0.98622293351E+01  0.00000000000E+00 0.  1.
</event>
<event>
 7    1  0.4592673E-010  0.4778727E+02  0.7816164E-02  0.1312668E+00
        -11   -1    0    0    0    0  0.00000000000E+00  0.00000000000E+00  0.45593999997E+02  0.45594000000E+02  0.51100000000E-03 0.  1.
         11   -1    0    0    0    0 -0.00000000000E+00 -0.00000000000E+00 -0.45593999997E+02  0.45594000000E+02  0.51100000000E-03 0. -1.
    9900012    2    1    2    0    0  0.39993244953E+02 -0.14471366370E+02 -0.86454413192E+01  0.47787265651E+02  0.19999975407E+02 0.  0.
        -12    1    1    2    0    0 -0.39993244953E+02  0.14471366370E+02  0.86454413192E+01  0.43400734349E+02  0.00000000000E+00 0.  1.
         11    1    3    3    0    0  0.30490788954E+02 -0.29843755809E+01 -0.43149336108E+01  0.30938864895E+02  0.51100000000E-03 0. -1.
        -11    1    3    3    0    0  0.15035292514E+01  0.40004574760E+00 -0.16577389760E+01  0.22734853383E+01  0.51100000000E-03 0.  1.
         12    1    3    3    0    0  0.79989267475E+01 -0.11887036536E+02 -0.26727687325E+01  0.14574915418E+02  0.00000000000E+00 0. -1.
</event>
<event>
 7    1  0.4592673E-010  0.4778727E+02  0.7816164E-02  0.1312668E+00
        -11   -1    0    0    0    0  0.00000000000E+00  0.00000000000E+00  0.45593999997E+02  0.45594000000E+02  0.51100000000E-03 0. -1.
         11   -1    0    0    0    0 -0.00000000000E+00 -0.00000000000E+00 -0.45593999997E+02  0.45594000000E+02  0.51100000000E-03 0.  1.
    9900012    2    1    2    0    0 -0.19448733801E+02  0.24538332974E+02  0.30053955757E+02  0.47787270879E+02  0.19999999245E+02 0.  0.
        -12    1    1    2    0    0  0.19448733801E+02 -0.24538332974E+02 -0.30053955757E+02  0.43400729121E+02  0.00000000000E+00 0.  1.
         11    1    3    3    0    0 -0.56925173225E+01  0.19288211924E+01  0.45349259508E+01  0.75293199095E+01  0.51100000000E-03 0. -1.
        -11    1    3    3    0    0 -0.15582051149E+02  0.17026252994E+02  0.13146387286E+02  0.26561647313E+02  0.51100000000E-03 0.  1.
         12    1    3    3    0    0  0.18258346702E+01  0.55832587872E+01  0.12372642520E+02  0.13696303657E+02  0.00000000000E+00 0. -1.
</event>
<event>
 7    1  0.4592673E-010  0.4778727E+02  0.7816164E-02  0.1312668E+00
        -11   -1    0    0    0    0  0.00000000000E+00  0.00000000000E+00  0.45593999997E+02  0.45594000000E+02  0.51100000000E-03 0. -1.
         11   -1    0    0    0    0 -0.00000000000E+00 -0.00000000000E+00 -0.45593999997E+02  0.45594000000E+02  0.51100000000E-03 0.  1.
    9900012    2    1    2    0    0 -0.27252837901E+02  0.31360507610E+02  0.12546910410E+02  0.47787267609E+02  0.19999984339E+02 0.  0.
        -12    1    1    2    0    0  0.27252837901E+02 -0.31360507610E+02 -0.12546910410E+02  0.43400732391E+02  0.00000000000E+00 0.  1.
         11    1    3    3    0    0 -0.11269419208E+02  0.13863715265E+02  0.12152500823E+02  0.21607537730E+02  0.51100000000E-03 0. -1.
        -11    1    3    3    0    0 -0.93752600749E+01  0.87114317767E+01  0.56563501710E+01  0.13992099292E+02  0.51100000000E-03 0.  1.
        -12    1    3    3    0    0 -0.66081586172E+01  0.87853605684E+01 -0.52619405842E+01  0.12187630588E+02  0.00000000000E+00 0.  1.
</event>
<event>
 7    1  0.4592673E-010  0.4778727E+02  0.7816164E-02  0.1312668E+00
        -11   -1    0    0    0    0  0.00000000000E+00  0.00000000000E+00  0.45593999997E+02  0.45594000000E+02  0.51100000000E-03 0.  1.
         11   -1    0    0    0    0 -0.00000000000E+00 -0.00000000000E+00 -0.45593999997E+02  0.45594000000E+02  0.51100000000E-03 0. -1.
    9900012    2    1    2    0    0  0.79818933191E+01  0.40451537605E+02 -0.13549386130E+02  0.47787269822E+02  0.19999994424E+02 0.  0.
        -12    1    1    2    0    0 -0.79818933191E+01 -0.40451537605E+02  0.13549386130E+02  0.43400730178E+02  0.00000000000E+00 0.  1.
         11    1    3    3    0    0  0.49693292156E+01  0.55687715557E+01  0.47007362999E+00  0.74783968182E+01  0.51100000000E-03 0. -1.
        -11    1    3    3    0    0  0.48293888571E+01  0.11552312249E+02  0.90480946055E+00  0.12553788092E+02  0.51100000000E-03 0.  1.
         12    1    3    3    0    0 -0.18168247535E+01  0.23330453800E+02 -0.14924269220E+02  0.27755084912E+02  0.00000000000E+00 0. -1.
</event>
<event>
 7    1  0.4592673E-010  0.4778725E+02  0.7816164E-02  0.1312668E+00
        -11   -1    0    0    0    0  0.00000000000E+00  0.00000000000E+00  0.45593999997E+02  0.45594000000E+02  0.51100000000E-03 0. -1.
         11   -1    0    0    0    0 -0.00000000000E+00 -0.00000000000E+00 -0.45593999997E+02  0.45594000000E+02  0.51100000000E-03 0.  1.
    9900012    2    1    2    0    0 -0.12144832398E+02  0.11400451566E+02  0.40076894925E+02  0.47787253961E+02  0.19999922112E+02 0.  0.
        -12    1    1    2    0    0  0.12144832398E+02 -0.11400451566E+02 -0.40076894925E+02  0.43400746039E+02  0.00000000000E+00 0.  1.
         11    1    3    3    0    0 -0.61036273303E+01  0.32245287329E-01  0.81200216201E+01  0.10158250721E+02  0.51100000000E-03 0. -1.
        -11    1    3    3    0    0 -0.80508431495E+01  0.20892572455E+01  0.68105320613E+01  0.10750089231E+02  0.51100000000E-03 0.  1.
         12    1    3    3    0    0  0.20096380815E+01  0.92789490329E+01  0.25146341243E+02  0.26878914009E+02  0.00000000000E+00 0. -1.
</event>
<event>
 7    1  0.4592673E-010  0.4778726E+02  0.7816164E-02  0.1312668E+00
        -11   -1    0    0    0    0  0.00000000000E+00  0.00000000000E+00  0.45593999997E+02  0.45594000000E+02  0.51100000000E-03 0.  1.
         11   -1    0    0    0    0 -0.00000000000E+00 -0.00000000000E+00 -0.45593999997E+02  0.45594000000E+02  0.51100000000E-03 0. -1.
    9900012    2    1    2    0    0  0.24429498735E+02  0.12188918729E+02 -0.33738016233E+02  0.47787263974E+02  0.19999967763E+02 0.  0.
        -12    1    1    2    0    0 -0.24429498735E+02 -0.12188918729E+02  0.33738016233E+02  0.43400736026E+02  0.00000000000E+00 0.  1.
         11    1    3    3    0    0  0.32961658340E+01 -0.19833142473E+01 -0.57348793172E+01  0.69055836576E+01  0.51100000000E-03 0. -1.
        -11    1    3    3    0    0  0.43531566149E+01 -0.32925374291E+01 -0.65585241841E+01  0.85325854798E+01  0.51100000000E-03 0.  1.
        -12    1    3    3    0    0  0.16780176286E+02  0.17464770405E+02 -0.21444612732E+02  0.32349094837E+02  0.00000000000E+00 0.  1.
</event>
<event>
 7    1  0.4592673E-010  0.4778727E+02  0.7816164E-02  0.1312668E+00
        -11   -1    0    0    0    0  0.00000000000E+00  0.00000000000E+00  0.45593999997E+02  0.45594000000E+02  0.51100000000E-03 0.  1.
         11   -1    0    0    0    0 -0.00000000000E+00 -0.00000000000E+00 -0.45593999997E+02  0.45594000000E+02  0.51100000000E-03 0. -1.
    9900012    2    1    2    0    0  0.27824068141E+02  0.33304736477E+02  0.48881846372E+00  0.47787272089E+02  0.20000004763E+02 0.  0.
        -12    1    1    2    0    0 -0.27824068141E+02 -0.33304736477E+02 -0.48881846372E+00  0.43400727911E+02  0.00000000000E+00 0.  1.
         11    1    3    3    0    0  0.11396116325E+02  0.17449458063E+02 -0.13208531339E+01  0.20883000437E+02  0.51100000000E-03 0. -1.
        -11    1    3    3    0    0 -0.41061796442E+00  0.70819976359E+01 -0.23384592952E+01  0.74693834929E+01  0.51100000000E-03 0.  1.
        -12    1    3    3    0    0  0.16838569780E+02  0.87732807780E+01  0.41481308928E+01  0.19434888159E+02  0.00000000000E+00 0.  1.
</event>
<event>
 7    1  0.4592673E-010  0.4778728E+02  0.7816164E-02  0.1312668E+00
        -11   -1    0    0    0    0  0.00000000000E+00  0.00000000000E+00  0.45593999997E+02  0.45594000000E+02  0.51100000000E-03 0.  1.
         11   -1    0    0    0    0 -0.00000000000E+00 -0.00000000000E+00 -0.45593999997E+02  0.45594000000E+02  0.51100000000E-03 0. -1.
    9900012    2    1    2    0    0 -0.15298399656E+01  0.19672738630E+01 -0.43329113217E+02  0.47787278475E+02  0.20000033878E+02 0.  0.
        -12    1    1    2    0    0  0.15298399656E+01 -0.19672738630E+01  0.43329113217E+02  0.43400721525E+02  0.00000000000E+00 0.  1.
         11    1    3    3    0    0  0.15805708296E+01  0.55872989226E+01 -0.49837791165E+01  0.76520695201E+01  0.51100000000E-03 0. -1.
        -11    1    3    3    0    0 -0.41571405715E+01  0.27830305112E+01 -0.11964974521E+02  0.12968719756E+02  0.51100000000E-03 0.  1.
         12    1    3    3    0    0  0.10467297763E+01 -0.64030555708E+01 -0.26380359579E+02  0.27166489199E+02  0.00000000000E+00 0. -1.
</event>
<event>
 7    1  0.4592673E-010  0.4778727E+02  0.7816164E-02  0.1312668E+00
        -11   -1    0    0    0    0  0.00000000000E+00  0.00000000000E+00  0.45593999997E+02  0.45594000000E+02  0.51100000000E-03 0. -1.
         11   -1    0    0    0    0 -0.00000000000E+00 -0.00000000000E+00 -0.45593999997E+02  0.45594000000E+02  0.51100000000E-03 0.  1.
    9900012    2    1    2    0    0 -0.42953771594E+02 -0.25017827736E+00  0.62075851750E+01  0.47787271929E+02  0.20000004035E+02 0.  0.
        -12    1    1    2    0    0  0.42953771594E+02  0.25017827736E+00 -0.62075851750E+01  0.43400728071E+02  0.00000000000E+00 0.  1.
         11    1    3    3    0    0 -0.75351155130E+01 -0.35005052513E+01  0.17134223742E+01  0.84833554270E+01  0.51100000000E-03 0.  1.
        -11    1    3    3    0    0 -0.19616991273E+02  0.34836457628E+01  0.10348347264E+02  0.22451067364E+02  0.51100000000E-03 0. -1.
         12    1    3    3    0    0 -0.15801664808E+02 -0.23331878891E+00 -0.58541844631E+01  0.16852849139E+02  0.00000000000E+00 0. -1.
</event>
<event>
 7    1  0.4592673E-010  0.4778732E+02  0.7816164E-02  0.1312668E+00
        -11   -1    0    0    0    0  0.00000000000E+00  0.00000000000E+00  0.45593999997E+02  0.45594000000E+02  0.51100000000E-03 0.  1.
         11   -1    0    0    0    0 -0.00000000000E+00 -0.00000000000E+00 -0.45593999997E+02  0.45594000000E+02  0.51100000000E-03 0. -1.
    9900012    2    1    2    0    0  0.21128313725E+02 -0.29509042946E+02 -0.23799786650E+02  0.47787319118E+02  0.20000219184E+02 0.  0.
        -12    1    1    2    0    0 -0.21128313725E+02  0.29509042946E+02  0.23799786650E+02  0.43400680882E+02  0.00000000000E+00 0.  1.
         11    1    3    3    0    0  0.58336842030E+01 -0.31469364716E+01 -0.94102168990E+01  0.11510311155E+02  0.51100000000E-03 0.  1.
        -11    1    3    3    0    0  0.25333940276E+01 -0.17692837753E+02 -0.78073397088E+01  0.19504080256E+02  0.51100000000E-03 0. -1.
         12    1    3    3    0    0  0.12761235495E+02 -0.86692687219E+01 -0.65822300418E+01  0.16772927707E+02  0.00000000000E+00 0. -1.
</event>
<event>
 7    1  0.4592673E-010  0.4778730E+02  0.7816164E-02  0.1312668E+00
        -11   -1    0    0    0    0  0.00000000000E+00  0.00000000000E+00  0.45593999997E+02  0.45594000000E+02  0.51100000000E-03 0.  1.
         11   -1    0    0    0    0 -0.00000000000E+00 -0.00000000000E+00 -0.45593999997E+02  0.45594000000E+02  0.51100000000E-03 0. -1.
    9900012    2    1    2    0    0 -0.16312497699E+02 -0.33961987349E+02 -0.21543141776E+02  0.47787295819E+02  0.20000112957E+02 0.  0.
        -12    1    1    2    0    0  0.16312497699E+02  0.33961987349E+02  0.21543141776E+02  0.43400704181E+02  0.00000000000E+00 0.  1.
         11    1    3    3    0    0 -0.90473432043E+01 -0.29660357652E+02 -0.19868884901E+02  0.36828844981E+02  0.51100000000E-03 0. -1.
        -11    1    3    3    0    0 -0.30509355309E+01 -0.15791048697E+01 -0.41304197969E+01  0.53723503016E+01  0.51100000000E-03 0.  1.
         12    1    3    3    0    0 -0.42142189637E+01 -0.27225248264E+01  0.24561629225E+01  0.55861005367E+01  0.00000000000E+00 0. -1.
</event>
<event>
 7    1  0.4592673E-010  0.4778729E+02  0.7816164E-02  0.1312668E+00
        -11   -1    0    0    0    0  0.00000000000E+00  0.00000000000E+00  0.45593999997E+02  0.45594000000E+02  0.51100000000E-03 0. -1.
         11   -1    0    0    0    0 -0.00000000000E+00 -0.00000000000E+00 -0.45593999997E+02  0.45594000000E+02  0.51100000000E-03 0.  1.
    9900012    2    1    2    0    0 -0.35453039493E+02  0.25014434023E+02  0.99085510237E+00  0.47787289031E+02  0.20000082008E+02 0.  0.
        -12    1    1    2    0    0  0.35453039493E+02 -0.25014434023E+02 -0.99085510237E+00  0.43400710969E+02  0.00000000000E+00 0.  1.
         11    1    3    3    0    0 -0.29123737557E+02  0.25848651142E+02  0.24851386696E+00  0.38941065915E+02  0.51100000000E-03 0. -1.
        -11    1    3    3    0    0 -0.27749390238E+00  0.12572484516E+01 -0.15772300990E+01  0.20360087380E+01  0.51100000000E-03 0.  1.
        -12    1    3    3    0    0 -0.60518080329E+01 -0.20914655705E+01  0.23195713344E+01  0.68102143781E+01  0.00000000000E+00 0.  1.
</event>
<event>
 7    1  0.4592673E-010  0.4778726E+02  0.7816164E-02  0.1312668E+00
        -11   -1    0    0    0    0  0.00000000000E+00  0.00000000000E+00  0.45593999997E+02  0.45594000000E+02  0.51100000000E-03 0.  1.
         11   -1    0    0    0    0 -0.00000000000E+00 -0.00000000000E+00 -0.45593999997E+02  0.45594000000E+02  0.51100000000E-03 0. -1.
    9900012    2    1    2    0    0 -0.15525251662E+02  0.76959407624E+01 -0.39791492765E+02  0.47787264524E+02  0.19999970271E+02 0.  0.
        -12    1    1    2    0    0  0.15525251662E+02 -0.76959407624E+01  0.39791492765E+02  0.43400735476E+02  0.00000000000E+00 0.  1.
         11    1    3    3    0    0 -0.16794463297E+01 -0.71399076040E-01 -0.42344680589E+00  0.17334777936E+01  0.51100000000E-03 0. -1.
        -11    1    3    3    0    0 -0.16210765883E+02  0.12824718218E+01 -0.21945732883E+02  0.27313894935E+02  0.51100000000E-03 0.  1.
         12    1    3    3    0    0  0.23649605501E+01  0.64848680166E+01 -0.17422313076E+02  0.18739891796E+02  0.00000000000E+00 0. -1.
</event>
<event>
 7    1  0.4592673E-010  0.4778727E+02  0.7816164E-02  0.1312668E+00
        -11   -1    0    0    0    0  0.00000000000E+00  0.00000000000E+00  0.45593999997E+02  0.45594000000E+02  0.51100000000E-03 0. -1.
         11   -1    0    0    0    0 -0.00000000000E+00 -0.00000000000E+00 -0.45593999997E+02  0.45594000000E+02  0.51100000000E-03 0.  1.
    9900012    2    1    2    0    0 -0.20807605408E+02 -0.15899236879E+02  0.34610418585E+02  0.47787271310E+02  0.20000001211E+02 0.  0.
        -12    1    1    2    0    0  0.20807605408E+02  0.15899236879E+02 -0.34610418585E+02  0.43400728690E+02  0.00000000000E+00 0.  1.
         11    1    3    3    0    0  0.17004001306E+01  0.51408920052E-01  0.55463645486E+01  0.58013932334E+01  0.51100000000E-03 0. -1.
        -11    1    3    3    0    0 -0.60513320448E+01  0.15464475966E+01  0.52110210810E+01  0.81341785482E+01  0.51100000000E-03 0.  1.
         12    1    3    3    0    0 -0.16456673494E+02 -0.17497093396E+02  0.23853032956E+02  0.33851699529E+02  0.00000000000E+00 0. -1.
</event>
<event>
 7    1  0.4592673E-010  0.4778727E+02  0.7816164E-02  0.1312668E+00
        -11   -1    0    0    0    0  0.00000000000E+00  0.00000000000E+00  0.45593999997E+02  0.45594000000E+02  0.51100000000E-03 0.  1.
         11   -1    0    0    0    0 -0.00000000000E+00 -0.00000000000E+00 -0.45593999997E+02  0.45594000000E+02  0.51100000000E-03 0. -1.
    9900012    2    1    2    0    0 -0.24133717778E+02  0.33948539072E+02 -0.12193592492E+02  0.47787270320E+02  0.19999996696E+02 0.  0.
        -12    1    1    2    0    0  0.24133717778E+02 -0.33948539072E+02  0.12193592492E+02  0.43400729680E+02  0.00000000000E+00 0.  1.
         11    1    3    3    0    0 -0.13810964306E+02  0.89944775043E+01 -0.12294835712E+02  0.20562255374E+02  0.51100000000E-03 0. -1.
        -11    1    3    3    0    0 -0.87096254286E+00  0.52854287698E+00 -0.17133016443E+00  0.10330961283E+01  0.51100000000E-03 0.  1.
        -12    1    3    3    0    0 -0.94517909299E+01  0.24425518690E+02  0.27257338466E+00  0.26191918817E+02  0.00000000000E+00 0.  1.
</event>
<event>
 7    1  0.4592673E-010  0.4778727E+02  0.7816164E-02  0.1312668E+00
        -11   -1    0    0    0    0  0.00000000000E+00  0.00000000000E+00  0.45593999997E+02  0.45594000000E+02  0.51100000000E-03 0.  1.
         11   -1    0    0    0    0 -0.00000000000E+00 -0.00000000000E+00 -0.45593999997E+02  0.45594000000E+02  0.51100000000E-03 0. -1.
    9900012    2    1    2    0    0 -0.36040042086E+02 -0.12529117664E+02 -0.20682365196E+02  0.47787266675E+02  0.19999980079E+02 0.  0.
        -12    1    1    2    0    0  0.36040042086E+02  0.12529117664E+02  0.20682365196E+02  0.43400733325E+02  0.00000000000E+00 0.  1.
         11    1    3    3    0    0  0.80405915825E+00 -0.49530780554E+01 -0.36586589741E+01  0.62100949351E+01  0.51100000000E-03 0. -1.
        -11    1    3    3    0    0 -0.19251032771E+02 -0.64503875964E+01 -0.91863935953E+01  0.22284514588E+02  0.51100000000E-03 0.  1.
        -12    1    3    3    0    0 -0.17593068474E+02 -0.11256520122E+01 -0.78373126268E+01  0.19292657152E+02  0.00000000000E+00 0.  1.
</event>
<event>
 7    1  0.4592673E-010  0.4778727E+02  0.7816164E-02  0.1312668E+00
        -11   -1    0    0    0    0  0.00000000000E+00  0.00000000000E+00  0.45593999997E+02  0.45594000000E+02  0.51100000000E-03 0.  1.
         11   -1    0    0    0    0 -0.00000000000E+00 -0.00000000000E+00 -0.45593999997E+02  0.45594000000E+02  0.51100000000E-03 0. -1.
    9900012    2    1    2    0    0  0.93085295844E+01  0.32941136755E+02 -0.26680636633E+02  0.47787267461E+02  0.19999983663E+02 0.  0.
        -12    1    1    2    0    0 -0.93085295844E+01 -0.32941136755E+02  0.26680636633E+02  0.43400732539E+02  0.00000000000E+00 0.  1.
         11    1    3    3    0    0  0.43833033422E+01  0.15104306557E+02 -0.16996805434E+02  0.23156960509E+02  0.51100000000E-03 0. -1.
        -11    1    3    3    0    0 -0.11011865460E+00  0.41020389449E+01 -0.91086264836E+01  0.99902916025E+01  0.51100000000E-03 0.  1.
        -12    1    3    3    0    0  0.50353448968E+01  0.13734791253E+02 -0.57520471555E+00  0.14640015350E+02  0.00000000000E+00 0.  1.
</event>
<event>
 7    1  0.4592673E-010  0.4778727E+02  0.7816164E-02  0.1312668E+00
        -11   -1    0    0    0    0  0.00000000000E+00  0.00000000000E+00  0.45593999997E+02  0.45594000000E+02  0.51100000000E-03 0.  1.
         11   -1    0    0    0    0 -0.00000000000E+00 -0.00000000000E+00 -0.45593999997E+02  0.45594000000E+02  0.51100000000E-03 0. -1.
    9900012    2    1    2    0    0  0.16610620184E+02 -0.77223722148E+01 -0.39345596953E+02  0.47787265731E+02  0.19999975772E+02 0.  0.
        -12    1    1    2    0    0 -0.16610620184E+02  0.77223722148E+01  0.39345596953E+02  0.43400734269E+02  0.00000000000E+00 0.  1.
         11    1    3    3    0    0  0.80778687661E+01 -0.20203060103E+01 -0.89415764768E+01  0.12218240067E+02  0.51100000000E-03 0. -1.
        -11    1    3    3    0    0  0.84420329099E+01 -0.17776527064E+01 -0.52254489061E+01  0.10086291951E+02  0.51100000000E-03 0.  1.
         12    1    3    3    0    0  0.90718508143E-01 -0.39244134980E+01 -0.25178571570E+02  0.25482733712E+02  0.00000000000E+00 0. -1.
</event>
<event>
 7    1  0.4592673E-010  0.4778727E+02  0.7816164E-02  0.1312668E+00
        -11   -1    0    0    0    0  0.00000000000E+00  0.00000000000E+00  0.45593999997E+02  0.45594000000E+02  0.51100000000E-03 0.  1.
         11   -1    0    0    0    0 -0.00000000000E+00 -0.00000000000E+00 -0.45593999997E+02  0.45594000000E+02  0.51100000000E-03 0. -1.
    9900012    2    1    2    0    0 -0.28880110310E+02  0.27070284190E+02  0.17797810428E+02  0.47787272890E+02  0.20000008416E+02 0.  0.
        -12    1    1    2    0    0  0.28880110310E+02 -0.27070284190E+02 -0.17797810428E+02  0.43400727110E+02  0.00000000000E+00 0.  1.
         11    1    3    3    0    0 -0.19243440301E+02  0.12079929713E+02  0.48532987610E+01  0.23233364061E+02  0.51100000000E-03 0. -1.
        -11    1    3    3    0    0 -0.52545529806E+01  0.10885469135E+02  0.22585285065E+01  0.12296532706E+02  0.51100000000E-03 0.  1.
         12    1    3    3    0    0 -0.43821170287E+01  0.41048853419E+01  0.10685983160E+02  0.12257376123E+02  0.00000000000E+00 0. -1.
</event>
<event>
 7    1  0.4592673E-010  0.4778727E+02  0.7816164E-02  0.1312668E+00
        -11   -1    0    0    0    0  0.00000000000E+00  0.00000000000E+00  0.45593999997E+02  0.45594000000E+02  0.51100000000E-03 0.  1.
         11   -1    0    0    0    0 -0.00000000000E+00 -0.00000000000E+00 -0.45593999997E+02  0.45594000000E+02  0.51100000000E-03 0. -1.
    9900012    2    1    2    0    0  0.88133955930E+01 -0.26904995747E+02 -0.32894813365E+02  0.47787268620E+02  0.19999988946E+02 0.  0.
        -12    1    1    2    0    0 -0.88133955930E+01  0.26904995747E+02  0.32894813365E+02  0.43400731380E+02  0.00000000000E+00 0.  1.
         11    1    3    3    0    0 -0.30336647368E+01 -0.51118102646E+01 -0.77933505477E+01  0.98015324790E+01  0.51100000000E-03 0. -1.
        -11    1    3    3    0    0 -0.18133042504E+00 -0.47181691194E+01 -0.13036386482E+02  0.13865113535E+02  0.51100000000E-03 0.  1.
         12    1    3    3    0    0  0.12028390755E+02 -0.17075016363E+02 -0.12065076335E+02  0.24120622606E+02  0.00000000000E+00 0. -1.
</event>
<event>
 7    1  0.4592673E-010  0.4778727E+02  0.7816164E-02  0.1312668E+00
        -11   -1    0    0    0    0  0.00000000000E+00  0.00000000000E+00  0.45593999997E+02  0.45594000000E+02  0.51100000000E-03 0.  1.
         11   -1    0    0    0    0 -0.00000000000E+00 -0.00000000000E+00 -0.45593999997E+02  0.45594000000E+02  0.51100000000E-03 0. -1.
    9900012    2    1    2    0    0 -0.11287687670E+02  0.30351365283E+02 -0.28896466377E+02  0.47787273778E+02  0.20000012463E+02 0.  0.
        -12    1    1    2    0    0  0.11287687670E+02 -0.30351365283E+02  0.28896466377E+02  0.43400726222E+02  0.00000000000E+00 0.  1.
         11    1    3    3    0    0 -0.49370934536E+01  0.35643868336E+01 -0.10405652115E+02  0.12056423245E+02  0.51100000000E-03 0. -1.
        -11    1    3    3    0    0 -0.86672017258E+01  0.19550509275E+02 -0.18273663614E+02  0.28129514408E+02  0.51100000000E-03 0.  1.
        -12    1    3    3    0    0  0.23166075097E+01  0.72364691753E+01 -0.21715064773E+00  0.76013361249E+01  0.00000000000E+00 0.  1.
</event>
<event>
 7    1  0.4592673E-010  0.4778727E+02  0.7816164E-02  0.1312668E+00
        -11   -1    0    0    0    0  0.00000000000E+00  0.00000000000E+00  0.45593999997E+02  0.45594000000E+02  0.51100000000E-03 0.  1.
         11   -1    0    0    0    0 -0.00000000000E+00 -0.00000000000E+00 -0.45593999997E+02  0.45594000000E+02  0.51100000000E-03 0. -1.
    9900012    2    1    2    0    0  0.23876005586E+02  0.89871032153E+01 -0.35111132999E+02  0.47787270427E+02  0.19999997187E+02 0.  0.
        -12    1    1    2    0    0 -0.23876005586E+02 -0.89871032153E+01  0.35111132999E+02  0.43400729573E+02  0.00000000000E+00 0.  1.
         11    1    3    3    0    0  0.14886064045E+01  0.53567419091E+01 -0.13579278445E+01  0.57231635658E+01  0.51100000000E-03 0. -1.
        -11    1    3    3    0    0  0.12598962479E+02  0.26938495949E+01 -0.98509776110E+01  0.16218274919E+02  0.51100000000E-03 0.  1.
         12    1    3    3    0    0  0.97884367022E+01  0.93651171121E+00 -0.23902227544E+02  0.25845831943E+02  0.00000000000E+00 0. -1.
</event>
<event>
 7    1  0.4592673E-010  0.4778727E+02  0.7816164E-02  0.1312668E+00
        -11   -1    0    0    0    0  0.00000000000E+00  0.00000000000E+00  0.45593999997E+02  0.45594000000E+02  0.51100000000E-03 0.  1.
         11   -1    0    0    0    0 -0.00000000000E+00 -0.00000000000E+00 -0.45593999997E+02  0.45594000000E+02  0.51100000000E-03 0. -1.
    9900012    2    1    2    0    0  0.27993497219E+02  0.24201906192E+02 -0.22677188566E+02  0.47787273842E+02  0.20000012754E+02 0.  0.
        -12    1    1    2    0    0 -0.27993497219E+02 -0.24201906192E+02  0.22677188566E+02  0.43400726158E+02  0.00000000000E+00 0.  1.
         11    1    3    3    0    0  0.18694231713E+02  0.86986009764E+01 -0.12898944712E+02  0.24321240372E+02  0.51100000000E-03 0. -1.
        -11    1    3    3    0    0  0.46523415299E+01  0.21851956901E+01  0.15567019572E+01  0.53705384422E+01  0.51100000000E-03 0.  1.
         12    1    3    3    0    0  0.46469239758E+01  0.13318109525E+02 -0.11334945810E+02  0.18095495027E+02  0.00000000000E+00 0. -1.
</event>
<event>
 7    1  0.4592673E-010  0.4778727E+02  0.7816164E-02  0.1312668E+00
        -11   -1    0    0    0    0  0.00000000000E+00  0.00000000000E+00  0.45593999997E+02  0.45594000000E+02  0.51100000000E-03 0.  1.
         11   -1    0    0    0    0 -0.00000000000E+00 -0.00000000000E+00 -0.45593999997E+02  0.45594000000E+02  0.51100000000E-03 0. -1.
    9900012    2    1    2    0    0 -0.18074860814E+02 -0.71815120299E+01 -0.38798825507E+02  0.47787267642E+02  0.19999984488E+02 0.  0.
        -12    1    1    2    0    0  0.18074860814E+02  0.71815120299E+01  0.38798825507E+02  0.43400732358E+02  0.00000000000E+00 0.  1.
         11    1    3    3    0    0  0.26267486968E+01 -0.38265280790E+01 -0.10102700582E+02  0.11117854342E+02  0.51100000000E-03 0. -1.
        -11    1    3    3    0    0 -0.66349688703E+01 -0.45024672522E+01 -0.14968874062E+02  0.16981231234E+02  0.51100000000E-03 0.  1.
        -12    1    3    3    0    0 -0.14066640640E+02  0.11474833012E+01 -0.13727250863E+02  0.19688182066E+02  0.00000000000E+00 0.  1.
</event>
<event>
 7    1  0.4592673E-010  0.4778727E+02  0.7816164E-02  0.1312668E+00
        -11   -1    0    0    0    0  0.00000000000E+00  0.00000000000E+00  0.45593999997E+02  0.45594000000E+02  0.51100000000E-03 0.  1.
         11   -1    0    0    0    0 -0.00000000000E+00 -0.00000000000E+00 -0.45593999997E+02  0.45594000000E+02  0.51100000000E-03 0. -1.
    9900012    2    1    2    0    0 -0.42207369489E+01 -0.43171854803E+02  0.14139940772E+01  0.47787273660E+02  0.20000011927E+02 0.  0.
        -12    1    1    2    0    0  0.42207369489E+01  0.43171854803E+02 -0.14139940772E+01  0.43400726340E+02  0.00000000000E+00 0.  1.
         11    1    3    3    0    0 -0.51223228531E+01 -0.74397017698E+01 -0.16263967783E+01  0.91778276611E+01  0.51100000000E-03 0. -1.
        -11    1    3    3    0    0  0.29442446013E+01 -0.72513767744E+00 -0.12532317463E+01  0.32810045709E+01  0.51100000000E-03 0.  1.
        -12    1    3    3    0    0 -0.20426586971E+01 -0.35007015356E+02  0.42936226018E+01  0.35328441428E+02  0.00000000000E+00 0.  1.
</event>
<event>
 7    1  0.4592673E-010  0.4778727E+02  0.7816164E-02  0.1312668E+00
        -11   -1    0    0    0    0  0.00000000000E+00  0.00000000000E+00  0.45593999997E+02  0.45594000000E+02  0.51100000000E-03 0.  1.
         11   -1    0    0    0    0 -0.00000000000E+00 -0.00000000000E+00 -0.45593999997E+02  0.45594000000E+02  0.51100000000E-03 0. -1.
    9900012    2    1    2    0    0 -0.32109096168E+02 -0.18905816658E+02 -0.22253075139E+02  0.47787270590E+02  0.19999997926E+02 0.  0.
        -12    1    1    2    0    0  0.32109096168E+02  0.18905816658E+02  0.22253075139E+02  0.43400729410E+02  0.00000000000E+00 0.  1.
         11    1    3    3    0    0 -0.11009360289E+01 -0.11183353969E+01  0.18381461746E+01  0.24169227997E+01  0.51100000000E-03 0. -1.
        -11    1    3    3    0    0 -0.54058044496E+01  0.22184352834E+01 -0.49603822135E+01  0.76648267312E+01  0.51100000000E-03 0.  1.
         12    1    3    3    0    0 -0.25602355690E+02 -0.20005916544E+02 -0.19130839100E+02  0.37705521059E+02  0.00000000000E+00 0. -1.
</event>
<event>
 7    1  0.4592673E-010  0.4778727E+02  0.7816164E-02  0.1312668E+00
        -11   -1    0    0    0    0  0.00000000000E+00  0.00000000000E+00  0.45593999997E+02  0.45594000000E+02  0.51100000000E-03 0.  1.
         11   -1    0    0    0    0 -0.00000000000E+00 -0.00000000000E+00 -0.45593999997E+02  0.45594000000E+02  0.51100000000E-03 0. -1.
    9900012    2    1    2    0    0  0.27354069895E+02  0.94708858964E+01 -0.32336981087E+02  0.47787272295E+02  0.20000005703E+02 0.  0.
        -12    1    1    2    0    0 -0.27354069895E+02 -0.94708858964E+01  0.32336981087E+02  0.43400727705E+02  0.00000000000E+00 0.  1.
         11    1    3    3    0    0 -0.21149118672E+01  0.17425142508E+01 -0.21311872307E+01  0.34714791363E+01  0.51100000000E-03 0. -1.
        -11    1    3    3    0    0  0.61135181876E+01  0.49574558806E+01 -0.31797521298E+01  0.84889514845E+01  0.51100000000E-03 0.  1.
         12    1    3    3    0    0  0.23355463574E+02  0.27709157650E+01 -0.27026041727E+02  0.35826841674E+02  0.00000000000E+00 0. -1.
</event>
<event>
 7    1  0.4592673E-010  0.4778728E+02  0.7816164E-02  0.1312668E+00
        -11   -1    0    0    0    0  0.00000000000E+00  0.00000000000E+00  0.45593999997E+02  0.45594000000E+02  0.51100000000E-03 0.  1.
         11   -1    0    0    0    0 -0.00000000000E+00 -0.00000000000E+00 -0.45593999997E+02  0.45594000000E+02  0.51100000000E-03 0. -1.
    9900012    2    1    2    0    0  0.82258696360E+01 -0.15543733165E+02 -0.39678076550E+02  0.47787281911E+02  0.20000049544E+02 0.  0.
        -12    1    1    2    0    0 -0.82258696360E+01  0.15543733165E+02  0.39678076550E+02  0.43400718089E+02  0.00000000000E+00 0.  1.
         11    1    3    3    0    0  0.71022575565E+01 -0.71061325620E+01 -0.19661874237E+02  0.22080047128E+02  0.51100000000E-03 0. -1.
        -11    1    3    3    0    0  0.59773540795E-01 -0.11997570069E+02 -0.12519054040E+02  0.17339895465E+02  0.51100000000E-03 0.  1.
         12    1    3    3    0    0  0.10638385387E+01  0.35599694656E+01 -0.74971482731E+01  0.83673393179E+01  0.00000000000E+00 0. -1.
</event>
<event>
 7    1  0.4592673E-010  0.4778728E+02  0.7816164E-02  0.1312668E+00
        -11   -1    0    0    0    0  0.00000000000E+00  0.00000000000E+00  0.45593999997E+02  0.45594000000E+02  0.51100000000E-03 0.  1.
         11   -1    0    0    0    0 -0.00000000000E+00 -0.00000000000E+00 -0.45593999997E+02  0.45594000000E+02  0.51100000000E-03 0. -1.
    9900012    2    1    2    0    0 -0.67537633449E+01  0.25750185489E+02 -0.34277361886E+02  0.47787275238E+02  0.20000019118E+02 0.  0.
        -12    1    1    2    0    0  0.67537633449E+01 -0.25750185489E+02  0.34277361886E+02  0.43400724762E+02  0.00000000000E+00 0.  1.
         11    1    3    3    0    0  0.14114121746E+01 -0.16770827404E+00 -0.15097620059E+01  0.20735457476E+01  0.51100000000E-03 0. -1.
        -11    1    3    3    0    0 -0.13522829244E+00  0.11813882337E+01  0.19810136101E+01  0.23104934612E+01  0.51100000000E-03 0.  1.
         12    1    3    3    0    0 -0.80299472271E+01  0.24736505529E+02 -0.34748613490E+02  0.43403236029E+02  0.00000000000E+00 0. -1.
</event>
<event>
 7    1  0.4592673E-010  0.4778727E+02  0.7816164E-02  0.1312668E+00
        -11   -1    0    0    0    0  0.00000000000E+00  0.00000000000E+00  0.45593999997E+02  0.45594000000E+02  0.51100000000E-03 0.  1.
         11   -1    0    0    0    0 -0.00000000000E+00 -0.00000000000E+00 -0.45593999997E+02  0.45594000000E+02  0.51100000000E-03 0. -1.
    9900012    2    1    2    0    0 -0.30293358087E+02  0.29767551132E+02 -0.89347121794E+01  0.47787265832E+02  0.19999976234E+02 0.  0.
        -12    1    1    2    0    0  0.30293358087E+02 -0.29767551132E+02  0.89347121794E+01  0.43400734168E+02  0.00000000000E+00 0.  1.
         11    1    3    3    0    0 -0.61899955450E+01  0.49452548575E+01 -0.58008601670E+01  0.98194485278E+01  0.51100000000E-03 0. -1.
        -11    1    3    3    0    0 -0.17481530935E+02  0.13550345337E+02  0.48580008827E+01  0.22645440058E+02  0.51100000000E-03 0.  1.
        -12    1    3    3    0    0 -0.66218316069E+01  0.11271950938E+02 -0.79918528952E+01  0.15322377246E+02  0.00000000000E+00 0.  1.
</event>
<event>
 7    1  0.4592673E-010  0.4778727E+02  0.7816164E-02  0.1312668E+00
        -11   -1    0    0    0    0  0.00000000000E+00  0.00000000000E+00  0.45593999997E+02  0.45594000000E+02  0.51100000000E-03 0.  1.
         11   -1    0    0    0    0 -0.00000000000E+00 -0.00000000000E+00 -0.45593999997E+02  0.45594000000E+02  0.51100000000E-03 0. -1.
    9900012    2    1    2    0    0  0.12992227896E+02 -0.51062294322E+00 -0.41407303494E+02  0.47787268392E+02  0.19999987907E+02 0.  0.
        -12    1    1    2    0    0 -0.12992227896E+02  0.51062294322E+00  0.41407303494E+02  0.43400731608E+02  0.00000000000E+00 0.  1.
         11    1    3    3    0    0 -0.11565218948E+01  0.22627194848E+01 -0.18780979033E+01  0.31598566986E+01  0.51100000000E-03 0. -1.
        -11    1    3    3    0    0  0.73343355273E+01  0.60730378730E+01 -0.19278672182E+02  0.21502127057E+02  0.51100000000E-03 0.  1.
         12    1    3    3    0    0  0.68144142631E+01 -0.88463803010E+01 -0.20250533409E+02  0.23125284636E+02  0.00000000000E+00 0. -1.
</event>
<event>
 7    1  0.4592673E-010  0.4778727E+02  0.7816164E-02  0.1312668E+00
        -11   -1    0    0    0    0  0.00000000000E+00  0.00000000000E+00  0.45593999997E+02  0.45594000000E+02  0.51100000000E-03 0. -1.
         11   -1    0    0    0    0 -0.00000000000E+00 -0.00000000000E+00 -0.45593999997E+02  0.45594000000E+02  0.51100000000E-03 0.  1.
    9900012    2    1    2    0    0  0.24839674833E+02 -0.25961540347E+02 -0.24343629616E+02  0.47787270445E+02  0.19999997267E+02 0.  0.
        -12    1    1    2    0    0 -0.24839674833E+02  0.25961540347E+02  0.24343629616E+02  0.43400729555E+02  0.00000000000E+00 0.  1.
         11    1    3    3    0    0 -0.62697283952E+00  0.95561003542E+00  0.64490907335E+00  0.13123236854E+01  0.51100000000E-03 0. -1.
        -11    1    3    3    0    0 -0.99336957989E+00 -0.23678032401E+01 -0.39063052413E+01  0.46746653576E+01  0.51100000000E-03 0.  1.
         12    1    3    3    0    0  0.26460017252E+02 -0.24549347142E+02 -0.21082233448E+02  0.41800281402E+02  0.00000000000E+00 0. -1.
</event>
<event>
 7    1  0.4592673E-010  0.4778730E+02  0.7816164E-02  0.1312668E+00
        -11   -1    0    0    0    0  0.00000000000E+00  0.00000000000E+00  0.45593999997E+02  0.45594000000E+02  0.51100000000E-03 0.  1.
         11   -1    0    0    0    0 -0.00000000000E+00 -0.00000000000E+00 -0.45593999997E+02  0.45594000000E+02  0.51100000000E-03 0. -1.
    9900012    2    1    2    0    0  0.33587841217E+02  0.31358876924E+01 -0.27306484297E+02  0.47787297772E+02  0.20000121861E+02 0.  0.
        -12    1    1    2    0    0 -0.33587841217E+02 -0.31358876924E+01  0.27306484297E+02  0.43400702228E+02  0.00000000000E+00 0.  1.
         11    1    3    3    0    0  0.97347595604E+01  0.59092426249E+01 -0.78216121575E+01  0.13815292581E+02  0.51100000000E-03 0. -1.
        -11    1    3    3    0    0  0.99258833794E+01  0.42092738925E+01 -0.13513021513E+02  0.17287073154E+02  0.51100000000E-03 0.  1.
        -12    1    3    3    0    0  0.13927198277E+02 -0.69826288250E+01 -0.59718506259E+01  0.16684932036E+02  0.00000000000E+00 0.  1.
</event>
<event>
 7    1  0.4592673E-010  0.4778727E+02  0.7816164E-02  0.1312668E+00
        -11   -1    0    0    0    0  0.00000000000E+00  0.00000000000E+00  0.45593999997E+02  0.45594000000E+02  0.51100000000E-03 0. -1.
         11   -1    0    0    0    0 -0.00000000000E+00 -0.00000000000E+00 -0.45593999997E+02  0.45594000000E+02  0.51100000000E-03 0.  1.
    9900012    2    1    2    0    0  0.41963935192E+02 -0.10487639385E+02  0.35581700651E+01  0.47787274074E+02  0.20000013815E+02 0.  0.
        -12    1    1    2    0    0 -0.41963935192E+02  0.10487639385E+02 -0.35581700651E+01  0.43400725926E+02  0.00000000000E+00 0.  1.
         11    1    3    3    0    0  0.44997273216E+01 -0.39161278813E+01 -0.24675983960E+01  0.64554353576E+01  0.51100000000E-03 0. -1.
        -11    1    3    3    0    0  0.55868430124E+00  0.24006559567E+01  0.19312256868E+01  0.31312793049E+01  0.51100000000E-03 0.  1.
         12    1    3    3    0    0  0.36905523569E+02 -0.89721674601E+01  0.40945427743E+01  0.38200559412E+02  0.00000000000E+00 0. -1.
</event>
<event>
 7    1  0.4592673E-010  0.4778726E+02  0.7816164E-02  0.1312668E+00
        -11   -1    0    0    0    0  0.00000000000E+00  0.00000000000E+00  0.45593999997E+02  0.45594000000E+02  0.51100000000E-03 0.  1.
         11   -1    0    0    0    0 -0.00000000000E+00 -0.00000000000E+00 -0.45593999997E+02  0.45594000000E+02  0.51100000000E-03 0. -1.
    9900012    2    1    2    0    0 -0.66402339697E+01 -0.33968017464E+02 -0.26185968373E+02  0.47787264323E+02  0.19999969355E+02 0.  0.
        -12    1    1    2    0    0  0.66402339697E+01  0.33968017464E+02  0.26185968373E+02  0.43400735677E+02  0.00000000000E+00 0.  1.
         11    1    3    3    0    0  0.86028003000E+00 -0.30425158795E+02 -0.21767616100E+02  0.37420041159E+02  0.51100000000E-03 0. -1.
        -11    1    3    3    0    0 -0.37589994942E+01 -0.40369154979E+01 -0.19174813059E+01  0.58398200960E+01  0.51100000000E-03 0.  1.
         12    1    3    3    0    0 -0.37415145055E+01  0.49405682830E+00 -0.25008709672E+01  0.45274030679E+01  0.00000000000E+00 0. -1.
</event>
<event>
 7    1  0.4592673E-010  0.4778727E+02  0.7816164E-02  0.1312668E+00
        -11   -1    0    0    0    0  0.00000000000E+00  0.00000000000E+00  0.45593999997E+02  0.45594000000E+02  0.51100000000E-03 0.  1.
         11   -1    0    0    0    0 -0.00000000000E+00 -0.00000000000E+00 -0.45593999997E+02  0.45594000000E+02  0.51100000000E-03 0. -1.
    9900012    2    1    2    0    0 -0.58794702686E+01 -0.14349827854E+02 -0.40535633104E+02  0.47787270960E+02  0.19999999617E+02 0.  0.
        -12    1    1    2    0    0  0.58794702686E+01  0.14349827854E+02  0.40535633104E+02  0.43400729040E+02  0.00000000000E+00 0.  1.
         11    1    3    3    0    0 -0.41034931094E+01 -0.23109149442E+01 -0.32307264451E+01  0.57110924702E+01  0.51100000000E-03 0. -1.
        -11    1    3    3    0    0 -0.14061333779E+01 -0.11042449838E+01  0.11295432708E+01  0.21148135432E+01  0.51100000000E-03 0.  1.
        -12    1    3    3    0    0 -0.36984378127E+00 -0.10934667926E+02 -0.38434449929E+02  0.39961364947E+02  0.00000000000E+00 0.  1.
</event>
<event>
 7    1  0.4592673E-010  0.4778729E+02  0.7816164E-02  0.1312668E+00
        -11   -1    0    0    0    0  0.00000000000E+00  0.00000000000E+00  0.45593999997E+02  0.45594000000E+02  0.51100000000E-03 0. -1.
         11   -1    0    0    0    0 -0.00000000000E+00 -0.00000000000E+00 -0.45593999997E+02  0.45594000000E+02  0.51100000000E-03 0.  1.
    9900012    2    1    2    0    0 -0.42441071916E+02  0.29108272205E+01  0.85967674092E+01  0.47787286753E+02  0.20000071621E+02 0.  0.
        -12    1    1    2    0    0  0.42441071916E+02 -0.29108272205E+01 -0.85967674092E+01  0.43400713247E+02  0.00000000000E+00 0.  1.
         11    1    3    3    0    0 -0.16130327335E+02  0.24721315029E+01 -0.10176287947E+01  0.16350365828E+02  0.51100000000E-03 0. -1.
        -11    1    3    3    0    0 -0.62523437393E+01  0.35504078866E+01 -0.27171499942E+01  0.76863582241E+01  0.51100000000E-03 0.  1.
         12    1    3    3    0    0 -0.20058400842E+02 -0.31117121690E+01  0.12331546198E+02  0.23750562701E+02  0.00000000000E+00 0. -1.
</event>
<event>
 7    1  0.4592673E-010  0.4778726E+02  0.7816164E-02  0.1312668E+00
        -11   -1    0    0    0    0  0.00000000000E+00  0.00000000000E+00  0.45593999997E+02  0.45594000000E+02  0.51100000000E-03 0. -1.
         11   -1    0    0    0    0 -0.00000000000E+00 -0.00000000000E+00 -0.45593999997E+02  0.45594000000E+02  0.51100000000E-03 0.  1.
    9900012    2    1    2    0    0  0.33403885780E+02  0.18063104626E+02 -0.21012579767E+02  0.47787264495E+02  0.19999970138E+02 0.  0.
        -12    1    1    2    0    0 -0.33403885780E+02 -0.18063104626E+02  0.21012579767E+02  0.43400735505E+02  0.00000000000E+00 0.  1.
         11    1    3    3    0    0  0.86214099766E+01  0.52021118780E+01 -0.14874778578E+02  0.17962452950E+02  0.51100000000E-03 0. -1.
        -11    1    3    3    0    0  0.18684747058E+01  0.11642941392E+01 -0.32654126612E+01  0.39382354777E+01  0.51100000000E-03 0.  1.
        -12    1    3    3    0    0  0.22914001098E+02  0.11696698609E+02 -0.28723885277E+01  0.25886576068E+02  0.00000000000E+00 0.  1.
</event>
<event>
 7    1  0.4592673E-010  0.4778727E+02  0.7816164E-02  0.1312668E+00
        -11   -1    0    0    0    0  0.00000000000E+00  0.00000000000E+00  0.45593999997E+02  0.45594000000E+02  0.51100000000E-03 0.  1.
         11   -1    0    0    0    0 -0.00000000000E+00 -0.00000000000E+00 -0.45593999997E+02  0.45594000000E+02  0.51100000000E-03 0. -1.
    9900012    2    1    2    0    0 -0.21722378288E+02 -0.34051681943E+02 -0.15882203653E+02  0.47787272420E+02  0.20000006270E+02 0.  0.
        -12    1    1    2    0    0  0.21722378288E+02  0.34051681943E+02  0.15882203653E+02  0.43400727580E+02  0.00000000000E+00 0.  1.
         11    1    3    3    0    0 -0.21011839384E+02 -0.24765278754E+02 -0.88128273802E+01  0.33652375143E+02  0.51100000000E-03 0. -1.
        -11    1    3    3    0    0 -0.57991103732E+00 -0.15489802080E+01  0.17458335377E+01  0.24049057151E+01  0.51100000000E-03 0.  1.
        -12    1    3    3    0    0 -0.13062786603E+00 -0.77374229811E+01 -0.88152098104E+01  0.11729991561E+02  0.00000000000E+00 0.  1.
</event>
<event>
 7    1  0.4592673E-010  0.4778727E+02  0.7816164E-02  0.1312668E+00
        -11   -1    0    0    0    0  0.00000000000E+00  0.00000000000E+00  0.45593999997E+02  0.45594000000E+02  0.51100000000E-03 0.  1.
         11   -1    0    0    0    0 -0.00000000000E+00 -0.00000000000E+00 -0.45593999997E+02  0.45594000000E+02  0.51100000000E-03 0. -1.
    9900012    2    1    2    0    0 -0.33442374373E+02  0.24186091285E+02 -0.13426236485E+02  0.47787271418E+02  0.20000001701E+02 0.  0.
        -12    1    1    2    0    0  0.33442374373E+02 -0.24186091285E+02  0.13426236485E+02  0.43400728582E+02  0.00000000000E+00 0.  1.
         11    1    3    3    0    0 -0.60382012255E+01  0.98529999007E+00  0.23645372048E+01  0.65590949501E+01  0.51100000000E-03 0. -1.
        -11    1    3    3    0    0 -0.60247553051E+01  0.12971384453E+01  0.11132346455E+01  0.62625503008E+01  0.51100000000E-03 0.  1.
        -12    1    3    3    0    0 -0.21379417842E+02  0.21903652850E+02 -0.16904008335E+02  0.34965626167E+02  0.00000000000E+00 0.  1.
</event>
<event>
 7    1  0.4592673E-010  0.4778727E+02  0.7816164E-02  0.1312668E+00
        -11   -1    0    0    0    0  0.00000000000E+00  0.00000000000E+00  0.45593999997E+02  0.45594000000E+02  0.51100000000E-03 0.  1.
         11   -1    0    0    0    0 -0.00000000000E+00 -0.00000000000E+00 -0.45593999997E+02  0.45594000000E+02  0.51100000000E-03 0. -1.
    9900012    2    1    2    0    0 -0.40751069829E+02  0.10868339435E+02 -0.10239771855E+02  0.47787269339E+02  0.19999992225E+02 0.  0.
        -12    1    1    2    0    0  0.40751069829E+02 -0.10868339435E+02  0.10239771855E+02  0.43400730661E+02  0.00000000000E+00 0.  1.
         11    1    3    3    0    0 -0.13905560252E+02  0.97660593000E+01 -0.19300977913E+01  0.17101631440E+02  0.51100000000E-03 0. -1.
        -11    1    3    3    0    0 -0.21202050824E+02  0.16694070931E+01 -0.81052440550E+00  0.21283111362E+02  0.51100000000E-03 0.  1.
        -12    1    3    3    0    0 -0.56434587534E+01 -0.56712695809E+00 -0.74991496582E+01  0.94025265372E+01  0.00000000000E+00 0.  1.
</event>
<event>
 7    1  0.4592673E-010  0.4778727E+02  0.7816164E-02  0.1312668E+00
        -11   -1    0    0    0    0  0.00000000000E+00  0.00000000000E+00  0.45593999997E+02  0.45594000000E+02  0.51100000000E-03 0.  1.
         11   -1    0    0    0    0 -0.00000000000E+00 -0.00000000000E+00 -0.45593999997E+02  0.45594000000E+02  0.51100000000E-03 0. -1.
    9900012    2    1    2    0    0  0.77375679162E+01  0.24918350916E+02 -0.34681827167E+02  0.47787270683E+02  0.19999998352E+02 0.  0.
        -12    1    1    2    0    0 -0.77375679162E+01 -0.24918350916E+02  0.34681827167E+02  0.43400729317E+02  0.00000000000E+00 0.  1.
         11    1    3    3    0    0 -0.27060180858E+01  0.55908144288E+01 -0.14392934284E+02  0.15675978356E+02  0.51100000000E-03 0. -1.
        -11    1    3    3    0    0 -0.19307744154E+01  0.34141325814E+01 -0.66466225962E+00  0.39781864344E+01  0.51100000000E-03 0.  1.
         12    1    3    3    0    0  0.12374360417E+02  0.15913403906E+02 -0.19624230623E+02  0.28133105893E+02  0.00000000000E+00 0. -1.
</event>
<event>
 7    1  0.4592673E-010  0.4778727E+02  0.7816164E-02  0.1312668E+00
        -11   -1    0    0    0    0  0.00000000000E+00  0.00000000000E+00  0.45593999997E+02  0.45594000000E+02  0.51100000000E-03 0. -1.
         11   -1    0    0    0    0 -0.00000000000E+00 -0.00000000000E+00 -0.45593999997E+02  0.45594000000E+02  0.51100000000E-03 0.  1.
    9900012    2    1    2    0    0 -0.32260671770E+02 -0.62859704447E+01  0.28343582248E+02  0.47787273944E+02  0.20000013222E+02 0.  0.
        -12    1    1    2    0    0  0.32260671770E+02  0.62859704447E+01 -0.28343582248E+02  0.43400726056E+02  0.00000000000E+00 0.  1.
         11    1    3    3    0    0 -0.21130025143E+02  0.10133216942E+00  0.12189710107E+02  0.24394205532E+02  0.51100000000E-03 0. -1.
        -11    1    3    3    0    0 -0.59094330862E+01 -0.28373515259E+01  0.57149414367E+00  0.65801648079E+01  0.51100000000E-03 0.  1.
         12    1    3    3    0    0 -0.52212135406E+01 -0.35499510882E+01  0.15582377998E+02  0.16812903605E+02  0.00000000000E+00 0. -1.
</event>
<event>
 7    1  0.4592673E-010  0.4778728E+02  0.7816164E-02  0.1312668E+00
        -11   -1    0    0    0    0  0.00000000000E+00  0.00000000000E+00  0.45593999997E+02  0.45594000000E+02  0.51100000000E-03 0.  1.
         11   -1    0    0    0    0 -0.00000000000E+00 -0.00000000000E+00 -0.45593999997E+02  0.45594000000E+02  0.51100000000E-03 0. -1.
    9900012    2    1    2    0    0  0.37094690929E+02  0.14214904448E+02  0.17479789579E+02  0.47787278263E+02  0.20000032912E+02 0.  0.
        -12    1    1    2    0    0 -0.37094690929E+02 -0.14214904448E+02 -0.17479789579E+02  0.43400721737E+02  0.00000000000E+00 0.  1.
         11    1    3    3    0    0  0.23602853572E+02  0.91056201391E+01  0.94537146524E+01  0.27007031230E+02  0.51100000000E-03 0. -1.
        -11    1    3    3    0    0  0.10454958020E+02 -0.88566247466E+00  0.92043596326E+01  0.13957463298E+02  0.51100000000E-03 0.  1.
         12    1    3    3    0    0  0.30368793370E+01  0.59949467835E+01 -0.11782847055E+01  0.68227837347E+01  0.00000000000E+00 0. -1.
</event>
<event>
 7    1  0.4592673E-010  0.4778727E+02  0.7816164E-02  0.1312668E+00
        -11   -1    0    0    0    0  0.00000000000E+00  0.00000000000E+00  0.45593999997E+02  0.45594000000E+02  0.51100000000E-03 0. -1.
         11   -1    0    0    0    0 -0.00000000000E+00 -0.00000000000E+00 -0.45593999997E+02  0.45594000000E+02  0.51100000000E-03 0.  1.
    9900012    2    1    2    0    0 -0.38756808414E+02 -0.13302354335E+02 -0.14303160275E+02  0.47787271629E+02  0.20000002666E+02 0.  0.
        -12    1    1    2    0    0  0.38756808414E+02  0.13302354335E+02  0.14303160275E+02  0.43400728371E+02  0.00000000000E+00 0.  1.
         11    1    3    3    0    0 -0.12534876981E+02 -0.92199369870E+01 -0.25799225923E+01  0.15772963571E+02  0.51100000000E-03 0. -1.
        -11    1    3    3    0    0 -0.25831513513E+02 -0.78304552621E+00 -0.80650656153E+01  0.27072597479E+02  0.51100000000E-03 0.  1.
         12    1    3    3    0    0 -0.39041792049E+00 -0.32993718221E+01 -0.36581720669E+01  0.49417105788E+01  0.00000000000E+00 0. -1.
</event>
<event>
 7    1  0.4592673E-010  0.4778727E+02  0.7816164E-02  0.1312668E+00
        -11   -1    0    0    0    0  0.00000000000E+00  0.00000000000E+00  0.45593999997E+02  0.45594000000E+02  0.51100000000E-03 0.  1.
         11   -1    0    0    0    0 -0.00000000000E+00 -0.00000000000E+00 -0.45593999997E+02  0.45594000000E+02  0.51100000000E-03 0. -1.
    9900012    2    1    2    0    0  0.25967394873E+02  0.22894902280E+01 -0.34699792841E+02  0.47787274370E+02  0.20000015164E+02 0.  0.
        -12    1    1    2    0    0 -0.25967394873E+02 -0.22894902280E+01  0.34699792841E+02  0.43400725630E+02  0.00000000000E+00 0.  1.
         11    1    3    3    0    0 -0.19669483615E+01 -0.81470542283E+00  0.98869616482E+00  0.23473711147E+01  0.51100000000E-03 0.  1.
        -11    1    3    3    0    0  0.33885985964E+01  0.58549041100E-01 -0.45448395851E+01  0.56693558323E+01  0.51100000000E-03 0. -1.
        -12    1    3    3    0    0  0.24545744638E+02  0.30456466098E+01 -0.31143649420E+02  0.39770547423E+02  0.00000000000E+00 0.  1.
</event>
<event>
 7    1  0.4592673E-010  0.4778727E+02  0.7816164E-02  0.1312668E+00
        -11   -1    0    0    0    0  0.00000000000E+00  0.00000000000E+00  0.45593999997E+02  0.45594000000E+02  0.51100000000E-03 0.  1.
         11   -1    0    0    0    0 -0.00000000000E+00 -0.00000000000E+00 -0.45593999997E+02  0.45594000000E+02  0.51100000000E-03 0. -1.
    9900012    2    1    2    0    0 -0.10173218295E+02  0.20531687995E+00 -0.42191075596E+02  0.47787269759E+02  0.19999994141E+02 0.  0.
        -12    1    1    2    0    0  0.10173218295E+02 -0.20531687995E+00  0.42191075596E+02  0.43400730241E+02  0.00000000000E+00 0.  1.
         11    1    3    3    0    0 -0.40181776832E+01 -0.52104152564E+00 -0.74295755827E+00  0.41193715977E+01  0.51100000000E-03 0. -1.
        -11    1    3    3    0    0 -0.44512739112E+01  0.54804890537E+01 -0.13177917066E+02  0.14950153784E+02  0.51100000000E-03 0.  1.
         12    1    3    3    0    0 -0.17037667008E+01 -0.47541306481E+01 -0.28270200971E+02  0.28717744378E+02  0.00000000000E+00 0. -1.
</event>
<event>
 7    1  0.4592673E-010  0.4778727E+02  0.7816164E-02  0.1312668E+00
        -11   -1    0    0    0    0  0.00000000000E+00  0.00000000000E+00  0.45593999997E+02  0.45594000000E+02  0.51100000000E-03 0.  1.
         11   -1    0    0    0    0 -0.00000000000E+00 -0.00000000000E+00 -0.45593999997E+02  0.45594000000E+02  0.51100000000E-03 0. -1.
    9900012    2    1    2    0    0  0.29988149645E+01 -0.37613316137E+02 -0.21444550767E+02  0.47787271900E+02  0.20000003899E+02 0.  0.
        -12    1    1    2    0    0 -0.29988149645E+01  0.37613316137E+02  0.21444550767E+02  0.43400728100E+02  0.00000000000E+00 0.  1.
         11    1    3    3    0    0  0.22281610833E+01 -0.10040742663E+02 -0.17590196900E+01  0.10434335895E+02  0.51100000000E-03 0. -1.
        -11    1    3    3    0    0  0.42726952200E+01 -0.22593035156E+02 -0.20982935823E+02  0.31128520010E+02  0.51100000000E-03 0.  1.
        -12    1    3    3    0    0 -0.35020413388E+01 -0.49795383179E+01  0.12974047458E+01  0.62244159945E+01  0.00000000000E+00 0.  1.
</event>
<event>
 7    1  0.4592673E-010  0.4778728E+02  0.7816164E-02  0.1312668E+00
        -11   -1    0    0    0    0  0.00000000000E+00  0.00000000000E+00  0.45593999997E+02  0.45594000000E+02  0.51100000000E-03 0.  1.
         11   -1    0    0    0    0 -0.00000000000E+00 -0.00000000000E+00 -0.45593999997E+02  0.45594000000E+02  0.51100000000E-03 0. -1.
    9900012    2    1    2    0    0  0.32207621551E+02 -0.22309787902E+02 -0.18669896161E+02  0.47787279443E+02  0.20000038293E+02 0.  0.
        -12    1    1    2    0    0 -0.32207621551E+02  0.22309787902E+02  0.18669896161E+02  0.43400720557E+02  0.00000000000E+00 0.  1.
         11    1    3    3    0    0  0.14150260913E+02 -0.73064499155E+01 -0.13949245750E+02  0.21170629455E+02  0.51100000000E-03 0. -1.
        -11    1    3    3    0    0 -0.28850989260E+00  0.81440143505E+00 -0.20768856617E+01  0.22494314767E+01  0.51100000000E-03 0.  1.
        -12    1    3    3    0    0  0.18345870531E+02 -0.15817739421E+02 -0.26437647493E+01  0.24367218511E+02  0.00000000000E+00 0.  1.
</event>
<event>
 7    1  0.4592673E-010  0.4778727E+02  0.7816164E-02  0.1312668E+00
        -11   -1    0    0    0    0  0.00000000000E+00  0.00000000000E+00  0.45593999997E+02  0.45594000000E+02  0.51100000000E-03 0.  1.
         11   -1    0    0    0    0 -0.00000000000E+00 -0.00000000000E+00 -0.45593999997E+02  0.45594000000E+02  0.51100000000E-03 0. -1.
    9900012    2    1    2    0    0 -0.37421567915E+02  0.20672948511E+02 -0.74751997820E+01  0.47787272390E+02  0.20000006134E+02 0.  0.
        -12    1    1    2    0    0  0.37421567915E+02 -0.20672948511E+02  0.74751997820E+01  0.43400727610E+02  0.00000000000E+00 0.  1.
         11    1    3    3    0    0 -0.24323845256E+02  0.14710542162E+02  0.28627843585E+01  0.28570002332E+02  0.51100000000E-03 0. -1.
        -11    1    3    3    0    0 -0.54479157064E+01  0.28373541305E+01 -0.21030481238E+00  0.61461038375E+01  0.51100000000E-03 0.  1.
        -12    1    3    3    0    0 -0.76498069525E+01  0.31250522183E+01 -0.10127679328E+02  0.13071166220E+02  0.00000000000E+00 0.  1.
</event>
<event>
 7    1  0.4592673E-010  0.4778727E+02  0.7816164E-02  0.1312668E+00
        -11   -1    0    0    0    0  0.00000000000E+00  0.00000000000E+00  0.45593999997E+02  0.45594000000E+02  0.51100000000E-03 0. -1.
         11   -1    0    0    0    0 -0.00000000000E+00 -0.00000000000E+00 -0.45593999997E+02  0.45594000000E+02  0.51100000000E-03 0.  1.
    9900012    2    1    2    0    0  0.32659764342E+02  0.27791162518E+02 -0.66794226888E+01  0.47787267190E+02  0.19999982426E+02 0.  0.
        -12    1    1    2    0    0 -0.32659764342E+02 -0.27791162518E+02  0.66794226888E+01  0.43400732810E+02  0.00000000000E+00 0.  1.
         11    1    3    3    0    0 -0.95216162890E+00  0.18379188874E+01  0.93147621765E+00  0.22698470894E+01  0.51100000000E-03 0. -1.
        -11    1    3    3    0    0  0.71896902154E+01  0.25443103394E+01  0.36628194963E+01  0.84605796150E+01  0.51100000000E-03 0.  1.
         12    1    3    3    0    0  0.26422235756E+02  0.23408933291E+02 -0.11273718403E+02  0.37056840486E+02  0.00000000000E+00 0. -1.
</event>
<event>
 7    1  0.4592673E-010  0.4778727E+02  0.7816164E-02  0.1312668E+00
        -11   -1    0    0    0    0  0.00000000000E+00  0.00000000000E+00  0.45593999997E+02  0.45594000000E+02  0.51100000000E-03 0.  1.
         11   -1    0    0    0    0 -0.00000000000E+00 -0.00000000000E+00 -0.45593999997E+02  0.45594000000E+02  0.51100000000E-03 0. -1.
    9900012    2    1    2    0    0  0.25516882087E+02 -0.34892335111E+02  0.38777123986E+01  0.47787274494E+02  0.20000015729E+02 0.  0.
        -12    1    1    2    0    0 -0.25516882087E+02  0.34892335111E+02 -0.38777123986E+01  0.43400725506E+02  0.00000000000E+00 0.  1.
         11    1    3    3    0    0  0.14282362156E+02 -0.21239705304E+02 -0.65239560169E+01  0.26413499437E+02  0.51100000000E-03 0. -1.
        -11    1    3    3    0    0  0.14645559489E+01  0.39812484237E+00  0.12539347358E+01  0.19687001042E+01  0.51100000000E-03 0.  1.
         12    1    3    3    0    0  0.97699639825E+01 -0.14050754650E+02  0.91477336797E+01  0.19405074953E+02  0.00000000000E+00 0. -1.
</event>
<event>
 7    1  0.4592673E-010  0.4778727E+02  0.7816164E-02  0.1312668E+00
        -11   -1    0    0    0    0  0.00000000000E+00  0.00000000000E+00  0.45593999997E+02  0.45594000000E+02  0.51100000000E-03 0. -1.
         11   -1    0    0    0    0 -0.00000000000E+00 -0.00000000000E+00 -0.45593999997E+02  0.45594000000E+02  0.51100000000E-03 0.  1.
    9900012    2    1    2    0    0 -0.36996336008E+02  0.20486248988E+02  0.97574610847E+01  0.47787270485E+02  0.19999997449E+02 0.  0.
        -12    1    1    2    0    0  0.36996336008E+02 -0.20486248988E+02 -0.97574610847E+01  0.43400729515E+02  0.00000000000E+00 0.  1.
         11    1    3    3    0    0 -0.93373493732E+01  0.15369763766E+01  0.18842364016E+01  0.96487686663E+01  0.51100000000E-03 0. -1.
        -11    1    3    3    0    0 -0.25279244288E+02  0.20108809186E+02  0.28084371758E+01  0.32423629012E+02  0.51100000000E-03 0.  1.
        -12    1    3    3    0    0 -0.23797423472E+01 -0.11595365751E+01  0.50647875073E+01  0.57148728072E+01  0.00000000000E+00 0.  1.
</event>
<event>
 7    1  0.4592673E-010  0.4778727E+02  0.7816164E-02  0.1312668E+00
        -11   -1    0    0    0    0  0.00000000000E+00  0.00000000000E+00  0.45593999997E+02  0.45594000000E+02  0.51100000000E-03 0.  1.
         11   -1    0    0    0    0 -0.00000000000E+00 -0.00000000000E+00 -0.45593999997E+02  0.45594000000E+02  0.51100000000E-03 0. -1.
    9900012    2    1    2    0    0  0.11689044574E+02  0.41601345135E+02 -0.40395081046E+01  0.47787270677E+02  0.19999998323E+02 0.  0.
        -12    1    1    2    0    0 -0.11689044574E+02 -0.41601345135E+02  0.40395081046E+01  0.43400729323E+02  0.00000000000E+00 0.  1.
         11    1    3    3    0    0  0.10344082753E+02  0.18493619445E+02  0.11401499440E+00  0.21190257381E+02  0.51100000000E-03 0. -1.
        -11    1    3    3    0    0  0.48481841529E+01  0.50060567843E+01 -0.42435688375E+01  0.81592506303E+01  0.51100000000E-03 0.  1.
        -12    1    3    3    0    0 -0.35032223324E+01  0.18101668905E+02  0.90045738503E-01  0.18437762665E+02  0.00000000000E+00 0.  1.
</event>
<event>
 7    1  0.4592673E-010  0.4778727E+02  0.7816164E-02  0.1312668E+00
        -11   -1    0    0    0    0  0.00000000000E+00  0.00000000000E+00  0.45593999997E+02  0.45594000000E+02  0.51100000000E-03 0.  1.
         11   -1    0    0    0    0 -0.00000000000E+00 -0.00000000000E+00 -0.45593999997E+02  0.45594000000E+02  0.51100000000E-03 0. -1.
    9900012    2    1    2    0    0 -0.44740240286E+01  0.18086256563E+02 -0.39198135943E+02  0.47787269259E+02  0.19999991858E+02 0.  0.
        -12    1    1    2    0    0  0.44740240286E+01 -0.18086256563E+02  0.39198135943E+02  0.43400730741E+02  0.00000000000E+00 0.  1.
         11    1    3    3    0    0  0.29668587999E+01  0.33805499005E+01 -0.26783017326E+01  0.52348514019E+01  0.51100000000E-03 0.  1.
        -11    1    3    3    0    0  0.38050225393E+01  0.28207920555E+01 -0.42160440745E+01  0.63411428184E+01  0.51100000000E-03 0. -1.
         12    1    3    3    0    0 -0.11245905368E+02  0.11884914607E+02 -0.32303790136E+02  0.36211275038E+02  0.00000000000E+00 0. -1.
</event>
<event>
 7    1  0.4592673E-010  0.4778726E+02  0.7816164E-02  0.1312668E+00
        -11   -1    0    0    0    0  0.00000000000E+00  0.00000000000E+00  0.45593999997E+02  0.45594000000E+02  0.51100000000E-03 0. -1.
         11   -1    0    0    0    0 -0.00000000000E+00 -0.00000000000E+00 -0.45593999997E+02  0.45594000000E+02  0.51100000000E-03 0.  1.
    9900012    2    1    2    0    0  0.63789035777E+01 -0.41059502089E+02 -0.12531993557E+02  0.47787262850E+02  0.19999962638E+02 0.  0.
        -12    1    1    2    0    0 -0.63789035777E+01  0.41059502089E+02  0.12531993557E+02  0.43400737150E+02  0.00000000000E+00 0.  1.
         11    1    3    3    0    0 -0.90653291830E+00 -0.11451391818E+02  0.16248434949E+00  0.11488367070E+02  0.51100000000E-03 0. -1.
        -11    1    3    3    0    0  0.78311065911E+00  0.17699517544E+01 -0.10655149693E+01  0.22093695771E+01  0.51100000000E-03 0.  1.
         12    1    3    3    0    0  0.65023258369E+01 -0.31378062025E+02 -0.11628962937E+02  0.34089526203E+02  0.00000000000E+00 0. -1.
</event>
<event>
 7    1  0.4592673E-010  0.4778726E+02  0.7816164E-02  0.1312668E+00
        -11   -1    0    0    0    0  0.00000000000E+00  0.00000000000E+00  0.45593999997E+02  0.45594000000E+02  0.51100000000E-03 0.  1.
         11   -1    0    0    0    0 -0.00000000000E+00 -0.00000000000E+00 -0.45593999997E+02  0.45594000000E+02  0.51100000000E-03 0. -1.
    9900012    2    1    2    0    0 -0.13304212573E+02 -0.85905470552E+01 -0.40408225336E+02  0.47787259849E+02  0.19999948953E+02 0.  0.
        -12    1    1    2    0    0  0.13304212573E+02  0.85905470552E+01  0.40408225336E+02  0.43400740151E+02  0.00000000000E+00 0.  1.
         11    1    3    3    0    0 -0.10763887573E+02  0.61544785279E+00 -0.12478693596E+02  0.16491144468E+02  0.51100000000E-03 0. -1.
        -11    1    3    3    0    0 -0.48775560163E+00 -0.32560687341E+01 -0.72275236804E+00  0.33707952140E+01  0.51100000000E-03 0.  1.
        -12    1    3    3    0    0 -0.20525693982E+01 -0.59499261739E+01 -0.27206779372E+02  0.27925320167E+02  0.00000000000E+00 0.  1.
</event>
<event>
 7    1  0.4592673E-010  0.4778727E+02  0.7816164E-02  0.1312668E+00
        -11   -1    0    0    0    0  0.00000000000E+00  0.00000000000E+00  0.45593999997E+02  0.45594000000E+02  0.51100000000E-03 0.  1.
         11   -1    0    0    0    0 -0.00000000000E+00 -0.00000000000E+00 -0.45593999997E+02  0.45594000000E+02  0.51100000000E-03 0. -1.
    9900012    2    1    2    0    0 -0.20966633644E+02  0.75021161422E+01 -0.37252407524E+02  0.47787270291E+02  0.19999996565E+02 0.  0.
        -12    1    1    2    0    0  0.20966633644E+02 -0.75021161422E+01  0.37252407524E+02  0.43400729709E+02  0.00000000000E+00 0.  1.
         11    1    3    3    0    0 -0.34233955819E+01 -0.35816831307E+01 -0.45764297922E+01  0.67447610234E+01  0.51100000000E-03 0.  1.
        -11    1    3    3    0    0  0.21795421770E+01  0.13992497178E+01 -0.18313983920E+01  0.31721166759E+01  0.51100000000E-03 0. -1.
         12    1    3    3    0    0 -0.19722780239E+02  0.96845495551E+01 -0.30844579339E+02  0.37870392592E+02  0.00000000000E+00 0. -1.
</event>
<event>
 7    1  0.4592673E-010  0.4778727E+02  0.7816164E-02  0.1312668E+00
        -11   -1    0    0    0    0  0.00000000000E+00  0.00000000000E+00  0.45593999997E+02  0.45594000000E+02  0.51100000000E-03 0.  1.
         11   -1    0    0    0    0 -0.00000000000E+00 -0.00000000000E+00 -0.45593999997E+02  0.45594000000E+02  0.51100000000E-03 0. -1.
    9900012    2    1    2    0    0 -0.26590466932E+02  0.33784500398E+02 -0.59310817330E+01  0.47787272710E+02  0.20000007593E+02 0.  0.
        -12    1    1    2    0    0  0.26590466932E+02 -0.33784500398E+02  0.59310817330E+01  0.43400727290E+02  0.00000000000E+00 0.  1.
         11    1    3    3    0    0 -0.10921721080E+02  0.10290421385E+02  0.20632572382E+01  0.15147072137E+02  0.51100000000E-03 0. -1.
        -11    1    3    3    0    0 -0.32972172612E+01  0.53249267523E+01  0.41635475056E+01  0.75207456198E+01  0.51100000000E-03 0.  1.
         12    1    3    3    0    0 -0.12371528590E+02  0.18169152261E+02 -0.12157886477E+02  0.25119454953E+02  0.00000000000E+00 0. -1.
</event>
<event>
 7    1  0.4592673E-010  0.4778727E+02  0.7816164E-02  0.1312668E+00
        -11   -1    0    0    0    0  0.00000000000E+00  0.00000000000E+00  0.45593999997E+02  0.45594000000E+02  0.51100000000E-03 0. -1.
         11   -1    0    0    0    0 -0.00000000000E+00 -0.00000000000E+00 -0.45593999997E+02  0.45594000000E+02  0.51100000000E-03 0.  1.
    9900012    2    1    2    0    0 -0.11343990478E+02 -0.41715268654E+02  0.38436472471E+01  0.47787269787E+02  0.19999994266E+02 0.  0.
        -12    1    1    2    0    0  0.11343990478E+02  0.41715268654E+02 -0.38436472471E+01  0.43400730213E+02  0.00000000000E+00 0.  1.
         11    1    3    3    0    0 -0.27116957868E+01 -0.20050939887E+02  0.41477636263E+01  0.20654235104E+02  0.51100000000E-03 0. -1.
        -11    1    3    3    0    0 -0.18327669684E+01 -0.14698014817E+02 -0.58549032663E+01  0.15927038860E+02  0.51100000000E-03 0.  1.
         12    1    3    3    0    0 -0.67995277229E+01 -0.69663139506E+01  0.55507868871E+01  0.11205995823E+02  0.00000000000E+00 0. -1.
</event>
<event>
 7    1  0.4592673E-010  0.4778726E+02  0.7816164E-02  0.1312668E+00
        -11   -1    0    0    0    0  0.00000000000E+00  0.00000000000E+00  0.45593999997E+02  0.45594000000E+02  0.51100000000E-03 0.  1.
         11   -1    0    0    0    0 -0.00000000000E+00 -0.00000000000E+00 -0.45593999997E+02  0.45594000000E+02  0.51100000000E-03 0. -1.
    9900012    2    1    2    0    0 -0.18122228401E+02  0.26222789883E+02 -0.29454608242E+02  0.47787264774E+02  0.19999971411E+02 0.  0.
        -12    1    1    2    0    0  0.18122228401E+02 -0.26222789883E+02  0.29454608242E+02  0.43400735226E+02  0.00000000000E+00 0.  1.
         11    1    3    3    0    0 -0.16973248133E+01  0.49312301607E+01 -0.10575457954E+02  0.11791448326E+02  0.51100000000E-03 0. -1.
        -11    1    3    3    0    0 -0.42705972101E+01  0.63772432209E+01 -0.14283400809E+02  0.16214893480E+02  0.51100000000E-03 0.  1.
        -12    1    3    3    0    0 -0.12154306377E+02  0.14914316501E+02 -0.45957494795E+01  0.19780922969E+02  0.00000000000E+00 0.  1.
</event>
<event>
 7    1  0.4592673E-010  0.4778726E+02  0.7816164E-02  0.1312668E+00
        -11   -1    0    0    0    0  0.00000000000E+00  0.00000000000E+00  0.45593999997E+02  0.45594000000E+02  0.51100000000E-03 0.  1.
         11   -1    0    0    0    0 -0.00000000000E+00 -0.00000000000E+00 -0.45593999997E+02  0.45594000000E+02  0.51100000000E-03 0. -1.
    9900012    2    1    2    0    0 -0.28077612419E+02  0.15094862747E+02 -0.29451937862E+02  0.47787264473E+02  0.19999970037E+02 0.  0.
        -12    1    1    2    0    0  0.28077612419E+02 -0.15094862747E+02  0.29451937862E+02  0.43400735527E+02  0.00000000000E+00 0.  1.
         11    1    3    3    0    0 -0.39802309353E+01  0.72182034029E+01 -0.40187470178E+01  0.91703340461E+01  0.51100000000E-03 0.  1.
        -11    1    3    3    0    0 -0.13922776280E+02  0.11277533837E+02 -0.12672121265E+02  0.21945594693E+02  0.51100000000E-03 0. -1.
        -12    1    3    3    0    0 -0.10174605203E+02 -0.34008744931E+01 -0.12761069578E+02  0.16671335734E+02  0.00000000000E+00 0.  1.
</event>
<event>
 7    1  0.4592673E-010  0.4778728E+02  0.7816164E-02  0.1312668E+00
        -11   -1    0    0    0    0  0.00000000000E+00  0.00000000000E+00  0.45593999997E+02  0.45594000000E+02  0.51100000000E-03 0.  1.
         11   -1    0    0    0    0 -0.00000000000E+00 -0.00000000000E+00 -0.45593999997E+02  0.45594000000E+02  0.51100000000E-03 0. -1.
    9900012    2    1    2    0    0 -0.27506357596E+02 -0.69846272692E+01 -0.32836534718E+02  0.47787277211E+02  0.20000028116E+02 0.  0.
        -12    1    1    2    0    0  0.27506357596E+02  0.69846272692E+01  0.32836534718E+02  0.43400722789E+02  0.00000000000E+00 0.  1.
         11    1    3    3    0    0  0.11693686902E+01  0.34218768779E+01 -0.18174832236E+01  0.40472101539E+01  0.51100000000E-03 0. -1.
        -11    1    3    3    0    0 -0.76189555193E+01 -0.69847118073E+00 -0.75734477519E+01  0.10765382311E+02  0.51100000000E-03 0.  1.
         12    1    3    3    0    0 -0.21056770767E+02 -0.97080329664E+01 -0.23445603743E+02  0.32974684746E+02  0.00000000000E+00 0. -1.
</event>
<event>
 7    1  0.4592673E-010  0.4778727E+02  0.7816164E-02  0.1312668E+00
        -11   -1    0    0    0    0  0.00000000000E+00  0.00000000000E+00  0.45593999997E+02  0.45594000000E+02  0.51100000000E-03 0.  1.
         11   -1    0    0    0    0 -0.00000000000E+00 -0.00000000000E+00 -0.45593999997E+02  0.45594000000E+02  0.51100000000E-03 0. -1.
    9900012    2    1    2    0    0  0.13138568948E+02  0.12849986280E+02 -0.39317668185E+02  0.47787272208E+02  0.20000005305E+02 0.  0.
        -12    1    1    2    0    0 -0.13138568948E+02 -0.12849986280E+02  0.39317668185E+02  0.43400727792E+02  0.00000000000E+00 0.  1.
         11    1    3    3    0    0  0.81064492520E+00  0.35759312965E+01 -0.29223085019E+00  0.36782915821E+01  0.51100000000E-03 0. -1.
        -11    1    3    3    0    0  0.35859033074E+01  0.70367829729E+01 -0.61279771189E+01  0.99963553843E+01  0.51100000000E-03 0.  1.
         12    1    3    3    0    0  0.87420207152E+01  0.22372720111E+01 -0.32897460216E+02  0.34112625242E+02  0.00000000000E+00 0. -1.
</event>
<event>
 7    1  0.4592673E-010  0.4778727E+02  0.7816164E-02  0.1312668E+00
        -11   -1    0    0    0    0  0.00000000000E+00  0.00000000000E+00  0.45593999997E+02  0.45594000000E+02  0.51100000000E-03 0.  1.
         11   -1    0    0    0    0 -0.00000000000E+00 -0.00000000000E+00 -0.45593999997E+02  0.45594000000E+02  0.51100000000E-03 0. -1.
    9900012    2    1    2    0    0 -0.12544047380E+02  0.13400287477E+02 -0.39328138914E+02  0.47787270287E+02  0.19999996549E+02 0.  0.
        -12    1    1    2    0    0  0.12544047380E+02 -0.13400287477E+02  0.39328138914E+02  0.43400729713E+02  0.00000000000E+00 0.  1.
         11    1    3    3    0    0 -0.85070353659E+01  0.61167478797E+01 -0.17732453606E+02  0.20596702806E+02  0.51100000000E-03 0. -1.
        -11    1    3    3    0    0 -0.53891657319E+01  0.50517207557E+01 -0.23249012828E+01  0.77439109057E+01  0.51100000000E-03 0.  1.
        -12    1    3    3    0    0  0.13521537177E+01  0.22318188420E+01 -0.19270784025E+02  0.19446656576E+02  0.00000000000E+00 0.  1.
</event>
<event>
 7    1  0.4592673E-010  0.4778726E+02  0.7816164E-02  0.1312668E+00
        -11   -1    0    0    0    0  0.00000000000E+00  0.00000000000E+00  0.45593999997E+02  0.45594000000E+02  0.51100000000E-03 0. -1.
         11   -1    0    0    0    0 -0.00000000000E+00 -0.00000000000E+00 -0.45593999997E+02  0.45594000000E+02  0.51100000000E-03 0.  1.
    9900012    2    1    2    0    0 -0.22089363957E+01 -0.15800147582E+02  0.40362110784E+02  0.47787262097E+02  0.19999959205E+02 0.  0.
        -12    1    1    2    0    0  0.22089363957E+01  0.15800147582E+02 -0.40362110784E+02  0.43400737903E+02  0.00000000000E+00 0.  1.
         11    1    3    3    0    0  0.38304526941E+01 -0.21375396784E+01  0.53131486407E+01  0.68899196264E+01  0.51100000000E-03 0. -1.
        -11    1    3    3    0    0 -0.17439997800E+01 -0.39128989837E+01  0.19986094516E-01  0.42840066987E+01  0.51100000000E-03 0.  1.
         12    1    3    3    0    0 -0.42953893097E+01 -0.97497089200E+01  0.35028976048E+02  0.36613335772E+02  0.00000000000E+00 0. -1.
</event>
<event>
 7    1  0.4592673E-010  0.4778728E+02  0.7816164E-02  0.1312668E+00
        -11   -1    0    0    0    0  0.00000000000E+00  0.00000000000E+00  0.45593999997E+02  0.45594000000E+02  0.51100000000E-03 0.  1.
         11   -1    0    0    0    0 -0.00000000000E+00 -0.00000000000E+00 -0.45593999997E+02  0.45594000000E+02  0.51100000000E-03 0. -1.
    9900012    2    1    2    0    0 -0.32689743868E+02 -0.17695978304E+02 -0.22402135410E+02  0.47787277964E+02  0.20000031551E+02 0.  0.
        -12    1    1    2    0    0  0.32689743868E+02  0.17695978304E+02  0.22402135410E+02  0.43400722036E+02  0.00000000000E+00 0.  1.
         11    1    3    3    0    0 -0.21036482276E+02 -0.72691347521E+01 -0.10649032639E+02  0.24673382480E+02  0.51100000000E-03 0. -1.
        -11    1    3    3    0    0 -0.86914826523E+01 -0.20025337808E+01 -0.76083782848E+00  0.89515857087E+01  0.51100000000E-03 0.  1.
         12    1    3    3    0    0 -0.29617789390E+01 -0.84243097714E+01 -0.10992264943E+02  0.14162309776E+02  0.00000000000E+00 0. -1.
</event>
<event>
 7    1  0.4592673E-010  0.4778727E+02  0.7816164E-02  0.1312668E+00
        -11   -1    0    0    0    0  0.00000000000E+00  0.00000000000E+00  0.45593999997E+02  0.45594000000E+02  0.51100000000E-03 0. -1.
         11   -1    0    0    0    0 -0.00000000000E+00 -0.00000000000E+00 -0.45593999997E+02  0.45594000000E+02  0.51100000000E-03 0.  1.
    9900012    2    1    2    0    0  0.31980821047E+01 -0.23546200125E+02  0.36317654925E+02  0.47787270413E+02  0.19999997121E+02 0.  0.
        -12    1    1    2    0    0 -0.31980821047E+01  0.23546200125E+02 -0.36317654925E+02  0.43400729587E+02  0.00000000000E+00 0.  1.
         11    1    3    3    0    0 -0.72760195144E+00 -0.74738483442E+00 -0.58536037874E+00  0.11960918546E+01  0.51100000000E-03 0. -1.
        -11    1    3    3    0    0 -0.51566657915E+01 -0.46200836348E+01  0.42280743057E+01  0.81125204143E+01  0.51100000000E-03 0.  1.
         12    1    3    3    0    0  0.90823498477E+01 -0.18178731656E+02  0.32674940998E+02  0.38478658144E+02  0.00000000000E+00 0. -1.
</event>
<event>
 7    1  0.4592673E-010  0.4778727E+02  0.7816164E-02  0.1312668E+00
        -11   -1    0    0    0    0  0.00000000000E+00  0.00000000000E+00  0.45593999997E+02  0.45594000000E+02  0.51100000000E-03 0.  1.
         11   -1    0    0    0    0 -0.00000000000E+00 -0.00000000000E+00 -0.45593999997E+02  0.45594000000E+02  0.51100000000E-03 0. -1.
    9900012    2    1    2    0    0  0.42464464783E+02 -0.47572667754E+01  0.76000486775E+01  0.47787273090E+02  0.20000009324E+02 0.  0.
        -12    1    1    2    0    0 -0.42464464783E+02  0.47572667754E+01 -0.76000486775E+01  0.43400726910E+02  0.00000000000E+00 0.  1.
         11    1    3    3    0    0  0.16082621217E+00 -0.19938355076E+01  0.11291270629E+01  0.22969922262E+01  0.51100000000E-03 0. -1.
        -11    1    3    3    0    0  0.99762672274E+01 -0.60729623908E+01  0.56728519140E+01  0.12984145297E+02  0.51100000000E-03 0.  1.
         12    1    3    3    0    0  0.32327371343E+02  0.33095311230E+01  0.79806970064E+00  0.32506135566E+02  0.00000000000E+00 0. -1.
</event>
<event>
 7    1  0.4592673E-010  0.4778727E+02  0.7816164E-02  0.1312668E+00
        -11   -1    0    0    0    0  0.00000000000E+00  0.00000000000E+00  0.45593999997E+02  0.45594000000E+02  0.51100000000E-03 0. -1.
         11   -1    0    0    0    0 -0.00000000000E+00 -0.00000000000E+00 -0.45593999997E+02  0.45594000000E+02  0.51100000000E-03 0.  1.
    9900012    2    1    2    0    0 -0.67464260407E+00 -0.41799269651E+02 -0.11661427836E+02  0.47787274370E+02  0.20000015163E+02 0.  0.
        -12    1    1    2    0    0  0.67464260407E+00  0.41799269651E+02  0.11661427836E+02  0.43400725630E+02  0.00000000000E+00 0.  1.
         11    1    3    3    0    0  0.39610633092E+00 -0.14042663445E+02 -0.10405969586E+02  0.17482491245E+02  0.51100000000E-03 0. -1.
        -11    1    3    3    0    0 -0.27312602295E+01 -0.28952936477E+01 -0.34825721448E+01  0.52887443456E+01  0.51100000000E-03 0.  1.
         12    1    3    3    0    0  0.16605112945E+01 -0.24861312559E+02  0.22271138950E+01  0.25016038779E+02  0.00000000000E+00 0. -1.
</event>
<event>
 7    1  0.4592673E-010  0.4778727E+02  0.7816164E-02  0.1312668E+00
        -11   -1    0    0    0    0  0.00000000000E+00  0.00000000000E+00  0.45593999997E+02  0.45594000000E+02  0.51100000000E-03 0.  1.
         11   -1    0    0    0    0 -0.00000000000E+00 -0.00000000000E+00 -0.45593999997E+02  0.45594000000E+02  0.51100000000E-03 0. -1.
    9900012    2    1    2    0    0 -0.28044982455E+02  0.15052807416E+01 -0.33088310149E+02  0.47787272131E+02  0.20000004955E+02 0.  0.
        -12    1    1    2    0    0  0.28044982455E+02 -0.15052807416E+01  0.33088310149E+02  0.43400727869E+02  0.00000000000E+00 0.  1.
         11    1    3    3    0    0 -0.81022119215E+01  0.40192255853E+01 -0.87494537931E+01  0.12583837025E+02  0.51100000000E-03 0. -1.
        -11    1    3    3    0    0 -0.20731508830E+02  0.22934206522E+00 -0.15418559738E+02  0.25837570335E+02  0.51100000000E-03 0.  1.
        -12    1    3    3    0    0  0.78873829647E+00 -0.27432869090E+01 -0.89202966184E+01  0.93658647719E+01  0.00000000000E+00 0.  1.
</event>
<event>
 7    1  0.4592673E-010  0.4778726E+02  0.7816164E-02  0.1312668E+00
        -11   -1    0    0    0    0  0.00000000000E+00  0.00000000000E+00  0.45593999997E+02  0.45594000000E+02  0.51100000000E-03 0. -1.
         11   -1    0    0    0    0 -0.00000000000E+00 -0.00000000000E+00 -0.45593999997E+02  0.45594000000E+02  0.51100000000E-03 0.  1.
    9900012    2    1    2    0    0  0.30516219161E+02  0.10431160055E+02  0.29044370627E+02  0.47787260409E+02  0.19999951508E+02 0.  0.
        -12    1    1    2    0    0 -0.30516219161E+02 -0.10431160055E+02 -0.29044370627E+02  0.43400739591E+02  0.00000000000E+00 0.  1.
         11    1    3    3    0    0  0.12481843103E+02  0.31970487635E+01  0.12444682809E+02  0.17913337448E+02  0.51100000000E-03 0. -1.
        -11    1    3    3    0    0  0.16462885894E+02  0.77148453479E+01  0.19424676956E+02  0.26605704761E+02  0.51100000000E-03 0.  1.
        -12    1    3    3    0    0  0.15714901641E+01 -0.48073405658E+00 -0.28249891388E+01  0.32682182001E+01  0.00000000000E+00 0.  1.
</event>
<event>
 7    1  0.4592673E-010  0.4778728E+02  0.7816164E-02  0.1312668E+00
        -11   -1    0    0    0    0  0.00000000000E+00  0.00000000000E+00  0.45593999997E+02  0.45594000000E+02  0.51100000000E-03 0.  1.
         11   -1    0    0    0    0 -0.00000000000E+00 -0.00000000000E+00 -0.45593999997E+02  0.45594000000E+02  0.51100000000E-03 0. -1.
    9900012    2    1    2    0    0 -0.33126408701E+02 -0.78304725740E+01 -0.26924851570E+02  0.47787275510E+02  0.20000020361E+02 0.  0.
        -12    1    1    2    0    0  0.33126408701E+02  0.78304725740E+01  0.26924851570E+02  0.43400724490E+02  0.00000000000E+00 0.  1.
         11    1    3    3    0    0 -0.76818608043E+01 -0.38589003822E+01 -0.11366959133E+02  0.14251661579E+02  0.51100000000E-03 0. -1.
        -11    1    3    3    0    0 -0.15579375617E+02 -0.93571764196E+01 -0.72826487290E+01  0.19578321377E+02  0.51100000000E-03 0.  1.
        -12    1    3    3    0    0 -0.98651722792E+01  0.53856042278E+01 -0.82752437085E+01  0.13957292554E+02  0.00000000000E+00 0.  1.
</event>
<event>
 7    1  0.4592673E-010  0.4778727E+02  0.7816164E-02  0.1312668E+00
        -11   -1    0    0    0    0  0.00000000000E+00  0.00000000000E+00  0.45593999997E+02  0.45594000000E+02  0.51100000000E-03 0.  1.
         11   -1    0    0    0    0 -0.00000000000E+00 -0.00000000000E+00 -0.45593999997E+02  0.45594000000E+02  0.51100000000E-03 0. -1.
    9900012    2    1    2    0    0 -0.31201094609E+02  0.26470772203E+02 -0.14471112699E+02  0.47787272027E+02  0.20000004482E+02 0.  0.
        -12    1    1    2    0    0  0.31201094609E+02 -0.26470772203E+02  0.14471112699E+02  0.43400727973E+02  0.00000000000E+00 0.  1.
         11    1    3    3    0    0 -0.51158178622E+00  0.21139064892E+00 -0.48754737355E+01  0.49067959339E+01  0.51100000000E-03 0. -1.
        -11    1    3    3    0    0 -0.21193660732E+01  0.42342024120E+01 -0.43441054488E+01  0.64258411924E+01  0.51100000000E-03 0.  1.
        -12    1    3    3    0    0 -0.28570146749E+02  0.22025179142E+02 -0.52515335145E+01  0.36454634901E+02  0.00000000000E+00 0.  1.
</event>
<event>
 7    1  0.4592673E-010  0.4778727E+02  0.7816164E-02  0.1312668E+00
        -11   -1    0    0    0    0  0.00000000000E+00  0.00000000000E+00  0.45593999997E+02  0.45594000000E+02  0.51100000000E-03 0. -1.
         11   -1    0    0    0    0 -0.00000000000E+00 -0.00000000000E+00 -0.45593999997E+02  0.45594000000E+02  0.51100000000E-03 0.  1.
    9900012    2    1    2    0    0  0.64816374699E+00 -0.42517302257E+02  0.86880389215E+01  0.47787272728E+02  0.20000007676E+02 0.  0.
        -12    1    1    2    0    0 -0.64816374699E+00  0.42517302257E+02 -0.86880389215E+01  0.43400727272E+02  0.00000000000E+00 0.  1.
         11    1    3    3    0    0 -0.38396934590E+01 -0.60840637854E+01 -0.20053640785E-01  0.71944061890E+01  0.51100000000E-03 0. -1.
        -11    1    3    3    0    0 -0.13416993107E+01 -0.48629077607E+01 -0.36137387311E+01  0.62054118966E+01  0.51100000000E-03 0.  1.
         12    1    3    3    0    0  0.58295565167E+01 -0.31570330711E+02  0.12321831293E+02  0.34387454642E+02  0.00000000000E+00 0. -1.
</event>
<event>
 7    1  0.4592673E-010  0.4778727E+02  0.7816164E-02  0.1312668E+00
        -11   -1    0    0    0    0  0.00000000000E+00  0.00000000000E+00  0.45593999997E+02  0.45594000000E+02  0.51100000000E-03 0.  1.
         11   -1    0    0    0    0 -0.00000000000E+00 -0.00000000000E+00 -0.45593999997E+02  0.45594000000E+02  0.51100000000E-03 0. -1.
    9900012    2    1    2    0    0 -0.12912778304E+02 -0.16089760623E+02 -0.38183807425E+02  0.47787269708E+02  0.19999993904E+02 0.  0.
        -12    1    1    2    0    0  0.12912778304E+02  0.16089760623E+02  0.38183807425E+02  0.43400730292E+02  0.00000000000E+00 0.  1.
         11    1    3    3    0    0 -0.92123319959E+01 -0.10670944621E+02 -0.15743316667E+02  0.21132632109E+02  0.51100000000E-03 0. -1.
        -11    1    3    3    0    0 -0.71779141287E+01 -0.70029149103E+01 -0.19128792790E+02  0.21598008759E+02  0.51100000000E-03 0.  1.
         12    1    3    3    0    0  0.34774678202E+01  0.15840989084E+01 -0.33116979677E+01  0.50566288395E+01  0.00000000000E+00 0. -1.
</event>
<event>
 7    1  0.4592673E-010  0.4778728E+02  0.7816164E-02  0.1312668E+00
        -11   -1    0    0    0    0  0.00000000000E+00  0.00000000000E+00  0.45593999997E+02  0.45594000000E+02  0.51100000000E-03 0.  1.
         11   -1    0    0    0    0 -0.00000000000E+00 -0.00000000000E+00 -0.45593999997E+02  0.45594000000E+02  0.51100000000E-03 0. -1.
    9900012    2    1    2    0    0  0.21029486555E+02  0.23230526896E+02 -0.30028747459E+02  0.47787281589E+02  0.20000048077E+02 0.  0.
        -12    1    1    2    0    0 -0.21029486555E+02 -0.23230526896E+02  0.30028747459E+02  0.43400718411E+02  0.00000000000E+00 0.  1.
         11    1    3    3    0    0  0.13195747918E+02  0.15647861107E+02 -0.26750697694E+02  0.33683573856E+02  0.51100000000E-03 0. -1.
        -11    1    3    3    0    0  0.33819308533E+01  0.66919425005E-01 -0.41168372055E+01  0.53282533108E+01  0.51100000000E-03 0.  1.
        -12    1    3    3    0    0  0.44518077835E+01  0.75157463639E+01  0.83878744039E+00  0.87754544223E+01  0.00000000000E+00 0.  1.
</event>
<event>
 7    1  0.4592673E-010  0.4778724E+02  0.7816164E-02  0.1312668E+00
        -11   -1    0    0    0    0  0.00000000000E+00  0.00000000000E+00  0.45593999997E+02  0.45594000000E+02  0.51100000000E-03 0.  1.
         11   -1    0    0    0    0 -0.00000000000E+00 -0.00000000000E+00 -0.45593999997E+02  0.45594000000E+02  0.51100000000E-03 0. -1.
    9900012    2    1    2    0    0 -0.24086552620E+02 -0.24649997063E+02 -0.26378802060E+02  0.47787244587E+02  0.19999879369E+02 0.  0.
        -12    1    1    2    0    0  0.24086552620E+02  0.24649997063E+02  0.26378802060E+02  0.43400755413E+02  0.00000000000E+00 0.  1.
         11    1    3    3    0    0 -0.16474020575E+02 -0.17668795675E+02 -0.87094253262E+01  0.25679442834E+02  0.51100000000E-03 0. -1.
        -11    1    3    3    0    0 -0.43978573776E+01 -0.37022359285E+01 -0.25182066163E+01  0.62760708415E+01  0.51100000000E-03 0.  1.
        -12    1    3    3    0    0 -0.32146746672E+01 -0.32789654590E+01 -0.15151170118E+02  0.15831730911E+02  0.00000000000E+00 0.  1.
</event>
<event>
 7    1  0.4592673E-010  0.4778727E+02  0.7816164E-02  0.1312668E+00
        -11   -1    0    0    0    0  0.00000000000E+00  0.00000000000E+00  0.45593999997E+02  0.45594000000E+02  0.51100000000E-03 0.  1.
         11   -1    0    0    0    0 -0.00000000000E+00 -0.00000000000E+00 -0.45593999997E+02  0.45594000000E+02  0.51100000000E-03 0. -1.
    9900012    2    1    2    0    0  0.28473775068E+02  0.14556627799E+02 -0.29342324399E+02  0.47787270967E+02  0.19999999646E+02 0.  0.
        -12    1    1    2    0    0 -0.28473775068E+02 -0.14556627799E+02  0.29342324399E+02  0.43400729033E+02  0.00000000000E+00 0.  1.
         11    1    3    3    0    0  0.47873815305E+01  0.16633507587E+01  0.47557250491E+00  0.50903759324E+01  0.51100000000E-03 0. -1.
        -11    1    3    3    0    0 -0.17903853562E+01  0.23171491339E+01 -0.35980156736E+01  0.46390060229E+01  0.51100000000E-03 0.  1.
         12    1    3    3    0    0  0.25476778893E+02  0.10576127907E+02 -0.26219881230E+02  0.38057889011E+02  0.00000000000E+00 0. -1.
</event>
<event>
 7    1  0.4592673E-010  0.4778728E+02  0.7816164E-02  0.1312668E+00
        -11   -1    0    0    0    0  0.00000000000E+00  0.00000000000E+00  0.45593999997E+02  0.45594000000E+02  0.51100000000E-03 0.  1.
         11   -1    0    0    0    0 -0.00000000000E+00 -0.00000000000E+00 -0.45593999997E+02  0.45594000000E+02  0.51100000000E-03 0. -1.
    9900012    2    1    2    0    0 -0.11547987853E+02  0.19719907060E+02 -0.36897047894E+02  0.47787275337E+02  0.20000019573E+02 0.  0.
        -12    1    1    2    0    0  0.11547987853E+02 -0.19719907060E+02  0.36897047894E+02  0.43400724663E+02  0.00000000000E+00 0.  1.
         11    1    3    3    0    0 -0.87633929410E+01  0.11775520493E+02 -0.22195495379E+02  0.26610147578E+02  0.51100000000E-03 0. -1.
        -11    1    3    3    0    0 -0.62427424032E+01  0.57721401973E+01 -0.33939705133E+01  0.91546966786E+01  0.51100000000E-03 0.  1.
        -12    1    3    3    0    0  0.34581474913E+01  0.21722463698E+01 -0.11307582002E+02  0.12022431081E+02  0.00000000000E+00 0.  1.
</event>
<event>
 7    1  0.4592673E-010  0.4778727E+02  0.7816164E-02  0.1312668E+00
        -11   -1    0    0    0    0  0.00000000000E+00  0.00000000000E+00  0.45593999997E+02  0.45594000000E+02  0.51100000000E-03 0. -1.
         11   -1    0    0    0    0 -0.00000000000E+00 -0.00000000000E+00 -0.45593999997E+02  0.45594000000E+02  0.51100000000E-03 0.  1.
    9900012    2    1    2    0    0  0.21488036004E+02 -0.12194224913E+02  0.35681766372E+02  0.47787271159E+02  0.20000000520E+02 0.  0.
        -12    1    1    2    0    0 -0.21488036004E+02  0.12194224913E+02 -0.35681766372E+02  0.43400728841E+02  0.00000000000E+00 0.  1.
         11    1    3    3    0    0  0.61641718020E+01 -0.12407100585E+02  0.15287702103E+02  0.20631214089E+02  0.51100000000E-03 0. -1.
        -11    1    3    3    0    0 -0.32401296752E+00 -0.85722961313E-01  0.56314370506E+01  0.56414019840E+01  0.51100000000E-03 0.  1.
        -12    1    3    3    0    0  0.15647877169E+02  0.29859863315E+00  0.14762627218E+02  0.21514655085E+02  0.00000000000E+00 0.  1.
</event>
<event>
 7    1  0.4592673E-010  0.4778727E+02  0.7816164E-02  0.1312668E+00
        -11   -1    0    0    0    0  0.00000000000E+00  0.00000000000E+00  0.45593999997E+02  0.45594000000E+02  0.51100000000E-03 0. -1.
         11   -1    0    0    0    0 -0.00000000000E+00 -0.00000000000E+00 -0.45593999997E+02  0.45594000000E+02  0.51100000000E-03 0.  1.
    9900012    2    1    2    0    0 -0.38206345248E+02  0.12287672987E+02 -0.16520042840E+02  0.47787267977E+02  0.19999986016E+02 0.  0.
        -12    1    1    2    0    0  0.38206345248E+02 -0.12287672987E+02  0.16520042840E+02  0.43400732023E+02  0.00000000000E+00 0.  1.
         11    1    3    3    0    0 -0.40337653991E+01 -0.85039517354E+00  0.16913212210E+01  0.44558953062E+01  0.51100000000E-03 0. -1.
        -11    1    3    3    0    0 -0.10860650325E+01 -0.20301879823E+01 -0.32402026034E+01  0.39749356813E+01  0.51100000000E-03 0.  1.
        -12    1    3    3    0    0 -0.33086514817E+02  0.15168256143E+02 -0.14971161458E+02  0.39356436990E+02  0.00000000000E+00 0.  1.
</event>
<event>
 7    1  0.4592673E-010  0.4778727E+02  0.7816164E-02  0.1312668E+00
        -11   -1    0    0    0    0  0.00000000000E+00  0.00000000000E+00  0.45593999997E+02  0.45594000000E+02  0.51100000000E-03 0.  1.
         11   -1    0    0    0    0 -0.00000000000E+00 -0.00000000000E+00 -0.45593999997E+02  0.45594000000E+02  0.51100000000E-03 0. -1.
    9900012    2    1    2    0    0  0.39414670639E+02  0.31955173378E+01 -0.17885625260E+02  0.47787272085E+02  0.20000004743E+02 0.  0.
        -12    1    1    2    0    0 -0.39414670639E+02 -0.31955173378E+01  0.17885625260E+02  0.43400727915E+02  0.00000000000E+00 0.  1.
         11    1    3    3    0    0  0.22903019654E+02  0.53358664024E+01 -0.18912813232E+02  0.30178043080E+02  0.51100000000E-03 0. -1.
        -11    1    3    3    0    0  0.51772077581E+01 -0.27698286777E+01 -0.13178049074E+01  0.60176441495E+01  0.51100000000E-03 0.  1.
         12    1    3    3    0    0  0.11334443227E+02  0.62947961315E+00  0.23449928794E+01  0.11591584855E+02  0.00000000000E+00 0. -1.
</event>
<event>
 7    1  0.4592673E-010  0.4778727E+02  0.7816164E-02  0.1312668E+00
        -11   -1    0    0    0    0  0.00000000000E+00  0.00000000000E+00  0.45593999997E+02  0.45594000000E+02  0.51100000000E-03 0.  1.
         11   -1    0    0    0    0 -0.00000000000E+00 -0.00000000000E+00 -0.45593999997E+02  0.45594000000E+02  0.51100000000E-03 0. -1.
    9900012    2    1    2    0    0 -0.15872275007E+02 -0.28352334082E+02 -0.28772199829E+02  0.47787269075E+02  0.19999991021E+02 0.  0.
        -12    1    1    2    0    0  0.15872275007E+02  0.28352334082E+02  0.28772199829E+02  0.43400730925E+02  0.00000000000E+00 0.  1.
         11    1    3    3    0    0 -0.86122872059E+01 -0.25868754460E+02 -0.20162780188E+02  0.33910199843E+02  0.51100000000E-03 0. -1.
        -11    1    3    3    0    0  0.26647866324E-01 -0.34476901268E+01 -0.35840592919E+01  0.49732040566E+01  0.51100000000E-03 0.  1.
        -12    1    3    3    0    0 -0.72866356677E+01  0.96411050471E+00 -0.50253603493E+01  0.89038651752E+01  0.00000000000E+00 0.  1.
</event>
<event>
 7    1  0.4592673E-010  0.4778727E+02  0.7816164E-02  0.1312668E+00
        -11   -1    0    0    0    0  0.00000000000E+00  0.00000000000E+00  0.45593999997E+02  0.45594000000E+02  0.51100000000E-03 0. -1.
         11   -1    0    0    0    0 -0.00000000000E+00 -0.00000000000E+00 -0.45593999997E+02  0.45594000000E+02  0.51100000000E-03 0.  1.
    9900012    2    1    2    0    0 -0.59201944727E+01 -0.42203665429E+02  0.82112966958E+01  0.47787268766E+02  0.19999989611E+02 0.  0.
        -12    1    1    2    0    0  0.59201944727E+01  0.42203665429E+02 -0.82112966958E+01  0.43400731234E+02  0.00000000000E+00 0.  1.
         11    1    3    3    0    0  0.22551081126E+01 -0.34826725426E+01  0.28839452896E+01  0.50528864358E+01  0.51100000000E-03 0. -1.
        -11    1    3    3    0    0 -0.50517813067E+01 -0.37333602512E+01 -0.24748365209E+01  0.67515397652E+01  0.51100000000E-03 0.  1.
        -12    1    3    3    0    0 -0.31235212787E+01 -0.34987632635E+02  0.78021879270E+01  0.35982842565E+02  0.00000000000E+00 0.  1.
</event>
<event>
 7    1  0.4592673E-010  0.4778727E+02  0.7816164E-02  0.1312668E+00
        -11   -1    0    0    0    0  0.00000000000E+00  0.00000000000E+00  0.45593999997E+02  0.45594000000E+02  0.51100000000E-03 0.  1.
         11   -1    0    0    0    0 -0.00000000000E+00 -0.00000000000E+00 -0.45593999997E+02  0.45594000000E+02  0.51100000000E-03 0. -1.
    9900012    2    1    2    0    0 -0.19287132367E+02 -0.95581136328E+01 -0.37686496943E+02  0.47787273474E+02  0.20000011077E+02 0.  0.
        -12    1    1    2    0    0  0.19287132367E+02  0.95581136328E+01  0.37686496943E+02  0.43400726526E+02  0.00000000000E+00 0.  1.
         11    1    3    3    0    0 -0.28279301271E+01  0.76276048545E+00 -0.89576695888E+01  0.94243746257E+01  0.51100000000E-03 0. -1.
        -11    1    3    3    0    0 -0.10709967109E+01 -0.51772029244E-01 -0.15697327051E+02  0.15733905780E+02  0.51100000000E-03 0.  1.
        -12    1    3    3    0    0 -0.15388205529E+02 -0.10269102089E+02 -0.13031500303E+02  0.22628993068E+02  0.00000000000E+00 0.  1.
</event>
<event>
 7    1  0.4592673E-010  0.4778726E+02  0.7816164E-02  0.1312668E+00
        -11   -1    0    0    0    0  0.00000000000E+00  0.00000000000E+00  0.45593999997E+02  0.45594000000E+02  0.51100000000E-03 0.  1.
         11   -1    0    0    0    0 -0.00000000000E+00 -0.00000000000E+00 -0.45593999997E+02  0.45594000000E+02  0.51100000000E-03 0. -1.
    9900012    2    1    2    0    0  0.94518224414E+01 -0.18947489105E+02 -0.37885088170E+02  0.47787260415E+02  0.19999951538E+02 0.  0.
        -12    1    1    2    0    0 -0.94518224414E+01  0.18947489105E+02  0.37885088170E+02  0.43400739585E+02  0.00000000000E+00 0.  1.
         11    1    3    3    0    0 -0.29895154576E+01 -0.37974289039E+01 -0.19915790429E+01  0.52272417484E+01  0.51100000000E-03 0. -1.
        -11    1    3    3    0    0  0.51297481281E+01 -0.46604994073E+01 -0.35630189679E+01  0.77929246762E+01  0.51100000000E-03 0.  1.
         12    1    3    3    0    0  0.73115897709E+01 -0.10489560794E+02 -0.32330490159E+02  0.34767093991E+02  0.00000000000E+00 0. -1.
</event>
<event>
 7    1  0.4592673E-010  0.4778727E+02  0.7816164E-02  0.1312668E+00
        -11   -1    0    0    0    0  0.00000000000E+00  0.00000000000E+00  0.45593999997E+02  0.45594000000E+02  0.51100000000E-03 0. -1.
         11   -1    0    0    0    0 -0.00000000000E+00 -0.00000000000E+00 -0.45593999997E+02  0.45594000000E+02  0.51100000000E-03 0.  1.
    9900012    2    1    2    0    0  0.66525338078E+01 -0.35416432207E+02  0.24187667278E+02  0.47787272763E+02  0.20000007836E+02 0.  0.
        -12    1    1    2    0    0 -0.66525338078E+01  0.35416432207E+02 -0.24187667278E+02  0.43400727237E+02  0.00000000000E+00 0.  1.
         11    1    3    3    0    0  0.36918844318E+01 -0.15071293295E+02  0.13781112413E+02  0.20753143180E+02  0.51100000000E-03 0. -1.
        -11    1    3    3    0    0 -0.18289332605E+01 -0.20067363504E+02  0.82466896012E+01  0.21772734429E+02  0.51100000000E-03 0.  1.
         12    1    3    3    0    0  0.47895826365E+01 -0.27777540770E+00  0.21598652640E+01  0.52613951541E+01  0.00000000000E+00 0. -1.
</event>
<event>
 7    1  0.4592673E-010  0.4778727E+02  0.7816164E-02  0.1312668E+00
        -11   -1    0    0    0    0  0.00000000000E+00  0.00000000000E+00  0.45593999997E+02  0.45594000000E+02  0.51100000000E-03 0. -1.
         11   -1    0    0    0    0 -0.00000000000E+00 -0.00000000000E+00 -0.45593999997E+02  0.45594000000E+02  0.51100000000E-03 0.  1.
    9900012    2    1    2    0    0 -0.16138091785E+02  0.31464438947E+02  0.25162961668E+02  0.47787267695E+02  0.19999984727E+02 0.  0.
        -12    1    1    2    0    0  0.16138091785E+02 -0.31464438947E+02 -0.25162961668E+02  0.43400732305E+02  0.00000000000E+00 0.  1.
         11    1    3    3    0    0 -0.44194919554E+01  0.12381909986E+02  0.80668355623E+01  0.15424572613E+02  0.51100000000E-03 0. -1.
        -11    1    3    3    0    0  0.13526227183E+01  0.12831592114E+02  0.67732436857E+01  0.14572445735E+02  0.51100000000E-03 0.  1.
         12    1    3    3    0    0 -0.13071222548E+02  0.62509368472E+01  0.10322882420E+02  0.17790249347E+02  0.00000000000E+00 0. -1.
</event>
<event>
 7    1  0.4592673E-010  0.4778727E+02  0.7816164E-02  0.1312668E+00
        -11   -1    0    0    0    0  0.00000000000E+00  0.00000000000E+00  0.45593999997E+02  0.45594000000E+02  0.51100000000E-03 0. -1.
         11   -1    0    0    0    0 -0.00000000000E+00 -0.00000000000E+00 -0.45593999997E+02  0.45594000000E+02  0.51100000000E-03 0.  1.
    9900012    2    1    2    0    0  0.96797000948E+01  0.30702504919E+02  0.29108126878E+02  0.47787268986E+02  0.19999990615E+02 0.  0.
        -12    1    1    2    0    0 -0.96797000948E+01 -0.30702504919E+02 -0.29108126878E+02  0.43400731014E+02  0.00000000000E+00 0.  1.
         11    1    3    3    0    0  0.66935726972E+01  0.46652681885E+01  0.10865017998E+02  0.13587393388E+02  0.51100000000E-03 0. -1.
        -11    1    3    3    0    0  0.31603459497E+00 -0.58655657987E+00 -0.10280927656E+01  0.12251128448E+01  0.51100000000E-03 0.  1.
        -12    1    3    3    0    0  0.26700928027E+01  0.26623793310E+02  0.19271201646E+02  0.32974762754E+02  0.00000000000E+00 0.  1.
</event>
<event>
 7    1  0.4592673E-010  0.4778727E+02  0.7816164E-02  0.1312668E+00
        -11   -1    0    0    0    0  0.00000000000E+00  0.00000000000E+00  0.45593999997E+02  0.45594000000E+02  0.51100000000E-03 0.  1.
         11   -1    0    0    0    0 -0.00000000000E+00 -0.00000000000E+00 -0.45593999997E+02  0.45594000000E+02  0.51100000000E-03 0. -1.
    9900012    2    1    2    0    0  0.16639304446E+02 -0.28863561510E+02 -0.27814597735E+02  0.47787268639E+02  0.19999989035E+02 0.  0.
        -12    1    1    2    0    0 -0.16639304446E+02  0.28863561510E+02  0.27814597735E+02  0.43400731361E+02  0.00000000000E+00 0.  1.
         11    1    3    3    0    0  0.18316154316E+01 -0.14143651292E+00 -0.19786782756E+01  0.26999976584E+01  0.51100000000E-03 0. -1.
        -11    1    3    3    0    0  0.14381365664E+01  0.11746298348E+00  0.22475777482E+01  0.26708875550E+01  0.51100000000E-03 0.  1.
        -12    1    3    3    0    0  0.13369552448E+02 -0.28839587981E+02 -0.28083497207E+02  0.42416383426E+02  0.00000000000E+00 0.  1.
</event>
<event>
 7    1  0.4592673E-010  0.4778727E+02  0.7816164E-02  0.1312668E+00
        -11   -1    0    0    0    0  0.00000000000E+00  0.00000000000E+00  0.45593999997E+02  0.45594000000E+02  0.51100000000E-03 0.  1.
         11   -1    0    0    0    0 -0.00000000000E+00 -0.00000000000E+00 -0.45593999997E+02  0.45594000000E+02  0.51100000000E-03 0. -1.
    9900012    2    1    2    0    0  0.17338377769E+02  0.24618235483E+02 -0.31256141902E+02  0.47787271106E+02  0.20000000281E+02 0.  0.
        -12    1    1    2    0    0 -0.17338377769E+02 -0.24618235483E+02  0.31256141902E+02  0.43400728894E+02  0.00000000000E+00 0.  1.
         11    1    3    3    0    0  0.64198132869E+01  0.82562368490E+01 -0.16921331427E+02  0.19892483683E+02  0.51100000000E-03 0. -1.
        -11    1    3    3    0    0  0.34529939090E+01 -0.19983173000E+01 -0.34962713919E+01  0.53047481442E+01  0.51100000000E-03 0.  1.
        -12    1    3    3    0    0  0.74655705727E+01  0.18360315934E+02 -0.10838539083E+02  0.22590039279E+02  0.00000000000E+00 0.  1.
</event>
<event>
 7    1  0.4592673E-010  0.4778727E+02  0.7816164E-02  0.1312668E+00
        -11   -1    0    0    0    0  0.00000000000E+00  0.00000000000E+00  0.45593999997E+02  0.45594000000E+02  0.51100000000E-03 0.  1.
         11   -1    0    0    0    0 -0.00000000000E+00 -0.00000000000E+00 -0.45593999997E+02  0.45594000000E+02  0.51100000000E-03 0. -1.
    9900012    2    1    2    0    0 -0.24922523839E+02  0.34044880880E+02 -0.10170402218E+02  0.47787272011E+02  0.20000004407E+02 0.  0.
        -12    1    1    2    0    0  0.24922523839E+02 -0.34044880880E+02  0.10170402218E+02  0.43400727989E+02  0.00000000000E+00 0.  1.
         11    1    3    3    0    0  0.64037117483E+00  0.32588957500E+01 -0.52264476634E+01  0.61924334627E+01  0.51100000000E-03 0. -1.
        -11    1    3    3    0    0 -0.10643593928E+02  0.12171635252E+02  0.30132821928E+01  0.16447330064E+02  0.51100000000E-03 0.  1.
         12    1    3    3    0    0 -0.14919301086E+02  0.18614349879E+02 -0.79572367479E+01  0.25147508484E+02  0.00000000000E+00 0. -1.
</event>
<event>
 7    1  0.4592673E-010  0.4778727E+02  0.7816164E-02  0.1312668E+00
        -11   -1    0    0    0    0  0.00000000000E+00  0.00000000000E+00  0.45593999997E+02  0.45594000000E+02  0.51100000000E-03 0. -1.
         11   -1    0    0    0    0 -0.00000000000E+00 -0.00000000000E+00 -0.45593999997E+02  0.45594000000E+02  0.51100000000E-03 0.  1.
    9900012    2    1    2    0    0  0.78267787944E+01  0.41529521099E+02  0.98824974041E+01  0.47787270237E+02  0.19999996320E+02 0.  0.
        -12    1    1    2    0    0 -0.78267787944E+01 -0.41529521099E+02 -0.98824974041E+01  0.43400729763E+02  0.00000000000E+00 0.  1.
         11    1    3    3    0    0  0.14992022371E+00  0.15278550939E+02  0.10852466142E+02  0.18741201042E+02  0.51100000000E-03 0. -1.
        -11    1    3    3    0    0  0.56212109014E+01  0.16873938673E+02  0.40092086453E+01  0.18231883407E+02  0.51100000000E-03 0.  1.
        -12    1    3    3    0    0  0.20556476693E+01  0.93770314871E+01 -0.49791773836E+01  0.10814185788E+02  0.00000000000E+00 0.  1.
</event>
<event>
 7    1  0.4592673E-010  0.4778727E+02  0.7816164E-02  0.1312668E+00
        -11   -1    0    0    0    0  0.00000000000E+00  0.00000000000E+00  0.45593999997E+02  0.45594000000E+02  0.51100000000E-03 0.  1.
         11   -1    0    0    0    0 -0.00000000000E+00 -0.00000000000E+00 -0.45593999997E+02  0.45594000000E+02  0.51100000000E-03 0. -1.
    9900012    2    1    2    0    0  0.37600842947E+02 -0.17504396123E+02 -0.12782637618E+02  0.47787273065E+02  0.20000009215E+02 0.  0.
        -12    1    1    2    0    0 -0.37600842947E+02  0.17504396123E+02  0.12782637618E+02  0.43400726935E+02  0.00000000000E+00 0.  1.
         11    1    3    3    0    0  0.31031597327E+02 -0.17340322034E+02 -0.56946872289E+01  0.36001059204E+02  0.51100000000E-03 0. -1.
        -11    1    3    3    0    0  0.24050055910E+01 -0.26635293194E+01 -0.53294586487E+00  0.36280121119E+01  0.51100000000E-03 0.  1.
        -12    1    3    3    0    0  0.41642400294E+01  0.24994552309E+01 -0.65550045241E+01  0.81582017495E+01  0.00000000000E+00 0.  1.
</event>
<event>
 7    1  0.4592673E-010  0.4778727E+02  0.7816164E-02  0.1312668E+00
        -11   -1    0    0    0    0  0.00000000000E+00  0.00000000000E+00  0.45593999997E+02  0.45594000000E+02  0.51100000000E-03 0.  1.
         11   -1    0    0    0    0 -0.00000000000E+00 -0.00000000000E+00 -0.45593999997E+02  0.45594000000E+02  0.51100000000E-03 0. -1.
    9900012    2    1    2    0    0 -0.33371197028E+02  0.15524161268E+02 -0.22999722152E+02  0.47787267365E+02  0.19999983225E+02 0.  0.
        -12    1    1    2    0    0  0.33371197028E+02 -0.15524161268E+02  0.22999722152E+02  0.43400732635E+02  0.00000000000E+00 0.  1.
         11    1    3    3    0    0 -0.17179849458E+02  0.39163945259E+01 -0.73136239732E+01  0.19078114933E+02  0.51100000000E-03 0. -1.
        -11    1    3    3    0    0 -0.17338514793E+02  0.70165928900E+01 -0.96742728927E+01  0.21058210448E+02  0.51100000000E-03 0.  1.
        -12    1    3    3    0    0  0.11471672235E+01  0.45911738522E+01 -0.60118252859E+01  0.76509419843E+01  0.00000000000E+00 0.  1.
</event>
<event>
 7    1  0.4592673E-010  0.4778727E+02  0.7816164E-02  0.1312668E+00
        -11   -1    0    0    0    0  0.00000000000E+00  0.00000000000E+00  0.45593999997E+02  0.45594000000E+02  0.51100000000E-03 0.  1.
         11   -1    0    0    0    0 -0.00000000000E+00 -0.00000000000E+00 -0.45593999997E+02  0.45594000000E+02  0.51100000000E-03 0. -1.
    9900012    2    1    2    0    0  0.34129924014E+02  0.19246609143E+02 -0.18663856865E+02  0.47787271552E+02  0.20000002316E+02 0.  0.
        -12    1    1    2    0    0 -0.34129924014E+02 -0.19246609143E+02  0.18663856865E+02  0.43400728448E+02  0.00000000000E+00 0.  1.
         11    1    3    3    0    0  0.23026022089E+02  0.14045828839E+02 -0.15345188204E+02  0.31031561390E+02  0.51100000000E-03 0. -1.
        -11    1    3    3    0    0  0.11445117751E+02  0.63074498092E+01  0.18107987585E+00  0.13069331797E+02  0.51100000000E-03 0.  1.
        -12    1    3    3    0    0 -0.34121582647E+00 -0.11066695053E+01 -0.34997485361E+01  0.36863783650E+01  0.00000000000E+00 0.  1.
</event>
<event>
 7    1  0.4592673E-010  0.4778727E+02  0.7816164E-02  0.1312668E+00
        -11   -1    0    0    0    0  0.00000000000E+00  0.00000000000E+00  0.45593999997E+02  0.45594000000E+02  0.51100000000E-03 0.  1.
         11   -1    0    0    0    0 -0.00000000000E+00 -0.00000000000E+00 -0.45593999997E+02  0.45594000000E+02  0.51100000000E-03 0. -1.
    9900012    2    1    2    0    0 -0.20791810391E+02  0.38081208918E+02 -0.10702369336E+01  0.47787271215E+02  0.20000000777E+02 0.  0.
        -12    1    1    2    0    0  0.20791810391E+02 -0.38081208918E+02  0.10702369336E+01  0.43400728785E+02  0.00000000000E+00 0.  1.
         11    1    3    3    0    0 -0.74996383472E+01  0.74753442585E+01 -0.51887875948E+01  0.11791898239E+02  0.51100000000E-03 0. -1.
        -11    1    3    3    0    0 -0.78302322483E+01  0.44580016847E+01  0.33553781581E+00  0.90165903739E+01  0.51100000000E-03 0.  1.
         12    1    3    3    0    0 -0.54619397953E+01  0.26147862975E+02  0.37830128454E+01  0.26978782602E+02  0.00000000000E+00 0. -1.
</event>
<event>
 7    1  0.4592673E-010  0.4778727E+02  0.7816164E-02  0.1312668E+00
        -11   -1    0    0    0    0  0.00000000000E+00  0.00000000000E+00  0.45593999997E+02  0.45594000000E+02  0.51100000000E-03 0. -1.
         11   -1    0    0    0    0 -0.00000000000E+00 -0.00000000000E+00 -0.45593999997E+02  0.45594000000E+02  0.51100000000E-03 0.  1.
    9900012    2    1    2    0    0  0.91540674595E+01  0.39924790904E+02  0.14347025600E+02  0.47787273931E+02  0.20000013161E+02 0.  0.
        -12    1    1    2    0    0 -0.91540674595E+01 -0.39924790904E+02 -0.14347025600E+02  0.43400726069E+02  0.00000000000E+00 0.  1.
         11    1    3    3    0    0 -0.67847657326E+00 -0.22751521282E+00  0.54453787811E+00  0.89923044563E+00  0.51100000000E-03 0.  1.
        -11    1    3    3    0    0  0.14624769662E+02  0.30654878617E+02  0.85518967921E+01  0.35024854171E+02  0.51100000000E-03 0. -1.
         12    1    3    3    0    0 -0.47922256296E+01  0.94974274996E+01  0.52505909293E+01  0.11863189314E+02  0.00000000000E+00 0. -1.
</event>
<event>
 7    1  0.4592673E-010  0.4778727E+02  0.7816164E-02  0.1312668E+00
        -11   -1    0    0    0    0  0.00000000000E+00  0.00000000000E+00  0.45593999997E+02  0.45594000000E+02  0.51100000000E-03 0.  1.
         11   -1    0    0    0    0 -0.00000000000E+00 -0.00000000000E+00 -0.45593999997E+02  0.45594000000E+02  0.51100000000E-03 0. -1.
    9900012    2    1    2    0    0 -0.91139421192E+01 -0.10984128418E+02 -0.40986682724E+02  0.47787272140E+02  0.20000004994E+02 0.  0.
        -12    1    1    2    0    0  0.91139421192E+01  0.10984128418E+02  0.40986682724E+02  0.43400727860E+02  0.00000000000E+00 0.  1.
         11    1    3    3    0    0 -0.71711097624E+01 -0.62107464789E+00 -0.24600168813E+02  0.25631598757E+02  0.51100000000E-03 0. -1.
        -11    1    3    3    0    0 -0.11912663208E+01 -0.25095872808E+00 -0.10210692393E+02  0.10283011968E+02  0.51100000000E-03 0.  1.
        -12    1    3    3    0    0 -0.75156603603E+00 -0.10112095042E+02 -0.61758215182E+01  0.11872661415E+02  0.00000000000E+00 0.  1.
</event>
<event>
 7    1  0.5465566E-010  0.4778728E+02  0.7816164E-02  0.1312668E+00
        -11   -1    0    0    0    0  0.00000000000E+00  0.00000000000E+00  0.45593999997E+02  0.45594000000E+02  0.51100000000E-03 0.  1.
         11   -1    0    0    0    0 -0.00000000000E+00 -0.00000000000E+00 -0.45593999997E+02  0.45594000000E+02  0.51100000000E-03 0. -1.
    9900012    2    1    2    0    0  0.24312739030E+02  0.35938765282E+02  0.95830242594E+00  0.47787280275E+02  0.20000042084E+02 0.  0.
        -12    1    1    2    0    0 -0.24312739030E+02 -0.35938765282E+02 -0.95830242594E+00  0.43400719725E+02  0.00000000000E+00 0.  1.
         11    1    3    3    0    0  0.10894364921E+02  0.22466034526E+02  0.82796969804E+00  0.24981902017E+02  0.51100000000E-03 0. -1.
        -11    1    3    3    0    0  0.71956539583E+01  0.83646570416E+01  0.62607185298E+01  0.12686272900E+02  0.51100000000E-03 0.  1.
        -12    1    3    3    0    0  0.62227201513E+01  0.51080737150E+01 -0.61303858019E+01  0.10119105358E+02  0.00000000000E+00 0.  1.
</event>
<event>
 7    1  0.4592673E-010  0.4778727E+02  0.7816164E-02  0.1312668E+00
        -11   -1    0    0    0    0  0.00000000000E+00  0.00000000000E+00  0.45593999997E+02  0.45594000000E+02  0.51100000000E-03 0.  1.
         11   -1    0    0    0    0 -0.00000000000E+00 -0.00000000000E+00 -0.45593999997E+02  0.45594000000E+02  0.51100000000E-03 0. -1.
    9900012    2    1    2    0    0  0.26731901920E+00  0.66483224247E+01 -0.42887663382E+02  0.47787270503E+02  0.19999997531E+02 0.  0.
        -12    1    1    2    0    0 -0.26731901920E+00 -0.66483224247E+01  0.42887663382E+02  0.43400729497E+02  0.00000000000E+00 0.  1.
         11    1    3    3    0    0  0.55128579830E+01 -0.11393642339E+01 -0.84006243861E+01  0.10112380745E+02  0.51100000000E-03 0. -1.
        -11    1    3    3    0    0  0.25608594375E+01  0.54952515423E+01 -0.84757010900E+01  0.10420810899E+02  0.51100000000E-03 0.  1.
        -12    1    3    3    0    0 -0.78063984013E+01  0.22924351163E+01 -0.26011337906E+02  0.27254078858E+02  0.00000000000E+00 0.  1.
</event>
<event>
 7    1  0.4592673E-010  0.4778727E+02  0.7816164E-02  0.1312668E+00
        -11   -1    0    0    0    0  0.00000000000E+00  0.00000000000E+00  0.45593999997E+02  0.45594000000E+02  0.51100000000E-03 0.  1.
         11   -1    0    0    0    0 -0.00000000000E+00 -0.00000000000E+00 -0.45593999997E+02  0.45594000000E+02  0.51100000000E-03 0. -1.
    9900012    2    1    2    0    0 -0.17827812819E+02 -0.35090387153E+02 -0.18288167293E+02  0.47787271396E+02  0.20000001601E+02 0.  0.
        -12    1    1    2    0    0  0.17827812819E+02  0.35090387153E+02  0.18288167293E+02  0.43400728604E+02  0.00000000000E+00 0.  1.
         11    1    3    3    0    0 -0.19865955020E+02 -0.24582455868E+02 -0.13730965752E+02  0.34460016340E+02  0.51100000000E-03 0. -1.
        -11    1    3    3    0    0 -0.13413749293E+01 -0.17355363343E+01 -0.31249208204E+01  0.38179187346E+01  0.51100000000E-03 0.  1.
        -12    1    3    3    0    0  0.33795171312E+01 -0.87723949508E+01 -0.14322807202E+01  0.95093363215E+01  0.00000000000E+00 0.  1.
</event>
<event>
 7    1  0.4592673E-010  0.4778727E+02  0.7816164E-02  0.1312668E+00
        -11   -1    0    0    0    0  0.00000000000E+00  0.00000000000E+00  0.45593999997E+02  0.45594000000E+02  0.51100000000E-03 0.  1.
         11   -1    0    0    0    0 -0.00000000000E+00 -0.00000000000E+00 -0.45593999997E+02  0.45594000000E+02  0.51100000000E-03 0. -1.
    9900012    2    1    2    0    0  0.22332626519E+01 -0.16789583221E+02 -0.39959300627E+02  0.47787271050E+02  0.20000000025E+02 0.  0.
        -12    1    1    2    0    0 -0.22332626519E+01  0.16789583221E+02  0.39959300627E+02  0.43400728950E+02  0.00000000000E+00 0.  1.
         11    1    3    3    0    0 -0.15274533464E+00 -0.14635782300E+02 -0.13878058269E+02  0.20170026183E+02  0.51100000000E-03 0. -1.
        -11    1    3    3    0    0  0.76014896037E+00  0.14539451873E+01 -0.47641695389E+00  0.17084368366E+01  0.51100000000E-03 0.  1.
        -12    1    3    3    0    0  0.16258590262E+01 -0.36077461088E+01 -0.25604825404E+02  0.25908808030E+02  0.00000000000E+00 0.  1.
</event>
<event>
 7    1  0.4592673E-010  0.4778727E+02  0.7816164E-02  0.1312668E+00
        -11   -1    0    0    0    0  0.00000000000E+00  0.00000000000E+00  0.45593999997E+02  0.45594000000E+02  0.51100000000E-03 0.  1.
         11   -1    0    0    0    0 -0.00000000000E+00 -0.00000000000E+00 -0.45593999997E+02  0.45594000000E+02  0.51100000000E-03 0. -1.
    9900012    2    1    2    0    0 -0.21014557369E+02  0.66174801876E+01 -0.37392787600E+02  0.47787271550E+02  0.20000002307E+02 0.  0.
        -12    1    1    2    0    0  0.21014557369E+02 -0.66174801876E+01  0.37392787600E+02  0.43400728450E+02  0.00000000000E+00 0.  1.
         11    1    3    3    0    0 -0.42402615073E+01 -0.32323651838E+01 -0.14292084005E+02  0.15254234422E+02  0.51100000000E-03 0. -1.
        -11    1    3    3    0    0 -0.15869829258E+02  0.43264839315E+01 -0.20708282647E+02  0.26446226845E+02  0.51100000000E-03 0.  1.
        -12    1    3    3    0    0 -0.90446660332E+00  0.55233614399E+01 -0.23924209481E+01  0.60868102833E+01  0.00000000000E+00 0.  1.
</event>
<event>
 7    1  0.4592673E-010  0.4778728E+02  0.7816164E-02  0.1312668E+00
        -11   -1    0    0    0    0  0.00000000000E+00  0.00000000000E+00  0.45593999997E+02  0.45594000000E+02  0.51100000000E-03 0.  1.
         11   -1    0    0    0    0 -0.00000000000E+00 -0.00000000000E+00 -0.45593999997E+02  0.45594000000E+02  0.51100000000E-03 0. -1.
    9900012    2    1    2    0    0 -0.32998671902E+02  0.55008316266E+01 -0.27648713986E+02  0.47787275571E+02  0.20000020640E+02 0.  0.
        -12    1    1    2    0    0  0.32998671902E+02 -0.55008316266E+01  0.27648713986E+02  0.43400724429E+02  0.00000000000E+00 0.  1.
         11    1    3    3    0    0 -0.18970779125E+02  0.64523842639E+01 -0.18883822557E+02  0.27534024005E+02  0.51100000000E-03 0. -1.
        -11    1    3    3    0    0 -0.12962273697E+02  0.37006210992E+01 -0.66924961580E+01  0.15050071130E+02  0.51100000000E-03 0.  1.
        -12    1    3    3    0    0 -0.10656190800E+01 -0.46521737364E+01 -0.20723952707E+01  0.52031804366E+01  0.00000000000E+00 0.  1.
</event>
<event>
 7    1  0.4592673E-010  0.4778727E+02  0.7816164E-02  0.1312668E+00
        -11   -1    0    0    0    0  0.00000000000E+00  0.00000000000E+00  0.45593999997E+02  0.45594000000E+02  0.51100000000E-03 0.  1.
         11   -1    0    0    0    0 -0.00000000000E+00 -0.00000000000E+00 -0.45593999997E+02  0.45594000000E+02  0.51100000000E-03 0. -1.
    9900012    2    1    2    0    0  0.13930992169E+02 -0.10376396830E+02 -0.39772871803E+02  0.47787268607E+02  0.19999988887E+02 0.  0.
        -12    1    1    2    0    0 -0.13930992169E+02  0.10376396830E+02  0.39772871803E+02  0.43400731393E+02  0.00000000000E+00 0.  1.
         11    1    3    3    0    0  0.65025724068E+01  0.43263242089E+01 -0.90837154715E+01  0.11979750252E+02  0.51100000000E-03 0.  1.
        -11    1    3    3    0    0  0.34757637989E+01 -0.27481670560E+01 -0.15273883901E+02  0.15903612351E+02  0.51100000000E-03 0. -1.
        -12    1    3    3    0    0  0.39526559630E+01 -0.11954553983E+02 -0.15415272431E+02  0.19903906004E+02  0.00000000000E+00 0.  1.
</event>
<event>
 7    1  0.4592673E-010  0.4778727E+02  0.7816164E-02  0.1312668E+00
        -11   -1    0    0    0    0  0.00000000000E+00  0.00000000000E+00  0.45593999997E+02  0.45594000000E+02  0.51100000000E-03 0.  1.
         11   -1    0    0    0    0 -0.00000000000E+00 -0.00000000000E+00 -0.45593999997E+02  0.45594000000E+02  0.51100000000E-03 0. -1.
    9900012    2    1    2    0    0 -0.12849163087E+02  0.39761417897E+02 -0.11728260799E+02  0.47787269055E+02  0.19999990930E+02 0.  0.
        -12    1    1    2    0    0  0.12849163087E+02 -0.39761417897E+02  0.11728260799E+02  0.43400730945E+02  0.00000000000E+00 0.  1.
         11    1    3    3    0    0 -0.27546362582E+00  0.19937607972E+02 -0.82160176332E+01  0.21565876701E+02  0.51100000000E-03 0. -1.
        -11    1    3    3    0    0  0.30943806949E+00  0.92894076889E+01 -0.20305701815E+01  0.95137827731E+01  0.51100000000E-03 0.  1.
         12    1    3    3    0    0 -0.12883137530E+02  0.10534402236E+02 -0.14816729838E+01  0.16707609581E+02  0.00000000000E+00 0. -1.
</event>
<event>
 7    1  0.4592673E-010  0.4778727E+02  0.7816164E-02  0.1312668E+00
        -11   -1    0    0    0    0  0.00000000000E+00  0.00000000000E+00  0.45593999997E+02  0.45594000000E+02  0.51100000000E-03 0.  1.
         11   -1    0    0    0    0 -0.00000000000E+00 -0.00000000000E+00 -0.45593999997E+02  0.45594000000E+02  0.51100000000E-03 0. -1.
    9900012    2    1    2    0    0  0.18938736624E+02 -0.22220519562E+02 -0.32112240977E+02  0.47787271261E+02  0.20000000986E+02 0.  0.
        -12    1    1    2    0    0 -0.18938736624E+02  0.22220519562E+02  0.32112240977E+02  0.43400728739E+02  0.00000000000E+00 0.  1.
         11    1    3    3    0    0  0.18947821517E+01  0.10300579526E+01 -0.80718070180E+01  0.83549558697E+01  0.51100000000E-03 0. -1.
        -11    1    3    3    0    0  0.10528925997E+02 -0.55237398737E+01 -0.60150089661E+01  0.13324800861E+02  0.51100000000E-03 0.  1.
         12    1    3    3    0    0  0.65150284753E+01 -0.17726837641E+02 -0.18025424993E+02  0.26107514530E+02  0.00000000000E+00 0. -1.
</event>
<event>
 7    1  0.4592673E-010  0.4778727E+02  0.7816164E-02  0.1312668E+00
        -11   -1    0    0    0    0  0.00000000000E+00  0.00000000000E+00  0.45593999997E+02  0.45594000000E+02  0.51100000000E-03 0.  1.
         11   -1    0    0    0    0 -0.00000000000E+00 -0.00000000000E+00 -0.45593999997E+02  0.45594000000E+02  0.51100000000E-03 0. -1.
    9900012    2    1    2    0    0  0.42941173269E+02  0.33864471008E+01 -0.53113904295E+01  0.47787271273E+02  0.20000001043E+02 0.  0.
        -12    1    1    2    0    0 -0.42941173269E+02 -0.33864471008E+01  0.53113904295E+01  0.43400728727E+02  0.00000000000E+00 0.  1.
         11    1    3    3    0    0  0.30027588738E+01  0.27165739261E+01  0.72066235496E+00  0.41128687362E+01  0.51100000000E-03 0. -1.
        -11    1    3    3    0    0  0.37966933926E+02 -0.99008005359E+00 -0.96790850166E+00  0.37992172581E+02  0.51100000000E-03 0.  1.
        -12    1    3    3    0    0  0.19714804695E+01  0.16599532283E+01 -0.50641442828E+01  0.56822299565E+01  0.00000000000E+00 0.  1.
</event>
<event>
 7    1  0.4592673E-010  0.4778727E+02  0.7816164E-02  0.1312668E+00
        -11   -1    0    0    0    0  0.00000000000E+00  0.00000000000E+00  0.45593999997E+02  0.45594000000E+02  0.51100000000E-03 0.  1.
         11   -1    0    0    0    0 -0.00000000000E+00 -0.00000000000E+00 -0.45593999997E+02  0.45594000000E+02  0.51100000000E-03 0. -1.
    9900012    2    1    2    0    0 -0.35443205679E+01 -0.21430419164E+02 -0.37573907377E+02  0.47787267409E+02  0.19999983427E+02 0.  0.
        -12    1    1    2    0    0  0.35443205679E+01  0.21430419164E+02  0.37573907377E+02  0.43400732591E+02  0.00000000000E+00 0.  1.
         11    1    3    3    0    0  0.96318794628E-01  0.40983357369E+00 -0.68384686256E+01  0.68514154941E+01  0.51100000000E-03 0. -1.
        -11    1    3    3    0    0  0.83276841251E+00  0.16746193908E+01 -0.69264396391E+01  0.71744978687E+01  0.51100000000E-03 0.  1.
         12    1    3    3    0    0 -0.44734077750E+01 -0.23514872129E+02 -0.23808999112E+02  0.33761354047E+02  0.00000000000E+00 0. -1.
</event>
<event>
 7    1  0.4592673E-010  0.4778727E+02  0.7816164E-02  0.1312668E+00
        -11   -1    0    0    0    0  0.00000000000E+00  0.00000000000E+00  0.45593999997E+02  0.45594000000E+02  0.51100000000E-03 0.  1.
         11   -1    0    0    0    0 -0.00000000000E+00 -0.00000000000E+00 -0.45593999997E+02  0.45594000000E+02  0.51100000000E-03 0. -1.
    9900012    2    1    2    0    0  0.19388498684E+02  0.38716649931E+02 -0.29547148037E+01  0.47787271865E+02  0.20000003742E+02 0.  0.
        -12    1    1    2    0    0 -0.19388498684E+02 -0.38716649931E+02  0.29547148037E+01  0.43400728135E+02  0.00000000000E+00 0.  1.
         11    1    3    3    0    0  0.50824963925E+00  0.33645639265E+00  0.80884640772E+00  0.10127948323E+01  0.51100000000E-03 0. -1.
        -11    1    3    3    0    0  0.19598107313E+01  0.51055876305E+01  0.60711390229E+01  0.81710839215E+01  0.51100000000E-03 0.  1.
         12    1    3    3    0    0  0.16920438313E+02  0.33274605907E+02 -0.98347002343E+01  0.38603393111E+02  0.00000000000E+00 0. -1.
</event>
<event>
 7    1  0.4635890E-010  0.4778726E+02  0.7816164E-02  0.1312668E+00
        -11   -1    0    0    0    0  0.00000000000E+00  0.00000000000E+00  0.45593999997E+02  0.45594000000E+02  0.51100000000E-03 0.  1.
         11   -1    0    0    0    0 -0.00000000000E+00 -0.00000000000E+00 -0.45593999997E+02  0.45594000000E+02  0.51100000000E-03 0. -1.
    9900012    2    1    2    0    0 -0.16605872576E+02  0.24606224164E+02 -0.31660743421E+02  0.47787263306E+02  0.19999964718E+02 0.  0.
        -12    1    1    2    0    0  0.16605872576E+02 -0.24606224164E+02  0.31660743421E+02  0.43400736694E+02  0.00000000000E+00 0.  1.
         11    1    3    3    0    0 -0.91606886011E+01  0.90099682441E+01 -0.12771616529E+02  0.18116620337E+02  0.51100000000E-03 0. -1.
        -11    1    3    3    0    0 -0.18906346910E+01  0.15118527520E+01 -0.13320845460E+02  0.13539022206E+02  0.51100000000E-03 0.  1.
        -12    1    3    3    0    0 -0.55545492838E+01  0.14084403168E+02 -0.55682814327E+01  0.16131620763E+02  0.00000000000E+00 0.  1.
</event>
<event>
 7    1  0.4592673E-010  0.4778727E+02  0.7816164E-02  0.1312668E+00
        -11   -1    0    0    0    0  0.00000000000E+00  0.00000000000E+00  0.45593999997E+02  0.45594000000E+02  0.51100000000E-03 0. -1.
         11   -1    0    0    0    0 -0.00000000000E+00 -0.00000000000E+00 -0.45593999997E+02  0.45594000000E+02  0.51100000000E-03 0.  1.
    9900012    2    1    2    0    0 -0.37767553964E+02 -0.62047765098E+01  0.20463038070E+02  0.47787270617E+02  0.19999998051E+02 0.  0.
        -12    1    1    2    0    0  0.37767553964E+02  0.62047765098E+01 -0.20463038070E+02  0.43400729383E+02  0.00000000000E+00 0.  1.
         11    1    3    3    0    0 -0.82489576673E+01 -0.24361339834E+01  0.21587395444E+01  0.88679314422E+01  0.51100000000E-03 0. -1.
        -11    1    3    3    0    0 -0.18409500187E+02 -0.26807825408E+01  0.13921602658E+01  0.18655680171E+02  0.51100000000E-03 0.  1.
        -12    1    3    3    0    0 -0.11109096109E+02 -0.10878599856E+01  0.16912138260E+02  0.20263659004E+02  0.00000000000E+00 0.  1.
</event>
<event>
 7    1  0.4592673E-010  0.4778727E+02  0.7816164E-02  0.1312668E+00
        -11   -1    0    0    0    0  0.00000000000E+00  0.00000000000E+00  0.45593999997E+02  0.45594000000E+02  0.51100000000E-03 0. -1.
         11   -1    0    0    0    0 -0.00000000000E+00 -0.00000000000E+00 -0.45593999997E+02  0.45594000000E+02  0.51100000000E-03 0.  1.
    9900012    2    1    2    0    0 -0.30753049432E+02  0.28834773698E+02 -0.10316444314E+02  0.47787271356E+02  0.20000001419E+02 0.  0.
        -12    1    1    2    0    0  0.30753049432E+02 -0.28834773698E+02  0.10316444314E+02  0.43400728644E+02  0.00000000000E+00 0.  1.
         11    1    3    3    0    0 -0.38500794845E+01 -0.11024288381E+01 -0.21176392281E+01  0.45302160590E+01  0.51100000000E-03 0. -1.
        -11    1    3    3    0    0 -0.43948679584E+01  0.31423446050E+01  0.34087497541E+01  0.63881741629E+01  0.51100000000E-03 0.  1.
         12    1    3    3    0    0 -0.22508101989E+02  0.26794857931E+02 -0.11607554840E+02  0.36868881134E+02  0.00000000000E+00 0. -1.
</event>
<event>
 7    1  0.4592673E-010  0.4778726E+02  0.7816164E-02  0.1312668E+00
        -11   -1    0    0    0    0  0.00000000000E+00  0.00000000000E+00  0.45593999997E+02  0.45594000000E+02  0.51100000000E-03 0.  1.
         11   -1    0    0    0    0 -0.00000000000E+00 -0.00000000000E+00 -0.45593999997E+02  0.45594000000E+02  0.51100000000E-03 0. -1.
    9900012    2    1    2    0    0  0.33686522656E+02 -0.24258326768E+02  0.12663980262E+02  0.47787255510E+02  0.19999929170E+02 0.  0.
        -12    1    1    2    0    0 -0.33686522656E+02  0.24258326768E+02 -0.12663980262E+02  0.43400744490E+02  0.00000000000E+00 0.  1.
         11    1    3    3    0    0  0.32348414018E+00  0.91315885198E+00  0.17786302100E+01  0.20253460847E+01  0.51100000000E-03 0.  1.
        -11    1    3    3    0    0  0.11039614952E+02 -0.85026876455E+01 -0.35565210781E+01  0.14381155653E+02  0.51100000000E-03 0. -1.
         12    1    3    3    0    0  0.22323423564E+02 -0.16668797975E+02  0.14441871130E+02  0.31380753772E+02  0.00000000000E+00 0. -1.
</event>
<event>
 7    1  0.4592673E-010  0.4778727E+02  0.7816164E-02  0.1312668E+00
        -11   -1    0    0    0    0  0.00000000000E+00  0.00000000000E+00  0.45593999997E+02  0.45594000000E+02  0.51100000000E-03 0.  1.
         11   -1    0    0    0    0 -0.00000000000E+00 -0.00000000000E+00 -0.45593999997E+02  0.45594000000E+02  0.51100000000E-03 0. -1.
    9900012    2    1    2    0    0  0.29476404969E+02 -0.68502520190E+01 -0.31110108780E+02  0.47787271078E+02  0.20000000155E+02 0.  0.
        -12    1    1    2    0    0 -0.29476404969E+02  0.68502520190E+01  0.31110108780E+02  0.43400728922E+02  0.00000000000E+00 0.  1.
         11    1    3    3    0    0  0.57368875250E+01 -0.22533749742E+01 -0.25909840517E+01  0.66860134510E+01  0.51100000000E-03 0. -1.
        -11    1    3    3    0    0  0.98444568892E+00 -0.49807438143E+01 -0.11848438998E+02  0.12890401437E+02  0.51100000000E-03 0.  1.
         12    1    3    3    0    0  0.22755071755E+02  0.38386676951E+00 -0.16670685730E+02  0.28210856190E+02  0.00000000000E+00 0. -1.
</event>
<event>
 7    1  0.4592673E-010  0.4778728E+02  0.7816164E-02  0.1312668E+00
        -11   -1    0    0    0    0  0.00000000000E+00  0.00000000000E+00  0.45593999997E+02  0.45594000000E+02  0.51100000000E-03 0.  1.
         11   -1    0    0    0    0 -0.00000000000E+00 -0.00000000000E+00 -0.45593999997E+02  0.45594000000E+02  0.51100000000E-03 0. -1.
    9900012    2    1    2    0    0 -0.82116333733E+00 -0.11583177233E+02 -0.41818394283E+02  0.47787281061E+02  0.20000045669E+02 0.  0.
        -12    1    1    2    0    0  0.82116333733E+00  0.11583177233E+02  0.41818394283E+02  0.43400718939E+02  0.00000000000E+00 0.  1.
         11    1    3    3    0    0  0.54545432174E+01 -0.40224221000E+01 -0.10818829668E+02  0.12766322764E+02  0.51100000000E-03 0. -1.
        -11    1    3    3    0    0  0.30569027243E+01 -0.58669460412E+01 -0.15450150679E+02  0.16806929118E+02  0.51100000000E-03 0.  1.
        -12    1    3    3    0    0 -0.93326092791E+01 -0.16938090920E+01 -0.15549413936E+02  0.18214029179E+02  0.00000000000E+00 0.  1.
</event>
<event>
 7    1  0.4592673E-010  0.4778728E+02  0.7816164E-02  0.1312668E+00
        -11   -1    0    0    0    0  0.00000000000E+00  0.00000000000E+00  0.45593999997E+02  0.45594000000E+02  0.51100000000E-03 0.  1.
         11   -1    0    0    0    0 -0.00000000000E+00 -0.00000000000E+00 -0.45593999997E+02  0.45594000000E+02  0.51100000000E-03 0. -1.
    9900012    2    1    2    0    0  0.15203003355E+02 -0.24837589156E+02 -0.32180515103E+02  0.47787277675E+02  0.20000030230E+02 0.  0.
        -12    1    1    2    0    0 -0.15203003355E+02  0.24837589156E+02  0.32180515103E+02  0.43400722325E+02  0.00000000000E+00 0.  1.
         11    1    3    3    0    0  0.90168480321E+01 -0.21533081925E+02 -0.24551404339E+02  0.33878438879E+02  0.51100000000E-03 0. -1.
        -11    1    3    3    0    0  0.78889572688E+00 -0.14274936212E+01 -0.80171292893E+01  0.81813481046E+01  0.51100000000E-03 0.  1.
         12    1    3    3    0    0  0.53972595960E+01 -0.18770136096E+01  0.38801852553E+00  0.57274906908E+01  0.00000000000E+00 0. -1.
</event>
<event>
 7    1  0.4592673E-010  0.4778728E+02  0.7816164E-02  0.1312668E+00
        -11   -1    0    0    0    0  0.00000000000E+00  0.00000000000E+00  0.45593999997E+02  0.45594000000E+02  0.51100000000E-03 0.  1.
         11   -1    0    0    0    0 -0.00000000000E+00 -0.00000000000E+00 -0.45593999997E+02  0.45594000000E+02  0.51100000000E-03 0. -1.
    9900012    2    1    2    0    0 -0.18612642784E+02  0.22180900049E+02 -0.32329551405E+02  0.47787277743E+02  0.20000030541E+02 0.  0.
        -12    1    1    2    0    0  0.18612642784E+02 -0.22180900049E+02  0.32329551405E+02  0.43400722257E+02  0.00000000000E+00 0.  1.
         11    1    3    3    0    0 -0.33488742449E+01  0.11361303047E+02 -0.10021396082E+02  0.15515235910E+02  0.51100000000E-03 0. -1.
        -11    1    3    3    0    0  0.12134678228E+01  0.76099316280E+00 -0.82941327149E+01  0.84169027857E+01  0.51100000000E-03 0.  1.
        -12    1    3    3    0    0 -0.16477236362E+02  0.10058603839E+02 -0.14014022608E+02  0.23855139048E+02  0.00000000000E+00 0.  1.
</event>
<event>
 7    1  0.4592673E-010  0.4778727E+02  0.7816164E-02  0.1312668E+00
        -11   -1    0    0    0    0  0.00000000000E+00  0.00000000000E+00  0.45593999997E+02  0.45594000000E+02  0.51100000000E-03 0.  1.
         11   -1    0    0    0    0 -0.00000000000E+00 -0.00000000000E+00 -0.45593999997E+02  0.45594000000E+02  0.51100000000E-03 0. -1.
    9900012    2    1    2    0    0  0.14207271751E+02  0.25400950120E+02 -0.32195788161E+02  0.47787267139E+02  0.19999982192E+02 0.  0.
        -12    1    1    2    0    0 -0.14207271751E+02 -0.25400950120E+02  0.32195788161E+02  0.43400732861E+02  0.00000000000E+00 0.  1.
         11    1    3    3    0    0  0.47587172371E+01  0.21984299389E+02 -0.16310147184E+02  0.27784450881E+02  0.51100000000E-03 0. -1.
        -11    1    3    3    0    0  0.41721958700E+01  0.50344432414E+01 -0.73392228809E+01  0.98293962117E+01  0.51100000000E-03 0.  1.
        -12    1    3    3    0    0  0.52763586444E+01 -0.16177925105E+01 -0.85464180963E+01  0.10173420046E+02  0.00000000000E+00 0.  1.
</event>
<event>
 7    1  0.4592673E-010  0.4778727E+02  0.7816164E-02  0.1312668E+00
        -11   -1    0    0    0    0  0.00000000000E+00  0.00000000000E+00  0.45593999997E+02  0.45594000000E+02  0.51100000000E-03 0.  1.
         11   -1    0    0    0    0 -0.00000000000E+00 -0.00000000000E+00 -0.45593999997E+02  0.45594000000E+02  0.51100000000E-03 0. -1.
    9900012    2    1    2    0    0 -0.97301209027E+01 -0.12871939972E+01 -0.42276364932E+02  0.47787272437E+02  0.20000006347E+02 0.  0.
        -12    1    1    2    0    0  0.97301209027E+01  0.12871939972E+01  0.42276364932E+02  0.43400727563E+02  0.00000000000E+00 0.  1.
         11    1    3    3    0    0  0.41454046432E+00  0.22602088391E+00 -0.17638247705E+01  0.18259264276E+01  0.51100000000E-03 0. -1.
        -11    1    3    3    0    0 -0.60975057703E+01 -0.10824358381E+01 -0.41345710280E+02  0.41806925297E+02  0.51100000000E-03 0.  1.
        -12    1    3    3    0    0 -0.40471555967E+01 -0.43077904296E+00  0.83317011844E+00  0.41544207122E+01  0.00000000000E+00 0.  1.
</event>
<event>
 7    1  0.4592673E-010  0.4778727E+02  0.7816164E-02  0.1312668E+00
        -11   -1    0    0    0    0  0.00000000000E+00  0.00000000000E+00  0.45593999997E+02  0.45594000000E+02  0.51100000000E-03 0.  1.
         11   -1    0    0    0    0 -0.00000000000E+00 -0.00000000000E+00 -0.45593999997E+02  0.45594000000E+02  0.51100000000E-03 0. -1.
    9900012    2    1    2    0    0  0.10147908038E+02  0.41824162935E+02 -0.56020268990E+01  0.47787270189E+02  0.19999996101E+02 0.  0.
        -12    1    1    2    0    0 -0.10147908038E+02 -0.41824162935E+02  0.56020268990E+01  0.43400729811E+02  0.00000000000E+00 0.  1.
         11    1    3    3    0    0  0.36714486100E+01  0.13396190677E+02 -0.10384457603E+02  0.17342849233E+02  0.51100000000E-03 0. -1.
        -11    1    3    3    0    0 -0.57512469973E+00  0.13886412646E+01  0.17954638103E+01  0.23415344408E+01  0.51100000000E-03 0.  1.
         12    1    3    3    0    0  0.70515841278E+01  0.27039330993E+02  0.29869668938E+01  0.28102886516E+02  0.00000000000E+00 0. -1.
</event>
<event>
 7    1  0.4592673E-010  0.4778727E+02  0.7816164E-02  0.1312668E+00
        -11   -1    0    0    0    0  0.00000000000E+00  0.00000000000E+00  0.45593999997E+02  0.45594000000E+02  0.51100000000E-03 0.  1.
         11   -1    0    0    0    0 -0.00000000000E+00 -0.00000000000E+00 -0.45593999997E+02  0.45594000000E+02  0.51100000000E-03 0. -1.
    9900012    2    1    2    0    0  0.39478680879E+02 -0.16517013851E+02 -0.72281156793E+01  0.47787266748E+02  0.19999980413E+02 0.  0.
        -12    1    1    2    0    0 -0.39478680879E+02  0.16517013851E+02  0.72281156793E+01  0.43400733252E+02  0.00000000000E+00 0.  1.
         11    1    3    3    0    0  0.24509179402E+02 -0.33960815324E+01 -0.44127031769E+01  0.25133746126E+02  0.51100000000E-03 0. -1.
        -11    1    3    3    0    0  0.14989948850E+02 -0.83217445700E+01 -0.42128531475E+01  0.17654974684E+02  0.51100000000E-03 0.  1.
        -12    1    3    3    0    0 -0.20447372248E-01 -0.47991877486E+01  0.13974406452E+01  0.49985459384E+01  0.00000000000E+00 0.  1.
</event>
<event>
 7    1  0.4592673E-010  0.4778727E+02  0.7816164E-02  0.1312668E+00
        -11   -1    0    0    0    0  0.00000000000E+00  0.00000000000E+00  0.45593999997E+02  0.45594000000E+02  0.51100000000E-03 0. -1.
         11   -1    0    0    0    0 -0.00000000000E+00 -0.00000000000E+00 -0.45593999997E+02  0.45594000000E+02  0.51100000000E-03 0.  1.
    9900012    2    1    2    0    0  0.27349720979E+02  0.29333384084E+02  0.16588197959E+02  0.47787274534E+02  0.20000015912E+02 0.  0.
        -12    1    1    2    0    0 -0.27349720979E+02 -0.29333384084E+02 -0.16588197959E+02  0.43400725466E+02  0.00000000000E+00 0.  1.
         11    1    3    3    0    0  0.50954366733E+01  0.89844809344E+01  0.46560557350E+01  0.11329749680E+02  0.51100000000E-03 0.  1.
        -11    1    3    3    0    0  0.15401939521E+02  0.17004239591E+02  0.79016321870E+00  0.22956224935E+02  0.51100000000E-03 0. -1.
         12    1    3    3    0    0  0.68523447843E+01  0.33446635585E+01  0.11141979005E+02  0.13501299919E+02  0.00000000000E+00 0. -1.
</event>
<event>
 7    1  0.4592673E-010  0.4778727E+02  0.7816164E-02  0.1312668E+00
        -11   -1    0    0    0    0  0.00000000000E+00  0.00000000000E+00  0.45593999997E+02  0.45594000000E+02  0.51100000000E-03 0.  1.
         11   -1    0    0    0    0 -0.00000000000E+00 -0.00000000000E+00 -0.45593999997E+02  0.45594000000E+02  0.51100000000E-03 0. -1.
    9900012    2    1    2    0    0  0.20782894206E+02 -0.14063148736E+02 -0.35410762808E+02  0.47787274585E+02  0.20000016142E+02 0.  0.
        -12    1    1    2    0    0 -0.20782894206E+02  0.14063148736E+02  0.35410762808E+02  0.43400725415E+02  0.00000000000E+00 0.  1.
         11    1    3    3    0    0  0.12312768487E+02 -0.11046927248E+02 -0.14846534633E+02  0.22227425858E+02  0.51100000000E-03 0. -1.
        -11    1    3    3    0    0  0.37491160174E+01 -0.75346829973E+01 -0.13730468165E+02  0.16104442712E+02  0.51100000000E-03 0.  1.
        -12    1    3    3    0    0  0.47210097025E+01  0.45184615095E+01 -0.68337600105E+01  0.94554060148E+01  0.00000000000E+00 0.  1.
</event>
<event>
 7    1  0.4592673E-010  0.4778727E+02  0.7816164E-02  0.1312668E+00
        -11   -1    0    0    0    0  0.00000000000E+00  0.00000000000E+00  0.45593999997E+02  0.45594000000E+02  0.51100000000E-03 0. -1.
         11   -1    0    0    0    0 -0.00000000000E+00 -0.00000000000E+00 -0.45593999997E+02  0.45594000000E+02  0.51100000000E-03 0.  1.
    9900012    2    1    2    0    0 -0.25951010421E+02 -0.13542211486E+02  0.32043359383E+02  0.47787270578E+02  0.19999997874E+02 0.  0.
        -12    1    1    2    0    0  0.25951010421E+02  0.13542211486E+02 -0.32043359383E+02  0.43400729422E+02  0.00000000000E+00 0.  1.
         11    1    3    3    0    0 -0.53586946990E+01 -0.10009418743E+02  0.11960473706E+02  0.16491118943E+02  0.51100000000E-03 0. -1.
        -11    1    3    3    0    0  0.36573108115E+00  0.14920708174E+01  0.43479797024E+01  0.46113948325E+01  0.51100000000E-03 0.  1.
         12    1    3    3    0    0 -0.20958046803E+02 -0.50248635610E+01  0.15734905974E+02  0.26684756803E+02  0.00000000000E+00 0. -1.
</event>
<event>
 7    1  0.4592673E-010  0.4778727E+02  0.7816164E-02  0.1312668E+00
        -11   -1    0    0    0    0  0.00000000000E+00  0.00000000000E+00  0.45593999997E+02  0.45594000000E+02  0.51100000000E-03 0. -1.
         11   -1    0    0    0    0 -0.00000000000E+00 -0.00000000000E+00 -0.45593999997E+02  0.45594000000E+02  0.51100000000E-03 0.  1.
    9900012    2    1    2    0    0  0.57701775375E+01 -0.85224474286E+01  0.42162732709E+02  0.47787273181E+02  0.20000009740E+02 0.  0.
        -12    1    1    2    0    0 -0.57701775375E+01  0.85224474286E+01 -0.42162732709E+02  0.43400726819E+02  0.00000000000E+00 0.  1.
         11    1    3    3    0    0 -0.19047992289E+01 -0.34158123252E+00  0.19541886417E+02  0.19637470887E+02  0.51100000000E-03 0. -1.
        -11    1    3    3    0    0 -0.25114238344E+01 -0.45763729953E+01  0.11575370057E+02  0.12698016840E+02  0.51100000000E-03 0.  1.
         12    1    3    3    0    0  0.10186400601E+02 -0.36044932008E+01  0.11045476235E+02  0.15451785454E+02  0.00000000000E+00 0. -1.
</event>
<event>
 7    1  0.4592673E-010  0.4778727E+02  0.7816164E-02  0.1312668E+00
        -11   -1    0    0    0    0  0.00000000000E+00  0.00000000000E+00  0.45593999997E+02  0.45594000000E+02  0.51100000000E-03 0.  1.
         11   -1    0    0    0    0 -0.00000000000E+00 -0.00000000000E+00 -0.45593999997E+02  0.45594000000E+02  0.51100000000E-03 0. -1.
    9900012    2    1    2    0    0  0.15077498231E+02  0.15578645416E+02 -0.37597843457E+02  0.47787274447E+02  0.20000015513E+02 0.  0.
        -12    1    1    2    0    0 -0.15077498231E+02 -0.15578645416E+02  0.37597843457E+02  0.43400725553E+02  0.00000000000E+00 0.  1.
         11    1    3    3    0    0 -0.39714957497E-01  0.12222322876E+02 -0.19014404230E+02  0.22603856358E+02  0.51100000000E-03 0. -1.
        -11    1    3    3    0    0  0.10661358618E+00 -0.11542752132E+01 -0.52747422956E+00  0.12735568493E+01  0.51100000000E-03 0.  1.
         12    1    3    3    0    0  0.15010599602E+02  0.45105977533E+01 -0.18055964998E+02  0.23909861240E+02  0.00000000000E+00 0. -1.
</event>
<event>
 7    1  0.4592673E-010  0.4778727E+02  0.7816164E-02  0.1312668E+00
        -11   -1    0    0    0    0  0.00000000000E+00  0.00000000000E+00  0.45593999997E+02  0.45594000000E+02  0.51100000000E-03 0.  1.
         11   -1    0    0    0    0 -0.00000000000E+00 -0.00000000000E+00 -0.45593999997E+02  0.45594000000E+02  0.51100000000E-03 0. -1.
    9900012    2    1    2    0    0 -0.27324925193E+02 -0.74132699207E+01 -0.32893999291E+02  0.47787270778E+02  0.19999998783E+02 0.  0.
        -12    1    1    2    0    0  0.27324925193E+02  0.74132699207E+01  0.32893999291E+02  0.43400729222E+02  0.00000000000E+00 0.  1.
         11    1    3    3    0    0 -0.54549353584E+01  0.29871596442E+01 -0.12908488039E+02  0.14328590517E+02  0.51100000000E-03 0. -1.
        -11    1    3    3    0    0 -0.14533015573E+02 -0.55700652587E+00 -0.11361596433E+02  0.18455478094E+02  0.51100000000E-03 0.  1.
        -12    1    3    3    0    0 -0.73369742617E+01 -0.98434230390E+01 -0.86239148188E+01  0.15003202166E+02  0.00000000000E+00 0.  1.
</event>
<event>
 7    1  0.4592673E-010  0.4778727E+02  0.7816164E-02  0.1312668E+00
        -11   -1    0    0    0    0  0.00000000000E+00  0.00000000000E+00  0.45593999997E+02  0.45594000000E+02  0.51100000000E-03 0.  1.
         11   -1    0    0    0    0 -0.00000000000E+00 -0.00000000000E+00 -0.45593999997E+02  0.45594000000E+02  0.51100000000E-03 0. -1.
    9900012    2    1    2    0    0 -0.29956382391E+02  0.86393281668E+01  0.30192717902E+02  0.47787273607E+02  0.20000011685E+02 0.  0.
        -12    1    1    2    0    0  0.29956382391E+02 -0.86393281668E+01 -0.30192717902E+02  0.43400726393E+02  0.00000000000E+00 0.  1.
         11    1    3    3    0    0 -0.92464324252E+01  0.25343640105E+01  0.12199047142E+01  0.96647649378E+01  0.51100000000E-03 0. -1.
        -11    1    3    3    0    0 -0.13561669478E+02  0.90989425459E+01  0.15154707276E+02  0.22279470087E+02  0.51100000000E-03 0.  1.
        -12    1    3    3    0    0 -0.71482804876E+01 -0.29939783896E+01  0.13818105912E+02  0.15843038582E+02  0.00000000000E+00 0.  1.
</event>
<event>
 7    1  0.4592673E-010  0.4778727E+02  0.7816164E-02  0.1312668E+00
        -11   -1    0    0    0    0  0.00000000000E+00  0.00000000000E+00  0.45593999997E+02  0.45594000000E+02  0.51100000000E-03 0. -1.
         11   -1    0    0    0    0 -0.00000000000E+00 -0.00000000000E+00 -0.45593999997E+02  0.45594000000E+02  0.51100000000E-03 0.  1.
    9900012    2    1    2    0    0 -0.39972734293E+02  0.11429344017E+02 -0.12456885256E+02  0.47787269801E+02  0.19999994329E+02 0.  0.
        -12    1    1    2    0    0  0.39972734293E+02 -0.11429344017E+02  0.12456885256E+02  0.43400730199E+02  0.00000000000E+00 0.  1.
         11    1    3    3    0    0  0.40258015526E+00  0.24477701469E+01 -0.70820622051E+00  0.25797685526E+01  0.51100000000E-03 0. -1.
        -11    1    3    3    0    0 -0.18108290637E+02  0.10020376996E+02 -0.17290986035E+01  0.20767954333E+02  0.51100000000E-03 0.  1.
         12    1    3    3    0    0 -0.22267023812E+02 -0.10388031259E+01 -0.10019580432E+02  0.24439546915E+02  0.00000000000E+00 0. -1.
</event>
<event>
 7    1  0.4592673E-010  0.4778727E+02  0.7816164E-02  0.1312668E+00
        -11   -1    0    0    0    0  0.00000000000E+00  0.00000000000E+00  0.45593999997E+02  0.45594000000E+02  0.51100000000E-03 0.  1.
         11   -1    0    0    0    0 -0.00000000000E+00 -0.00000000000E+00 -0.45593999997E+02  0.45594000000E+02  0.51100000000E-03 0. -1.
    9900012    2    1    2    0    0  0.39219392689E+02 -0.17267722202E+02 -0.68766471610E+01  0.47787271099E+02  0.20000000249E+02 0.  0.
        -12    1    1    2    0    0 -0.39219392689E+02  0.17267722202E+02  0.68766471610E+01  0.43400728901E+02  0.00000000000E+00 0.  1.
         11    1    3    3    0    0  0.69097576152E+01 -0.87253384866E+01 -0.46375689977E+01  0.12057500922E+02  0.51100000000E-03 0. -1.
        -11    1    3    3    0    0  0.13451460182E+02 -0.85334044501E+01  0.28823468577E+01  0.16188535950E+02  0.51100000000E-03 0.  1.
         12    1    3    3    0    0  0.18858174892E+02 -0.89792653796E-02 -0.51214250210E+01  0.19541234228E+02  0.00000000000E+00 0. -1.
</event>
<event>
 7    1  0.4592673E-010  0.4778727E+02  0.7816164E-02  0.1312668E+00
        -11   -1    0    0    0    0  0.00000000000E+00  0.00000000000E+00  0.45593999997E+02  0.45594000000E+02  0.51100000000E-03 0. -1.
         11   -1    0    0    0    0 -0.00000000000E+00 -0.00000000000E+00 -0.45593999997E+02  0.45594000000E+02  0.51100000000E-03 0.  1.
    9900012    2    1    2    0    0 -0.17568923958E+01 -0.28872462716E+02  0.32356110009E+02  0.47787266952E+02  0.19999981342E+02 0.  0.
        -12    1    1    2    0    0  0.17568923958E+01  0.28872462716E+02 -0.32356110009E+02  0.43400733048E+02  0.00000000000E+00 0.  1.
         11    1    3    3    0    0 -0.11074851614E+01 -0.24005118898E+01 -0.78185989649E+00  0.27568615987E+01  0.51100000000E-03 0. -1.
        -11    1    3    3    0    0  0.56118108546E+01 -0.18154950985E+02  0.15383137524E+02  0.24448631591E+02  0.51100000000E-03 0.  1.
         12    1    3    3    0    0 -0.62612180890E+01 -0.83169998407E+01  0.17754832382E+02  0.20581773762E+02  0.00000000000E+00 0. -1.
</event>
<event>
 7    1  0.4592673E-010  0.4778728E+02  0.7816164E-02  0.1312668E+00
        -11   -1    0    0    0    0  0.00000000000E+00  0.00000000000E+00  0.45593999997E+02  0.45594000000E+02  0.51100000000E-03 0. -1.
         11   -1    0    0    0    0 -0.00000000000E+00 -0.00000000000E+00 -0.45593999997E+02  0.45594000000E+02  0.51100000000E-03 0.  1.
    9900012    2    1    2    0    0 -0.33214733375E+02  0.10731674071E+02  0.25792161173E+02  0.47787275127E+02  0.20000018613E+02 0.  0.
        -12    1    1    2    0    0  0.33214733375E+02 -0.10731674071E+02 -0.25792161173E+02  0.43400724873E+02  0.00000000000E+00 0.  1.
         11    1    3    3    0    0 -0.14794651631E+02  0.28544701101E+01  0.12029492414E+02  0.19280518781E+02  0.51100000000E-03 0. -1.
        -11    1    3    3    0    0 -0.59309356981E+01  0.27283327774E+01  0.13499626272E+02  0.14995322862E+02  0.51100000000E-03 0.  1.
         12    1    3    3    0    0 -0.12489146046E+02  0.51488711832E+01  0.26304248747E+00  0.13511433483E+02  0.00000000000E+00 0. -1.
</event>
<event>
 7    1  0.4592673E-010  0.4778727E+02  0.7816164E-02  0.1312668E+00
        -11   -1    0    0    0    0  0.00000000000E+00  0.00000000000E+00  0.45593999997E+02  0.45594000000E+02  0.51100000000E-03 0. -1.
         11   -1    0    0    0    0 -0.00000000000E+00 -0.00000000000E+00 -0.45593999997E+02  0.45594000000E+02  0.51100000000E-03 0.  1.
    9900012    2    1    2    0    0  0.23037263608E+02 -0.88465850011E+01  0.35702180851E+02  0.47787270764E+02  0.19999998720E+02 0.  0.
        -12    1    1    2    0    0 -0.23037263608E+02  0.88465850011E+01 -0.35702180851E+02  0.43400729236E+02  0.00000000000E+00 0.  1.
         11    1    3    3    0    0  0.39344337204E+01  0.20685048051E+01  0.11072139651E+02  0.11931083670E+02  0.51100000000E-03 0. -1.
        -11    1    3    3    0    0 -0.17043960533E+01 -0.15166249406E+01  0.13236378891E-01  0.22815110299E+01  0.51100000000E-03 0.  1.
        -12    1    3    3    0    0  0.20807225941E+02 -0.93984648655E+01  0.24616804822E+02  0.33574676064E+02  0.00000000000E+00 0.  1.
</event>
<event>
 7    1  0.4592673E-010  0.4778728E+02  0.7816164E-02  0.1312668E+00
        -11   -1    0    0    0    0  0.00000000000E+00  0.00000000000E+00  0.45593999997E+02  0.45594000000E+02  0.51100000000E-03 0. -1.
         11   -1    0    0    0    0 -0.00000000000E+00 -0.00000000000E+00 -0.45593999997E+02  0.45594000000E+02  0.51100000000E-03 0.  1.
    9900012    2    1    2    0    0  0.36481802631E+01  0.41966664751E+02 -0.10445704080E+02  0.47787275314E+02  0.20000019465E+02 0.  0.
        -12    1    1    2    0    0 -0.36481802631E+01 -0.41966664751E+02  0.10445704080E+02  0.43400724686E+02  0.00000000000E+00 0.  1.
         11    1    3    3    0    0 -0.21269023494E+01  0.12579053664E+02 -0.25618799749E+01  0.13012283964E+02  0.51100000000E-03 0. -1.
        -11    1    3    3    0    0  0.29498118212E+01  0.41312512970E+01  0.42430352538E+01  0.66160392597E+01  0.51100000000E-03 0.  1.
         12    1    3    3    0    0  0.28252707913E+01  0.25256359790E+02 -0.12126859359E+02  0.28158952090E+02  0.00000000000E+00 0. -1.
</event>
<event>
 7    1  0.4592673E-010  0.4778727E+02  0.7816164E-02  0.1312668E+00
        -11   -1    0    0    0    0  0.00000000000E+00  0.00000000000E+00  0.45593999997E+02  0.45594000000E+02  0.51100000000E-03 0.  1.
         11   -1    0    0    0    0 -0.00000000000E+00 -0.00000000000E+00 -0.45593999997E+02  0.45594000000E+02  0.51100000000E-03 0. -1.
    9900012    2    1    2    0    0 -0.21391882446E+02  0.77078349866E+01 -0.36967550247E+02  0.47787272747E+02  0.20000007765E+02 0.  0.
        -12    1    1    2    0    0  0.21391882446E+02 -0.77078349866E+01  0.36967550247E+02  0.43400727253E+02  0.00000000000E+00 0.  1.
         11    1    3    3    0    0 -0.17658766618E+01 -0.37733411428E+00 -0.12990051118E+01  0.22244360993E+01  0.51100000000E-03 0. -1.
        -11    1    3    3    0    0 -0.19406200265E+02  0.12511168360E+02 -0.25110828982E+02  0.34112808077E+02  0.51100000000E-03 0.  1.
        -12    1    3    3    0    0 -0.21980551895E+00 -0.44259992590E+01 -0.10557716153E+02  0.11450028571E+02  0.00000000000E+00 0.  1.
</event>
<event>
 7    1  0.4592673E-010  0.4778730E+02  0.7816164E-02  0.1312668E+00
        -11   -1    0    0    0    0  0.00000000000E+00  0.00000000000E+00  0.45593999997E+02  0.45594000000E+02  0.51100000000E-03 0.  1.
         11   -1    0    0    0    0 -0.00000000000E+00 -0.00000000000E+00 -0.45593999997E+02  0.45594000000E+02  0.51100000000E-03 0. -1.
    9900012    2    1    2    0    0  0.46806335710E+01 -0.83861960483E+01 -0.42324751073E+02  0.47787295303E+02  0.20000110605E+02 0.  0.
        -12    1    1    2    0    0 -0.46806335710E+01  0.83861960483E+01  0.42324751073E+02  0.43400704697E+02  0.00000000000E+00 0.  1.
         11    1    3    3    0    0  0.44982236050E+01 -0.14411265123E+01 -0.33631476727E+01  0.57984156245E+01  0.51100000000E-03 0. -1.
        -11    1    3    3    0    0 -0.18248247501E+01 -0.78309631612E+01 -0.95014929821E+01  0.12447181952E+02  0.51100000000E-03 0.  1.
        -12    1    3    3    0    0  0.20072347160E+01  0.88589362519E+00 -0.29460110418E+02  0.29541697727E+02  0.00000000000E+00 0.  1.
</event>
<event>
 7    1  0.4592673E-010  0.4778727E+02  0.7816164E-02  0.1312668E+00
        -11   -1    0    0    0    0  0.00000000000E+00  0.00000000000E+00  0.45593999997E+02  0.45594000000E+02  0.51100000000E-03 0.  1.
         11   -1    0    0    0    0 -0.00000000000E+00 -0.00000000000E+00 -0.45593999997E+02  0.45594000000E+02  0.51100000000E-03 0. -1.
    9900012    2    1    2    0    0 -0.38793666772E+02 -0.19437532627E+02  0.92588443064E+00  0.47787268229E+02  0.19999987165E+02 0.  0.
        -12    1    1    2    0    0  0.38793666772E+02  0.19437532627E+02 -0.92588443064E+00  0.43400731771E+02  0.00000000000E+00 0.  1.
         11    1    3    3    0    0 -0.24901668196E+02 -0.32930876540E+01  0.17033181593E+01  0.25176155351E+02  0.51100000000E-03 0. -1.
        -11    1    3    3    0    0 -0.95897533577E+01 -0.53806100326E+01 -0.71220046197E+00  0.11019145318E+02  0.51100000000E-03 0.  1.
        -12    1    3    3    0    0 -0.43022452184E+01 -0.10763834940E+02 -0.65233266723E-01  0.11591967560E+02  0.00000000000E+00 0.  1.
</event>
<event>
 7    1  0.4592673E-010  0.4778726E+02  0.7816164E-02  0.1312668E+00
        -11   -1    0    0    0    0  0.00000000000E+00  0.00000000000E+00  0.45593999997E+02  0.45594000000E+02  0.51100000000E-03 0.  1.
         11   -1    0    0    0    0 -0.00000000000E+00 -0.00000000000E+00 -0.45593999997E+02  0.45594000000E+02  0.51100000000E-03 0. -1.
    9900012    2    1    2    0    0 -0.14258582592E+02 -0.40978747775E+02 -0.10294252125E+01  0.47787255041E+02  0.19999927034E+02 0.  0.
        -12    1    1    2    0    0  0.14258582592E+02  0.40978747775E+02  0.10294252125E+01  0.43400744959E+02  0.00000000000E+00 0.  1.
         11    1    3    3    0    0  0.27631293289E+01 -0.17573309909E+02 -0.34826669062E+01  0.18126915731E+02  0.51100000000E-03 0. -1.
        -11    1    3    3    0    0 -0.33000333826E+01 -0.13483332143E+01  0.62432838824E+00  0.36191171548E+01  0.51100000000E-03 0.  1.
         12    1    3    3    0    0 -0.13721678538E+02 -0.22057104651E+02  0.18289133055E+01  0.26041222156E+02  0.00000000000E+00 0. -1.
</event>
<event>
 7    1  0.4592673E-010  0.4778727E+02  0.7816164E-02  0.1312668E+00
        -11   -1    0    0    0    0  0.00000000000E+00  0.00000000000E+00  0.45593999997E+02  0.45594000000E+02  0.51100000000E-03 0.  1.
         11   -1    0    0    0    0 -0.00000000000E+00 -0.00000000000E+00 -0.45593999997E+02  0.45594000000E+02  0.51100000000E-03 0. -1.
    9900012    2    1    2    0    0  0.27494835702E+02  0.33242852033E+02  0.47508048838E+01  0.47787270183E+02  0.19999996072E+02 0.  0.
        -12    1    1    2    0    0 -0.27494835702E+02 -0.33242852033E+02 -0.47508048838E+01  0.43400729817E+02  0.00000000000E+00 0.  1.
         11    1    3    3    0    0  0.81370849170E+01  0.73513089175E+01 -0.39861040730E+01  0.11668029812E+02  0.51100000000E-03 0. -1.
        -11    1    3    3    0    0  0.22812334199E+00  0.92216514564E+01 -0.17442654495E+00  0.92261216512E+01  0.51100000000E-03 0.  1.
        -12    1    3    3    0    0  0.19129627443E+02  0.16669891659E+02  0.89113355018E+01  0.26893118720E+02  0.00000000000E+00 0.  1.
</event>
<event>
 7    1  0.4592673E-010  0.4778727E+02  0.7816164E-02  0.1312668E+00
        -11   -1    0    0    0    0  0.00000000000E+00  0.00000000000E+00  0.45593999997E+02  0.45594000000E+02  0.51100000000E-03 0.  1.
         11   -1    0    0    0    0 -0.00000000000E+00 -0.00000000000E+00 -0.45593999997E+02  0.45594000000E+02  0.51100000000E-03 0. -1.
    9900012    2    1    2    0    0 -0.27153064399E+02 -0.45258085983E+00 -0.33854533862E+02  0.47787271911E+02  0.20000003950E+02 0.  0.
        -12    1    1    2    0    0  0.27153064399E+02  0.45258085983E+00  0.33854533862E+02  0.43400728089E+02  0.00000000000E+00 0.  1.
         11    1    3    3    0    0 -0.94536736166E+00 -0.47703101878E+01 -0.28277143899E+01  0.56254375535E+01  0.51100000000E-03 0. -1.
        -11    1    3    3    0    0 -0.27471566596E+01  0.42809616464E+01 -0.55998085076E+01  0.75651409711E+01  0.51100000000E-03 0.  1.
         12    1    3    3    0    0 -0.23460540378E+02  0.36767681561E-01 -0.25427010964E+02  0.34596693386E+02  0.00000000000E+00 0. -1.
</event>
<event>
 7    1  0.4592673E-010  0.4778727E+02  0.7816164E-02  0.1312668E+00
        -11   -1    0    0    0    0  0.00000000000E+00  0.00000000000E+00  0.45593999997E+02  0.45594000000E+02  0.51100000000E-03 0. -1.
         11   -1    0    0    0    0 -0.00000000000E+00 -0.00000000000E+00 -0.45593999997E+02  0.45594000000E+02  0.51100000000E-03 0.  1.
    9900012    2    1    2    0    0 -0.46601171892E+01 -0.40280283190E+02  0.15472731600E+02  0.47787270407E+02  0.19999997092E+02 0.  0.
        -12    1    1    2    0    0  0.46601171892E+01  0.40280283190E+02 -0.15472731600E+02  0.43400729593E+02  0.00000000000E+00 0.  1.
         11    1    3    3    0    0 -0.36414914340E+01 -0.51433969200E+01  0.42652376809E+01  0.76096809707E+01  0.51100000000E-03 0. -1.
        -11    1    3    3    0    0 -0.11432831493E+01  0.72116220814E+00 -0.16056085764E+01  0.20988450280E+01  0.51100000000E-03 0.  1.
         12    1    3    3    0    0  0.12465739401E+00 -0.35858048478E+02  0.12813102495E+02  0.38078744408E+02  0.00000000000E+00 0. -1.
</event>
<event>
 7    1  0.4592673E-010  0.4778729E+02  0.7816164E-02  0.1312668E+00
        -11   -1    0    0    0    0  0.00000000000E+00  0.00000000000E+00  0.45593999997E+02  0.45594000000E+02  0.51100000000E-03 0.  1.
         11   -1    0    0    0    0 -0.00000000000E+00 -0.00000000000E+00 -0.45593999997E+02  0.45594000000E+02  0.51100000000E-03 0. -1.
    9900012    2    1    2    0    0  0.24106476348E+01  0.30106015226E+02 -0.31167898064E+02  0.47787294423E+02  0.20000106592E+02 0.  0.
        -12    1    1    2    0    0 -0.24106476348E+01 -0.30106015226E+02  0.31167898064E+02  0.43400705577E+02  0.00000000000E+00 0.  1.
         11    1    3    3    0    0 -0.42647646724E+01  0.82687782690E+01 -0.25094181024E+01  0.96362903260E+01  0.51100000000E-03 0. -1.
        -11    1    3    3    0    0  0.28767562904E+01  0.44522366286E+01 -0.12072406634E+01  0.54365032909E+01  0.51100000000E-03 0.  1.
         12    1    3    3    0    0  0.37986560168E+01  0.17385000329E+02 -0.27451239299E+02  0.32714500806E+02  0.00000000000E+00 0. -1.
</event>
<event>
 7    1  0.4592673E-010  0.4778727E+02  0.7816164E-02  0.1312668E+00
        -11   -1    0    0    0    0  0.00000000000E+00  0.00000000000E+00  0.45593999997E+02  0.45594000000E+02  0.51100000000E-03 0. -1.
         11   -1    0    0    0    0 -0.00000000000E+00 -0.00000000000E+00 -0.45593999997E+02  0.45594000000E+02  0.51100000000E-03 0.  1.
    9900012    2    1    2    0    0 -0.18024234257E+00  0.37064592959E+02  0.22578903400E+02  0.47787269393E+02  0.19999992469E+02 0.  0.
        -12    1    1    2    0    0  0.18024234257E+00 -0.37064592959E+02 -0.22578903400E+02  0.43400730607E+02  0.00000000000E+00 0.  1.
         11    1    3    3    0    0 -0.66567109763E+01  0.53433785069E+01  0.61620582328E+01  0.10527794490E+02  0.51100000000E-03 0. -1.
        -11    1    3    3    0    0  0.22939414610E+01  0.60678695981E+01  0.71762827004E+01  0.96736881562E+01  0.51100000000E-03 0.  1.
         12    1    3    3    0    0  0.41825271727E+01  0.25653344854E+02  0.92405624664E+01  0.27585786747E+02  0.00000000000E+00 0. -1.
</event>
<event>
 7    1  0.4592673E-010  0.4778727E+02  0.7816164E-02  0.1312668E+00
        -11   -1    0    0    0    0  0.00000000000E+00  0.00000000000E+00  0.45593999997E+02  0.45594000000E+02  0.51100000000E-03 0. -1.
         11   -1    0    0    0    0 -0.00000000000E+00 -0.00000000000E+00 -0.45593999997E+02  0.45594000000E+02  0.51100000000E-03 0.  1.
    9900012    2    1    2    0    0 -0.29904167941E+02  0.27660167370E+02  0.14975947148E+02  0.47787272907E+02  0.20000008494E+02 0.  0.
        -12    1    1    2    0    0  0.29904167941E+02 -0.27660167370E+02 -0.14975947148E+02  0.43400727093E+02  0.00000000000E+00 0.  1.
         11    1    3    3    0    0 -0.55849559835E+01  0.88929095551E+01  0.11632412335E+02  0.15671266404E+02  0.51100000000E-03 0.  1.
        -11    1    3    3    0    0 -0.89903031910E+01  0.98759059230E+01  0.51272733840E+01  0.14305523475E+02  0.51100000000E-03 0. -1.
        -12    1    3    3    0    0 -0.15328908767E+02  0.88913518922E+01 -0.17837385716E+01  0.17810483029E+02  0.00000000000E+00 0.  1.
</event>
<event>
 7    1  0.4592673E-010  0.4778727E+02  0.7816164E-02  0.1312668E+00
        -11   -1    0    0    0    0  0.00000000000E+00  0.00000000000E+00  0.45593999997E+02  0.45594000000E+02  0.51100000000E-03 0. -1.
         11   -1    0    0    0    0 -0.00000000000E+00 -0.00000000000E+00 -0.45593999997E+02  0.45594000000E+02  0.51100000000E-03 0.  1.
    9900012    2    1    2    0    0 -0.28944198680E+02  0.16293457399E+02  0.27935277083E+02  0.47787273083E+02  0.20000009294E+02 0.  0.
        -12    1    1    2    0    0  0.28944198680E+02 -0.16293457399E+02 -0.27935277083E+02  0.43400726917E+02  0.00000000000E+00 0.  1.
         11    1    3    3    0    0 -0.15026061874E+02  0.14210882202E+02  0.20312531850E+02  0.28988457337E+02  0.51100000000E-03 0. -1.
        -11    1    3    3    0    0 -0.99066989751E+00  0.56815394820E+00  0.54922584309E+01  0.56097351709E+01  0.51100000000E-03 0.  1.
        -12    1    3    3    0    0 -0.12927466909E+02  0.15144212490E+01  0.21304868022E+01  0.13189080575E+02  0.00000000000E+00 0.  1.
</event>
<event>
 7    1  0.4592673E-010  0.4778727E+02  0.7816164E-02  0.1312668E+00
        -11   -1    0    0    0    0  0.00000000000E+00  0.00000000000E+00  0.45593999997E+02  0.45594000000E+02  0.51100000000E-03 0.  1.
         11   -1    0    0    0    0 -0.00000000000E+00 -0.00000000000E+00 -0.45593999997E+02  0.45594000000E+02  0.51100000000E-03 0. -1.
    9900012    2    1    2    0    0 -0.97360265583E+01  0.17469557094E+02 -0.38518149891E+02  0.47787268333E+02  0.19999987638E+02 0.  0.
        -12    1    1    2    0    0  0.97360265583E+01 -0.17469557094E+02  0.38518149891E+02  0.43400731667E+02  0.00000000000E+00 0.  1.
         11    1    3    3    0    0 -0.52255153772E+01  0.10432654943E+02 -0.24696411651E+02  0.27314081511E+02  0.51100000000E-03 0. -1.
        -11    1    3    3    0    0 -0.69412896712E+01  0.80475125569E+01 -0.14280489713E+02  0.17801020964E+02  0.51100000000E-03 0.  1.
         12    1    3    3    0    0  0.24307784901E+01 -0.10106104065E+01  0.45875147229E+00  0.26721658584E+01  0.00000000000E+00 0. -1.
</event>
<event>
 7    1  0.4592673E-010  0.4778727E+02  0.7816164E-02  0.1312668E+00
        -11   -1    0    0    0    0  0.00000000000E+00  0.00000000000E+00  0.45593999997E+02  0.45594000000E+02  0.51100000000E-03 0. -1.
         11   -1    0    0    0    0 -0.00000000000E+00 -0.00000000000E+00 -0.45593999997E+02  0.45594000000E+02  0.51100000000E-03 0.  1.
    9900012    2    1    2    0    0 -0.40373476627E+02 -0.14645506592E+02 -0.62541551450E+01  0.47787274950E+02  0.20000017807E+02 0.  0.
        -12    1    1    2    0    0  0.40373476627E+02  0.14645506592E+02  0.62541551450E+01  0.43400725050E+02  0.00000000000E+00 0.  1.
         11    1    3    3    0    0 -0.11408808002E+02  0.29122551404E+01  0.29225452733E+01  0.12131916632E+02  0.51100000000E-03 0. -1.
        -11    1    3    3    0    0 -0.10205755294E+02 -0.31542746086E+01 -0.42526255076E+01  0.11497465520E+02  0.51100000000E-03 0.  1.
         12    1    3    3    0    0 -0.18758913332E+02 -0.14403487124E+02 -0.49240749106E+01  0.24157892798E+02  0.00000000000E+00 0. -1.
</event>
<event>
 7    1  0.4592673E-010  0.4778727E+02  0.7816164E-02  0.1312668E+00
        -11   -1    0    0    0    0  0.00000000000E+00  0.00000000000E+00  0.45593999997E+02  0.45594000000E+02  0.51100000000E-03 0.  1.
         11   -1    0    0    0    0 -0.00000000000E+00 -0.00000000000E+00 -0.45593999997E+02  0.45594000000E+02  0.51100000000E-03 0. -1.
    9900012    2    1    2    0    0 -0.17596903351E+02  0.44166108816E+00 -0.39670859677E+02  0.47787272131E+02  0.20000004953E+02 0.  0.
        -12    1    1    2    0    0  0.17596903351E+02 -0.44166108816E+00  0.39670859677E+02  0.43400727869E+02  0.00000000000E+00 0.  1.
         11    1    3    3    0    0 -0.17646881820E+01  0.41809619613E+01 -0.43961866179E+01  0.63183086615E+01  0.51100000000E-03 0. -1.
        -11    1    3    3    0    0 -0.13252515601E+02 -0.20654121278E+01 -0.12015636403E+02  0.18007515527E+02  0.51100000000E-03 0.  1.
         12    1    3    3    0    0 -0.25796995678E+01 -0.16738887454E+01 -0.23259036656E+02  0.23461447942E+02  0.00000000000E+00 0. -1.
</event>
<event>
 7    1  0.4592673E-010  0.4778727E+02  0.7816164E-02  0.1312668E+00
        -11   -1    0    0    0    0  0.00000000000E+00  0.00000000000E+00  0.45593999997E+02  0.45594000000E+02  0.51100000000E-03 0.  1.
         11   -1    0    0    0    0 -0.00000000000E+00 -0.00000000000E+00 -0.45593999997E+02  0.45594000000E+02  0.51100000000E-03 0. -1.
    9900012    2    1    2    0    0  0.10011251093E+02  0.26285657154E+02 -0.33052417177E+02  0.47787271876E+02  0.20000003790E+02 0.  0.
        -12    1    1    2    0    0 -0.10011251093E+02 -0.26285657154E+02  0.33052417177E+02  0.43400728124E+02  0.00000000000E+00 0.  1.
         11    1    3    3    0    0  0.13239156955E+02  0.21716737295E+02 -0.26754978499E+02  0.36915048834E+02  0.51100000000E-03 0. -1.
        -11    1    3    3    0    0 -0.15660233979E+01  0.62235080274E+01 -0.53027754213E+01  0.83248969291E+01  0.51100000000E-03 0.  1.
        -12    1    3    3    0    0 -0.16618824649E+01 -0.16545881681E+01 -0.99466325647E+00  0.25473261131E+01  0.00000000000E+00 0.  1.
</event>
<event>
 7    1  0.4592673E-010  0.4778727E+02  0.7816164E-02  0.1312668E+00
        -11   -1    0    0    0    0  0.00000000000E+00  0.00000000000E+00  0.45593999997E+02  0.45594000000E+02  0.51100000000E-03 0.  1.
         11   -1    0    0    0    0 -0.00000000000E+00 -0.00000000000E+00 -0.45593999997E+02  0.45594000000E+02  0.51100000000E-03 0. -1.
    9900012    2    1    2    0    0 -0.31454911360E+02  0.29692285553E+02  0.35467884922E+01  0.47787274445E+02  0.20000015506E+02 0.  0.
        -12    1    1    2    0    0  0.31454911360E+02 -0.29692285553E+02 -0.35467884922E+01  0.43400725555E+02  0.00000000000E+00 0.  1.
         11    1    3    3    0    0 -0.17318975845E+02  0.25182582564E+02 -0.56926565670E+00  0.30568504258E+02  0.51100000000E-03 0. -1.
        -11    1    3    3    0    0 -0.66800182702E+01  0.46647547369E+01 -0.95073649469E+00  0.82028337170E+01  0.51100000000E-03 0.  1.
        -12    1    3    3    0    0 -0.74559172453E+01 -0.15505174758E+00  0.50667906436E+01  0.90159364704E+01  0.00000000000E+00 0.  1.
</event>
<event>
 7    1  0.4592673E-010  0.4778727E+02  0.7816164E-02  0.1312668E+00
        -11   -1    0    0    0    0  0.00000000000E+00  0.00000000000E+00  0.45593999997E+02  0.45594000000E+02  0.51100000000E-03 0.  1.
         11   -1    0    0    0    0 -0.00000000000E+00 -0.00000000000E+00 -0.45593999997E+02  0.45594000000E+02  0.51100000000E-03 0. -1.
    9900012    2    1    2    0    0 -0.30274532093E+01 -0.52752526454E+01 -0.42972428894E+02  0.47787269494E+02  0.19999992929E+02 0.  0.
        -12    1    1    2    0    0  0.30274532093E+01  0.52752526454E+01  0.42972428894E+02  0.43400730506E+02  0.00000000000E+00 0.  1.
         11    1    3    3    0    0  0.45680603259E+01 -0.29034853137E+01 -0.26900133204E+02  0.27439288780E+02  0.51100000000E-03 0.  1.
        -11    1    3    3    0    0  0.87589159748E+00  0.84278404279E-01  0.87617639823E+00  0.12417625707E+01  0.51100000000E-03 0. -1.
         12    1    3    3    0    0 -0.84714051327E+01 -0.24560457359E+01 -0.16948472088E+02  0.19106218142E+02  0.00000000000E+00 0. -1.
</event>
<event>
 7    1  0.4592673E-010  0.4778727E+02  0.7816164E-02  0.1312668E+00
        -11   -1    0    0    0    0  0.00000000000E+00  0.00000000000E+00  0.45593999997E+02  0.45594000000E+02  0.51100000000E-03 0. -1.
         11   -1    0    0    0    0 -0.00000000000E+00 -0.00000000000E+00 -0.45593999997E+02  0.45594000000E+02  0.51100000000E-03 0.  1.
    9900012    2    1    2    0    0 -0.22608307911E+02  0.25294559589E+02  0.27067931485E+02  0.47787271362E+02  0.20000001450E+02 0.  0.
        -12    1    1    2    0    0  0.22608307911E+02 -0.25294559589E+02 -0.27067931485E+02  0.43400728638E+02  0.00000000000E+00 0.  1.
         11    1    3    3    0    0 -0.25378871176E+01  0.10960232986E+01 -0.13223514050E+01  0.30644333232E+01  0.51100000000E-03 0.  1.
        -11    1    3    3    0    0 -0.14786135618E+02  0.16131883635E+02  0.10219556753E+02  0.24151745622E+02  0.51100000000E-03 0. -1.
         12    1    3    3    0    0 -0.52842851763E+01  0.80666526550E+01  0.18170726137E+02  0.20571092417E+02  0.00000000000E+00 0. -1.
</event>
<event>
 7    1  0.4592673E-010  0.4778727E+02  0.7816164E-02  0.1312668E+00
        -11   -1    0    0    0    0  0.00000000000E+00  0.00000000000E+00  0.45593999997E+02  0.45594000000E+02  0.51100000000E-03 0.  1.
         11   -1    0    0    0    0 -0.00000000000E+00 -0.00000000000E+00 -0.45593999997E+02  0.45594000000E+02  0.51100000000E-03 0. -1.
    9900012    2    1    2    0    0  0.10785161819E+02  0.38349722317E+02 -0.17222140946E+02  0.47787273554E+02  0.20000011441E+02 0.  0.
        -12    1    1    2    0    0 -0.10785161819E+02 -0.38349722317E+02  0.17222140946E+02  0.43400726446E+02  0.00000000000E+00 0.  1.
         11    1    3    3    0    0  0.86053878181E-01  0.67907171807E+01  0.53522822104E+00  0.68123207946E+01  0.51100000000E-03 0. -1.
        -11    1    3    3    0    0  0.72505266473E+01  0.22620967559E+02 -0.38158596329E+01  0.24059075106E+02  0.51100000000E-03 0.  1.
        -12    1    3    3    0    0  0.34485812935E+01  0.89380375777E+01 -0.13941509534E+02  0.16915877653E+02  0.00000000000E+00 0.  1.
</event>
<event>
 7    1  0.4592673E-010  0.4778728E+02  0.7816164E-02  0.1312668E+00
        -11   -1    0    0    0    0  0.00000000000E+00  0.00000000000E+00  0.45593999997E+02  0.45594000000E+02  0.51100000000E-03 0.  1.
         11   -1    0    0    0    0 -0.00000000000E+00 -0.00000000000E+00 -0.45593999997E+02  0.45594000000E+02  0.51100000000E-03 0. -1.
    9900012    2    1    2    0    0 -0.25520919026E+02  0.34327584226E+02 -0.73431921834E+01  0.47787276295E+02  0.20000023938E+02 0.  0.
        -12    1    1    2    0    0  0.25520919026E+02 -0.34327584226E+02  0.73431921834E+01  0.43400723705E+02  0.00000000000E+00 0.  1.
         11    1    3    3    0    0 -0.38147045325E+00  0.37596733453E+01  0.36729056996E+01  0.52698102347E+01  0.51100000000E-03 0. -1.
        -11    1    3    3    0    0 -0.18128935276E+02  0.13541145655E+02 -0.53477740759E+01  0.23251228090E+02  0.51100000000E-03 0.  1.
         12    1    3    3    0    0 -0.70105132972E+01  0.17026765225E+02 -0.56683238071E+01  0.19266237970E+02  0.00000000000E+00 0. -1.
</event>
<event>
 7    1  0.4592673E-010  0.4778727E+02  0.7816164E-02  0.1312668E+00
        -11   -1    0    0    0    0  0.00000000000E+00  0.00000000000E+00  0.45593999997E+02  0.45594000000E+02  0.51100000000E-03 0.  1.
         11   -1    0    0    0    0 -0.00000000000E+00 -0.00000000000E+00 -0.45593999997E+02  0.45594000000E+02  0.51100000000E-03 0. -1.
    9900012    2    1    2    0    0 -0.55098199899E+01 -0.26187706379E+02 -0.34168247542E+02  0.47787271644E+02  0.20000002734E+02 0.  0.
        -12    1    1    2    0    0  0.55098199899E+01  0.26187706379E+02  0.34168247542E+02  0.43400728356E+02  0.00000000000E+00 0.  1.
         11    1    3    3    0    0  0.93979313905E+00 -0.29411325983E+01 -0.15552746156E+02  0.15856272745E+02  0.51100000000E-03 0. -1.
        -11    1    3    3    0    0 -0.16686958347E+01  0.11027377303E+00 -0.29891754294E+01  0.34251826379E+01  0.51100000000E-03 0.  1.
        -12    1    3    3    0    0 -0.47809172943E+01 -0.23356847554E+02 -0.15626325957E+02  0.28505816261E+02  0.00000000000E+00 0.  1.
</event>
<event>
 7    1  0.4592673E-010  0.4778728E+02  0.7816164E-02  0.1312668E+00
        -11   -1    0    0    0    0  0.00000000000E+00  0.00000000000E+00  0.45593999997E+02  0.45594000000E+02  0.51100000000E-03 0. -1.
         11   -1    0    0    0    0 -0.00000000000E+00 -0.00000000000E+00 -0.45593999997E+02  0.45594000000E+02  0.51100000000E-03 0.  1.
    9900012    2    1    2    0    0  0.26843928502E+02 -0.30840884046E+02  0.14555623621E+02  0.47787276444E+02  0.20000024621E+02 0.  0.
        -12    1    1    2    0    0 -0.26843928502E+02  0.30840884046E+02 -0.14555623621E+02  0.43400723556E+02  0.00000000000E+00 0.  1.
         11    1    3    3    0    0  0.14406463984E+02 -0.26385786411E+02  0.73249409026E+01  0.30942053722E+02  0.51100000000E-03 0. -1.
        -11    1    3    3    0    0  0.45999680599E+01 -0.45987270103E+01  0.51810116900E+00  0.65250613292E+01  0.51100000000E-03 0.  1.
        -12    1    3    3    0    0  0.78374964579E+01  0.14362937526E+00  0.67125815491E+01  0.10320161393E+02  0.00000000000E+00 0.  1.
</event>
<event>
 7    1  0.4592673E-010  0.4778728E+02  0.7816164E-02  0.1312668E+00
        -11   -1    0    0    0    0  0.00000000000E+00  0.00000000000E+00  0.45593999997E+02  0.45594000000E+02  0.51100000000E-03 0. -1.
         11   -1    0    0    0    0 -0.00000000000E+00 -0.00000000000E+00 -0.45593999997E+02  0.45594000000E+02  0.51100000000E-03 0.  1.
    9900012    2    1    2    0    0 -0.33557720875E+02  0.53304676981E+01  0.27001633251E+02  0.47787277489E+02  0.20000029385E+02 0.  0.
        -12    1    1    2    0    0  0.33557720875E+02 -0.53304676981E+01 -0.27001633251E+02  0.43400722511E+02  0.00000000000E+00 0.  1.
         11    1    3    3    0    0 -0.40073968678E+00  0.44687991914E+01  0.57168324218E+00  0.45230056931E+01  0.51100000000E-03 0. -1.
        -11    1    3    3    0    0 -0.33346547112E+01  0.25718465819E+01  0.47913558405E+01  0.63789817318E+01  0.51100000000E-03 0.  1.
         12    1    3    3    0    0 -0.29822326477E+02 -0.17101780752E+01  0.21638594169E+02  0.36885290065E+02  0.00000000000E+00 0. -1.
</event>
<event>
 7    1  0.4592673E-010  0.4778727E+02  0.7816164E-02  0.1312668E+00
        -11   -1    0    0    0    0  0.00000000000E+00  0.00000000000E+00  0.45593999997E+02  0.45594000000E+02  0.51100000000E-03 0.  1.
         11   -1    0    0    0    0 -0.00000000000E+00 -0.00000000000E+00 -0.45593999997E+02  0.45594000000E+02  0.51100000000E-03 0. -1.
    9900012    2    1    2    0    0 -0.81008465601E+01  0.31942828715E+02 -0.28242796726E+02  0.47787267423E+02  0.19999983490E+02 0.  0.
        -12    1    1    2    0    0  0.81008465601E+01 -0.31942828715E+02  0.28242796726E+02  0.43400732577E+02  0.00000000000E+00 0.  1.
         11    1    3    3    0    0 -0.23437697707E+01 -0.11923663115E+01 -0.11588311492E+01  0.28736534329E+01  0.51100000000E-03 0. -1.
        -11    1    3    3    0    0  0.86209781634E-01  0.24110559334E+01  0.12458910090E+01  0.27153024708E+01  0.51100000000E-03 0.  1.
         12    1    3    3    0    0 -0.58432865710E+01  0.30724139093E+02 -0.28329856585E+02  0.42198311520E+02  0.00000000000E+00 0. -1.
</event>
<event>
 7    1  0.4592673E-010  0.4778727E+02  0.7816164E-02  0.1312668E+00
        -11   -1    0    0    0    0  0.00000000000E+00  0.00000000000E+00  0.45593999997E+02  0.45594000000E+02  0.51100000000E-03 0. -1.
         11   -1    0    0    0    0 -0.00000000000E+00 -0.00000000000E+00 -0.45593999997E+02  0.45594000000E+02  0.51100000000E-03 0.  1.
    9900012    2    1    2    0    0  0.14868089019E+02  0.36488338083E+02  0.18197927999E+02  0.47787268778E+02  0.19999989665E+02 0.  0.
        -12    1    1    2    0    0 -0.14868089019E+02 -0.36488338083E+02 -0.18197927999E+02  0.43400731222E+02  0.00000000000E+00 0.  1.
         11    1    3    3    0    0  0.66875406855E+00  0.11602046628E+02  0.79493351343E+01  0.14080008782E+02  0.51100000000E-03 0. -1.
        -11    1    3    3    0    0  0.78829224955E+01  0.24548841761E+02  0.83994560070E+01  0.27117097197E+02  0.51100000000E-03 0.  1.
        -12    1    3    3    0    0  0.63164124554E+01  0.33744969411E+00  0.18491368578E+01  0.65901627993E+01  0.00000000000E+00 0.  1.
</event>
<event>
 7    1  0.4592673E-010  0.4778727E+02  0.7816164E-02  0.1312668E+00
        -11   -1    0    0    0    0  0.00000000000E+00  0.00000000000E+00  0.45593999997E+02  0.45594000000E+02  0.51100000000E-03 0.  1.
         11   -1    0    0    0    0 -0.00000000000E+00 -0.00000000000E+00 -0.45593999997E+02  0.45594000000E+02  0.51100000000E-03 0. -1.
    9900012    2    1    2    0    0  0.32977101559E+02  0.27463562171E+02 -0.64720093578E+01  0.47787269828E+02  0.19999994454E+02 0.  0.
        -12    1    1    2    0    0 -0.32977101559E+02 -0.27463562171E+02  0.64720093578E+01  0.43400730172E+02  0.00000000000E+00 0.  1.
         11    1    3    3    0    0  0.84586110553E-01  0.23334129950E+01 -0.18627391712E+01  0.29869329581E+01  0.51100000000E-03 0. -1.
        -11    1    3    3    0    0  0.59507365772E+01  0.65280277763E+01 -0.79584332123E+01  0.11889620344E+02  0.51100000000E-03 0.  1.
         12    1    3    3    0    0  0.26941778871E+02  0.18602121400E+02  0.33491630256E+01  0.32910716526E+02  0.00000000000E+00 0. -1.
</event>
<event>
 7    1  0.4592673E-010  0.4778727E+02  0.7816164E-02  0.1312668E+00
        -11   -1    0    0    0    0  0.00000000000E+00  0.00000000000E+00  0.45593999997E+02  0.45594000000E+02  0.51100000000E-03 0.  1.
         11   -1    0    0    0    0 -0.00000000000E+00 -0.00000000000E+00 -0.45593999997E+02  0.45594000000E+02  0.51100000000E-03 0. -1.
    9900012    2    1    2    0    0 -0.19966170676E+02  0.34725783640E+02 -0.16706146948E+02  0.47787269974E+02  0.19999995121E+02 0.  0.
        -12    1    1    2    0    0  0.19966170676E+02 -0.34725783640E+02  0.16706146948E+02  0.43400730026E+02  0.00000000000E+00 0.  1.
         11    1    3    3    0    0 -0.25828309365E+01  0.11075903393E+02  0.12647842062E+01  0.11443178360E+02  0.51100000000E-03 0. -1.
        -11    1    3    3    0    0 -0.89735436036E+01  0.20157654040E+02 -0.99312734958E+01  0.24196811664E+02  0.51100000000E-03 0.  1.
        -12    1    3    3    0    0 -0.84097961358E+01  0.34922262074E+01 -0.80396576588E+01  0.12147279951E+02  0.00000000000E+00 0.  1.
</event>
<event>
 7    1  0.4592673E-010  0.4778727E+02  0.7816164E-02  0.1312668E+00
        -11   -1    0    0    0    0  0.00000000000E+00  0.00000000000E+00  0.45593999997E+02  0.45594000000E+02  0.51100000000E-03 0.  1.
         11   -1    0    0    0    0 -0.00000000000E+00 -0.00000000000E+00 -0.45593999997E+02  0.45594000000E+02  0.51100000000E-03 0. -1.
    9900012    2    1    2    0    0 -0.38057017986E+01  0.35406796369E+02 -0.24809245472E+02  0.47787271248E+02  0.20000000929E+02 0.  0.
        -12    1    1    2    0    0  0.38057017986E+01 -0.35406796369E+02  0.24809245472E+02  0.43400728752E+02  0.00000000000E+00 0.  1.
         11    1    3    3    0    0 -0.10364075467E+01  0.41560743884E+01  0.46870507843E+00  0.43089186157E+01  0.51100000000E-03 0. -1.
        -11    1    3    3    0    0  0.13229099084E+01  0.96604111002E+01  0.30249477996E+00  0.97552619956E+01  0.51100000000E-03 0.  1.
         12    1    3    3    0    0 -0.40922041603E+01  0.21590310880E+02 -0.25580445330E+02  0.33723090637E+02  0.00000000000E+00 0. -1.
</event>
<event>
 7    1  0.4592673E-010  0.4778727E+02  0.7816164E-02  0.1312668E+00
        -11   -1    0    0    0    0  0.00000000000E+00  0.00000000000E+00  0.45593999997E+02  0.45594000000E+02  0.51100000000E-03 0. -1.
         11   -1    0    0    0    0 -0.00000000000E+00 -0.00000000000E+00 -0.45593999997E+02  0.45594000000E+02  0.51100000000E-03 0.  1.
    9900012    2    1    2    0    0  0.76449252466E+01 -0.38905367963E+02  0.17650792361E+02  0.47787274092E+02  0.20000013895E+02 0.  0.
        -12    1    1    2    0    0 -0.76449252466E+01  0.38905367963E+02 -0.17650792361E+02  0.43400725908E+02  0.00000000000E+00 0.  1.
         11    1    3    3    0    0  0.63170824699E+00 -0.82698842944E+01  0.90955800118E+01  0.12309330508E+02  0.51100000000E-03 0. -1.
        -11    1    3    3    0    0  0.13126066002E+01 -0.16671284576E+02  0.11251783247E+02  0.20155825263E+02  0.51100000000E-03 0.  1.
        -12    1    3    3    0    0  0.57006103994E+01 -0.13964199093E+02 -0.26965708987E+01  0.15322118321E+02  0.00000000000E+00 0.  1.
</event>
<event>
 7    1  0.5183626E-010  0.4778727E+02  0.7816164E-02  0.1312668E+00
        -11   -1    0    0    0    0  0.00000000000E+00  0.00000000000E+00  0.45593999997E+02  0.45594000000E+02  0.51100000000E-03 0.  1.
         11   -1    0    0    0    0 -0.00000000000E+00 -0.00000000000E+00 -0.45593999997E+02  0.45594000000E+02  0.51100000000E-03 0. -1.
    9900012    2    1    2    0    0  0.50893937389E+01 -0.29128140437E+02 -0.31769054813E+02  0.47787270309E+02  0.19999996648E+02 0.  0.
        -12    1    1    2    0    0 -0.50893937389E+01  0.29128140437E+02  0.31769054813E+02  0.43400729691E+02  0.00000000000E+00 0.  1.
         11    1    3    3    0    0  0.87858814043E+00 -0.12448921942E+02 -0.11628211417E+02  0.17057633940E+02  0.51100000000E-03 0. -1.
        -11    1    3    3    0    0 -0.38951351084E+01 -0.44825953097E+01 -0.13945443234E+00  0.59401335021E+01  0.51100000000E-03 0.  1.
        -12    1    3    3    0    0  0.81059407069E+01 -0.12196623185E+02 -0.20001388964E+02  0.24789502867E+02  0.00000000000E+00 0.  1.
</event>
<event>
 7    1  0.4592673E-010  0.4778727E+02  0.7816164E-02  0.1312668E+00
        -11   -1    0    0    0    0  0.00000000000E+00  0.00000000000E+00  0.45593999997E+02  0.45594000000E+02  0.51100000000E-03 0.  1.
         11   -1    0    0    0    0 -0.00000000000E+00 -0.00000000000E+00 -0.45593999997E+02  0.45594000000E+02  0.51100000000E-03 0. -1.
    9900012    2    1    2    0    0  0.23157783103E+02 -0.35008384292E+02 -0.11034188376E+02  0.47787271871E+02  0.20000003768E+02 0.  0.
        -12    1    1    2    0    0 -0.23157783103E+02  0.35008384292E+02  0.11034188376E+02  0.43400728129E+02  0.00000000000E+00 0.  1.
         11    1    3    3    0    0  0.16086087675E+01 -0.58771172284E+01 -0.64764040085E-01  0.60936297661E+01  0.51100000000E-03 0. -1.
        -11    1    3    3    0    0  0.26768173956E+01 -0.12431068316E+02 -0.10496786485E+02  0.16488763981E+02  0.51100000000E-03 0.  1.
         12    1    3    3    0    0  0.18872356940E+02 -0.16700198748E+02 -0.47263785101E+00  0.25204878124E+02  0.00000000000E+00 0. -1.
</event>
<event>
 7    1  0.4592673E-010  0.4778727E+02  0.7816164E-02  0.1312668E+00
        -11   -1    0    0    0    0  0.00000000000E+00  0.00000000000E+00  0.45593999997E+02  0.45594000000E+02  0.51100000000E-03 0.  1.
         11   -1    0    0    0    0 -0.00000000000E+00 -0.00000000000E+00 -0.45593999997E+02  0.45594000000E+02  0.51100000000E-03 0. -1.
    9900012    2    1    2    0    0 -0.76447795039E+00 -0.36016525459E+02 -0.24204311139E+02  0.47787271776E+02  0.20000003335E+02 0.  0.
        -12    1    1    2    0    0  0.76447795039E+00  0.36016525459E+02  0.24204311139E+02  0.43400728224E+02  0.00000000000E+00 0.  1.
         11    1    3    3    0    0 -0.10743733900E+01 -0.24010525407E+02 -0.94643463336E+01  0.25830862554E+02  0.51100000000E-03 0. -1.
        -11    1    3    3    0    0 -0.79030210957E-01 -0.25548356224E+01  0.16431409923E+01  0.30386417054E+01  0.51100000000E-03 0.  1.
         12    1    3    3    0    0  0.38892565053E+00 -0.94511644296E+01 -0.16383105798E+02  0.18917767517E+02  0.00000000000E+00 0. -1.
</event>
<event>
 7    1  0.4592673E-010  0.4778729E+02  0.7816164E-02  0.1312668E+00
        -11   -1    0    0    0    0  0.00000000000E+00  0.00000000000E+00  0.45593999997E+02  0.45594000000E+02  0.51100000000E-03 0.  1.
         11   -1    0    0    0    0 -0.00000000000E+00 -0.00000000000E+00 -0.45593999997E+02  0.45594000000E+02  0.51100000000E-03 0. -1.
    9900012    2    1    2    0    0  0.27028418808E+02 -0.19973653696E+02 -0.27461602389E+02  0.47787287206E+02  0.20000073689E+02 0.  0.
        -12    1    1    2    0    0 -0.27028418808E+02  0.19973653696E+02  0.27461602389E+02  0.43400712794E+02  0.00000000000E+00 0.  1.
         11    1    3    3    0    0  0.12506380370E+01 -0.82474851414E+01 -0.81408105766E+01  0.11655809872E+02  0.51100000000E-03 0. -1.
        -11    1    3    3    0    0 -0.31326038789E+00  0.58449447809E+00 -0.28188827437E+01  0.28958359845E+01  0.51100000000E-03 0.  1.
         12    1    3    3    0    0  0.26091041158E+02 -0.12310663033E+02 -0.16501909069E+02  0.33235641350E+02  0.00000000000E+00 0. -1.
</event>
<event>
 7    1  0.4592673E-010  0.4778726E+02  0.7816164E-02  0.1312668E+00
        -11   -1    0    0    0    0  0.00000000000E+00  0.00000000000E+00  0.45593999997E+02  0.45594000000E+02  0.51100000000E-03 0. -1.
         11   -1    0    0    0    0 -0.00000000000E+00 -0.00000000000E+00 -0.45593999997E+02  0.45594000000E+02  0.51100000000E-03 0.  1.
    9900012    2    1    2    0    0 -0.29936679403E+01 -0.16658321782E+02  0.39964511398E+02  0.47787263790E+02  0.19999966923E+02 0.  0.
        -12    1    1    2    0    0  0.29936679403E+01  0.16658321782E+02 -0.39964511398E+02  0.43400736210E+02  0.00000000000E+00 0.  1.
         11    1    3    3    0    0 -0.46969754214E+01 -0.53459536198E+01  0.85600372410E+01  0.11131713078E+02  0.51100000000E-03 0. -1.
        -11    1    3    3    0    0 -0.85894497629E+00  0.36025138763E+01  0.50069138451E+01  0.62277667919E+01  0.51100000000E-03 0.  1.
         12    1    3    3    0    0  0.25622524575E+01 -0.14914882038E+02  0.26397560312E+02  0.30427783920E+02  0.00000000000E+00 0. -1.
</event>
<event>
 7    1  0.4592673E-010  0.4778727E+02  0.7816164E-02  0.1312668E+00
        -11   -1    0    0    0    0  0.00000000000E+00  0.00000000000E+00  0.45593999997E+02  0.45594000000E+02  0.51100000000E-03 0.  1.
         11   -1    0    0    0    0 -0.00000000000E+00 -0.00000000000E+00 -0.45593999997E+02  0.45594000000E+02  0.51100000000E-03 0. -1.
    9900012    2    1    2    0    0  0.65339224173E+00  0.33050386592E+02 -0.28122379778E+02  0.47787271669E+02  0.20000002847E+02 0.  0.
        -12    1    1    2    0    0 -0.65339224173E+00 -0.33050386592E+02  0.28122379778E+02  0.43400728331E+02  0.00000000000E+00 0.  1.
         11    1    3    3    0    0 -0.44647233154E+01  0.29304902483E+01 -0.38890497612E+01  0.66065297762E+01  0.51100000000E-03 0. -1.
        -11    1    3    3    0    0 -0.26378038513E+01  0.92105356836E+01 -0.21988041090E+01  0.98298889367E+01  0.51100000000E-03 0.  1.
         12    1    3    3    0    0  0.77559194084E+01  0.20909360660E+02 -0.22034525908E+02  0.31350852956E+02  0.00000000000E+00 0. -1.
</event>
<event>
 7    1  0.4592673E-010  0.4778727E+02  0.7816164E-02  0.1312668E+00
        -11   -1    0    0    0    0  0.00000000000E+00  0.00000000000E+00  0.45593999997E+02  0.45594000000E+02  0.51100000000E-03 0.  1.
         11   -1    0    0    0    0 -0.00000000000E+00 -0.00000000000E+00 -0.45593999997E+02  0.45594000000E+02  0.51100000000E-03 0. -1.
    9900012    2    1    2    0    0 -0.35146123273E+02  0.21973079295E+02 -0.12866895228E+02  0.47787272038E+02  0.20000004528E+02 0.  0.
        -12    1    1    2    0    0  0.35146123273E+02 -0.21973079295E+02  0.12866895228E+02  0.43400727962E+02  0.00000000000E+00 0.  1.
         11    1    3    3    0    0 -0.28171427524E+02  0.19799113607E+02 -0.55295330205E+01  0.34874201984E+02  0.51100000000E-03 0. -1.
        -11    1    3    3    0    0 -0.74937414281E+01  0.28940305248E+01 -0.31435078298E+01  0.86263094662E+01  0.51100000000E-03 0.  1.
        -12    1    3    3    0    0  0.51904567886E+00 -0.72006483666E+00 -0.41938543782E+01  0.42867605871E+01  0.00000000000E+00 0.  1.
</event>
<event>
 7    1  0.4592673E-010  0.4778727E+02  0.7816164E-02  0.1312668E+00
        -11   -1    0    0    0    0  0.00000000000E+00  0.00000000000E+00  0.45593999997E+02  0.45594000000E+02  0.51100000000E-03 0.  1.
         11   -1    0    0    0    0 -0.00000000000E+00 -0.00000000000E+00 -0.45593999997E+02  0.45594000000E+02  0.51100000000E-03 0. -1.
    9900012    2    1    2    0    0 -0.12281120281E+02  0.39040852723E+02 -0.14443297981E+02  0.47787274738E+02  0.20000016840E+02 0.  0.
        -12    1    1    2    0    0  0.12281120281E+02 -0.39040852723E+02  0.14443297981E+02  0.43400725262E+02  0.00000000000E+00 0.  1.
         11    1    3    3    0    0 -0.19579310977E+01  0.19395374633E+02 -0.34465047887E+01  0.19796273560E+02  0.51100000000E-03 0. -1.
        -11    1    3    3    0    0  0.47886979249E+00  0.10398587003E+02 -0.69638971674E+00  0.10432875291E+02  0.51100000000E-03 0.  1.
         12    1    3    3    0    0 -0.10802058976E+02  0.92468910870E+01 -0.10300403476E+02  0.17558125887E+02  0.00000000000E+00 0. -1.
</event>
<event>
 7    1  0.4592673E-010  0.4778727E+02  0.7816164E-02  0.1312668E+00
        -11   -1    0    0    0    0  0.00000000000E+00  0.00000000000E+00  0.45593999997E+02  0.45594000000E+02  0.51100000000E-03 0.  1.
         11   -1    0    0    0    0 -0.00000000000E+00 -0.00000000000E+00 -0.45593999997E+02  0.45594000000E+02  0.51100000000E-03 0. -1.
    9900012    2    1    2    0    0 -0.12147293996E+02 -0.38169973250E+02  0.16706869735E+02  0.47787272982E+02  0.20000008834E+02 0.  0.
        -12    1    1    2    0    0  0.12147293996E+02  0.38169973250E+02 -0.16706869735E+02  0.43400727018E+02  0.00000000000E+00 0.  1.
         11    1    3    3    0    0  0.50532803688E-01 -0.13168514445E+01  0.46051770214E+01  0.47900216023E+01  0.51100000000E-03 0.  1.
        -11    1    3    3    0    0 -0.82029579699E+01 -0.20089864478E+02  0.13744195771E+02  0.25686457363E+02  0.51100000000E-03 0. -1.
         12    1    3    3    0    0 -0.39948688302E+01 -0.16763257328E+02 -0.16425030570E+01  0.17310794017E+02  0.00000000000E+00 0. -1.
</event>
<event>
 7    1  0.4592673E-010  0.4778728E+02  0.7816164E-02  0.1312668E+00
        -11   -1    0    0    0    0  0.00000000000E+00  0.00000000000E+00  0.45593999997E+02  0.45594000000E+02  0.51100000000E-03 0.  1.
         11   -1    0    0    0    0 -0.00000000000E+00 -0.00000000000E+00 -0.45593999997E+02  0.45594000000E+02  0.51100000000E-03 0. -1.
    9900012    2    1    2    0    0 -0.10531595814E+02 -0.63495746633E+01 -0.41622003933E+02  0.47787276271E+02  0.20000023831E+02 0.  0.
        -12    1    1    2    0    0  0.10531595814E+02  0.63495746633E+01  0.41622003933E+02  0.43400723729E+02  0.00000000000E+00 0.  1.
         11    1    3    3    0    0 -0.54308078452E+01  0.33820364399E+01 -0.67224233947E+01  0.92802381915E+01  0.51100000000E-03 0.  1.
        -11    1    3    3    0    0 -0.78655172035E+01 -0.31009005502E+01 -0.24066136649E+02  0.25508055170E+02  0.51100000000E-03 0. -1.
         12    1    3    3    0    0  0.27647292350E+01 -0.66307105530E+01 -0.10833443889E+02  0.12998982910E+02  0.00000000000E+00 0. -1.
</event>
<event>
 7    1  0.4592673E-010  0.4778727E+02  0.7816164E-02  0.1312668E+00
        -11   -1    0    0    0    0  0.00000000000E+00  0.00000000000E+00  0.45593999997E+02  0.45594000000E+02  0.51100000000E-03 0. -1.
         11   -1    0    0    0    0 -0.00000000000E+00 -0.00000000000E+00 -0.45593999997E+02  0.45594000000E+02  0.51100000000E-03 0.  1.
    9900012    2    1    2    0    0  0.18054025509E+02  0.11528656766E+02  0.37746071535E+02  0.47787266364E+02  0.19999978658E+02 0.  0.
        -12    1    1    2    0    0 -0.18054025509E+02 -0.11528656766E+02 -0.37746071535E+02  0.43400733636E+02  0.00000000000E+00 0.  1.
         11    1    3    3    0    0  0.96041533565E+01  0.10714559104E+01  0.76398051792E+01  0.12318863702E+02  0.51100000000E-03 0.  1.
        -11    1    3    3    0    0  0.11411605079E+02  0.70764762671E+01  0.26493026162E+02  0.29701543433E+02  0.51100000000E-03 0. -1.
        -12    1    3    3    0    0 -0.29617329263E+01  0.33807245882E+01  0.36132401930E+01  0.57668592284E+01  0.00000000000E+00 0.  1.
</event>
<event>
 7    1  0.4592673E-010  0.4778727E+02  0.7816164E-02  0.1312668E+00
        -11   -1    0    0    0    0  0.00000000000E+00  0.00000000000E+00  0.45593999997E+02  0.45594000000E+02  0.51100000000E-03 0.  1.
         11   -1    0    0    0    0 -0.00000000000E+00 -0.00000000000E+00 -0.45593999997E+02  0.45594000000E+02  0.51100000000E-03 0. -1.
    9900012    2    1    2    0    0  0.14203436550E+02 -0.30004326926E+02 -0.27957570897E+02  0.47787274032E+02  0.20000013620E+02 0.  0.
        -12    1    1    2    0    0 -0.14203436550E+02  0.30004326926E+02  0.27957570897E+02  0.43400725968E+02  0.00000000000E+00 0.  1.
         11    1    3    3    0    0 -0.17626884339E+00 -0.12305438554E+02 -0.12480562677E+02  0.17527673368E+02  0.51100000000E-03 0. -1.
        -11    1    3    3    0    0 -0.29795241321E-01 -0.93130841953E+01 -0.50266683907E+01  0.10583091248E+02  0.51100000000E-03 0.  1.
        -12    1    3    3    0    0  0.14409500635E+02 -0.83858041772E+01 -0.10450339829E+02  0.19676509416E+02  0.00000000000E+00 0.  1.
</event>
<event>
 7    1  0.4592673E-010  0.4778727E+02  0.7816164E-02  0.1312668E+00
        -11   -1    0    0    0    0  0.00000000000E+00  0.00000000000E+00  0.45593999997E+02  0.45594000000E+02  0.51100000000E-03 0. -1.
         11   -1    0    0    0    0 -0.00000000000E+00 -0.00000000000E+00 -0.45593999997E+02  0.45594000000E+02  0.51100000000E-03 0.  1.
    9900012    2    1    2    0    0 -0.70833186727E+01 -0.42543267552E+02  0.48497408151E+01  0.47787274161E+02  0.20000014208E+02 0.  0.
        -12    1    1    2    0    0  0.70833186727E+01  0.42543267552E+02 -0.48497408151E+01  0.43400725839E+02  0.00000000000E+00 0.  1.
         11    1    3    3    0    0 -0.22044956378E+01 -0.62001778615E+01  0.37334508811E+01  0.75657558958E+01  0.51100000000E-03 0. -1.
        -11    1    3    3    0    0  0.41970549292E+01 -0.25347362752E+02 -0.14563305881E+01  0.25733732096E+02  0.51100000000E-03 0.  1.
        -12    1    3    3    0    0 -0.90758779641E+01 -0.10995726939E+02  0.25726205221E+01  0.14487786169E+02  0.00000000000E+00 0.  1.
</event>
<event>
 7    1  0.4592673E-010  0.4778728E+02  0.7816164E-02  0.1312668E+00
        -11   -1    0    0    0    0  0.00000000000E+00  0.00000000000E+00  0.45593999997E+02  0.45594000000E+02  0.51100000000E-03 0.  1.
         11   -1    0    0    0    0 -0.00000000000E+00 -0.00000000000E+00 -0.45593999997E+02  0.45594000000E+02  0.51100000000E-03 0. -1.
    9900012    2    1    2    0    0 -0.34696112080E+02 -0.14934217542E+02 -0.21372217921E+02  0.47787277127E+02  0.20000027731E+02 0.  0.
        -12    1    1    2    0    0  0.34696112080E+02  0.14934217542E+02  0.21372217921E+02  0.43400722873E+02  0.00000000000E+00 0.  1.
         11    1    3    3    0    0 -0.16928283931E+02  0.31058857653E+00 -0.10016771406E+02  0.19672289439E+02  0.51100000000E-03 0.  1.
        -11    1    3    3    0    0 -0.10519529107E+02 -0.21730619502E+01 -0.40667478705E+01  0.11485692377E+02  0.51100000000E-03 0. -1.
        -12    1    3    3    0    0 -0.72482990425E+01 -0.13071744168E+02 -0.72886986443E+01  0.16629295311E+02  0.00000000000E+00 0.  1.
</event>
<event>
 7    1  0.4592673E-010  0.4778727E+02  0.7816164E-02  0.1312668E+00
        -11   -1    0    0    0    0  0.00000000000E+00  0.00000000000E+00  0.45593999997E+02  0.45594000000E+02  0.51100000000E-03 0.  1.
         11   -1    0    0    0    0 -0.00000000000E+00 -0.00000000000E+00 -0.45593999997E+02  0.45594000000E+02  0.51100000000E-03 0. -1.
    9900012    2    1    2    0    0  0.13896189140E+02  0.30120698259E+02 -0.27986831873E+02  0.47787270806E+02  0.19999998915E+02 0.  0.
        -12    1    1    2    0    0 -0.13896189140E+02 -0.30120698259E+02  0.27986831873E+02  0.43400729194E+02  0.00000000000E+00 0.  1.
         11    1    3    3    0    0  0.11799268168E+02  0.13183498261E+02 -0.10663720664E+02  0.20657741754E+02  0.51100000000E-03 0. -1.
        -11    1    3    3    0    0  0.70489436779E+01  0.10382273094E+02 -0.11837067390E+02  0.17250952618E+02  0.51100000000E-03 0.  1.
        -12    1    3    3    0    0 -0.49520227055E+01  0.65549269045E+01 -0.54860438183E+01  0.98785764347E+01  0.00000000000E+00 0.  1.
</event>
<event>
 7    1  0.4592673E-010  0.4778727E+02  0.7816164E-02  0.1312668E+00
        -11   -1    0    0    0    0  0.00000000000E+00  0.00000000000E+00  0.45593999997E+02  0.45594000000E+02  0.51100000000E-03 0.  1.
         11   -1    0    0    0    0 -0.00000000000E+00 -0.00000000000E+00 -0.45593999997E+02  0.45594000000E+02  0.51100000000E-03 0. -1.
    9900012    2    1    2    0    0 -0.24006909116E+02  0.36060851882E+02 -0.26280702509E+01  0.47787268705E+02  0.19999989332E+02 0.  0.
        -12    1    1    2    0    0  0.24006909116E+02 -0.36060851882E+02  0.26280702509E+01  0.43400731295E+02  0.00000000000E+00 0.  1.
         11    1    3    3    0    0 -0.16984571121E+02  0.23771144983E+02 -0.18424895938E+01  0.29273499247E+02  0.51100000000E-03 0. -1.
        -11    1    3    3    0    0 -0.62367647280E+01  0.13988590343E+02  0.16914955142E+01  0.15409057446E+02  0.51100000000E-03 0.  1.
         12    1    3    3    0    0 -0.78557326650E+00 -0.16988834444E+01 -0.24770761713E+01  0.31047120113E+01  0.00000000000E+00 0. -1.
</event>
<event>
 7    1  0.4592673E-010  0.4778727E+02  0.7816164E-02  0.1312668E+00
        -11   -1    0    0    0    0  0.00000000000E+00  0.00000000000E+00  0.45593999997E+02  0.45594000000E+02  0.51100000000E-03 0.  1.
         11   -1    0    0    0    0 -0.00000000000E+00 -0.00000000000E+00 -0.45593999997E+02  0.45594000000E+02  0.51100000000E-03 0. -1.
    9900012    2    1    2    0    0 -0.15870163547E+02  0.30483543068E+02 -0.26504996533E+02  0.47787270395E+02  0.19999997041E+02 0.  0.
        -12    1    1    2    0    0  0.15870163547E+02 -0.30483543068E+02  0.26504996533E+02  0.43400729605E+02  0.00000000000E+00 0.  1.
         11    1    3    3    0    0 -0.26974775940E+01  0.22706633849E+01 -0.17502912453E+00  0.35302879533E+01  0.51100000000E-03 0. -1.
        -11    1    3    3    0    0  0.15701948475E+01  0.16721224269E+02 -0.13993962125E+02  0.21860828647E+02  0.51100000000E-03 0.  1.
        -12    1    3    3    0    0 -0.14742880801E+02  0.11491655414E+02 -0.12336005284E+02  0.22396153796E+02  0.00000000000E+00 0.  1.
</event>
<event>
 7    1  0.4592673E-010  0.4778727E+02  0.7816164E-02  0.1312668E+00
        -11   -1    0    0    0    0  0.00000000000E+00  0.00000000000E+00  0.45593999997E+02  0.45594000000E+02  0.51100000000E-03 0. -1.
         11   -1    0    0    0    0 -0.00000000000E+00 -0.00000000000E+00 -0.45593999997E+02  0.45594000000E+02  0.51100000000E-03 0.  1.
    9900012    2    1    2    0    0  0.35002272871E+02  0.11251714139E+02  0.23062161044E+02  0.47787269024E+02  0.19999990790E+02 0.  0.
        -12    1    1    2    0    0 -0.35002272871E+02 -0.11251714139E+02 -0.23062161044E+02  0.43400730976E+02  0.00000000000E+00 0.  1.
         11    1    3    3    0    0  0.13938131330E+01 -0.24574079439E+01 -0.30441995058E+00  0.28415208287E+01  0.51100000000E-03 0. -1.
        -11    1    3    3    0    0  0.48747917337E+00  0.40137742678E-01  0.43574878855E+01  0.43848543780E+01  0.51100000000E-03 0.  1.
         12    1    3    3    0    0  0.33120980564E+02  0.13668984341E+02  0.19009093109E+02  0.40560893818E+02  0.00000000000E+00 0. -1.
</event>
<event>
 7    1  0.5308340E-010  0.4778727E+02  0.7816164E-02  0.1312668E+00
        -11   -1    0    0    0    0  0.00000000000E+00  0.00000000000E+00  0.45593999997E+02  0.45594000000E+02  0.51100000000E-03 0. -1.
         11   -1    0    0    0    0 -0.00000000000E+00 -0.00000000000E+00 -0.45593999997E+02  0.45594000000E+02  0.51100000000E-03 0.  1.
    9900012    2    1    2    0    0  0.20431160702E+01  0.13895512024E+02  0.41065357761E+02  0.47787272059E+02  0.20000004628E+02 0.  0.
        -12    1    1    2    0    0 -0.20431160702E+01 -0.13895512024E+02 -0.41065357761E+02  0.43400727941E+02  0.00000000000E+00 0.  1.
         11    1    3    3    0    0  0.24183707454E+01  0.52541635960E+01  0.67876067840E+01  0.89177552260E+01  0.51100000000E-03 0. -1.
        -11    1    3    3    0    0 -0.38407013008E+01 -0.19200687821E+01  0.20102744080E+01  0.47411869892E+01  0.51100000000E-03 0.  1.
        -12    1    3    3    0    0  0.34654466256E+01  0.10561417210E+02  0.32267476569E+02  0.34128329844E+02  0.00000000000E+00 0.  1.
</event>
<event>
 7    1  0.4592673E-010  0.4778727E+02  0.7816164E-02  0.1312668E+00
        -11   -1    0    0    0    0  0.00000000000E+00  0.00000000000E+00  0.45593999997E+02  0.45594000000E+02  0.51100000000E-03 0. -1.
         11   -1    0    0    0    0 -0.00000000000E+00 -0.00000000000E+00 -0.45593999997E+02  0.45594000000E+02  0.51100000000E-03 0.  1.
    9900012    2    1    2    0    0  0.27294161339E+02  0.19871912287E+02  0.27271950674E+02  0.47787269192E+02  0.19999991555E+02 0.  0.
        -12    1    1    2    0    0 -0.27294161339E+02 -0.19871912287E+02 -0.27271950674E+02  0.43400730808E+02  0.00000000000E+00 0.  1.
         11    1    3    3    0    0  0.14703757217E+02  0.40300348892E+01  0.12999706941E+02  0.20035818883E+02  0.51100000000E-03 0. -1.
        -11    1    3    3    0    0  0.12503622394E+02  0.77959515754E+01  0.12910229926E+02  0.19590596492E+02  0.51100000000E-03 0.  1.
        -12    1    3    3    0    0  0.86781727032E-01  0.80459258220E+01  0.13620138076E+01  0.81608538165E+01  0.00000000000E+00 0.  1.
</event>
<event>
 7    1  0.4592673E-010  0.4778727E+02  0.7816164E-02  0.1312668E+00
        -11   -1    0    0    0    0  0.00000000000E+00  0.00000000000E+00  0.45593999997E+02  0.45594000000E+02  0.51100000000E-03 0.  1.
         11   -1    0    0    0    0 -0.00000000000E+00 -0.00000000000E+00 -0.45593999997E+02  0.45594000000E+02  0.51100000000E-03 0. -1.
    9900012    2    1    2    0    0  0.26940987500E+02 -0.14362807974E+02 -0.30846656837E+02  0.47787270762E+02  0.19999998712E+02 0.  0.
        -12    1    1    2    0    0 -0.26940987500E+02  0.14362807974E+02  0.30846656837E+02  0.43400729238E+02  0.00000000000E+00 0.  1.
         11    1    3    3    0    0  0.32939098892E+01  0.31175363017E+01 -0.45858018375E+01  0.64496863261E+01  0.51100000000E-03 0. -1.
        -11    1    3    3    0    0  0.92701167988E+01 -0.10623799139E+01 -0.39628107854E+01  0.10137434889E+02  0.51100000000E-03 0.  1.
        -12    1    3    3    0    0  0.14376960812E+02 -0.16417964362E+02 -0.22298044214E+02  0.31200149547E+02  0.00000000000E+00 0.  1.
</event>
<event>
 7    1  0.4592673E-010  0.4778727E+02  0.7816164E-02  0.1312668E+00
        -11   -1    0    0    0    0  0.00000000000E+00  0.00000000000E+00  0.45593999997E+02  0.45594000000E+02  0.51100000000E-03 0.  1.
         11   -1    0    0    0    0 -0.00000000000E+00 -0.00000000000E+00 -0.45593999997E+02  0.45594000000E+02  0.51100000000E-03 0. -1.
    9900012    2    1    2    0    0  0.54773516500E+01 -0.35332800275E+02 -0.24601127280E+02  0.47787267059E+02  0.19999981831E+02 0.  0.
        -12    1    1    2    0    0 -0.54773516500E+01  0.35332800275E+02  0.24601127280E+02  0.43400732941E+02  0.00000000000E+00 0.  1.
         11    1    3    3    0    0 -0.13958535724E+01 -0.12138878533E+02 -0.18993346748E+02  0.22584242298E+02  0.51100000000E-03 0. -1.
        -11    1    3    3    0    0  0.28696693717E+01 -0.39561005172E+01 -0.16508590357E+01  0.51585918061E+01  0.51100000000E-03 0.  1.
         12    1    3    3    0    0  0.40035358508E+01 -0.19237821224E+02 -0.39569214960E+01  0.20044432955E+02  0.00000000000E+00 0. -1.
</event>
<event>
 7    1  0.4592673E-010  0.4778727E+02  0.7816164E-02  0.1312668E+00
        -11   -1    0    0    0    0  0.00000000000E+00  0.00000000000E+00  0.45593999997E+02  0.45594000000E+02  0.51100000000E-03 0.  1.
         11   -1    0    0    0    0 -0.00000000000E+00 -0.00000000000E+00 -0.45593999997E+02  0.45594000000E+02  0.51100000000E-03 0. -1.
    9900012    2    1    2    0    0  0.13980256939E+02 -0.89834304863E+01 -0.40093310419E+02  0.47787272497E+02  0.20000006625E+02 0.  0.
        -12    1    1    2    0    0 -0.13980256939E+02  0.89834304863E+01  0.40093310419E+02  0.43400727503E+02  0.00000000000E+00 0.  1.
         11    1    3    3    0    0  0.34116912691E+01 -0.82442439657E+01 -0.13314796538E+02  0.16027819658E+02  0.51100000000E-03 0. -1.
        -11    1    3    3    0    0 -0.26602240175E+01  0.17920065244E+01 -0.82600377227E+01  0.88609425372E+01  0.51100000000E-03 0.  1.
         12    1    3    3    0    0  0.13228789687E+02 -0.25311930450E+01 -0.18518476158E+02  0.22898510302E+02  0.00000000000E+00 0. -1.
</event>
<event>
 7    1  0.4592673E-010  0.4778727E+02  0.7816164E-02  0.1312668E+00
        -11   -1    0    0    0    0  0.00000000000E+00  0.00000000000E+00  0.45593999997E+02  0.45594000000E+02  0.51100000000E-03 0.  1.
         11   -1    0    0    0    0 -0.00000000000E+00 -0.00000000000E+00 -0.45593999997E+02  0.45594000000E+02  0.51100000000E-03 0. -1.
    9900012    2    1    2    0    0  0.90709872990E+00  0.36154341001E+02 -0.23993005967E+02  0.47787268017E+02  0.19999986199E+02 0.  0.
        -12    1    1    2    0    0 -0.90709872990E+00 -0.36154341001E+02  0.23993005967E+02  0.43400731983E+02  0.00000000000E+00 0.  1.
         11    1    3    3    0    0 -0.14648254710E+01  0.58604135618E+01 -0.17749849472E+01  0.62960886746E+01  0.51100000000E-03 0. -1.
        -11    1    3    3    0    0 -0.72271609698E+01  0.18295099002E+02 -0.12154196096E+02  0.23122867171E+02  0.51100000000E-03 0.  1.
         12    1    3    3    0    0  0.95990851707E+01  0.11998828437E+02 -0.10063824924E+02  0.18368312172E+02  0.00000000000E+00 0. -1.
</event>
<event>
 7    1  0.4592673E-010  0.4778727E+02  0.7816164E-02  0.1312668E+00
        -11   -1    0    0    0    0  0.00000000000E+00  0.00000000000E+00  0.45593999997E+02  0.45594000000E+02  0.51100000000E-03 0.  1.
         11   -1    0    0    0    0 -0.00000000000E+00 -0.00000000000E+00 -0.45593999997E+02  0.45594000000E+02  0.51100000000E-03 0. -1.
    9900012    2    1    2    0    0  0.24608101580E+02 -0.15733444894E+01 -0.35715387155E+02  0.47787274708E+02  0.20000016702E+02 0.  0.
        -12    1    1    2    0    0 -0.24608101580E+02  0.15733444894E+01  0.35715387155E+02  0.43400725292E+02  0.00000000000E+00 0.  1.
         11    1    3    3    0    0  0.11917671755E+01  0.63967851628E+00 -0.53017084447E+01  0.54715272364E+01  0.51100000000E-03 0. -1.
        -11    1    3    3    0    0  0.97883576945E+01  0.22065472702E+01 -0.16324778285E+01  0.10165912715E+02  0.51100000000E-03 0.  1.
        -12    1    3    3    0    0  0.13627976710E+02 -0.44195702759E+01 -0.28781200882E+02  0.32149834756E+02  0.00000000000E+00 0.  1.
</event>
<event>
 7    1  0.4592673E-010  0.4778724E+02  0.7816164E-02  0.1312668E+00
        -11   -1    0    0    0    0  0.00000000000E+00  0.00000000000E+00  0.45593999997E+02  0.45594000000E+02  0.51100000000E-03 0. -1.
         11   -1    0    0    0    0 -0.00000000000E+00 -0.00000000000E+00 -0.45593999997E+02  0.45594000000E+02  0.51100000000E-03 0.  1.
    9900012    2    1    2    0    0 -0.10354159783E+02 -0.20834033542E+02  0.36638236317E+02  0.47787240342E+02  0.19999860015E+02 0.  0.
        -12    1    1    2    0    0  0.10354159783E+02  0.20834033542E+02 -0.36638236317E+02  0.43400759658E+02  0.00000000000E+00 0.  1.
         11    1    3    3    0    0 -0.58659876355E+01 -0.16861136601E+02  0.18742001313E+02  0.25883785502E+02  0.51100000000E-03 0. -1.
        -11    1    3    3    0    0 -0.67475469316E+01 -0.49136136897E+01  0.17547139740E+02  0.19431291836E+02  0.51100000000E-03 0.  1.
        -12    1    3    3    0    0  0.22593747845E+01  0.94071674864E+00  0.34909526406E+00  0.24721630046E+01  0.00000000000E+00 0.  1.
</event>
<event>
 7    1  0.4592673E-010  0.4778728E+02  0.7816164E-02  0.1312668E+00
        -11   -1    0    0    0    0  0.00000000000E+00  0.00000000000E+00  0.45593999997E+02  0.45594000000E+02  0.51100000000E-03 0.  1.
         11   -1    0    0    0    0 -0.00000000000E+00 -0.00000000000E+00 -0.45593999997E+02  0.45594000000E+02  0.51100000000E-03 0. -1.
    9900012    2    1    2    0    0  0.14341604981E+02 -0.11076173993E+02 -0.39436778920E+02  0.47787276558E+02  0.20000025138E+02 0.  0.
        -12    1    1    2    0    0 -0.14341604981E+02  0.11076173993E+02  0.39436778920E+02  0.43400723442E+02  0.00000000000E+00 0.  1.
         11    1    3    3    0    0 -0.28401744366E+01 -0.33878519638E+01 -0.33132068356E+01  0.55246241098E+01  0.51100000000E-03 0. -1.
        -11    1    3    3    0    0  0.17771619686E+01  0.23027067727E+01 -0.20552527130E+01  0.35615764935E+01  0.51100000000E-03 0.  1.
         12    1    3    3    0    0  0.15404617449E+02 -0.99910288016E+01 -0.34068319371E+02  0.38701075954E+02  0.00000000000E+00 0. -1.
</event>
<event>
 7    1  0.4592673E-010  0.4778728E+02  0.7816164E-02  0.1312668E+00
        -11   -1    0    0    0    0  0.00000000000E+00  0.00000000000E+00  0.45593999997E+02  0.45594000000E+02  0.51100000000E-03 0.  1.
         11   -1    0    0    0    0 -0.00000000000E+00 -0.00000000000E+00 -0.45593999997E+02  0.45594000000E+02  0.51100000000E-03 0. -1.
    9900012    2    1    2    0    0 -0.42144874438E+02 -0.48753283206E+01  0.91467811418E+01  0.47787275664E+02  0.20000021061E+02 0.  0.
        -12    1    1    2    0    0  0.42144874438E+02  0.48753283206E+01 -0.91467811418E+01  0.43400724336E+02  0.00000000000E+00 0.  1.
         11    1    3    3    0    0 -0.21883459966E+02 -0.89397404422E+01  0.22773952213E+01  0.23748501185E+02  0.51100000000E-03 0. -1.
        -11    1    3    3    0    0 -0.82762245535E+01  0.22353014312E+01 -0.22556532229E+01  0.88645607376E+01  0.51100000000E-03 0.  1.
        -12    1    3    3    0    0 -0.11985189919E+02  0.18291106904E+01  0.91250391434E+01  0.15174213741E+02  0.00000000000E+00 0.  1.
</event>
<event>
 7    1  0.4592673E-010  0.4778727E+02  0.7816164E-02  0.1312668E+00
        -11   -1    0    0    0    0  0.00000000000E+00  0.00000000000E+00  0.45593999997E+02  0.45594000000E+02  0.51100000000E-03 0. -1.
         11   -1    0    0    0    0 -0.00000000000E+00 -0.00000000000E+00 -0.45593999997E+02  0.45594000000E+02  0.51100000000E-03 0.  1.
    9900012    2    1    2    0    0  0.37696783751E+02  0.11558563665E+02 -0.18137686769E+02  0.47787267512E+02  0.19999983895E+02 0.  0.
        -12    1    1    2    0    0 -0.37696783751E+02 -0.11558563665E+02  0.18137686769E+02  0.43400732488E+02  0.00000000000E+00 0.  1.
         11    1    3    3    0    0  0.21550963427E+02  0.10884683994E+02 -0.49723156317E+01  0.24650442051E+02  0.51100000000E-03 0. -1.
        -11    1    3    3    0    0  0.44070388827E+01 -0.11811880997E+01  0.97488367265E+00  0.46655755783E+01  0.51100000000E-03 0.  1.
        -12    1    3    3    0    0  0.11738781441E+02  0.18550677710E+01 -0.14140254810E+02  0.18471249883E+02  0.00000000000E+00 0.  1.
</event>
<event>
 7    1  0.4592673E-010  0.4778727E+02  0.7816164E-02  0.1312668E+00
        -11   -1    0    0    0    0  0.00000000000E+00  0.00000000000E+00  0.45593999997E+02  0.45594000000E+02  0.51100000000E-03 0.  1.
         11   -1    0    0    0    0 -0.00000000000E+00 -0.00000000000E+00 -0.45593999997E+02  0.45594000000E+02  0.51100000000E-03 0. -1.
    9900012    2    1    2    0    0 -0.10151762335E+01  0.11823020280E+02 -0.41746966931E+02  0.47787266834E+02  0.19999980805E+02 0.  0.
        -12    1    1    2    0    0  0.10151762335E+01 -0.11823020280E+02  0.41746966931E+02  0.43400733166E+02  0.00000000000E+00 0.  1.
         11    1    3    3    0    0  0.70849975195E+01  0.79478484480E+00 -0.12337319399E+02  0.14249151659E+02  0.51100000000E-03 0. -1.
        -11    1    3    3    0    0 -0.10556594510E+01  0.79482776949E+00  0.28278162329E+00  0.13513451696E+01  0.51100000000E-03 0.  1.
        -12    1    3    3    0    0 -0.70445143020E+01  0.10233407666E+02 -0.29692429156E+02  0.32186770006E+02  0.00000000000E+00 0.  1.
</event>
<event>
 7    1  0.4592673E-010  0.4778727E+02  0.7816164E-02  0.1312668E+00
        -11   -1    0    0    0    0  0.00000000000E+00  0.00000000000E+00  0.45593999997E+02  0.45594000000E+02  0.51100000000E-03 0.  1.
         11   -1    0    0    0    0 -0.00000000000E+00 -0.00000000000E+00 -0.45593999997E+02  0.45594000000E+02  0.51100000000E-03 0. -1.
    9900012    2    1    2    0    0  0.42331171845E+02  0.81614489989E+01 -0.50085798479E+01  0.47787271531E+02  0.20000002217E+02 0.  0.
        -12    1    1    2    0    0 -0.42331171845E+02 -0.81614489989E+01  0.50085798479E+01  0.43400728469E+02  0.00000000000E+00 0.  1.
         11    1    3    3    0    0  0.16122435501E+01  0.27495956964E+01 -0.46035024545E+01  0.55992714586E+01  0.51100000000E-03 0. -1.
        -11    1    3    3    0    0  0.51937936682E+01 -0.10521546896E+01 -0.28125319011E+01  0.59994048134E+01  0.51100000000E-03 0.  1.
         12    1    3    3    0    0  0.35525134627E+02  0.64640079922E+01  0.24074545077E+01  0.36188595259E+02  0.00000000000E+00 0. -1.
</event>
<event>
 7    1  0.4592673E-010  0.4778728E+02  0.7816164E-02  0.1312668E+00
        -11   -1    0    0    0    0  0.00000000000E+00  0.00000000000E+00  0.45593999997E+02  0.45594000000E+02  0.51100000000E-03 0.  1.
         11   -1    0    0    0    0 -0.00000000000E+00 -0.00000000000E+00 -0.45593999997E+02  0.45594000000E+02  0.51100000000E-03 0. -1.
    9900012    2    1    2    0    0 -0.32306032506E+02 -0.23632639411E+02 -0.16776210945E+02  0.47787278399E+02  0.20000033533E+02 0.  0.
        -12    1    1    2    0    0  0.32306032506E+02  0.23632639411E+02  0.16776210945E+02  0.43400721601E+02  0.00000000000E+00 0.  1.
         11    1    3    3    0    0 -0.63286651563E+01  0.13650212973E+01 -0.34804005125E+01  0.73504063692E+01  0.51100000000E-03 0. -1.
        -11    1    3    3    0    0  0.85397965784E+00 -0.31960628996E+01  0.22277371786E+00  0.33156790714E+01  0.51100000000E-03 0.  1.
         12    1    3    3    0    0 -0.26831347007E+02 -0.21801597809E+02 -0.13518584150E+02  0.37121192959E+02  0.00000000000E+00 0. -1.
</event>
<event>
 7    1  0.4592673E-010  0.4778727E+02  0.7816164E-02  0.1312668E+00
        -11   -1    0    0    0    0  0.00000000000E+00  0.00000000000E+00  0.45593999997E+02  0.45594000000E+02  0.51100000000E-03 0.  1.
         11   -1    0    0    0    0 -0.00000000000E+00 -0.00000000000E+00 -0.45593999997E+02  0.45594000000E+02  0.51100000000E-03 0. -1.
    9900012    2    1    2    0    0 -0.32507108560E+01  0.25780987078E+02 -0.34762010359E+02  0.47787265214E+02  0.19999973415E+02 0.  0.
        -12    1    1    2    0    0  0.32507108560E+01 -0.25780987078E+02  0.34762010359E+02  0.43400734786E+02  0.00000000000E+00 0.  1.
         11    1    3    3    0    0 -0.12637841826E+01 -0.12610538214E+01 -0.11628472543E+02  0.11764726140E+02  0.51100000000E-03 0. -1.
        -11    1    3    3    0    0  0.17843075946E+01  0.75680118374E+01 -0.66776974389E+01  0.10249399988E+02  0.51100000000E-03 0.  1.
        -12    1    3    3    0    0 -0.37712342680E+01  0.19474029062E+02 -0.16455840377E+02  0.25773139086E+02  0.00000000000E+00 0.  1.
</event>
<event>
 7    1  0.4592673E-010  0.4778727E+02  0.7816164E-02  0.1312668E+00
        -11   -1    0    0    0    0  0.00000000000E+00  0.00000000000E+00  0.45593999997E+02  0.45594000000E+02  0.51100000000E-03 0.  1.
         11   -1    0    0    0    0 -0.00000000000E+00 -0.00000000000E+00 -0.45593999997E+02  0.45594000000E+02  0.51100000000E-03 0. -1.
    9900012    2    1    2    0    0  0.17317950441E+02  0.17648095195E+02 -0.35668707784E+02  0.47787269747E+02  0.19999994085E+02 0.  0.
        -12    1    1    2    0    0 -0.17317950441E+02 -0.17648095195E+02  0.35668707784E+02  0.43400730253E+02  0.00000000000E+00 0.  1.
         11    1    3    3    0    0  0.17291260024E+02  0.92409456177E+01 -0.25908772593E+02  0.32490725548E+02  0.51100000000E-03 0. -1.
        -11    1    3    3    0    0  0.35934364791E+01  0.65358999130E+01 -0.78849041416E+01  0.10853685410E+02  0.51100000000E-03 0.  1.
        -12    1    3    3    0    0 -0.35667460622E+01  0.18712496645E+01 -0.18750310498E+01  0.44428587887E+01  0.00000000000E+00 0.  1.
</event>
<event>
 7    1  0.4592673E-010  0.4778728E+02  0.7816164E-02  0.1312668E+00
        -11   -1    0    0    0    0  0.00000000000E+00  0.00000000000E+00  0.45593999997E+02  0.45594000000E+02  0.51100000000E-03 0. -1.
         11   -1    0    0    0    0 -0.00000000000E+00 -0.00000000000E+00 -0.45593999997E+02  0.45594000000E+02  0.51100000000E-03 0.  1.
    9900012    2    1    2    0    0 -0.89740178114E+01  0.27707233647E+02  0.32177613227E+02  0.47787278980E+02  0.20000036182E+02 0.  0.
        -12    1    1    2    0    0  0.89740178114E+01 -0.27707233647E+02 -0.32177613227E+02  0.43400721020E+02  0.00000000000E+00 0.  1.
         11    1    3    3    0    0  0.10097149215E+01 -0.11814227833E+01  0.60554470288E+01  0.62516976091E+01  0.51100000000E-03 0. -1.
        -11    1    3    3    0    0 -0.42099578000E+01  0.17735704511E+01  0.38450674224E+01  0.59710837012E+01  0.51100000000E-03 0.  1.
         12    1    3    3    0    0 -0.57737749330E+01  0.27115085979E+02  0.22277098776E+02  0.35564497670E+02  0.00000000000E+00 0. -1.
</event>
<event>
 7    1  0.6356374E-010  0.4778727E+02  0.7816164E-02  0.1312668E+00
        -11   -1    0    0    0    0  0.00000000000E+00  0.00000000000E+00  0.45593999997E+02  0.45594000000E+02  0.51100000000E-03 0. -1.
         11   -1    0    0    0    0 -0.00000000000E+00 -0.00000000000E+00 -0.45593999997E+02  0.45594000000E+02  0.51100000000E-03 0.  1.
    9900012    2    1    2    0    0 -0.12650807753E+02 -0.97431831133E+00  0.41504590169E+02  0.47787271457E+02  0.20000001881E+02 0.  0.
        -12    1    1    2    0    0  0.12650807753E+02  0.97431831133E+00 -0.41504590169E+02  0.43400728543E+02  0.00000000000E+00 0.  1.
         11    1    3    3    0    0 -0.89085653665E+01 -0.87040377229E+00  0.21190157305E+02  0.23003106453E+02  0.51100000000E-03 0. -1.
        -11    1    3    3    0    0 -0.36360417534E+01  0.65609043281E+01  0.99353500641E+01  0.12448993790E+02  0.51100000000E-03 0.  1.
        -12    1    3    3    0    0 -0.10620063331E+00 -0.66648188672E+01  0.10379082800E+02  0.12335171214E+02  0.00000000000E+00 0.  1.
</event>
<event>
 7    1  0.4592673E-010  0.4778727E+02  0.7816164E-02  0.1312668E+00
        -11   -1    0    0    0    0  0.00000000000E+00  0.00000000000E+00  0.45593999997E+02  0.45594000000E+02  0.51100000000E-03 0.  1.
         11   -1    0    0    0    0 -0.00000000000E+00 -0.00000000000E+00 -0.45593999997E+02  0.45594000000E+02  0.51100000000E-03 0. -1.
    9900012    2    1    2    0    0 -0.37124595659E+01 -0.13819535251E+02 -0.40973908223E+02  0.47787273444E+02  0.20000010939E+02 0.  0.
        -12    1    1    2    0    0  0.37124595659E+01  0.13819535251E+02  0.40973908223E+02  0.43400726556E+02  0.00000000000E+00 0.  1.
         11    1    3    3    0    0 -0.11336165589E+02 -0.11999856299E+02 -0.30401868706E+02  0.34594491217E+02  0.51100000000E-03 0. -1.
        -11    1    3    3    0    0  0.25979541603E+01 -0.49265412096E+00 -0.28875108091E+01  0.39153279346E+01  0.51100000000E-03 0.  1.
         12    1    3    3    0    0  0.50257518630E+01 -0.13270248306E+01 -0.76845287076E+01  0.92774542924E+01  0.00000000000E+00 0. -1.
</event>
<event>
 7    1  0.4592673E-010  0.4778727E+02  0.7816164E-02  0.1312668E+00
        -11   -1    0    0    0    0  0.00000000000E+00  0.00000000000E+00  0.45593999997E+02  0.45594000000E+02  0.51100000000E-03 0. -1.
         11   -1    0    0    0    0 -0.00000000000E+00 -0.00000000000E+00 -0.45593999997E+02  0.45594000000E+02  0.51100000000E-03 0.  1.
    9900012    2    1    2    0    0 -0.28950650188E+01  0.34813321083E+02  0.25754114081E+02  0.47787272836E+02  0.20000008170E+02 0.  0.
        -12    1    1    2    0    0  0.28950650188E+01 -0.34813321083E+02 -0.25754114081E+02  0.43400727164E+02  0.00000000000E+00 0.  1.
         11    1    3    3    0    0  0.75065565879E+00  0.17436930824E+02  0.56993825799E+01  0.18360092661E+02  0.51100000000E-03 0.  1.
        -11    1    3    3    0    0  0.39138268510E+00  0.34837331372E+01 -0.12092022690E+01  0.37083348508E+01  0.51100000000E-03 0. -1.
        -12    1    3    3    0    0 -0.40371033627E+01  0.13892657121E+02  0.21263933770E+02  0.25718845324E+02  0.00000000000E+00 0.  1.
</event>
<event>
 7    1  0.4592673E-010  0.4778727E+02  0.7816164E-02  0.1312668E+00
        -11   -1    0    0    0    0  0.00000000000E+00  0.00000000000E+00  0.45593999997E+02  0.45594000000E+02  0.51100000000E-03 0.  1.
         11   -1    0    0    0    0 -0.00000000000E+00 -0.00000000000E+00 -0.45593999997E+02  0.45594000000E+02  0.51100000000E-03 0. -1.
    9900012    2    1    2    0    0  0.24303703096E+02 -0.90359104588E+01 -0.34803814240E+02  0.47787272499E+02  0.20000006630E+02 0.  0.
        -12    1    1    2    0    0 -0.24303703096E+02  0.90359104588E+01  0.34803814240E+02  0.43400727501E+02  0.00000000000E+00 0.  1.
         11    1    3    3    0    0  0.40979624903E+01  0.23447269062E+01 -0.16735701039E+02  0.17388925510E+02  0.51100000000E-03 0. -1.
        -11    1    3    3    0    0  0.95398388019E+01 -0.26498470948E+01 -0.39281578150E+01  0.10651790369E+02  0.51100000000E-03 0.  1.
        -12    1    3    3    0    0  0.10665901804E+02 -0.87307902701E+01 -0.14139955386E+02  0.19746556620E+02  0.00000000000E+00 0.  1.
</event>
